Written by MDAnalysis
24181
    1CHTO  H203    1   5.760   7.049   2.040  1.1215 -1.6409  0.4555
    1CHTO   O82    2   5.805   7.112   2.094 -0.2212 -0.1083 -0.1963
    1CHTO  C123    3   5.942   7.072   2.120  0.3777  0.0076  0.6224
    1CHTO  H227    4   5.985   7.146   2.188  1.3268  0.2025 -0.1904
    1CHTO   O77    5   5.920   6.937   2.191 -0.5281 -0.4292 -0.4584
    1CHTO  C118    6   6.042   6.893   2.241  0.2916  0.0273  0.6916
    1CHTO  H222    7   6.097   6.972   2.295 -1.4723  1.4981  0.3947
    1CHTO  C125    8   6.014   6.774   2.340 -0.4588  0.5821 -0.3075
    1CHTO   O84    9   6.135   6.732   2.406 -0.0040 -0.2259 -0.7470
    1CHTO  H205   10   6.106   6.657   2.454 -1.2426  0.5073 -0.3404
    1CHTO  C114   11   6.123   6.841   2.117  0.2735  0.0577 -1.0933
    1CHTO  H218   12   6.054   6.781   2.057 -1.2914  0.9082 -0.1829
    1CHTO  C116   13   6.165   6.972   2.034  0.0523  0.2456  0.0901
    1CHTO  H220   14   6.241   7.043   2.075  1.3097  2.1616 -5.1660
    1CHTO   O79   15   6.240   6.928   1.920  0.4196  0.4648 -0.1578
    1CHTO  H201   16   6.265   7.001   1.867 -0.4084  0.2563 -0.8315
    1CHTO  C120   17   6.033   7.056   1.989 -0.1190 -0.0755 -0.3266
    1CHTO  H224   18   5.981   6.992   1.915 -0.4855 -0.2893  0.1130
    1CHTO   N21   19   6.066   7.181   1.922 -0.3909 -0.7913 -0.2720
    1CHTO  H211   20   6.084   7.150   1.821  1.6799  0.4923 -0.3146
    1CHTO  H212   21   5.989   7.257   1.928  0.1623 -0.4102  2.9793
    1CHTO   O75   22   6.231   6.769   2.169  0.0219  0.3957 -0.0356
    1CHTO  C112   23   6.267   6.619   2.117  0.3551  0.2642  0.3078
    1CHTO  H216   24   6.262   6.610   2.007  0.2671  1.4375  0.2055
    1CHTO   O73   25   6.176   6.526   2.183  0.5862  0.4942 -0.1180
    1CHTO  C113   26   6.181   6.395   2.137 -0.0357 -0.7720  0.1328
    1CHTO  H217   27   6.166   6.383   2.028  0.2877 -0.3182  0.0367
    1CHTO  C124   28   6.071   6.319   2.208  0.2823 -0.3053  0.4857
    1CHTO   O83   29   6.036   6.355   2.342  0.2665  0.0166  0.4171
    1CHTO  H204   30   5.995   6.286   2.390  2.5322 -2.0073 -0.4647
    1CHTO  C109   31   6.319   6.334   2.181  0.9266  0.3884  0.6064
    1CHTO  H213   32   6.320   6.329   2.290 -2.5882 -0.9360  0.6705
    1CHTO  C110   33   6.438   6.432   2.139  0.3096  0.2614 -0.1131
    1CHTO  H214   34   6.464   6.413   2.035  1.0025 -0.9897  0.2910
    1CHTO   O78   35   6.553   6.389   2.216  0.4231  0.0872  0.6618
    1CHTO  H200   36   6.634   6.423   2.184  0.3407 -1.4224 -1.2926
    1CHTO  C111   37   6.410   6.584   2.160 -0.0553 -0.8761  0.6189
    1CHTO  H215   38   6.425   6.609   2.266 -2.9990 -0.0312  0.8625
    1CHTO   N19   39   6.511   6.667   2.084  0.4889  0.0678 -0.0209
    1CHTO  H207   40   6.551   6.731   2.161  0.6328 -1.2337  1.0235
    1CHTO  H208   41   6.579   6.600   2.034  0.3078  1.6209 -2.3900
    1CHTO   O74   42   6.343   6.195   2.129 -0.1075  0.2160  0.2621
    1CHTO  C115   43   6.444   6.101   2.232  0.7058 -0.0921 -0.5397
    1CHTO  H219   44   6.477   6.154   2.321 -1.9361  0.2653  0.2619
    1CHTO   O76   45   6.362   5.977   2.293 -0.3526 -0.2771 -1.1116
    1CHTO  C122   46   6.310   5.888   2.201 -0.3001  0.3091  0.0204
    1CHTO  H226   47   6.212   5.913   2.162 -0.3489 -2.4407 -1.7488
    1CHTO  C126   48   6.283   5.751   2.268  0.6510 -0.1303 -0.2201
    1CHTO   O85   49   6.176   5.751   2.366 -0.1667  0.1927 -0.2699
    1CHTO  H206   50   6.098   5.743   2.315 -0.4201  0.3535  0.0865
    1CHTO  C121   51   6.398   5.857   2.072  0.4789  0.1331 -0.3038
    1CHTO  H225   52   6.401   5.747   2.060  0.0188 -0.0151  0.8277
    1CHTO   O81   53   6.332   5.919   1.958 -0.4926 -0.6519  0.0808
    1CHTO  H202   54   6.385   5.892   1.886 -0.3916  0.5816 -0.3113
    1CHTO  C119   55   6.550   5.908   2.078  0.0394 -0.0263 -0.7822
    1CHTO  H223   56   6.602   5.849   2.154 -1.5695  0.5556  0.8093
    1CHTO  C117   57   6.565   6.056   2.135 -0.1637  0.6242  0.1855
    1CHTO  H221   58   6.559   6.134   2.059 -0.0520 -0.6474 -1.1440
    1CHTO   N20   59   6.691   6.084   2.202 -0.0299  0.4634 -0.2362
    1CHTO  H209   60   6.700   6.191   2.215 -0.7240  0.5087 -0.1413
    1CHTO  H210   61   6.686   6.030   2.295  1.5896  0.5534 -0.0698
    1CHTO   O80   62   6.641   5.893   1.945 -0.4103  0.1827 -0.1475
    1CHTO  C103   63   6.675   5.757   1.896 -0.0308 -0.2977  0.2979
    1CHTO  H190   64   6.627   5.683   1.961 -1.0073 -0.6382 -0.7958
    1CHTO  C101   65   6.650   5.726   1.743  0.4237 -0.9447 -0.5395
    1CHTO  H188   66   6.696   5.809   1.689 -0.3789 -0.0225  0.1729
    1CHTO   O68   67   6.489   5.740   1.712  0.2988  0.0365  0.9413
    1CHTO  H168   68   6.467   5.789   1.635 -2.1547 -2.0665  0.2129
    1CHTO   C99   69   6.710   5.586   1.714 -0.1338  0.2941 -0.0914
    1CHTO  H186   70   6.677   5.510   1.788 -0.5302  0.4829 -0.0729
    1CHTO   N17   71   6.662   5.519   1.585 -0.3452 -0.0668  0.2963
    1CHTO  H174   72   6.716   5.572   1.508 -0.9470 -0.9700 -0.7603
    1CHTO  H175   73   6.682   5.413   1.597  0.0497  0.0029  0.2401
    1CHTO   C97   74   6.865   5.592   1.737  0.5900 -0.3945 -0.1885
    1CHTO  H184   75   6.898   5.673   1.670  2.0157 -1.4976 -0.8441
    1CHTO   O64   76   6.892   5.621   1.875 -0.2152 -0.2455 -0.7821
    1CHTO  C104   77   6.834   5.743   1.924 -0.3042  0.2252 -0.6710
    1CHTO  H191   78   6.888   5.830   1.887 -0.2682  0.9270  0.9908
    1CHTO  C108   79   6.863   5.746   2.075 -0.2758  0.2544  0.0246
    1CHTO   O71   80   6.835   5.623   2.137 -0.4531 -0.5739  0.6000
    1CHTO  H171   81   6.747   5.622   2.172  0.7405 -0.9089  3.7862
    1CHTO   O62   82   6.933   5.466   1.704  0.4182  0.2013  0.4558
    1CHTO   C91   83   7.069   5.471   1.671 -0.2975 -0.6878 -0.9660
    1CHTO  H178   84   7.099   5.575   1.665 -0.8778 -0.4163  0.4880
    1CHTO   C92   85   7.093   5.405   1.533  0.6995  0.1449  0.1741
    1CHTO  H179   86   7.004   5.425   1.472 -0.6728 -3.4103  0.8778
    1CHTO   O66   87   7.214   5.464   1.476 -0.0683  0.9021 -0.0164
    1CHTO  H166   88   7.201   5.554   1.454  0.5368  1.1190  0.5172
    1CHTO   C93   89   7.118   5.248   1.540  0.2655 -0.0786 -0.0801
    1CHTO  H180   90   7.136   5.216   1.436  0.3021 -0.8209  0.1553
    1CHTO   N16   91   6.992   5.179   1.581 -0.0031 -0.3717  0.9423
    1CHTO  H172   92   7.009   5.076   1.606  1.3789 -0.4750 -0.3248
    1CHTO  H173   93   6.933   5.231   1.655 -1.6103  3.5725 -2.8608
    1CHTO   C94   94   7.249   5.217   1.629 -0.6107 -0.3529 -0.7120
    1CHTO  H181   95   7.231   5.137   1.702  0.1506  0.7789  0.7413
    1CHTO   O61   96   7.274   5.329   1.721  0.1242  0.4813 -0.3358
    1CHTO   C95   97   7.174   5.403   1.788  0.5432  0.1943 -0.0076
    1CHTO  H182   98   7.109   5.337   1.845  1.4285  0.1290  0.9321
    1CHTO  C106   99   7.231   5.513   1.877 -0.5454  0.2725 -0.4620
    1CHTO   O69  100   7.303   5.454   1.981 -0.1597 -0.0173  0.4384
    1CHTO  H169  101   7.381   5.417   1.945 -1.0074 -1.4740  0.0707
    1CHTO   O63  102   7.355   5.195   1.552 -0.6241  0.2854  0.1580
    1CHTO   C96  103   7.484   5.128   1.639 -0.2880 -0.1063 -0.0869
    1CHTO  H183  104   7.448   5.092   1.736  0.3766  2.0925  1.0025
    1CHTO   C98  105   7.592   5.231   1.679  0.7681 -0.1271  0.5413
    1CHTO  H185  106   7.551   5.324   1.720 -1.5655 -0.3708 -1.1355
    1CHTO   O67  107   7.681   5.184   1.780  0.3769 -0.2696  1.2766
    1CHTO  H167  108   7.635   5.191   1.862 -0.0345  0.4414  0.9889
    1CHTO  C102  109   7.682   5.272   1.546  0.1588  0.5526 -0.0847
    1CHTO  H189  110   7.769   5.323   1.591 -0.6070  0.9352  0.9825
    1CHTO   N18  111   7.623   5.369   1.454 -0.4411 -0.4351  0.1404
    1CHTO  H176  112   7.662   5.349   1.355  3.0210 -2.1335  1.7560
    1CHTO  H177  113   7.516   5.361   1.449 -0.5698  1.0982  0.2691
    1CHTO  C105  114   7.721   5.138   1.474 -0.7012  0.3491  0.5287
    1CHTO  H192  115   7.683   5.142   1.372  0.7478  2.3348  0.0259
    1CHTO   O65  116   7.685   5.016   1.540 -0.1997  0.3267 -0.2134
    1CHTO  C100  117   7.542   5.004   1.562 -0.4957 -0.2572  0.2286
    1CHTO  H187  118   7.496   4.995   1.462  3.8407  2.0825 -2.1237
    1CHTO  C107  119   7.509   4.864   1.630  0.5068 -0.0968  0.3667
    1CHTO   O70  120   7.577   4.752   1.575 -0.1239  0.2243  0.3487
    1CHTO  H170  121   7.542   4.668   1.598 -0.9233  0.0675 -1.3829
    1CHTO   O57  122   7.870   5.142   1.460 -0.0089 -0.4956  0.3261
    1CHTO   C85  123   7.939   5.058   1.368 -0.4528 -1.7854  0.7914
    1CHTO  H157  124   7.856   5.046   1.296  1.7870  1.0277 -2.3762
    1CHTO   C83  125   7.973   4.923   1.441  0.2067 -0.9791 -0.4604
    1CHTO  H155  126   7.882   4.872   1.470 -0.6209  0.5909 -0.2313
    1CHTO   O56  127   8.035   4.943   1.567 -0.1005  0.1397  0.2966
    1CHTO  H135  128   8.128   4.956   1.566  0.0540 -0.8018  1.0528
    1CHTO   C81  129   8.039   4.835   1.327 -0.0156  0.3116 -0.5512
    1CHTO  H153  130   7.961   4.826   1.251 -1.3372  2.6828  0.4443
    1CHTO   N14  131   8.048   4.695   1.367 -0.1049  0.2217 -0.2671
    1CHTO  H141  132   7.960   4.641   1.395  2.2809 -2.8430  1.7301
    1CHTO  H142  133   8.118   4.683   1.447  1.6600 -1.3624 -1.9886
    1CHTO   C79  134   8.172   4.898   1.268  0.2930  0.2384  0.2731
    1CHTO  H151  135   8.205   4.833   1.186  2.4155  2.2890 -0.5508
    1CHTO   O52  136   8.144   5.031   1.215 -0.0647  0.3047 -0.3620
    1CHTO   C86  137   8.066   5.126   1.297 -0.5042  0.1059 -0.3634
    1CHTO  H158  138   8.130   5.183   1.368 -2.2014 -0.7733  1.9339
    1CHTO   C90  139   8.019   5.234   1.196 -0.1791  0.1416  0.5490
    1CHTO   O60  140   8.137   5.303   1.154 -0.1439  0.8749  0.3131
    1CHTO  H138  141   8.168   5.274   1.071  0.3035  1.5886  0.2285
    1CHTO   O50  142   8.291   4.897   1.354  0.0672 -0.4547  0.2483
    1CHTO   C73  143   8.426   4.890   1.401  0.6038  0.0700  0.4730
    1CHTO  H145  144   8.499   4.900   1.320  1.2206 -1.2172  0.8576
    1CHTO   C74  145   8.465   4.751   1.466 -0.6297  0.5019  0.1148
    1CHTO  H146  146   8.443   4.673   1.392  1.5432 -1.6254  1.6194
    1CHTO   O54  147   8.611   4.743   1.490 -0.5774 -0.2611  0.1083
    1CHTO  H133  148   8.639   4.832   1.495 -2.5531  0.4111 -0.3594
    1CHTO   C75  149   8.376   4.732   1.591  0.8917  0.8708  0.3209
    1CHTO  H147  150   8.272   4.742   1.555  1.3863  0.6308 -1.1820
    1CHTO   N13  151   8.393   4.605   1.661 -0.3075  0.3313  0.1713
    1CHTO  H139  152   8.479   4.606   1.727 -0.9904 -0.4712  1.0941
    1CHTO  H140  153   8.315   4.605   1.736  0.6016  2.0021  1.1439
    1CHTO   C76  154   8.389   4.859   1.689 -0.4589 -0.2019 -0.0518
    1CHTO  H148  155   8.488   4.861   1.734 -0.1415  1.3390 -0.7771
    1CHTO   O49  156   8.367   4.991   1.621 -0.0835 -0.2295 -0.2123
    1CHTO   C77  157   8.440   5.011   1.500 -0.2266  0.3948 -0.1058
    1CHTO  H149  158   8.546   5.027   1.518  0.3513  0.2855 -3.1290
    1CHTO   C88  159   8.397   5.150   1.436  0.3424  0.0222  0.4772
    1CHTO   O58  160   8.499   5.178   1.331  0.3840 -0.1188 -0.6088
    1CHTO  H136  161   8.463   5.180   1.245 -1.0060  0.0370 -0.0297
    1CHTO   O51  162   8.264   4.862   1.775 -0.6812 -0.0298  0.5285
    1CHTO   C78  163   8.292   4.959   1.905 -0.0051  0.4536 -0.2992
    1CHTO  H150  164   8.379   5.028   1.902 -0.2262  0.7321 -0.2789
    1CHTO   C80  165   8.306   4.863   2.022 -0.8787  0.2920  0.3524
    1CHTO  H152  166   8.225   4.788   2.020  1.5401 -2.4071  0.1310
    1CHTO   O55  167   8.428   4.781   1.995 -0.2704  0.1346  0.1087
    1CHTO  H134  168   8.499   4.821   2.041  0.1329  0.0759 -0.4660
    1CHTO   C84  169   8.302   4.941   2.160 -0.0107  0.4244 -0.7523
    1CHTO  H156  170   8.390   5.006   2.159  0.1501  0.2066 -2.7200
    1CHTO   N15  171   8.313   4.859   2.284  0.8586 -0.0616 -0.0091
    1CHTO  H143  172   8.271   4.762   2.266 -1.7868  0.6684  1.9027
    1CHTO  H144  173   8.416   4.842   2.307  0.1248 -2.6179  1.6193
    1CHTO   C87  174   8.176   5.037   2.167 -0.8617  0.5006 -0.6570
    1CHTO  H159  175   8.090   4.975   2.191 -1.1081 -0.1371 -3.0481
    1CHTO   O53  176   8.163   5.116   2.050 -0.1555 -0.7648 -0.4967
    1CHTO   C82  177   8.165   5.041   1.928  0.2273 -0.4152 -0.7292
    1CHTO  H154  178   8.082   4.972   1.928 -0.3624  0.2842 -1.2061
    1CHTO   C89  179   8.132   5.147   1.818 -0.2717 -0.0746 -0.5182
    1CHTO   O59  180   7.993   5.171   1.818  0.1152 -0.1968 -0.6846
    1CHTO  H137  181   7.977   5.209   1.902  0.5656  0.7435 -1.0171
    1CHTO   O45  182   8.206   5.138   2.295  0.1362  0.8456 -0.3586
    1CHTO   C67  183   8.113   5.243   2.313  0.2300 -1.1889 -0.0853
    1CHTO  H124  184   8.121   5.311   2.229 -1.1952  0.3176  0.9506
    1CHTO   C65  185   7.965   5.200   2.327  0.1282 -0.9052  0.3384
    1CHTO  H122  186   7.974   5.099   2.368 -0.3280 -0.9952  0.2261
    1CHTO   O44  187   7.911   5.200   2.195 -0.1355  0.2432 -0.4874
    1CHTO  H102  188   7.891   5.112   2.166 -0.6547 -1.3801  4.3210
    1CHTO   C63  189   7.891   5.274   2.446  0.3182 -0.1642 -0.1879
    1CHTO  H120  190   7.923   5.236   2.543  1.4010  0.4409 -0.3008
    1CHTO   N11  191   7.743   5.257   2.454  0.3231 -1.2827 -0.3682
    1CHTO  H108  192   7.687   5.344   2.428  0.2122 -1.4936 -0.8427
    1CHTO  H109  193   7.711   5.232   2.552 -2.0728  0.9228 -0.5401
    1CHTO   C61  194   7.936   5.421   2.437 -0.5842 -0.7950 -0.4422
    1CHTO  H118  195   7.877   5.468   2.517  1.8340  0.7375  0.5015
    1CHTO   O40  196   8.080   5.439   2.468  0.0580  0.5713 -0.7161
    1CHTO   C68  197   8.166   5.326   2.437  0.3153 -0.1723 -0.0399
    1CHTO  H125  198   8.171   5.271   2.534  2.6206  1.0186  0.5556
    1CHTO   C72  199   8.310   5.375   2.407  0.2211  0.1113  0.3227
    1CHTO   O48  200   8.356   5.437   2.529  0.1103  0.4316 -0.3507
    1CHTO  H105  201   8.429   5.494   2.514  2.0141 -2.1761 -1.4011
    1CHTO   O38  202   7.904   5.497   2.317 -0.0387  0.0679 -0.1099
    1CHTO   C55  203   7.848   5.628   2.318 -0.2761  0.4549 -0.0028
    1CHTO  H112  204   7.869   5.686   2.409  1.1143 -0.1801  0.0871
    1CHTO   C56  205   7.694   5.633   2.276  0.0721  0.8293 -0.1330
    1CHTO  H113  206   7.677   5.602   2.172  0.7846  1.3522 -0.4092
    1CHTO   O42  207   7.615   5.554   2.361 -0.1187 -0.0428 -0.3642
    1CHTO  H100  208   7.614   5.581   2.451  0.0719  0.6572 -0.5711
    1CHTO   C57  209   7.635   5.778   2.289  0.0574  0.0012 -0.0012
    1CHTO  H114  210   7.629   5.807   2.394 -0.8150  1.5515 -0.4515
    1CHTO   N10  211   7.502   5.806   2.241  0.4373  0.2857 -0.1709
    1CHTO  H106  212   7.505   5.847   2.141 -1.3927 -1.6458 -1.0579
    1CHTO  H107  213   7.446   5.876   2.302 -0.4946  0.5916 -1.3523
    1CHTO   C58  214   7.733   5.881   2.221 -0.2066  0.2655  0.5707
    1CHTO  H115  215   7.716   5.894   2.112 -0.8588  0.3347  0.6754
    1CHTO   O37  216   7.874   5.850   2.228 -0.3913 -0.2557 -0.8113
    1CHTO   C59  217   7.920   5.716   2.209  0.5590 -0.4399 -0.3116
    1CHTO  H116  218   7.908   5.678   2.107  1.4649  0.3579 -0.7258
    1CHTO   C70  219   8.075   5.709   2.216  0.5620 -0.1979 -0.5162
    1CHTO   O46  220   8.133   5.588   2.165 -0.2741  0.7171  0.5610
    1CHTO  H103  221   8.117   5.514   2.220 -1.3244  0.3669 -0.1985
    1CHTO   O39  222   7.718   6.025   2.312  0.3364  0.3330  0.1492
    1CHTO   C60  223   7.670   6.140   2.243 -0.6950  0.2935 -0.5434
    1CHTO  H117  224   7.676   6.126   2.135  2.1527 -3.0204 -0.0534
    1CHTO   C62  225   7.529   6.184   2.279  0.3367 -0.0603  0.7850
    1CHTO  H119  226   7.469   6.097   2.245 -0.8220  0.6099  1.0883
    1CHTO   O43  227   7.520   6.195   2.417  0.0572  0.1954 -0.1802
    1CHTO  H101  228   7.555   6.273   2.455 -1.9243  1.7943 -1.5023
    1CHTO   C66  229   7.482   6.319   2.196  0.2832  0.1024 -0.2380
    1CHTO  H123  230   7.501   6.302   2.090 -1.1794 -0.6071 -0.3993
    1CHTO   N12  231   7.332   6.342   2.210  0.3687  0.4270  1.1081
    1CHTO  H110  232   7.276   6.263   2.259 -0.9671  1.3789  1.1393
    1CHTO  H111  233   7.288   6.357   2.113  0.4948 -3.2140  0.4336
    1CHTO   C69  234   7.569   6.435   2.244 -0.1863  0.1337 -0.5971
    1CHTO  H126  235   7.540   6.444   2.351 -0.0365 -2.5464 -0.2870
    1CHTO   O41  236   7.729   6.390   2.234  0.0955  0.4230 -0.4351
    1CHTO   C64  237   7.766   6.259   2.276 -0.5067  0.0550 -0.0672
    1CHTO  H121  238   7.773   6.257   2.386  2.8346 -1.8973 -0.2569
    1CHTO   C71  239   7.911   6.235   2.220 -0.5466  0.0629  1.0408
    1CHTO   O47  240   7.998   6.268   2.322 -0.2414 -0.0626 -0.2466
    1CHTO  H104  241   8.086   6.284   2.293 -0.0480 -2.9662 -1.4400
    1CHTO   O34  242   7.534   6.565   2.169 -0.0134  0.2338  0.2538
    1CHTO   C49  243   7.497   6.701   2.129 -0.1740 -0.1641  0.3099
    1CHTO   H91  244   7.484   6.690   2.022  0.6104 -0.7892  0.2720
    1CHTO   C47  245   7.615   6.793   2.155 -0.6060 -0.2318 -0.2715
    1CHTO   H89  246   7.590   6.887   2.101 -0.8426  0.4641  1.0111
    1CHTO   O33  247   7.735   6.743   2.087 -0.2214  0.0908 -0.2511
    1CHTO   H70  248   7.727   6.717   1.998  0.5659 -1.0509  0.0035
    1CHTO   C45  249   7.628   6.825   2.310  0.4368 -0.1590  0.1638
    1CHTO   H87  250   7.643   6.728   2.360 -0.0006 -0.7222 -0.7705
    1CHTO    N8  251   7.748   6.904   2.344  0.5868 -0.5675 -0.6041
    1CHTO   H75  252   7.823   6.906   2.266  1.9858  0.4158  0.7413
    1CHTO   H76  253   7.718   7.008   2.349  0.0166 -0.7252 -0.7399
    1CHTO   C43  254   7.492   6.880   2.372 -0.0606 -0.0329  0.6660
    1CHTO   H85  255   7.505   6.862   2.479 -1.4277  1.5030  1.1074
    1CHTO   O29  256   7.375   6.815   2.324 -0.0234 -0.2213  0.3094
    1CHTO   C50  257   7.368   6.758   2.192  0.1414  0.7103 -0.1336
    1CHTO   H92  258   7.305   6.669   2.209  0.0446  0.9814  0.9762
    1CHTO   C54  259   7.293   6.854   2.093 -0.0023  0.3042 -0.3781
    1CHTO   O36  260   7.230   6.790   1.984 -0.2604  0.0178 -0.5340
    1CHTO   H72  261   7.225   6.851   1.913  0.7786  1.1869  0.3868
    1CHTO   O27  262   7.475   7.017   2.349 -0.0238 -0.5864 -0.4763
    1CHTO   C37  263   7.432   7.150   2.381 -0.3259 -0.3306  0.2082
    1CHTO   H79  264   7.465   7.226   2.309  0.2453  0.9088  1.7454
    1CHTO   C38  265   7.273   7.168   2.370 -0.3591  0.3124 -0.4155
    1CHTO   H80  266   7.237   7.099   2.448 -0.7498 -0.5684 -1.3698
    1CHTO   O31  267   7.222   7.136   2.236 -0.3767 -0.3750 -0.0998
    1CHTO   H68  268   7.233   7.202   2.170  0.2592 -0.1244  0.2511
    1CHTO   C39  269   7.241   7.315   2.409 -0.0359 -0.1503  0.9890
    1CHTO   H81  270   7.297   7.381   2.342  0.9284 -3.0460 -1.1522
    1CHTO    N7  271   7.092   7.331   2.413  0.3546 -0.5042 -0.0429
    1CHTO   H73  272   7.070   7.405   2.337 -1.8244  0.5534  1.5307
    1CHTO   H74  273   7.034   7.241   2.417  0.8953 -0.8018  1.5246
    1CHTO   C40  274   7.293   7.344   2.557 -0.2131 -0.0252 -0.3965
    1CHTO   H82  275   7.239   7.281   2.628 -1.9416  1.7949 -0.0503
    1CHTO   O26  276   7.438   7.321   2.571 -0.2351  0.1805  0.2793
    1CHTO   C41  277   7.489   7.194   2.522  0.2297  0.1514 -0.7651
    1CHTO   H83  278   7.464   7.117   2.597  2.0630  0.9409  0.6738
    1CHTO   C52  279   7.641   7.206   2.529  0.3932  0.2451  0.3483
    1CHTO   O35  280   7.697   7.313   2.476 -0.4629  0.0638  0.5654
    1CHTO   H71  281   7.675   7.322   2.386  2.1184 -1.2463 -0.2447
    1CHTO   O28  282   7.266   7.484   2.602 -0.4983 -0.0943 -0.0705
    1CHTO   C42  283   7.335   7.604   2.547 -0.2297  0.8459 -0.2749
    1CHTO   H84  284   7.354   7.568   2.446  1.1081 -0.0255  0.2600
    1CHTO   C44  285   7.474   7.643   2.609  0.3905 -0.1479 -0.8846
    1CHTO   H86  286   7.482   7.606   2.711  0.3662 -1.7843 -1.4522
    1CHTO   O32  287   7.567   7.572   2.530  0.3233 -0.1036  0.0161
    1CHTO   H69  288   7.570   7.481   2.551  2.8193 -0.0601  0.0716
    1CHTO   C48  289   7.519   7.790   2.601  0.1329 -0.1315  0.4093
    1CHTO   H90  290   7.628   7.799   2.599  0.0639  1.6547  2.2963
    1CHTO    N9  291   7.482   7.860   2.734  0.5556  0.1501 -0.2606
    1CHTO   H77  292   7.392   7.823   2.781  1.1471  0.6102  1.2574
    1CHTO   H78  293   7.478   7.967   2.720 -3.6498  0.1396 -0.0131
    1CHTO   C51  294   7.457   7.874   2.479 -0.1731 -0.2491 -0.6195
    1CHTO   H93  295   7.488   7.977   2.497  0.2818 -0.4433 -0.2979
    1CHTO   O30  296   7.316   7.866   2.481  0.0876  0.0930 -0.1539
    1CHTO   C46  297   7.244   7.728   2.531 -0.9763  0.7658 -0.1383
    1CHTO   H88  298   7.201   7.749   2.629 -0.5663  1.0836 -0.0282
    1CHTO   C53  299   7.131   7.704   2.437 -0.2011  0.2562  0.8121
    1CHTO   O72  300   7.033   7.812   2.442 -0.1668 -0.1000 -0.5732
    1CHTO  H199  301   7.047   7.862   2.364  1.1886  0.4709  0.0205
    1CHTO   O22  302   7.511   7.827   2.355 -0.8204 -0.2511 -0.8449
    1CHTO   C31  303   7.470   7.888   2.230 -0.2893  0.4801 -0.6421
    1CHTO   H59  304   7.360   7.904   2.235 -0.4890 -0.1639 -2.6766
    1CHTO   C29  305   7.537   8.015   2.182  0.4154 -1.1818  0.4762
    1CHTO   H57  306   7.645   7.996   2.178  1.2603  3.0073  0.7902
    1CHTO   O21  307   7.508   8.114   2.284  0.0456  0.0423 -0.3304
    1CHTO   H37  308   7.574   8.122   2.350 -1.3088  1.1213  0.9140
    1CHTO   C27  309   7.492   8.056   2.040  0.5451 -0.6578 -0.2897
    1CHTO   H55  310   7.385   8.082   2.041  1.0113  1.5816 -2.1172
    1CHTO    N5  311   7.563   8.179   1.991  0.5465  0.6405 -0.0627
    1CHTO   H43  312   7.668   8.162   1.977  0.2376 -2.0958  0.5496
    1CHTO   H44  313   7.521   8.219   1.900 -1.3343  0.6040  0.7587
    1CHTO   C25  314   7.519   7.940   1.942 -0.4224 -0.3121 -0.6007
    1CHTO   H53  315   7.628   7.931   1.943 -0.6153 -3.1250  1.7674
    1CHTO   O17  316   7.467   7.810   1.987  0.4178  0.2395  0.4445
    1CHTO   C32  317   7.490   7.774   2.120 -0.0238 -0.5624  0.0895
    1CHTO   H60  318   7.592   7.738   2.129 -0.2039 -0.8205  1.1574
    1CHTO   C36  319   7.406   7.654   2.152 -0.1610  0.2493 -0.7335
    1CHTO   O25  320   7.267   7.678   2.127 -0.1481 -0.2450  0.3528
    1CHTO   H40  321   7.225   7.596   2.141 -2.8011  1.0252  0.2064
    1CHTO   O15  322   7.464   7.976   1.792  0.2748  0.2812 -0.1198
    1CHTO   C19  323   7.478   7.937   1.656 -0.1984 -0.2236 -0.3113
    1CHTO   H47  324   7.468   8.029   1.597 -0.7834  2.1476  3.3384
    1CHTO   C20  325   7.618   7.868   1.622  0.4789 -0.0314 -0.9189
    1CHTO   H48  326   7.645   7.793   1.697  0.0040 -0.1872 -0.9018
    1CHTO   O19  327   7.711   7.976   1.642  0.5008 -0.0582 -0.4764
    1CHTO   H35  328   7.794   7.955   1.605 -0.3157 -0.9276 -1.8640
    1CHTO   C21  329   7.635   7.817   1.476  0.5427 -0.6249 -0.2534
    1CHTO   H49  330   7.634   7.901   1.407  0.3329 -1.3222 -1.1076
    1CHTO    N4  331   7.762   7.744   1.451  0.3414 -0.2303 -0.3241
    1CHTO   H41  332   7.835   7.796   1.512 -1.5883 -0.3871  2.2031
    1CHTO   H42  333   7.802   7.739   1.351 -2.7198 -3.9699 -1.4604
    1CHTO   C22  334   7.514   7.733   1.433  0.1726 -0.3009 -0.4047
    1CHTO   H50  335   7.514   7.638   1.487 -0.3063 -0.6891 -1.0736
    1CHTO   O14  336   7.392   7.801   1.458 -0.5710 -0.5692  0.0104
    1CHTO   C23  337   7.365   7.835   1.597 -0.2932 -0.5060 -0.0173
    1CHTO   H51  338   7.351   7.745   1.657 -1.5053 -0.8034 -0.7207
    1CHTO   C34  339   7.221   7.895   1.601 -0.5097  0.5212 -0.0106
    1CHTO   O23  340   7.220   8.001   1.506 -0.0726  0.0711 -0.1632
    1CHTO   H38  341   7.163   7.989   1.432  0.8630  0.7293 -1.0158
    1CHTO   O16  342   7.497   7.715   1.292  0.3490  0.4044 -0.1374
    1CHTO   C24  343   7.453   7.566   1.233 -0.6173  0.1021 -0.4609
    1CHTO   H52  344   7.442   7.496   1.315  1.2253  0.2162 -0.1060
    1CHTO   C26  345   7.563   7.514   1.133 -0.0217 -0.3556 -0.0401
    1CHTO   H54  346   7.588   7.593   1.059  0.7267 -1.8754 -1.4564
    1CHTO   O20  347   7.677   7.484   1.212  0.6255 -0.3044 -0.0240
    1CHTO   H36  348   7.717   7.564   1.240  2.1994 -0.5367 -1.5090
    1CHTO   C30  349   7.517   7.386   1.049  0.5777  0.4039  0.5435
    1CHTO   H58  350   7.508   7.302   1.120  0.0480 -1.4937 -1.6684
    1CHTO    N6  351   7.619   7.343   0.949  0.0643  0.4552  0.3752
    1CHTO   H45  352   7.711   7.398   0.946 -0.0865  0.6533 -0.9006
    1CHTO   H46  353   7.648   7.240   0.967 -0.5611  0.1794 -0.1425
    1CHTO   C33  354   7.372   7.395   0.991 -0.5920 -0.0499 -0.4955
    1CHTO   H61  355   7.368   7.465   0.906 -2.3270  0.3176 -0.1438
    1CHTO   O18  356   7.286   7.441   1.097 -0.4679  0.2325 -0.2821
    1CHTO   C28  357   7.318   7.567   1.152 -0.8723 -0.0056 -0.4812
    1CHTO   H56  358   7.326   7.633   1.065  1.0974 -0.4359 -0.6288
    1CHTO   C35  359   7.202   7.622   1.236  0.0026  0.1029 -0.2019
    1CHTO   O24  360   7.169   7.521   1.328 -0.4785 -0.5609 -0.7794
    1CHTO   H39  361   7.112   7.544   1.399  1.3110  0.3339  0.4248
    1CHTO    O9  362   7.326   7.264   0.941  0.0528 -0.3255  0.1793
    1CHTO   C13  363   7.177   7.264   0.883 -0.1960  0.6964 -0.0697
    1CHTO   H26  364   7.138   7.366   0.865 -1.9020 -0.0298 -0.6423
    1CHTO   C11  365   7.090   7.182   0.993  0.0493  0.7621 -0.2515
    1CHTO   H24  366   7.085   7.243   1.084 -0.9664 -3.5715  2.7856
    1CHTO    O8  367   7.167   7.064   1.030 -0.1476  0.2999  0.0692
    1CHTO    H3  368   7.180   7.003   0.960 -3.6575  0.3596 -0.7255
    1CHTO    C9  369   6.953   7.143   0.934  0.6906 -0.1560  0.7655
    1CHTO   H22  370   6.912   7.232   0.885 -1.1726 -2.0485 -1.2590
    1CHTO    N2  371   6.856   7.110   1.043 -0.3852 -0.5075 -0.1733
    1CHTO   H10  372   6.810   7.013   1.030 -0.9873 -0.3356  0.6170
    1CHTO   H11  373   6.781   7.188   1.043  0.6342  0.5406 -2.4920
    1CHTO    C7  374   6.977   7.039   0.814  1.0014 -0.6048  0.2151
    1CHTO   H20  375   6.882   7.051   0.759  0.7268  0.6888  0.9507
    1CHTO    O4  376   7.092   7.072   0.731  0.2520  0.3362  0.2855
    1CHTO   C14  377   7.161   7.199   0.735  0.2122 -0.1416 -0.5803
    1CHTO   H27  378   7.087   7.260   0.679  1.2723  0.5938 -1.2047
    1CHTO   C18  379   7.291   7.181   0.657  0.0317 -0.0373 -0.4874
    1CHTO   O13  380   7.372   7.298   0.644 -0.3635 -0.0775  0.6743
    1CHTO    H7  381   7.363   7.324   0.554 -1.1476  0.6864  0.9669
    1CHTO    O2  382   6.988   6.874   0.858  0.1694 -0.4716 -0.2955
    1CHTO    C1  383   7.080   6.801   0.781 -0.0772 -0.1169  0.6477
    1CHTO   H14  384   7.179   6.851   0.780 -0.5564  0.8361 -1.7809
    1CHTO    C2  385   7.023   6.775   0.638  0.3968  0.1357  0.0544
    1CHTO   H15  386   6.932   6.715   0.656  0.4977 -0.0206  0.0476
    1CHTO    O6  387   6.979   6.893   0.566 -0.0260 -0.3064 -0.3475
    1CHTO    H1  388   6.954   6.865   0.480  1.6491 -2.0236 -0.3018
    1CHTO    C3  389   7.127   6.690   0.554 -0.6991  0.6123  0.5478
    1CHTO   H16  390   7.214   6.751   0.525  1.2571 -3.0307 -1.7360
    1CHTO    N1  391   7.060   6.648   0.425 -0.4334  0.6811 -0.0257
    1CHTO    H8  392   7.027   6.728   0.360  2.1226  1.1778 -0.7847
    1CHTO    H9  393   7.130   6.588   0.368 -1.6116 -1.8222  1.1183
    1CHTO    C4  394   7.178   6.564   0.639 -0.0966  0.0140  0.2937
    1CHTO   H17  395   7.105   6.483   0.639  1.0788 -1.0671  0.7096
    1CHTO    O1  396   7.197   6.591   0.777 -0.7980 -0.0025  0.2334
    1CHTO    C5  397   7.094   6.658   0.845 -0.1960 -0.0684  0.0925
    1CHTO   H18  398   7.004   6.600   0.825  0.6067 -0.6103 -2.0743
    1CHTO   C16  399   7.124   6.649   0.994  0.0018 -0.5389 -0.4923
    1CHTO   O11  400   7.003   6.644   1.074 -0.2355 -0.1028  0.1207
    1CHTO    H5  401   6.983   6.557   1.102  2.8949 -0.9960 -0.1783
    1CHTO    O3  402   7.311   6.531   0.588 -0.0760  0.1777 -0.4868
    1CHTO    C6  403   7.343   6.392   0.580 -0.3430  0.1950  0.0371
    1CHTO   H19  404   7.279   6.337   0.649 -0.7614  0.0516 -0.4648
    1CHTO    C8  405   7.339   6.322   0.432 -0.3158  0.1148 -0.6862
    1CHTO   H21  406   7.400   6.384   0.366 -0.5859 -0.3059 -1.3325
    1CHTO    O7  407   7.208   6.348   0.395 -0.4404  0.0353  0.3843
    1CHTO    H2  408   7.193   6.440   0.399 -0.8285  0.0560 -1.1394
    1CHTO   C12  409   7.380   6.171   0.441  0.4902 -0.1941 -0.2719
    1CHTO   H25  410   7.311   6.132   0.518  0.5167 -0.3514 -0.3274
    1CHTO    N3  411   7.353   6.101   0.310  0.2321 -0.4254  0.6710
    1CHTO   H12  412   7.447   6.056   0.280  1.1254  0.9605  1.3590
    1CHTO   H13  413   7.283   6.020   0.327 -0.4670 -0.1699 -0.9595
    1CHTO   C15  414   7.528   6.167   0.500  0.3554 -0.3429 -0.4776
    1CHTO   H28  415   7.599   6.217   0.433 -0.6230 -1.5286 -2.4435
    1CHTO   O10  416   7.581   6.020   0.533 -0.3167 -0.1431 -0.4758
    1CHTO    H4  417   7.509   5.961   0.521 -0.0747 -0.7712  1.0532
    1CHTO    O5  418   7.541   6.230   0.625  0.1765  0.1781  0.1980
    1CHTO   C10  419   7.496   6.373   0.630  0.7304 -0.0149  0.1827
    1CHTO   H23  420   7.561   6.427   0.561 -0.9002  1.7011 -0.0418
    1CHTO   C17  421   7.513   6.435   0.770 -0.4150 -0.0772 -0.3567
    1CHTO   O12  422   7.651   6.458   0.788  0.8824  0.0293 -0.3203
    1CHTO    H6  423   7.692   6.376   0.806 -1.9385 -1.7524 -1.6097
    2CHTO  H203  424   6.475   4.699   2.472 -1.4007  0.5784  0.8619
    2CHTO   O82  425   6.421   4.635   2.428  0.1566  0.3670 -0.7848
    2CHTO  C123  426   6.322   4.705   2.350 -0.6415 -0.1913  0.4891
    2CHTO  H227  427   6.369   4.724   2.253 -1.2123  2.6257  0.7171
    2CHTO   O77  428   6.213   4.604   2.332  0.8174  0.0718 -0.3272
    2CHTO  C118  429   6.115   4.650   2.237 -0.5750  0.1564 -0.1416
    2CHTO  H222  430   6.169   4.669   2.143  2.4863 -0.1163  1.5077
    2CHTO  C125  431   6.004   4.537   2.210  0.5655 -0.5160 -0.0073
    2CHTO   O84  432   5.964   4.471   2.333 -0.0832 -0.2538  0.4338
    2CHTO  H205  433   5.966   4.379   2.316 -2.2248 -0.3864  0.8076
    2CHTO  C114  434   6.048   4.779   2.291 -0.2343  0.3307  0.1601
    2CHTO  H218  435   6.007   4.758   2.390 -1.0795  0.3025 -0.1984
    2CHTO  C116  436   6.148   4.889   2.325 -0.4150 -0.3508 -0.5323
    2CHTO  H220  437   6.195   4.936   2.236 -1.6851  0.0190 -1.0241
    2CHTO   O79  438   6.077   4.996   2.395 -0.2620  0.3699 -0.2146
    2CHTO  H201  439   6.009   5.032   2.342 -2.3616 -0.4664  1.8133
    2CHTO  C120  440   6.266   4.836   2.412 -0.2024 -0.3065  0.1443
    2CHTO  H224  441   6.224   4.821   2.514 -1.2713  1.8498  0.0367
    2CHTO   N21  442   6.366   4.939   2.425 -0.3326  0.0145  0.0838
    2CHTO  H211  443   6.371   5.015   2.348 -0.3862 -0.8826 -0.8189
    2CHTO  H212  444   6.458   4.885   2.442 -1.3795 -1.3188  1.6112
    2CHTO   O75  445   5.947   4.814   2.196  0.3499 -0.2791 -0.0882
    2CHTO  C112  446   5.802   4.825   2.249 -0.0259  0.1798  0.7026
    2CHTO  H216  447   5.809   4.836   2.359 -0.7680  0.6396  0.7075
    2CHTO   O73  448   5.736   4.706   2.211  0.2805  0.5091  0.6924
    2CHTO  C113  449   5.598   4.687   2.240 -0.1154 -0.4524  0.3594
    2CHTO  H217  450   5.584   4.687   2.350 -0.0710  1.1206  0.3779
    2CHTO  C124  451   5.554   4.541   2.202 -0.6522  0.7398  0.0858
    2CHTO   O83  452   5.647   4.446   2.258 -0.5010 -0.5271 -0.1609
    2CHTO  H204  453   5.634   4.358   2.228  2.2824 -1.3151  0.7774
    2CHTO  C109  454   5.519   4.797   2.172  0.0031  0.9269  0.6931
    2CHTO  H213  455   5.523   4.772   2.065  0.1963 -0.4036  0.9893
    2CHTO  C110  456   5.567   4.946   2.224  0.0930  0.2240  0.0405
    2CHTO  H214  457   5.551   4.939   2.331  0.5927  0.2458  0.1190
    2CHTO   O78  458   5.484   5.048   2.165 -0.1800  0.1369 -0.0292
    2CHTO  H200  459   5.513   5.123   2.213 -0.6748  2.3709 -3.0377
    2CHTO  C111  460   5.717   4.954   2.201 -0.6518 -0.4910  0.2937
    2CHTO  H215  461   5.732   4.953   2.092 -4.5960  0.0641 -0.3025
    2CHTO   N19  462   5.776   5.073   2.255  0.6242 -0.6708 -0.7219
    2CHTO  H207  463   5.707   5.148   2.291  1.5455 -0.7134  1.1378
    2CHTO  H208  464   5.830   5.110   2.168 -0.2531 -0.5155 -1.2072
    2CHTO   O74  465   5.382   4.780   2.210  0.0422 -0.4944 -0.4277
    2CHTO  C115  466   5.256   4.800   2.073  0.2405  0.6890 -0.8115
    2CHTO  H219  467   5.294   4.868   1.997  0.3550  2.4498  0.7778
    2CHTO   O76  468   5.229   4.668   2.001  0.4787  0.9468 -0.4875
    2CHTO  C122  469   5.130   4.672   1.891 -0.1360  0.3409  0.3704
    2CHTO  H226  470   5.104   4.567   1.874 -0.9522  0.8799 -1.8290
    2CHTO  C126  471   5.209   4.712   1.766  0.0672  0.0104  0.0427
    2CHTO   O85  472   5.138   4.680   1.653 -0.4660 -0.4871  0.8619
    2CHTO  H206  473   5.068   4.741   1.641 -1.9800 -2.3898 -0.0664
    2CHTO  C121  474   4.998   4.750   1.931 -0.0352  0.4406 -0.5224
    2CHTO  H225  475   4.948   4.766   1.834 -0.0498 -2.0983 -0.9596
    2CHTO   O81  476   4.934   4.659   2.022  0.4912  0.2994  0.2151
    2CHTO  H202  477   4.964   4.675   2.109 -1.2953 -2.1703  1.3525
    2CHTO  C119  478   5.034   4.891   2.002 -0.0735  0.1342  1.0539
    2CHTO  H223  479   5.094   4.946   1.930 -0.0136 -0.6603  0.4994
    2CHTO  C117  480   5.122   4.861   2.128  1.0399 -0.8425 -0.1976
    2CHTO  H221  481   5.082   4.782   2.191 -0.3338  0.9985  1.3241
    2CHTO   N20  482   5.146   4.986   2.217  0.5677  0.3035 -0.1353
    2CHTO  H209  483   5.190   5.067   2.161  3.4517  0.4562  2.2026
    2CHTO  H210  484   5.223   4.962   2.289 -0.1293  1.7189  1.1009
    2CHTO   O80  485   4.908   4.983   2.017  0.5268 -0.4447 -0.3200
    2CHTO  C103  486   4.877   5.095   1.926 -0.2380  0.3392  0.0929
    2CHTO  H190  487   4.977   5.128   1.898  0.4286 -0.8713  0.9736
    2CHTO  C101  488   4.778   5.058   1.816 -0.0695  0.0424  0.7486
    2CHTO  H188  489   4.692   5.005   1.856 -0.4821 -1.5650 -2.1389
    2CHTO   O68  490   4.848   4.952   1.719  0.1926  0.2471 -0.6029
    2CHTO  H168  491   4.931   4.920   1.752  0.5633  0.1850 -1.5920
    2CHTO   C99  492   4.722   5.187   1.729 -0.7409  0.3794 -0.1137
    2CHTO  H186  493   4.805   5.242   1.680 -0.8044  2.3421  1.8823
    2CHTO   N17  494   4.636   5.145   1.617  0.5837 -0.3710 -0.0439
    2CHTO  H174  495   4.694   5.075   1.558  3.0405  0.7485  0.9569
    2CHTO  H175  496   4.604   5.235   1.567 -0.8590  0.4487  2.3002
    2CHTO   C97  497   4.659   5.282   1.836 -0.2418  0.4102  0.6949
    2CHTO  H184  498   4.568   5.232   1.873  0.6945 -0.3225  2.0353
    2CHTO   O64  499   4.752   5.313   1.936 -0.1800  0.0957  0.1215
    2CHTO  C104  500   4.805   5.207   2.012  0.2768  0.5855  0.4236
    2CHTO  H191  501   4.727   5.172   2.079 -1.7020 -0.5015 -2.3875
    2CHTO  C108  502   4.906   5.279   2.106  0.1677 -0.4152 -0.2350
    2CHTO   O71  503   5.043   5.317   2.065 -0.0181 -0.5078 -0.2056
    2CHTO  H171  504   5.045   5.397   2.018  3.3845 -0.9007 -0.8062
    2CHTO   O62  505   4.610   5.403   1.779  0.0436 -1.2274 -0.2439
    2CHTO   C91  506   4.486   5.448   1.842 -0.3598  0.2784  0.2462
    2CHTO  H178  507   4.436   5.371   1.902  0.2290 -0.4777 -0.2193
    2CHTO   C92  508   4.385   5.484   1.729  0.1710 -0.4678 -0.1492
    2CHTO  H179  509   4.379   5.407   1.651  1.7262 -0.9077  0.1474
    2CHTO   O66  510   4.251   5.500   1.781 -0.4092 -0.2826 -0.5043
    2CHTO  H166  511   4.231   5.578   1.829  1.4134 -0.2270  0.2192
    2CHTO   C93  512   4.426   5.620   1.654  0.6209 -0.6137  0.4720
    2CHTO  H180  513   4.332   5.643   1.602  0.5146 -1.4961  0.2730
    2CHTO   N16  514   4.524   5.606   1.543  0.7200 -0.7683  0.1702
    2CHTO  H172  515   4.548   5.697   1.489  1.8714 -1.3117 -0.2457
    2CHTO  H173  516   4.493   5.523   1.482 -1.2463  0.6932 -0.8713
    2CHTO   C94  517   4.452   5.730   1.760 -0.0324 -0.3538 -0.1074
    2CHTO  H181  518   4.556   5.761   1.762 -0.5512  1.4949 -0.3590
    2CHTO   O61  519   4.433   5.695   1.894 -0.1067 -0.2255 -0.1986
    2CHTO   C95  520   4.502   5.574   1.940  0.5047  0.1662  0.8103
    2CHTO  H182  521   4.609   5.595   1.943  0.5305 -0.0511  1.4510
    2CHTO  C106  522   4.480   5.550   2.094 -0.4224 -0.4571 -0.0927
    2CHTO   O69  523   4.583   5.469   2.153 -0.4138 -0.3617 -0.0524
    2CHTO  H169  524   4.573   5.377   2.138  0.2328 -0.3358 -0.6764
    2CHTO   O63  525   4.384   5.828   1.739  0.0913  1.0719 -0.2983
    2CHTO   C96  526   4.435   5.971   1.819  0.2446  0.0936 -0.4627
    2CHTO  H183  527   4.520   5.949   1.884 -1.1457 -1.9770  0.7304
    2CHTO   C98  528   4.308   6.035   1.883 -0.4181 -0.1802  0.0377
    2CHTO  H185  529   4.219   6.040   1.819 -0.7971  0.2294  0.5987
    2CHTO   O67  530   4.276   5.954   1.991 -0.4164  0.4456  0.3403
    2CHTO  H167  531   4.205   5.964   2.052  0.9922 -3.1840  2.7479
    2CHTO  C102  532   4.341   6.185   1.934 -0.2070  0.2681  0.5077
    2CHTO  H189  533   4.404   6.167   2.022  0.0441 -1.8917 -0.0760
    2CHTO   N18  534   4.217   6.252   1.984 -0.1061 -0.2083  0.1949
    2CHTO  H176  535   4.128   6.226   1.929  0.9456 -1.7543 -0.7807
    2CHTO  H177  536   4.187   6.199   2.074 -1.6988  1.3530  0.6297
    2CHTO  C105  537   4.416   6.268   1.829  0.2423 -0.5759  0.4945
    2CHTO  H192  538   4.356   6.293   1.742 -1.5272 -2.0056  1.2750
    2CHTO   O65  539   4.527   6.194   1.775  0.4194  0.0449  0.0008
    2CHTO  C100  540   4.500   6.070   1.717  0.5235  0.3318  0.5829
    2CHTO  H187  541   4.429   6.080   1.633  2.1575  2.7405 -0.5534
    2CHTO  C107  542   4.633   6.015   1.666  0.3068 -0.0408 -0.1910
    2CHTO   O70  543   4.683   6.084   1.551  0.4388 -0.1076 -0.4128
    2CHTO  H170  544   4.659   6.036   1.474 -2.6556 -2.1585  1.6785
    2CHTO   O57  545   4.486   6.401   1.900 -0.3838 -0.1143 -0.1442
    2CHTO   C85  546   4.412   6.525   1.904  0.1061 -1.1313 -0.1261
    2CHTO  H157  547   4.321   6.516   1.967 -0.0122  2.2463  0.2602
    2CHTO   C83  548   4.350   6.566   1.758 -0.7818  0.0401  0.4292
    2CHTO  H155  549   4.265   6.503   1.731 -0.4373  0.0204 -0.6415
    2CHTO   O56  550   4.448   6.523   1.656 -0.2467  0.4375 -0.0602
    2CHTO  H135  551   4.406   6.472   1.589 -0.0890  0.1561  0.0513
    2CHTO   C81  552   4.305   6.712   1.757 -0.0998  0.1478  0.6128
    2CHTO  H153  553   4.217   6.722   1.821 -2.1263  1.9469 -2.3503
    2CHTO   N14  554   4.266   6.766   1.621 -0.2916 -0.4962  0.1141
    2CHTO  H141  555   4.217   6.695   1.558 -0.3575 -0.0758 -0.3071
    2CHTO  H142  556   4.206   6.854   1.631  0.5471  0.0901  0.0355
    2CHTO   C79  557   4.419   6.802   1.812  0.0399 -0.1100 -0.3703
    2CHTO  H151  558   4.374   6.900   1.829 -1.1846 -0.6511 -0.4410
    2CHTO   O52  559   4.450   6.766   1.948  0.4403  0.4168 -0.9094
    2CHTO   C86  560   4.505   6.637   1.954 -0.2925  0.0018 -0.0190
    2CHTO  H158  561   4.602   6.631   1.901 -0.4118  0.3979 -0.2893
    2CHTO   C90  562   4.543   6.616   2.100 -0.2338  0.0062 -0.1954
    2CHTO   O60  563   4.429   6.640   2.182 -0.4809 -0.2502 -0.6110
    2CHTO  H138  564   4.437   6.579   2.252 -1.3555 -2.0888 -2.0803
    2CHTO   O50  565   4.536   6.803   1.722 -0.6746 -0.5404 -0.1334
    2CHTO   C73  566   4.638   6.879   1.652  0.3350 -0.0714  0.3498
    2CHTO  H145  567   4.608   6.984   1.659  1.2751  0.1904  0.5996
    2CHTO   C74  568   4.654   6.835   1.502  0.1843 -0.1621 -0.5511
    2CHTO  H146  569   4.552   6.835   1.463 -0.7461  0.0139  1.7716
    2CHTO   O54  570   4.738   6.938   1.442 -0.3479  0.5933 -0.4086
    2CHTO  H133  571   4.826   6.906   1.435 -0.7706 -1.3333  2.2840
    2CHTO   C75  572   4.718   6.692   1.500 -0.2590  0.8080  0.0956
    2CHTO  H147  573   4.652   6.628   1.560 -0.4110  1.5653  0.7447
    2CHTO   N13  574   4.717   6.624   1.370 -0.4528 -0.0525  0.0116
    2CHTO  H139  575   4.762   6.682   1.290 -0.4016 -0.0403  0.0498
    2CHTO  H140  576   4.615   6.607   1.340 -0.1413 -0.8430 -0.6105
    2CHTO   C76  577   4.857   6.698   1.570  0.6630 -0.0816 -0.4962
    2CHTO  H148  578   4.918   6.766   1.510  1.2852 -1.1052 -1.0589
    2CHTO   O49  579   4.845   6.742   1.710  0.0393 -0.2670  0.6654
    2CHTO   C77  580   4.778   6.870   1.721 -0.3831  0.7849 -0.0688
    2CHTO  H149  581   4.841   6.945   1.674 -1.5611  2.0976  0.3962
    2CHTO   C88  582   4.763   6.914   1.868  0.7687  0.2254 -0.6910
    2CHTO   O58  583   4.681   7.047   1.891  0.3952 -0.4541 -0.2677
    2CHTO  H136  584   4.592   7.025   1.911  0.5451 -0.0835  0.8781
    2CHTO   O51  585   4.924   6.542   1.571 -0.0014  0.5342  0.4363
    2CHTO   C78  586   5.010   6.493   1.702  0.0873  0.5165  0.2604
    2CHTO  H150  587   5.005   6.562   1.789 -2.6099  0.3065  0.2949
    2CHTO   C80  588   5.155   6.462   1.681 -0.2008 -0.2780  0.8370
    2CHTO  H152  589   5.165   6.388   1.598  1.3289  0.1987  0.5840
    2CHTO   O55  590   5.210   6.585   1.645  0.3424  0.7088 -0.2376
    2CHTO  H134  591   5.275   6.577   1.578 -0.6466  1.4947 -1.3293
    2CHTO   C84  592   5.224   6.396   1.812  0.1124 -0.3739 -0.3388
    2CHTO  H156  593   5.208   6.465   1.894 -1.7211 -0.7895 -0.3275
    2CHTO   N15  594   5.369   6.380   1.795  0.4911 -0.1120 -0.1246
    2CHTO  H143  595   5.402   6.458   1.729  0.5015  1.2691  1.4859
    2CHTO  H144  596   5.413   6.398   1.891 -0.3456  0.8964  0.0716
    2CHTO   C87  597   5.164   6.260   1.835  0.8281  0.3746 -0.9180
    2CHTO  H159  598   5.178   6.185   1.757 -0.2709 -1.3661  0.5116
    2CHTO   O53  599   5.018   6.298   1.847  0.8115  0.0543 -0.4876
    2CHTO   C82  600   4.941   6.359   1.743 -0.1065 -0.3342 -0.2576
    2CHTO  H154  601   4.937   6.290   1.659 -2.0673 -0.0184 -0.4511
    2CHTO   C89  602   4.790   6.387   1.781  0.3339 -0.4338 -0.2970
    2CHTO   O59  603   4.792   6.485   1.891 -0.0116 -0.0441  0.4841
    2CHTO  H137  604   4.762   6.440   1.968 -1.5228 -2.3757 -1.3868
    2CHTO   O45  605   5.212   6.190   1.990  0.0097 -0.9928 -0.0138
    2CHTO   C67  606   5.122   6.086   2.044  0.4880  0.4053  0.3522
    2CHTO  H124  607   5.025   6.137   2.043  0.3297  0.1690 -2.6237
    2CHTO   C65  608   5.101   5.951   1.961 -0.4833 -0.6561 -0.5464
    2CHTO  H122  609   5.191   5.922   1.907 -0.4815 -1.2413 -0.2320
    2CHTO   O44  610   4.991   5.974   1.865 -0.0439  0.4873 -0.0327
    2CHTO  H102  611   4.962   5.894   1.826  0.0825  0.2458  0.3636
    2CHTO   C63  612   5.078   5.829   2.065  0.3527  0.6405  0.2688
    2CHTO  H120  613   5.177   5.803   2.105  0.6221 -2.1305 -2.0743
    2CHTO   N11  614   5.025   5.700   2.010  0.8418 -0.5826  0.0900
    2CHTO  H108  615   5.043   5.621   2.080 -2.7119 -0.3019  1.4019
    2CHTO  H109  616   4.919   5.705   2.001  1.1858  1.9503 -3.1710
    2CHTO   C61  617   4.984   5.879   2.186  0.8197  0.2888  0.1092
    2CHTO  H118  618   4.981   5.791   2.252  0.8266 -1.4585 -2.1614
    2CHTO   O40  619   5.046   5.982   2.261  0.0196  0.2862 -0.2178
    2CHTO   C68  620   5.151   6.061   2.197  0.7679  0.0517 -0.3654
    2CHTO  H125  621   5.244   6.003   2.212 -0.4501 -1.5864  1.0049
    2CHTO   C72  622   5.175   6.196   2.259 -0.3799 -0.0500  0.8468
    2CHTO   O48  623   5.224   6.200   2.393  0.0724 -0.5640 -0.9115
    2CHTO  H105  624   5.299   6.143   2.399 -2.1412 -3.5696 -0.9023
    2CHTO   O38  625   4.850   5.911   2.148 -0.0080  0.0215  0.5363
    2CHTO   C55  626   4.755   5.954   2.244  0.7667 -0.2105 -0.1980
    2CHTO  H112  627   4.801   6.023   2.316 -1.1282  1.2478 -0.3206
    2CHTO   C56  628   4.685   5.827   2.319  0.4098 -0.2420 -0.4614
    2CHTO  H113  629   4.643   5.760   2.242  2.1352 -0.0323 -1.6310
    2CHTO   O42  630   4.790   5.757   2.392  0.0534  0.4795 -0.7479
    2CHTO  H100  631   4.753   5.717   2.468  2.1895 -0.6458 -0.2705
    2CHTO   C57  632   4.561   5.866   2.402  0.4876 -0.0339  0.5284
    2CHTO  H114  633   4.606   5.904   2.494  2.0387 -0.6725  0.0389
    2CHTO   N10  634   4.490   5.747   2.458 -0.0866  0.3571 -0.1138
    2CHTO  H106  635   4.515   5.658   2.402  0.0547  1.3270 -1.6170
    2CHTO  H107  636   4.530   5.741   2.559  0.2195  2.5591 -0.0749
    2CHTO   C58  637   4.474   5.973   2.330 -0.1063  0.1503 -0.7121
    2CHTO  H115  638   4.424   5.927   2.242  1.1811 -0.3611 -1.1965
    2CHTO   O37  639   4.559   6.080   2.280 -0.0755 -0.7132  0.6246
    2CHTO   C59  640   4.645   6.032   2.176 -0.4882  0.8133 -0.5743
    2CHTO  H116  641   4.584   5.969   2.110 -1.1325 -0.8202  1.5131
    2CHTO   C70  642   4.686   6.158   2.099 -0.0964  0.5070 -0.5375
    2CHTO   O46  643   4.748   6.121   1.973 -0.3094 -0.2832 -0.0285
    2CHTO  H103  644   4.688   6.142   1.904  0.1012  0.5394 -0.1474
    2CHTO   O39  645   4.380   6.041   2.422 -0.5237  0.1670 -0.5599
    2CHTO   C60  646   4.265   6.095   2.359 -0.1945 -0.2029  0.2059
    2CHTO  H117  647   4.286   6.106   2.252  0.5167  0.0263  0.3672
    2CHTO   C62  648   4.135   6.009   2.377  0.7376  0.0966  0.2983
    2CHTO  H119  649   4.151   5.920   2.313 -1.1004  0.7846 -1.1443
    2CHTO   O43  650   4.128   5.968   2.513 -0.0128 -0.0490  0.4303
    2CHTO  H101  651   4.174   6.033   2.561  1.9983 -1.0550 -0.0896
    2CHTO   C66  652   4.006   6.078   2.317 -0.4450  1.0486 -0.2192
    2CHTO  H123  653   4.021   6.092   2.210  1.0179  1.3177  0.0172
    2CHTO   N12  654   3.888   5.993   2.327 -0.4296 -0.0542 -0.3116
    2CHTO  H110  655   3.900   5.917   2.402 -1.7367  1.4198  1.4214
    2CHTO  H111  656   3.843   5.965   2.233 -5.4306 -0.5212  2.0847
    2CHTO   C69  657   3.980   6.219   2.379 -0.9652  0.6841  0.0360
    2CHTO  H126  658   3.944   6.212   2.484  2.6609  2.4533  1.4752
    2CHTO   O41  659   4.094   6.308   2.373 -0.5144 -0.1844  0.0575
    2CHTO   C64  660   4.234   6.239   2.412  0.3818 -0.2137 -0.1347
    2CHTO  H121  661   4.252   6.235   2.522 -3.2132 -1.6595  0.4565
    2CHTO   C71  662   4.338   6.340   2.358 -0.5643 -0.0091  0.3973
    2CHTO   O47  663   4.341   6.465   2.429  0.0138 -0.7967 -0.0063
    2CHTO  H104  664   4.295   6.529   2.380  0.1387 -1.4306 -0.9740
    2CHTO   O34  665   3.865   6.288   2.304 -0.3305 -0.2386  0.6728
    2CHTO   C49  666   3.796   6.421   2.298  0.2131 -0.1504 -1.0239
    2CHTO   H91  667   3.691   6.392   2.295  0.1895 -0.2218  0.2169
    2CHTO   C47  668   3.836   6.499   2.172 -0.1920  0.3862  0.1749
    2CHTO   H89  669   3.773   6.590   2.163 -0.1013  0.7158  2.5633
    2CHTO   O33  670   3.812   6.421   2.053 -0.3651 -0.0067  0.0103
    2CHTO   H70  671   3.819   6.468   1.973  0.2157  0.3619  0.2750
    2CHTO   C45  672   3.992   6.540   2.176 -0.6330 -0.2795 -0.4590
    2CHTO   H87  673   4.042   6.442   2.188  2.1442  1.0395 -0.9531
    2CHTO    N8  674   4.043   6.607   2.051 -0.1428  0.0854  0.2345
    2CHTO   H75  675   4.066   6.711   2.069  2.0162 -0.5718  1.5003
    2CHTO   H76  676   3.994   6.587   1.958  3.3902  0.3338 -1.7877
    2CHTO   C43  677   4.024   6.624   2.303  0.3398 -0.3918  0.2590
    2CHTO   H85  678   4.132   6.625   2.314  0.3151 -1.1408  0.5804
    2CHTO   O29  679   3.962   6.566   2.420 -0.2833 -0.2898 -0.6427
    2CHTO   C50  680   3.828   6.506   2.422 -0.4702  0.0374  0.4335
    2CHTO   H92  681   3.832   6.439   2.509  0.2252 -0.5328 -0.0390
    2CHTO   C54  682   3.717   6.608   2.457  0.7013  0.0185 -0.1179
    2CHTO   O36  683   3.737   6.650   2.593 -0.2799  0.6031  0.0411
    2CHTO   H72  684   3.686   6.595   2.650  1.3939  0.8108  1.8202
    2CHTO   O27  685   3.968   6.755   2.298 -0.2616  0.4096 -0.2686
    2CHTO   C37  686   3.956   6.901   2.303 -0.4571  0.2369  0.0842
    2CHTO   H79  687   3.968   6.941   2.201  1.9268 -0.6576 -0.0357
    2CHTO   C38  688   3.814   6.940   2.347 -0.1765  0.2171  0.0422
    2CHTO   H80  689   3.796   6.918   2.453  0.0671  2.2355  0.5269
    2CHTO   O31  690   3.716   6.880   2.259 -0.6453  0.0528 -0.1144
    2CHTO   H68  691   3.738   6.890   2.168  1.2732 -0.0454  0.3145
    2CHTO   C39  692   3.793   7.100   2.345 -0.3054  0.0711 -0.1731
    2CHTO   H81  693   3.791   7.145   2.246 -2.7286 -0.9110 -0.5919
    2CHTO    N7  694   3.663   7.142   2.403  0.3851  0.6081 -0.1503
    2CHTO   H73  695   3.606   7.177   2.318  1.5791 -0.3082 -1.3598
    2CHTO   H74  696   3.684   7.213   2.482 -0.3919  0.2484  0.3798
    2CHTO   C40  697   3.913   7.171   2.422  0.6138  0.2948  0.3516
    2CHTO   H82  698   3.901   7.161   2.530  1.2337 -2.8630  0.1608
    2CHTO   O26  699   4.031   7.114   2.379 -0.0756 -0.9688  0.1506
    2CHTO   C41  700   4.062   6.970   2.389  0.6609 -0.7641  0.0311
    2CHTO   H83  701   4.045   6.942   2.494  2.1468  2.1755  1.1210
    2CHTO   C52  702   4.205   6.930   2.338  0.0249 -0.0340 -0.2690
    2CHTO   O35  703   4.200   6.982   2.185  0.2482  0.1497  0.1682
    2CHTO   H71  704   4.287   6.986   2.151 -0.0696 -0.0235 -0.6720
    2CHTO   O28  705   3.914   7.312   2.395 -0.1907  0.2492  0.1253
    2CHTO   C42  706   4.000   7.413   2.452 -0.5659 -0.5843 -0.1264
    2CHTO   H84  707   3.995   7.493   2.378 -2.3976  0.9465  1.5949
    2CHTO   C44  708   4.150   7.382   2.470 -0.0397  0.5982  0.5260
    2CHTO   H86  709   4.163   7.287   2.523 -0.0517  1.6100  2.3821
    2CHTO   O32  710   4.199   7.365   2.334 -0.6257  0.3228  0.2082
    2CHTO   H69  711   4.289   7.339   2.339 -0.6419  0.2506  0.1330
    2CHTO   C48  712   4.234   7.489   2.539  0.6644 -0.2739 -0.5565
    2CHTO   H90  713   4.261   7.565   2.466 -1.0957  1.9043  0.9847
    2CHTO    N9  714   4.367   7.427   2.574 -0.3588  0.1333  0.0463
    2CHTO   H77  715   4.441   7.480   2.516  0.1822 -1.0317 -0.3274
    2CHTO   H78  716   4.376   7.320   2.566  1.2978  0.2702 -0.1185
    2CHTO   C51  717   4.155   7.558   2.657 -1.0829 -1.1296  0.7561
    2CHTO   H93  718   4.153   7.492   2.743 -0.7702 -2.8858 -0.5511
    2CHTO   O30  719   4.018   7.594   2.612  0.0945 -0.2131 -0.1022
    2CHTO   C46  720   3.932   7.477   2.580  0.0501  0.1713  0.8780
    2CHTO   H88  721   3.939   7.400   2.656 -1.2981 -1.6809 -0.8286
    2CHTO   C53  722   3.789   7.521   2.551 -0.0988 -0.5018 -0.5776
    2CHTO   O72  723   3.717   7.544   2.673 -0.2329  0.5078 -0.4134
    2CHTO  H199  724   3.625   7.536   2.657 -0.2058 -0.6972 -0.0808
    2CHTO   O22  725   4.222   7.681   2.695 -0.0246  0.4735  0.1835
    2CHTO   C31  726   4.210   7.762   2.819 -0.6184  0.0727  0.0935
    2CHTO   H59  727   4.284   7.845   2.811  2.5811 -2.5196  1.5886
    2CHTO   C29  728   4.069   7.824   2.841  0.3975  0.2187 -0.3291
    2CHTO   H57  729   4.003   7.752   2.790 -1.2091  0.6309  1.1081
    2CHTO   O21  730   4.058   7.941   2.752  0.1310 -0.8743 -0.1556
    2CHTO   H37  731   4.051   7.914   2.663 -0.3189  0.1388 -0.4290
    2CHTO   C27  732   4.014   7.844   2.986  0.6526  0.1620  0.1367
    2CHTO   H55  733   4.073   7.926   3.029 -0.8901  1.4632 -0.1719
    2CHTO    N5  734   3.872   7.884   2.989  0.0180 -0.1670  0.1816
    2CHTO   H43  735   3.841   7.897   3.092  1.7991 -0.8005  0.8254
    2CHTO   H44  736   3.815   7.822   2.922 -0.9136  2.5823 -1.6415
    2CHTO   C25  737   4.052   7.722   3.069 -0.3818  0.2171  0.2459
    2CHTO   H53  738   4.008   7.631   3.027  2.2933 -1.7523  1.5760
    2CHTO   O17  739   4.196   7.715   3.073 -0.0866 -0.0278  0.1925
    2CHTO   C32  740   4.257   7.681   2.947 -0.5836  0.6106 -0.4748
    2CHTO   H60  741   4.212   7.583   2.935  0.2752  0.1026  0.3994
    2CHTO   C36  742   4.404   7.673   2.961  0.3856  0.0152  0.1322
    2CHTO   O25  743   4.428   7.570   3.055  0.5293 -0.1492 -0.2392
    2CHTO   H40  744   4.519   7.548   3.046  0.5738  0.1591 -0.5528
    2CHTO   O15  745   4.007   7.742   3.226 -0.5909  0.0911 -0.0650
    2CHTO   C19  746   3.926   7.644   3.297  0.2337 -0.1498 -0.3552
    2CHTO   H47  747   3.872   7.585   3.222  1.7486 -2.6502  0.4715
    2CHTO   C20  748   4.019   7.540   3.367 -0.5239 -0.4367 -0.1110
    2CHTO   H48  749   4.082   7.586   3.444 -0.4684 -2.1345  0.8863
    2CHTO   O19  750   4.095   7.486   3.254  0.1601  0.0843  0.2699
    2CHTO   H35  751   4.105   7.393   3.266 -0.2655  0.0969  0.6912
    2CHTO   C21  752   3.936   7.428   3.440 -0.2173  0.6745 -0.7129
    2CHTO   H49  753   3.891   7.365   3.363 -1.3550  1.6521 -0.8630
    2CHTO    N4  754   4.018   7.322   3.505 -0.4302  0.3760  0.3622
    2CHTO   H41  755   4.123   7.335   3.483 -0.1317 -0.2852  1.3768
    2CHTO   H42  756   4.006   7.322   3.612  1.8061 -0.2168  0.6243
    2CHTO   C22  757   3.835   7.499   3.537 -0.0700 -0.0588  0.6523
    2CHTO   H50  758   3.876   7.565   3.613 -1.9098  0.3905  1.2848
    2CHTO   O14  759   3.754   7.577   3.450 -0.3866  0.1983  0.0776
    2CHTO   C23  760   3.823   7.693   3.399 -0.2313 -0.5344  0.1198
    2CHTO   H51  761   3.868   7.760   3.474  0.9997  1.3728 -2.2295
    2CHTO   C34  762   3.712   7.777   3.331 -0.3558 -0.8743 -0.1206
    2CHTO   O23  763   3.608   7.810   3.426  0.6339 -0.4042  0.0068
    2CHTO   H38  764   3.532   7.835   3.378  1.9345  1.7028 -1.0618
    2CHTO   O16  765   3.746   7.408   3.600 -0.4109 -0.4421  0.1378
    2CHTO   C24  766   3.716   7.428   3.770 -0.3968 -0.6619  0.0440
    2CHTO   H52  767   3.776   7.504   3.819 -0.7577 -0.8382  0.7740
    2CHTO   C26  768   3.743   7.291   3.841 -1.3070 -0.2106  0.1496
    2CHTO   H54  769   3.677   7.217   3.791 -0.5376  0.0192 -1.2134
    2CHTO   O20  770   3.884   7.273   3.822  0.0040 -0.2969 -0.0863
    2CHTO   H36  771   3.942   7.312   3.885  2.2073 -1.0362 -1.5830
    2CHTO   C30  772   3.696   7.300   3.989 -0.1370  0.4252  0.3207
    2CHTO   H58  773   3.772   7.360   4.042 -0.1352  0.9108 -0.2279
    2CHTO    N6  774   3.709   7.171   4.066  0.1477 -0.7523 -0.1569
    2CHTO   H45  775   3.787   7.177   4.141 -0.5706 -2.9491  0.8083
    2CHTO   H46  776   3.615   7.162   4.118 -0.1036 -0.5209 -0.5708
    2CHTO   C33  777   3.557   7.362   4.007  0.7801 -0.0490  0.2560
    2CHTO   H61  778   3.475   7.299   3.971 -0.5243  0.4085  2.4047
    2CHTO   O18  779   3.546   7.484   3.932 -0.0815 -0.1904  0.7294
    2CHTO   C28  780   3.572   7.477   3.796 -0.2160  0.0230  0.3844
    2CHTO   H56  781   3.500   7.414   3.744  0.0032  0.7999 -0.8986
    2CHTO   C35  782   3.539   7.616   3.736  0.4897 -0.5906  0.7089
    2CHTO   O24  783   3.632   7.715   3.778 -0.7429 -0.6722 -0.6489
    2CHTO   H39  784   3.684   7.743   3.705  0.5508  0.8182  0.7919
    2CHTO    O9  785   3.527   7.383   4.138  0.3427 -0.0367  0.0772
    2CHTO   C13  786   3.383   7.437   4.185  0.4923  0.8441 -0.0378
    2CHTO   H26  787   3.299   7.410   4.117  0.0787  1.2607  0.2991
    2CHTO   C11  788   3.403   7.595   4.193  0.2353  0.1583  0.1581
    2CHTO   H24  789   3.409   7.647   4.096  1.5333  1.2222  0.8068
    2CHTO    O8  790   3.534   7.630   4.243 -0.2917  0.3080 -0.0444
    2CHTO    H3  791   3.588   7.575   4.189  0.9501  1.7081 -0.2483
    2CHTO    C9  792   3.283   7.646   4.274  0.6472 -0.6341 -0.4168
    2CHTO   H22  793   3.192   7.602   4.228 -0.5794  0.8429  0.5471
    2CHTO    N2  794   3.260   7.793   4.252 -0.1031 -0.2107  0.0630
    2CHTO   H10  795   3.337   7.855   4.297 -2.3723  1.7847  1.3612
    2CHTO   H11  796   3.237   7.825   4.152  1.5786 -2.2278 -0.9963
    2CHTO    C7  797   3.303   7.603   4.425  0.0623  0.4766 -0.0007
    2CHTO   H20  798   3.214   7.648   4.474  0.4338  0.7627  0.4091
    2CHTO    O4  799   3.305   7.457   4.436 -0.3462 -0.7216 -0.0811
    2CHTO   C14  800   3.363   7.371   4.333  0.4003 -0.3474 -0.2022
    2CHTO   H27  801   3.294   7.285   4.323  1.1293 -1.1083  1.1364
    2CHTO   C18  802   3.490   7.315   4.401  0.3530  0.0923 -0.1408
    2CHTO   O13  803   3.445   7.221   4.496  0.3790 -0.4386 -0.1905
    2CHTO    H7  804   3.444   7.252   4.584  1.6779  0.3041 -0.4266
    2CHTO    O2  805   3.443   7.666   4.490  0.0505  0.5624 -0.1732
    2CHTO    C1  806   3.454   7.690   4.629 -0.3136 -0.2217 -0.3034
    2CHTO   H14  807   3.398   7.609   4.680  0.3561 -0.6167 -0.1883
    2CHTO    C2  808   3.397   7.828   4.681 -0.2265  0.2008 -0.4605
    2CHTO   H15  809   3.439   7.909   4.619 -1.4444 -0.6304 -2.4261
    2CHTO    O6  810   3.255   7.828   4.670  0.3912 -0.3293 -0.0984
    2CHTO    H1  811   3.213   7.793   4.746  0.9103  0.3146  0.4890
    2CHTO    C3  812   3.444   7.851   4.835  0.2595 -0.3457  0.4880
    2CHTO   H16  813   3.392   7.775   4.896  1.3926  0.4869  2.5378
    2CHTO    N1  814   3.397   7.986   4.881  0.1200 -0.2736 -0.0811
    2CHTO    H8  815   3.325   7.966   4.958 -1.1824 -0.3762 -1.3172
    2CHTO    H9  816   3.481   8.045   4.916 -1.7881  1.4957  1.6786
    2CHTO    C4  817   3.595   7.826   4.859  0.4197 -0.0288 -0.7922
    2CHTO   H17  818   3.654   7.909   4.818  0.0018  0.7034  0.0728
    2CHTO    O1  819   3.634   7.702   4.802 -0.1057 -0.1662  0.3595
    2CHTO    C5  820   3.610   7.674   4.662 -0.2834  0.2944 -1.1497
    2CHTO   H18  821   3.660   7.745   4.597  1.0375 -0.3813 -0.8831
    2CHTO   C16  822   3.671   7.539   4.627  0.7625  0.0682 -0.0313
    2CHTO   O11  823   3.607   7.426   4.689  0.2645 -0.1657  0.2343
    2CHTO    H5  824   3.649   7.412   4.772  1.7534 -0.1839 -0.4999
    2CHTO    O3  825   3.630   7.827   4.998 -0.3974  0.0174  0.1148
    2CHTO    C6  826   3.772   7.815   5.020 -0.2357  0.3327 -0.6812
    2CHTO   H19  827   3.835   7.800   4.932  0.8207  1.8757 -0.2080
    2CHTO    C8  828   3.813   7.947   5.100  0.0281 -0.0178 -0.0593
    2CHTO   H21  829   3.744   7.970   5.182 -0.6193  0.0492 -0.6228
    2CHTO    O7  830   3.811   8.046   5.005  0.0957 -0.3778  0.7149
    2CHTO    H2  831   3.853   8.014   4.928 -0.7727 -1.4410  0.6688
    2CHTO   C12  832   3.959   7.939   5.159 -0.1431 -0.2418  0.5152
    2CHTO   H25  833   4.022   7.938   5.067  2.1451  0.9036  2.0036
    2CHTO    N3  834   4.001   8.056   5.241 -0.2269  0.5071  0.7775
    2CHTO   H12  835   3.936   8.061   5.327  0.7750 -0.4950  1.6083
    2CHTO   H13  836   4.004   8.141   5.175 -1.8655  1.9782  2.5366
    2CHTO   C15  837   3.980   7.811   5.242  0.0231 -0.2996  0.4126
    2CHTO   H28  838   3.925   7.813   5.336  0.4875  0.4803  0.6704
    2CHTO   O10  839   4.128   7.775   5.270  0.4181  0.5800  0.0362
    2CHTO    H4  840   4.135   7.710   5.338 -2.5864  1.1305  0.9302
    2CHTO    O5  841   3.929   7.694   5.172  0.3504  0.3174 -0.0451
    2CHTO   C10  842   3.792   7.701   5.117 -0.1810 -0.3848 -0.5559
    2CHTO   H23  843   3.724   7.722   5.199  0.2215  0.9442 -0.5625
    2CHTO   C17  844   3.755   7.561   5.057 -0.2035 -0.0936 -0.1144
    2CHTO   O12  845   3.738   7.472   5.167 -0.2804 -0.1019  0.0467
    2CHTO    H6  846   3.816   7.453   5.216  0.1201  3.6097  1.0090
    3CHTO  H203  847   7.418   2.540   0.538  1.3570 -2.3729 -1.4361
    3CHTO   O82  848   7.422   2.496   0.621  0.2004  0.0271 -0.0373
    3CHTO  C123  849   7.435   2.355   0.601  0.2447  0.0569  0.7743
    3CHTO  H227  850   7.504   2.347   0.516  1.1309  2.2490  1.2581
    3CHTO   O77  851   7.480   2.295   0.725  0.2093 -0.4021 -0.5547
    3CHTO  C118  852   7.531   2.165   0.700 -0.7018 -0.7109  0.3296
    3CHTO  H222  853   7.598   2.150   0.614 -1.1964  0.8398 -0.3232
    3CHTO  C125  854   7.605   2.118   0.826 -0.2475 -0.2300 -0.3602
    3CHTO   O84  855   7.716   2.206   0.857 -0.2395  0.0421  0.6410
    3CHTO  H205  856   7.772   2.149   0.907  2.0939  1.5078 -0.2310
    3CHTO  C114  857   7.409   2.076   0.684 -0.1715 -0.3180  0.3454
    3CHTO  H218  858   7.351   2.092   0.774  0.4397  0.4793  0.6132
    3CHTO  C116  859   7.324   2.128   0.564  0.4782 -0.1173  0.5904
    3CHTO  H220  860   7.389   2.123   0.474  0.2561  2.1406  0.2635
    3CHTO   O79  861   7.200   2.058   0.543 -1.3355  0.1179  0.2109
    3CHTO  H201  862   7.210   1.991   0.479 -1.1614 -1.2525  1.6479
    3CHTO  C120  863   7.291   2.284   0.569 -0.5187  0.0198  0.0855
    3CHTO  H224  864   7.217   2.312   0.646 -0.0837 -0.5722  0.7219
    3CHTO   N21  865   7.227   2.331   0.447  0.6231 -0.5108 -0.3218
    3CHTO  H211  866   7.124   2.302   0.440  0.7683 -1.2945  0.7377
    3CHTO  H212  867   7.279   2.299   0.357  0.9648  0.1511 -0.3701
    3CHTO   O75  868   7.470   1.942   0.674 -0.3561  0.1341  0.5828
    3CHTO  C112  869   7.359   1.824   0.759 -0.1966  0.0741  0.2187
    3CHTO  H216  870   7.259   1.870   0.750 -0.0188  0.7201  1.4702
    3CHTO   O73  871   7.395   1.809   0.897  0.2444  0.5374 -0.1758
    3CHTO  C113  872   7.290   1.754   0.982 -0.5213  0.4096 -0.1725
    3CHTO  H217  873   7.194   1.810   0.978 -0.1878  0.9071 -1.2785
    3CHTO  C124  874   7.345   1.764   1.123  0.6464  0.1617 -0.0607
    3CHTO   O83  875   7.347   1.896   1.164 -0.2795 -0.2150  0.8825
    3CHTO  H204  876   7.374   1.894   1.254 -1.7312  0.6704  1.3396
    3CHTO  C109  877   7.246   1.617   0.945  0.2342  0.6116  0.3457
    3CHTO  H213  878   7.327   1.547   0.970 -0.8370 -0.1826  1.6527
    3CHTO  C110  879   7.221   1.608   0.791  0.4538  0.6094 -0.5301
    3CHTO  H214  880   7.134   1.666   0.761 -0.4141  0.5566  1.7729
    3CHTO   O78  881   7.186   1.473   0.754 -0.2439  0.1115 -0.4840
    3CHTO  H200  882   7.155   1.472   0.666 -1.6938  1.3242 -0.0015
    3CHTO  C111  883   7.342   1.666   0.714  0.2485  0.2764  0.5358
    3CHTO  H215  884   7.430   1.615   0.756 -0.2599  0.0869  1.3784
    3CHTO   N19  885   7.349   1.660   0.567  0.2483 -0.5574  0.0120
    3CHTO  H207  886   7.449   1.649   0.531 -0.1431  1.0485 -1.5969
    3CHTO  H208  887   7.306   1.747   0.520 -1.7532 -1.1620  0.6433
    3CHTO   O74  888   7.127   1.582   1.015  0.2665 -0.7651  0.4036
    3CHTO  C115  889   7.148   1.466   1.132 -0.3093  0.1389  0.1935
    3CHTO  H219  890   7.254   1.442   1.141 -0.3401  0.2492  0.8598
    3CHTO   O76  891   7.106   1.525   1.287  0.3740 -0.5931 -0.0392
    3CHTO  C122  892   6.964   1.560   1.273  0.1570  0.1195 -0.5487
    3CHTO  H226  893   6.960   1.665   1.245  0.5865  0.0599 -0.8401
    3CHTO  C126  894   6.887   1.558   1.412  0.4467  0.4491  0.4550
    3CHTO   O85  895   6.929   1.667   1.485 -0.0389  0.1673 -0.4207
    3CHTO  H206  896   6.882   1.673   1.566 -1.4340 -3.4589 -0.8552
    3CHTO  C121  897   6.871   1.482   1.164 -0.4899 -0.0190  0.5962
    3CHTO  H225  898   6.768   1.469   1.203 -1.0293  2.2484  0.0476
    3CHTO   O81  899   6.855   1.560   1.043  0.4392  0.2403 -0.4627
    3CHTO  H202  900   6.832   1.649   1.061 -0.3516 -0.1251  0.3368
    3CHTO  C119  901   6.927   1.334   1.130  0.2925  0.1224 -0.3179
    3CHTO  H223  902   6.927   1.289   1.229  0.0911 -0.3521 -0.5314
    3CHTO  C117  903   7.074   1.338   1.082  0.0117  0.4245 -0.2269
    3CHTO  H221  904   7.094   1.342   0.975  0.4833 -0.2879 -0.1715
    3CHTO   N20  905   7.152   1.213   1.121  0.1006  0.1520  0.0786
    3CHTO  H209  906   7.170   1.192   1.225  3.1441  0.5979 -0.2919
    3CHTO  H210  907   7.108   1.125   1.077  0.0540  0.1661  0.0972
    3CHTO   O80  908   6.824   1.237   1.059  0.1219  0.3234  0.2077
    3CHTO  C103  909   6.708   1.157   1.147  1.2942 -0.5685  0.0946
    3CHTO  H190  910   6.750   1.142   1.247 -1.9735  1.9938  1.9600
    3CHTO  C101  911   6.559   1.218   1.153  0.1958 -0.2909 -0.7386
    3CHTO  H188  912   6.534   1.233   1.048  0.0147  1.3275 -0.4721
    3CHTO   O68  913   6.562   1.357   1.235  0.0255  0.2562  0.7692
    3CHTO  H168  914   6.476   1.388   1.256 -0.1520  0.5323 -0.3382
    3CHTO   C99  915   6.467   1.113   1.223  0.2691  0.4188  1.1511
    3CHTO  H186  916   6.501   1.100   1.328  2.0461  1.2197  0.6912
    3CHTO   N17  917   6.330   1.159   1.248  0.1039 -0.8821  0.4449
    3CHTO  H174  918   6.307   1.240   1.180  2.2014 -2.1005 -1.7983
    3CHTO  H175  919   6.302   1.188   1.348  1.5928  1.5988  0.1773
    3CHTO   C97  920   6.467   0.973   1.151 -0.1738  0.3328 -0.0679
    3CHTO  H184  921   6.408   0.983   1.059 -1.4884 -2.0678  0.4614
    3CHTO   O64  922   6.602   0.928   1.128 -0.6670 -0.2082  0.4506
    3CHTO  C104  923   6.699   1.015   1.068 -0.4572 -0.1349  0.4375
    3CHTO  H191  924   6.689   1.030   0.960  3.5832 -3.0052 -0.4783
    3CHTO  C108  925   6.833   0.947   1.077 -0.3498 -0.2293 -0.3588
    3CHTO   O71  926   6.840   0.807   1.038  0.2785 -0.2907  0.1682
    3CHTO  H171  927   6.832   0.798   0.945  1.2381  0.1908  0.0310
    3CHTO   O62  928   6.415   0.867   1.231 -0.3610  0.0741 -0.0955
    3CHTO   C91  929   6.356   0.751   1.166 -0.5741 -0.4498 -0.5934
    3CHTO  H178  930   6.363   0.771   1.059 -2.5789 -2.8866 -1.2371
    3CHTO   C92  931   6.204   0.757   1.205 -0.0596 -0.2811  0.0215
    3CHTO  H179  932   6.201   0.773   1.314 -1.9067 -3.0564  0.4357
    3CHTO   O66  933   6.145   0.881   1.159  0.0022 -0.0085 -0.4645
    3CHTO  H166  934   6.052   0.886   1.163 -0.0644 -0.0358 -1.6704
    3CHTO   C93  935   6.119   0.630   1.158  0.0686 -1.3366 -0.1278
    3CHTO  H180  936   6.097   0.651   1.052  1.2874  1.9897  0.2184
    3CHTO   N16  937   5.987   0.620   1.236  0.4743  0.0793  0.0158
    3CHTO  H172  938   6.010   0.649   1.338 -0.2359 -2.6289  0.9838
    3CHTO  H173  939   5.926   0.697   1.190 -0.3324 -0.9191 -0.5951
    3CHTO   C94  940   6.195   0.492   1.168  0.2078 -0.5465 -0.2193
    3CHTO  H181  941   6.182   0.443   1.264 -0.1255  0.8151  0.4403
    3CHTO   O61  942   6.337   0.507   1.144  0.5866 -0.2478 -0.6347
    3CHTO   C95  943   6.406   0.609   1.214  0.2597 -0.0198 -0.1713
    3CHTO  H182  944   6.384   0.606   1.320  1.1233  0.1496  0.0169
    3CHTO  C106  945   6.572   0.604   1.189  0.4130  0.5334  0.5841
    3CHTO   O69  946   6.599   0.620   1.054 -0.3442  0.3506 -0.2839
    3CHTO  H169  947   6.554   0.693   1.016  0.4059  0.9359 -0.0518
    3CHTO   O63  948   6.154   0.423   1.061  0.4102 -0.1712 -0.2319
    3CHTO   C96  949   6.068   0.299   1.068 -0.2328  0.4753  0.1908
    3CHTO  H183  950   6.084   0.251   0.972 -0.7445  1.2607 -0.2908
    3CHTO   C98  951   5.913   0.314   1.086  0.2036  0.1641 -0.4703
    3CHTO  H185  952   5.886   0.374   1.175 -1.9122  0.1878 -1.0951
    3CHTO   O67  953   5.866   0.381   0.973  0.0166 -0.3873  0.4439
    3CHTO  H167  954   5.877   0.334   0.893 -1.4749 -1.8670  1.0831
    3CHTO  C102  955   5.846   0.168   1.096  0.4190 -0.1496  0.0042
    3CHTO  H189  956   5.860   0.122   0.997  0.1895 -0.0167 -0.0918
    3CHTO   N18  957   5.699   0.171   1.110 -0.3667 -0.3324  0.4054
    3CHTO  H176  958   5.654   0.163   1.012  1.1179  0.3083 -0.3382
    3CHTO  H177  959   5.674   0.271   1.141  0.7241 -0.5088  1.9352
    3CHTO  C105  960   5.912   0.078   1.197 -0.0443 -0.2553 -0.2128
    3CHTO  H192  961   5.901   0.125   1.295 -1.0645 -0.3601 -0.2636
    3CHTO   O65  962   6.054   0.073   1.177 -0.1507 -0.3038  0.2230
    3CHTO  C100  963   6.115   0.203   1.185 -0.7435  0.2725  0.6372
    3CHTO  H187  964   6.087   0.258   1.276  0.6086  0.8329  0.7329
    3CHTO  C107  965   6.268   0.166   1.181  0.3220 -0.2783 -0.1278
    3CHTO   O70  966   6.307   0.123   1.311 -0.3652  0.0693 -0.1943
    3CHTO  H170  967   6.326   0.203   1.356  0.2730 -0.2715  0.1420
    3CHTO   O57  968   5.838  -0.081   1.211 -0.1831 -0.1326 -0.3394
    3CHTO   C85  969   5.839  -0.144   1.338  0.1644 -0.2150 -0.2969
    3CHTO  H157  970   5.828  -0.249   1.307  2.4340 -0.1216 -1.5271
    3CHTO   C83  971   5.713  -0.096   1.408  0.1970  0.0758 -0.5173
    3CHTO  H155  972   5.626  -0.112   1.343 -1.0446  1.7506  0.6668
    3CHTO   O56  973   5.715   0.043   1.422 -0.2057 -0.2621  0.1381
    3CHTO  H135  974   5.681   0.082   1.345 -0.1252 -0.0145  0.2280
    3CHTO   C81  975   5.697  -0.175   1.545  0.2531  0.0307  0.0297
    3CHTO  H153  976   5.707  -0.282   1.530  1.3373 -0.0630  1.3351
    3CHTO   N14  977   5.557  -0.151   1.603  0.0423 -0.0294  0.0351
    3CHTO  H141  978   5.480  -0.198   1.545 -1.1084  1.8475  0.0039
    3CHTO  H142  979   5.530  -0.048   1.610 -1.0894 -0.3001 -0.3012
    3CHTO   C79  980   5.818  -0.137   1.633 -0.5189  0.0878 -0.1245
    3CHTO  H151  981   5.809  -0.196   1.724 -2.3831  2.0342  0.9962
    3CHTO   O52  982   5.941  -0.181   1.568 -0.6905 -0.1048  0.3786
    3CHTO   C86  983   5.965  -0.134   1.436 -0.8316  0.2056  1.2288
    3CHTO  H158  984   6.000  -0.029   1.448 -0.3110  0.0814  0.8194
    3CHTO   C90  985   6.087  -0.214   1.374 -0.2637 -0.2261 -0.2524
    3CHTO   O60  986   6.215  -0.178   1.436 -0.1466 -0.5936  0.0738
    3CHTO  H138  987   6.245  -0.097   1.399 -1.0932 -0.4534 -0.3983
    3CHTO   O50  988   5.824  -0.001   1.669  0.5565  0.0841 -0.3207
    3CHTO   C73  989   5.856   0.072   1.787 -0.9945 -0.5710  0.3198
    3CHTO  H145  990   5.948   0.027   1.828 -1.6476 -1.4273  0.8538
    3CHTO   C74  991   5.740   0.077   1.895  0.3892 -0.5481 -0.6412
    3CHTO  H146  992   5.716  -0.028   1.917 -2.2377 -0.1280 -1.3291
    3CHTO   O54  993   5.793   0.143   2.011 -0.5354 -0.2893 -0.2212
    3CHTO  H133  994   5.753   0.224   2.039  0.0968 -0.1046  0.1582
    3CHTO   C75  995   5.616   0.152   1.838 -0.0448 -0.4854 -0.3921
    3CHTO  H147  996   5.575   0.101   1.750  0.4923 -0.5301 -0.6132
    3CHTO   N13  997   5.499   0.171   1.923  0.5111 -0.0039 -0.1610
    3CHTO  H139  998   5.511   0.125   2.020 -1.3626  0.2741  0.2070
    3CHTO  H140  999   5.470   0.273   1.941 -2.1519 -0.3089 -2.3883
    3CHTO   C76 1000   5.662   0.293   1.792  0.2066  0.3371  0.0281
    3CHTO  H148 1001   5.702   0.350   1.876  0.9440 -2.4382  1.6293
    3CHTO   O49 1002   5.777   0.281   1.695 -0.0443 -0.3006  0.1443
    3CHTO   C77 1003   5.893   0.212   1.748 -0.4735  0.4066 -0.0876
    3CHTO  H149 1004   5.928   0.263   1.838  1.6096 -2.6286  0.8830
    3CHTO   C88 1005   5.999   0.235   1.642 -0.0037 -0.6053 -0.2028
    3CHTO   O58 1006   6.118   0.176   1.688  0.0314  0.5573  0.3016
    3CHTO  H136 1007   6.185   0.207   1.630 -0.3675  0.6257 -0.1272
    3CHTO   O51 1008   5.554   0.371   1.710  1.3747  0.1736 -0.3271
    3CHTO   C78 1009   5.578   0.525   1.680  0.5054  0.3335 -0.0788
    3CHTO  H150 1010   5.685   0.552   1.697 -0.1324  2.5705  0.4985
    3CHTO   C80 1011   5.488   0.614   1.768 -0.0235 -0.2095 -0.3106
    3CHTO  H152 1012   5.386   0.586   1.736  1.2966 -3.4215 -1.9767
    3CHTO   O55 1013   5.512   0.586   1.908 -0.2463 -0.3519  0.0361
    3CHTO  H134 1014   5.472   0.502   1.917 -0.7832 -0.0465  0.5376
    3CHTO   C84 1015   5.508   0.767   1.738  0.6475 -0.3774 -0.4786
    3CHTO  H156 1016   5.610   0.796   1.763  0.3851 -0.2259  0.4305
    3CHTO   N15 1017   5.429   0.847   1.836 -0.0811 -0.0535  0.2690
    3CHTO  H143 1018   5.489   0.930   1.866 -0.5749 -0.6571  3.0075
    3CHTO  H144 1019   5.399   0.788   1.920 -1.0652  1.3830  0.9558
    3CHTO   C87 1020   5.483   0.800   1.589 -0.0889  0.5247 -0.2750
    3CHTO  H159 1021   5.375   0.800   1.578 -0.1914  0.9983  0.7471
    3CHTO   O53 1022   5.553   0.690   1.504 -0.4491  0.0987  0.2160
    3CHTO   C82 1023   5.538   0.549   1.534  0.3120  0.0651 -0.0868
    3CHTO  H154 1024   5.434   0.518   1.529  0.2759  0.2177 -0.2531
    3CHTO   C89 1025   5.620   0.460   1.441  0.2222 -0.7359 -0.2273
    3CHTO   O59 1026   5.573   0.325   1.430 -0.1938 -0.0224  0.3097
    3CHTO  H137 1027   5.648   0.270   1.419 -1.6172 -2.1177  0.8307
    3CHTO   O45 1028   5.532   0.953   1.547 -0.8192 -0.1964 -0.3373
    3CHTO   C67 1029   5.670   0.979   1.536  0.4053 -0.2247 -0.3051
    3CHTO  H124 1030   5.732   0.897   1.573 -0.6529 -1.4592 -1.2169
    3CHTO   C65 1031   5.707   1.005   1.388 -0.0399  0.0228 -0.2023
    3CHTO  H122 1032   5.621   1.039   1.330 -2.1329 -3.3047  0.8627
    3CHTO   O44 1033   5.753   0.875   1.341  0.0096 -0.0062 -0.3874
    3CHTO  H102 1034   5.818   0.841   1.398  0.3902  2.2029  0.5465
    3CHTO   C63 1035   5.810   1.119   1.367  0.3707  1.1115  0.3580
    3CHTO  H120 1036   5.766   1.217   1.384  0.4170  1.3714 -0.9591
    3CHTO   N11 1037   5.857   1.136   1.224 -0.1894 -0.1696  0.2022
    3CHTO  H108 1038   5.939   1.068   1.236 -1.0309 -1.2202  0.1109
    3CHTO  H109 1039   5.778   1.104   1.159 -0.6595 -1.7155  1.4905
    3CHTO   C61 1040   5.917   1.098   1.479 -0.0387  0.2063 -0.3796
    3CHTO  H118 1041   5.992   1.176   1.461  0.0012  0.2141 -0.1870
    3CHTO   O40 1042   5.865   1.119   1.601  0.3147 -0.1243 -0.4009
    3CHTO   C68 1043   5.721   1.105   1.623 -0.1458  0.0312 -0.0276
    3CHTO  H125 1044   5.664   1.192   1.584  0.0924  0.6828  1.0659
    3CHTO   C72 1045   5.678   1.084   1.776 -0.0655 -0.1665  0.5982
    3CHTO   O48 1046   5.743   0.982   1.851 -0.0847  0.2360  0.1943
    3CHTO  H105 1047   5.834   1.002   1.849 -0.2553  1.0859  0.7240
    3CHTO   O38 1048   5.982   0.969   1.468  0.1020 -0.2997 -0.9004
    3CHTO   C55 1049   6.071   0.920   1.575  0.2174 -0.4457  1.0649
    3CHTO  H112 1050   6.032   0.956   1.671  1.2381 -0.0959  1.3542
    3CHTO   C56 1051   6.224   0.966   1.552  0.7165  0.0481  0.1228
    3CHTO  H113 1052   6.261   0.942   1.451  0.5962  2.2197 -0.4798
    3CHTO   O42 1053   6.244   1.110   1.565  0.4906  0.2872 -0.3581
    3CHTO  H100 1054   6.219   1.134   1.652 -0.9683 -2.1253 -0.0613
    3CHTO   C57 1055   6.331   0.893   1.648 -0.1329 -1.0291 -0.8705
    3CHTO  H114 1056   6.317   0.925   1.752  0.5954 -1.4947 -0.6255
    3CHTO   N10 1057   6.477   0.923   1.620  0.2055 -0.2493 -0.1240
    3CHTO  H106 1058   6.537   0.952   1.705  0.3464 -1.4864  0.2203
    3CHTO  H107 1059   6.494   0.988   1.536  0.8897 -0.3630 -0.0716
    3CHTO   C58 1060   6.309   0.741   1.639  0.2747  0.0833 -0.5337
    3CHTO  H115 1061   6.331   0.706   1.536 -1.8513  3.5183 -2.2430
    3CHTO   O37 1062   6.170   0.716   1.674 -0.2657 -0.7409 -0.6035
    3CHTO   C59 1063   6.078   0.770   1.582 -0.5917  0.6817  0.2144
    3CHTO  H116 1064   6.109   0.733   1.484  1.5603  1.2492  0.6799
    3CHTO   C70 1065   5.935   0.705   1.609 -0.3587 -0.5623  0.0133
    3CHTO   O46 1066   5.934   0.569   1.574 -0.1011  0.0249 -1.1652
    3CHTO  H103 1067   5.845   0.541   1.573  0.0897 -0.5504 -2.0548
    3CHTO   O39 1068   6.397   0.658   1.762 -0.0863 -0.4684 -0.6977
    3CHTO   C60 1069   6.479   0.546   1.715 -0.5028 -0.2838 -0.2797
    3CHTO  H117 1070   6.428   0.497   1.632 -1.0327 -1.0742  0.5038
    3CHTO   C62 1071   6.611   0.592   1.650  0.5704 -0.8270 -0.1361
    3CHTO  H119 1072   6.588   0.637   1.552  0.4976  0.5149  0.4926
    3CHTO   O43 1073   6.680   0.681   1.741 -0.2214 -0.3656 -0.0827
    3CHTO  H101 1074   6.632   0.761   1.753 -0.3313 -0.3096 -0.8501
    3CHTO   C66 1075   6.705   0.469   1.607 -0.8037  0.1947 -0.0998
    3CHTO  H123 1076   6.653   0.410   1.532 -2.1004  1.6882 -0.4170
    3CHTO   N12 1077   6.831   0.517   1.548  0.2938  0.5083 -0.2838
    3CHTO  H110 1078   6.820   0.513   1.440 -0.1623  0.7166 -0.2446
    3CHTO  H111 1079   6.859   0.620   1.569 -2.2260  1.5228 -1.6761
    3CHTO   C69 1080   6.729   0.386   1.735 -0.4644  0.1796 -0.0351
    3CHTO  H126 1081   6.774   0.451   1.813 -0.6410  0.9135 -0.5438
    3CHTO   O41 1082   6.607   0.335   1.795  0.0204  0.0861 -0.4146
    3CHTO   C64 1083   6.496   0.439   1.830 -0.2939  0.1373 -0.3417
    3CHTO  H121 1084   6.523   0.492   1.924 -2.3787 -1.0144  0.9375
    3CHTO   C71 1085   6.361   0.360   1.848  0.6730  0.4254  0.0652
    3CHTO   O47 1086   6.356   0.257   1.944  0.3023 -0.2765 -0.1165
    3CHTO  H104 1087   6.268   0.233   1.964 -0.0023  0.1308 -0.9504
    3CHTO   O34 1088   6.822   0.253   1.701 -0.1235  0.3568 -0.2603
    3CHTO   C49 1089   6.829   0.142   1.593 -0.0113 -0.0596  0.6479
    3CHTO   H91 1090   6.871   0.195   1.508 -0.4564  0.6092  0.8372
    3CHTO   C47 1091   6.682   0.103   1.556 -0.0637  0.2936  1.0018
    3CHTO   H89 1092   6.653   0.181   1.483  1.1485 -1.3055 -1.2177
    3CHTO   O33 1093   6.575   0.094   1.647 -0.3169 -0.9522 -0.0895
    3CHTO   H70 1094   6.528   0.175   1.658  1.1970 -0.2245  1.4281
    3CHTO   C45 1095   6.692  -0.036   1.484 -0.3935  0.7761  0.0713
    3CHTO   H87 1096   6.673  -0.112   1.561 -3.9972  0.9252 -0.6113
    3CHTO    N8 1097   6.585  -0.055   1.386  0.1883 -0.1328 -0.0611
    3CHTO   H75 1098   6.602  -0.003   1.293  0.6319  1.7709  1.0600
    3CHTO   H76 1099   6.542  -0.154   1.373  0.2009  0.1455 -2.3479
    3CHTO   C43 1100   6.840  -0.082   1.428 -0.8883 -0.6934  0.5613
    3CHTO   H85 1101   6.822  -0.185   1.396 -0.4004 -1.2466  2.0535
    3CHTO   O29 1102   6.940  -0.077   1.527 -0.2057  0.4750 -0.4671
    3CHTO   C50 1103   6.912   0.013   1.635 -0.3350  0.5606  0.6925
    3CHTO   H92 1104   6.856  -0.038   1.715 -0.8312 -0.9600 -0.5808
    3CHTO   C54 1105   7.053   0.043   1.692 -0.0828  0.3303  0.0534
    3CHTO   O36 1106   7.048   0.133   1.806  0.1219  0.6510 -0.3262
    3CHTO   H72 1107   7.137   0.152   1.829 -0.7932  0.8503  3.4118
    3CHTO   O27 1108   6.886   0.007   1.323 -0.0234  0.0738 -0.1273
    3CHTO   C37 1109   6.992   0.058   1.250 -0.1032  0.7528 -0.3081
    3CHTO   H79 1110   7.070   0.089   1.321 -0.1456 -1.4645  0.7341
    3CHTO   C38 1111   7.052  -0.058   1.160  0.1692  0.2894 -0.1140
    3CHTO   H80 1112   6.974  -0.110   1.103 -0.2777  1.7473 -0.8656
    3CHTO   O31 1113   7.099  -0.154   1.259  0.0739  0.1257 -0.0212
    3CHTO   H68 1114   7.155  -0.213   1.212  1.1590  0.7789  0.4186
    3CHTO   C39 1115   7.171  -0.002   1.069  0.1608 -0.1687  0.2927
    3CHTO   H81 1116   7.255   0.027   1.132  0.7520 -2.4322  0.6109
    3CHTO    N7 1117   7.225  -0.105   0.974 -0.0899  0.0942 -0.0359
    3CHTO   H73 1118   7.325  -0.084   0.940 -0.4614 -0.5598 -1.6058
    3CHTO   H74 1119   7.226  -0.199   1.028  0.8807 -0.7550 -1.4958
    3CHTO   C40 1120   7.118   0.123   0.991  0.6605 -0.1420 -0.0747
    3CHTO   H82 1121   7.033   0.083   0.936 -0.1894 -0.7697  1.6474
    3CHTO   O26 1122   7.074   0.218   1.086  0.2298 -0.0828  0.0900
    3CHTO   C41 1123   6.954   0.173   1.158 -0.5040 -0.2587 -0.2263
    3CHTO   H83 1124   6.873   0.135   1.093  1.1990 -2.4684 -1.1148
    3CHTO   C52 1125   6.911   0.303   1.234 -0.6716  0.6206 -0.1988
    3CHTO   O35 1126   6.876   0.419   1.152  0.0714 -0.8156  0.2134
    3CHTO   H71 1127   6.914   0.499   1.185 -0.7923 -1.2128  2.2080
    3CHTO   O28 1128   7.204   0.186   0.896  0.1622 -0.0463  0.3894
    3CHTO   C42 1129   7.180   0.304   0.814  0.1166  0.0743  0.0684
    3CHTO   H84 1130   7.238   0.283   0.724  0.6768  2.0949 -0.0570
    3CHTO   C44 1131   7.233   0.436   0.874  0.0503  0.0447  0.5942
    3CHTO   H86 1132   7.209   0.431   0.980  0.3015 -0.0521  0.6459
    3CHTO   O32 1133   7.381   0.433   0.879 -0.5173 -0.2943 -0.5520
    3CHTO   H69 1134   7.421   0.514   0.855  0.1900 -0.1781  0.9617
    3CHTO   C48 1135   7.177   0.572   0.815  0.3840  0.6376 -0.6626
    3CHTO   H90 1136   7.234   0.585   0.722  2.5280 -2.6121  0.1147
    3CHTO    N9 1137   7.198   0.694   0.913 -0.6038  1.3472  0.1841
    3CHTO   H77 1138   7.266   0.681   0.996 -1.2972  2.0960  0.8844
    3CHTO   H78 1139   7.226   0.785   0.861  0.6359  0.8929  0.0309
    3CHTO   C51 1140   7.021   0.566   0.774 -0.1440  0.2031 -0.0833
    3CHTO   H93 1141   6.960   0.558   0.865 -3.0439  1.9518 -1.7828
    3CHTO   O30 1142   7.004   0.455   0.686 -0.3393 -0.0629  0.2385
    3CHTO   C46 1143   7.029   0.322   0.775  0.8611  0.4466 -0.3206
    3CHTO   H88 1144   6.976   0.339   0.868  0.1425 -0.3962 -0.5730
    3CHTO   C53 1145   6.971   0.204   0.683 -0.4229 -0.4806  0.1971
    3CHTO   O72 1146   7.045   0.161   0.569 -0.3735  0.0087  0.1820
    3CHTO  H199 1147   7.103   0.092   0.594 -1.0256 -0.1850  1.1676
    3CHTO   O22 1148   6.986   0.689   0.700 -0.1424  0.2767  0.3546
    3CHTO   C31 1149   6.861   0.705   0.620  0.3219 -0.4025 -0.0371
    3CHTO   H59 1150   6.844   0.613   0.561  0.5211  0.0302 -0.7773
    3CHTO   C29 1151   6.738   0.724   0.711  0.1621 -0.9008 -0.0909
    3CHTO   H57 1152   6.766   0.810   0.773 -0.0805 -0.2514 -0.8899
    3CHTO   O21 1153   6.723   0.601   0.785 -0.0592 -0.0017  0.7324
    3CHTO   H37 1154   6.676   0.626   0.863 -0.4891  0.4229  0.3384
    3CHTO   C27 1155   6.608   0.766   0.634 -0.4698  0.3496 -0.1740
    3CHTO   H55 1156   6.570   0.680   0.576 -1.2416 -0.3126  1.2960
    3CHTO    N5 1157   6.504   0.808   0.734 -0.1234  0.7468  0.3300
    3CHTO   H43 1158   6.449   0.895   0.701 -0.4544  0.7373  0.8607
    3CHTO   H44 1159   6.441   0.722   0.746  2.2738 -0.9067  1.2873
    3CHTO   C25 1160   6.635   0.872   0.520 -0.1322  0.2812  0.0831
    3CHTO   H53 1161   6.637   0.978   0.549  0.7947  1.2040 -3.1096
    3CHTO   O17 1162   6.750   0.833   0.436 -0.1641 -0.9403 -0.2203
    3CHTO   C32 1163   6.869   0.826   0.521  0.1085 -0.0270 -0.2994
    3CHTO   H60 1164   6.878   0.918   0.579  0.6349 -0.4248  0.2559
    3CHTO   C36 1165   6.997   0.807   0.430 -0.2042 -0.4713 -0.8315
    3CHTO   O25 1166   7.012   0.899   0.325  0.1930 -0.5208  0.3474
    3CHTO   H40 1167   6.984   0.987   0.344  0.0950 -0.4116 -0.3128
    3CHTO   O15 1168   6.511   0.881   0.424  0.0681  0.1810  0.5282
    3CHTO   C19 1169   6.447   1.001   0.371  0.4443  0.6218 -0.6313
    3CHTO   H47 1170   6.365   0.970   0.305  0.6048  0.6531 -0.8453
    3CHTO   C20 1171   6.382   1.085   0.489 -0.0672 -0.3721  0.6687
    3CHTO   H48 1172   6.455   1.104   0.569  0.2675  1.7836 -0.1099
    3CHTO   O19 1173   6.280   1.001   0.542 -0.2911 -0.2497  0.0414
    3CHTO   H35 1174   6.241   1.046   0.614 -2.4405 -0.9875 -0.6294
    3CHTO   C21 1175   6.335   1.233   0.454 -0.9470  0.4437 -0.0901
    3CHTO   H49 1176   6.241   1.224   0.399 -0.3067 -1.5730 -0.8990
    3CHTO    N4 1177   6.302   1.306   0.577  0.0473  0.2298  0.5096
    3CHTO   H41 1178   6.385   1.319   0.645 -0.8328 -1.1038  1.8863
    3CHTO   H42 1179   6.218   1.269   0.635 -1.3797  0.3878 -1.4239
    3CHTO   C22 1180   6.439   1.294   0.355 -0.2664 -0.7106  0.0766
    3CHTO   H50 1181   6.523   1.320   0.419 -1.5813  2.3216  0.6375
    3CHTO   O14 1182   6.469   1.206   0.244 -0.5361  0.4575  0.4016
    3CHTO   C23 1183   6.540   1.087   0.283 -0.1798 -0.5761 -0.0398
    3CHTO   H51 1184   6.629   1.116   0.339 -0.8174 -0.5599  0.9804
    3CHTO   C34 1185   6.588   1.020   0.156  0.0437  0.1839 -0.1402
    3CHTO   O23 1186   6.684   1.107   0.089 -0.0680  0.1468 -0.0953
    3CHTO   H38 1187   6.680   1.197   0.114  2.8349  0.6661 -1.3189
    3CHTO   O16 1188   6.383   1.417   0.301  0.0346  0.0039  0.6591
    3CHTO   C24 1189   6.470   1.489   0.182  0.0167 -0.0801  0.3205
    3CHTO   H52 1190   6.537   1.419   0.131 -0.3009 -0.5928  0.5960
    3CHTO   C26 1191   6.549   1.603   0.236  0.5114 -0.0035 -0.0614
    3CHTO   H54 1192   6.476   1.669   0.289 -0.6014 -1.2026 -0.0732
    3CHTO   O20 1193   6.642   1.557   0.337  0.2490  0.3176  0.2899
    3CHTO   H36 1194   6.691   1.486   0.301  0.5619  0.0057  1.3288
    3CHTO   C30 1195   6.628   1.677   0.124 -0.4587 -0.5743 -0.3973
    3CHTO   H58 1196   6.720   1.618   0.107 -0.7129 -1.0030 -0.2704
    3CHTO    N6 1197   6.682   1.806   0.172 -0.3469  0.2984  0.0840
    3CHTO   H45 1198   6.603   1.836   0.239 -0.9191 -2.0745  0.5013
    3CHTO   H46 1199   6.684   1.872   0.086  0.3799 -0.3661 -0.4198
    3CHTO   C33 1200   6.555   1.689  -0.018  0.8592 -0.6535 -0.3075
    3CHTO   H61 1201   6.503   1.785  -0.014  1.6506 -0.2180 -0.4040
    3CHTO   O18 1202   6.465   1.584  -0.038 -0.4160  0.0832  0.4462
    3CHTO   C28 1203   6.386   1.550   0.074 -0.1192  0.4923 -0.7133
    3CHTO   H56 1204   6.327   1.631   0.117  2.2257  1.4399  0.7849
    3CHTO   C35 1205   6.275   1.446   0.025 -0.1627 -0.1540 -0.0669
    3CHTO   O24 1206   6.174   1.389   0.113  0.2019  0.2265  0.3265
    3CHTO   H39 1207   6.087   1.401   0.080  0.0168  2.0409  1.3813
    3CHTO    O9 1208   6.641   1.701  -0.128 -0.6539  0.0419  0.2807
    3CHTO   C13 1209   6.748   1.812  -0.151  0.2303 -0.5522 -0.4014
    3CHTO   H26 1210   6.730   1.900  -0.086  0.4830 -1.7611  1.3668
    3CHTO   C11 1211   6.750   1.845  -0.297  1.2811 -0.2798 -0.0996
    3CHTO   H24 1212   6.648   1.877  -0.322  1.9128  3.8456  2.1835
    3CHTO    O8 1213   6.761   1.732  -0.383 -0.0412  0.0579  0.5898
    3CHTO    H3 1214   6.848   1.700  -0.373  0.6396  1.9646  1.0449
    3CHTO    C9 1215   6.863   1.952  -0.320  0.3336 -0.1325 -0.0999
    3CHTO   H22 1216   6.846   2.031  -0.245 -3.6933 -1.9703  1.0655
    3CHTO    N2 1217   6.843   2.027  -0.451 -0.0828  0.1202  0.1130
    3CHTO   H10 1218   6.927   2.092  -0.465  1.1153 -0.8225  2.6653
    3CHTO   H11 1219   6.842   1.958  -0.535  2.8570  2.3849 -1.8601
    3CHTO    C7 1220   7.003   1.896  -0.294 -0.7235  0.1792  0.5104
    3CHTO   H20 1221   7.073   1.980  -0.311 -1.5085  0.3923 -1.8668
    3CHTO    O4 1222   7.009   1.826  -0.165  0.0290  0.4066 -0.0330
    3CHTO   C14 1223   6.898   1.754  -0.112  0.4438 -0.6055 -0.0741
    3CHTO   H27 1224   6.919   1.761  -0.003  0.7491  2.1761 -0.2872
    3CHTO   C18 1225   6.920   1.600  -0.149 -0.0375  0.6887 -0.5022
    3CHTO   O13 1226   7.027   1.532  -0.074 -0.4183  0.3052  0.0480
    3CHTO    H7 1227   7.014   1.535   0.019 -0.3272 -2.4900  0.1660
    3CHTO    O2 1228   7.052   1.789  -0.415  0.5724 -0.0325  1.1828
    3CHTO    C1 1229   7.191   1.757  -0.412 -0.1069 -0.0551 -0.4205
    3CHTO   H14 1230   7.220   1.726  -0.309 -3.1766 -2.6933 -0.2510
    3CHTO    C2 1231   7.296   1.870  -0.467 -0.2878 -0.1421 -0.1431
    3CHTO   H15 1232   7.249   1.902  -0.560 -0.5509  2.6363  0.9102
    3CHTO    O6 1233   7.307   1.986  -0.383  0.6169 -0.3764 -0.7365
    3CHTO    H1 1234   7.392   2.026  -0.390  0.6764 -0.2397  0.6169
    3CHTO    C3 1235   7.446   1.806  -0.478  1.2536  0.1933 -0.4479
    3CHTO   H16 1236   7.485   1.792  -0.376 -0.4805 -1.9298 -0.0180
    3CHTO    N1 1237   7.528   1.892  -0.561 -0.2879  0.3819  1.0474
    3CHTO    H8 1238   7.544   1.841  -0.655 -1.7057 -1.3947  1.7586
    3CHTO    H9 1239   7.614   1.937  -0.513  0.8369 -1.5866  0.9259
    3CHTO    C4 1240   7.444   1.661  -0.538  0.1816  0.3245 -0.9863
    3CHTO   H17 1241   7.426   1.656  -0.645 -0.5901  1.5570 -0.9171
    3CHTO    O1 1242   7.344   1.573  -0.481 -0.4144 -0.4464 -0.6640
    3CHTO    C5 1243   7.217   1.625  -0.493 -0.0073 -0.1767  0.8230
    3CHTO   H18 1244   7.196   1.648  -0.597 -1.0473 -1.0037  0.8268
    3CHTO   C16 1245   7.118   1.511  -0.455 -0.4735  0.7673 -0.3001
    3CHTO   O11 1246   7.139   1.401  -0.545 -0.4756 -0.3923 -0.1969
    3CHTO    H5 1247   7.229   1.378  -0.534 -0.5196 -1.1309 -1.3337
    3CHTO    O3 1248   7.566   1.595  -0.500  0.9081 -0.2722  0.2157
    3CHTO    C6 1249   7.602   1.467  -0.572  0.3573 -0.0531  0.2779
    3CHTO   H19 1250   7.520   1.406  -0.609  1.5133 -1.5281  0.1190
    3CHTO    C8 1251   7.697   1.500  -0.694  0.3654  0.3034 -0.3584
    3CHTO   H21 1252   7.775   1.568  -0.660  0.5941  0.4985 -1.2429
    3CHTO    O7 1253   7.609   1.560  -0.789  1.2207 -0.1347  0.4986
    3CHTO    H2 1254   7.522   1.581  -0.759  0.8838 -1.9905  0.8577
    3CHTO   C12 1255   7.761   1.368  -0.758  0.0586  0.2710  0.3809
    3CHTO   H25 1256   7.680   1.301  -0.795  0.6217 -0.6381  0.7811
    3CHTO    N3 1257   7.848   1.397  -0.868  0.1651  0.2443 -0.1217
    3CHTO   H12 1258   7.871   1.305  -0.920  1.0889  1.2553 -1.5462
    3CHTO   H13 1259   7.939   1.446  -0.837 -0.6212  2.0157 -0.5619
    3CHTO   C15 1260   7.835   1.294  -0.648  0.1490  0.1720 -0.6321
    3CHTO   H28 1261   7.930   1.340  -0.621 -0.4527 -0.4122  2.6067
    3CHTO   O10 1262   7.858   1.134  -0.708  0.1435 -0.0383  0.1207
    3CHTO    H4 1263   7.902   1.085  -0.642 -0.7156 -0.5815  0.2960
    3CHTO    O5 1264   7.752   1.269  -0.533 -0.0050  0.0399  0.4511
    3CHTO   C10 1265   7.679   1.379  -0.469 -0.0207 -0.4765  0.7537
    3CHTO   H23 1266   7.761   1.439  -0.431  0.3167 -2.6126  3.6035
    3CHTO   C17 1267   7.582   1.330  -0.358  0.2254 -0.3502 -0.4168
    3CHTO   O12 1268   7.652   1.242  -0.275 -0.4786 -0.2982 -0.2348
    3CHTO    H6 1269   7.659   1.156  -0.313 -2.0033 -1.3322  1.6868
    4CHTO  H203 1270   6.893   7.635   2.158  0.1840  1.3413  0.9684
    4CHTO   O82 1271   6.954   7.670   2.096  0.1746  0.4529  0.4573
    4CHTO  C123 1272   6.911   7.792   2.044 -0.1633  0.4893 -0.8007
    4CHTO  H227 1273   6.822   7.827   2.099  0.0869 -0.5182  0.2886
    4CHTO   O77 1274   7.025   7.878   2.082  0.1143  0.4971 -0.3140
    4CHTO  C118 1275   7.006   8.020   2.054  0.0910  0.5066 -0.0184
    4CHTO  H222 1276   6.909   8.044   2.098  0.7643  0.5417  1.4812
    4CHTO  C125 1277   7.117   8.108   2.118 -0.1837  0.3127 -0.3534
    4CHTO   O84 1278   7.104   8.246   2.099 -0.3028  0.0482 -0.6763
    4CHTO  H205 1279   7.038   8.280   2.157 -1.3706 -1.7673 -0.8008
    4CHTO  C114 1280   6.992   8.038   1.900 -0.2894 -0.3831 -0.1687
    4CHTO  H218 1281   7.090   8.027   1.854  0.5919  0.1868  1.5425
    4CHTO  C116 1282   6.889   7.949   1.829 -0.3758  0.4425 -0.1324
    4CHTO  H220 1283   6.792   7.997   1.852 -1.0263 -1.1575  0.4938
    4CHTO   O79 1284   6.910   7.945   1.682 -0.3115  0.1555 -0.3358
    4CHTO  H201 1285   6.866   8.016   1.638 -0.9475 -0.4404 -0.6669
    4CHTO  C120 1286   6.896   7.796   1.885  0.0298  0.0631  0.3657
    4CHTO  H224 1287   6.983   7.747   1.838 -0.7230 -1.0067  0.0739
    4CHTO   N21 1288   6.784   7.710   1.836  0.3287 -0.0237  0.3353
    4CHTO  H211 1289   6.764   7.623   1.896  3.3842 -0.8950  0.1927
    4CHTO  H212 1290   6.773   7.708   1.728  0.4294  1.0515  0.2913
    4CHTO   O75 1291   6.960   8.176   1.896 -0.2925  0.1513  0.6231
    4CHTO  C112 1292   6.999   8.271   1.785 -0.5436  0.4355  0.1294
    4CHTO  H216 1293   6.978   8.220   1.690 -0.6042  1.0446 -0.1860
    4CHTO   O73 1294   7.139   8.303   1.797 -0.1157  0.1509  0.3635
    4CHTO  C113 1295   7.197   8.368   1.685  0.2282 -0.0911  0.3957
    4CHTO  H217 1296   7.188   8.308   1.592 -1.0141 -0.6976  0.8915
    4CHTO  C124 1297   7.352   8.375   1.717  0.2032 -0.0912 -0.2377
    4CHTO   O83 1298   7.402   8.242   1.706  0.5170 -0.1582 -0.0474
    4CHTO  H204 1299   7.480   8.224   1.756  1.6948  3.1592 -0.6168
    4CHTO  C109 1300   7.131   8.512   1.666 -0.5118  0.2637 -0.2789
    4CHTO  H213 1301   7.158   8.572   1.754 -2.2629  0.4659  0.1302
    4CHTO  C110 1302   6.976   8.498   1.674 -0.2804  0.0157 -0.3809
    4CHTO  H214 1303   6.934   8.460   1.581  0.6777 -1.2213 -0.3139
    4CHTO   O78 1304   6.925   8.634   1.687  0.0256  0.6470  0.1792
    4CHTO  H200 1305   6.833   8.620   1.698 -0.2621  0.2432 -2.3624
    4CHTO  C111 1306   6.922   8.411   1.789 -0.6684  1.2464  0.3387
    4CHTO  H215 1307   6.942   8.463   1.883  1.4456 -2.5648  2.1260
    4CHTO   N19 1308   6.777   8.395   1.782  0.1721  0.2527 -0.5763
    4CHTO  H207 1309   6.747   8.366   1.682  2.1345  1.4365 -1.5359
    4CHTO  H208 1310   6.733   8.334   1.859  0.1798  3.3483  1.9787
    4CHTO   O74 1311   7.184   8.578   1.544  0.5035  0.1642 -0.1890
    4CHTO  C115 1312   7.178   8.728   1.540  0.2456  0.1992  0.4582
    4CHTO  H219 1313   7.089   8.767   1.589 -0.3482  1.3828 -1.4823
    4CHTO   O76 1314   7.289   8.789   1.608 -0.0626 -0.2080 -0.0951
    4CHTO  C122 1315   7.421   8.753   1.566  0.1211 -0.1667  0.5644
    4CHTO  H226 1316   7.450   8.669   1.630 -0.7766 -1.2020 -0.3731
    4CHTO  C126 1317   7.522   8.868   1.599 -0.0361 -0.2362 -0.3617
    4CHTO   O85 1318   7.555   8.872   1.739 -0.4369  0.3922 -0.0830
    4CHTO  H206 1319   7.603   8.947   1.770  0.0872 -0.0447  0.1700
    4CHTO  C121 1320   7.427   8.713   1.407 -0.1595 -0.3209  0.5548
    4CHTO  H225 1321   7.525   8.752   1.372  0.4213 -2.0700  0.1747
    4CHTO   O81 1322   7.409   8.568   1.382 -0.2552 -0.1930 -0.0588
    4CHTO  H202 1323   7.490   8.526   1.401 -0.1007  0.6437  1.1949
    4CHTO  C119 1324   7.316   8.790   1.336  0.1497 -0.8440 -0.2347
    4CHTO  H223 1325   7.344   8.893   1.360 -0.4789 -0.9118  0.8187
    4CHTO  C117 1326   7.168   8.777   1.385 -0.6704  0.6462  0.2082
    4CHTO  H221 1327   7.101   8.708   1.334  0.3925  0.9290 -1.6203
    4CHTO   N20 1328   7.094   8.914   1.381 -0.1433  0.0007  0.7856
    4CHTO  H209 1329   7.092   8.961   1.478  1.0824  3.0995 -0.6190
    4CHTO  H210 1330   6.991   8.888   1.365 -1.6363  3.7239  3.5332
    4CHTO   O80 1331   7.323   8.796   1.183 -0.5714  0.0528 -0.0178
    4CHTO  C103 1332   7.469   8.781   1.106  0.3805 -0.3667  0.2899
    4CHTO  H190 1333   7.557   8.787   1.170  0.0080  1.8484  0.6427
    4CHTO  C101 1334   7.478   8.659   1.014  0.2943  0.0982  0.4758
    4CHTO  H188 1335   7.398   8.670   0.939  0.2883 -0.4462  0.4028
    4CHTO   O68 1336   7.470   8.520   1.104 -0.3320 -0.7690  0.3465
    4CHTO  H168 1337   7.556   8.491   1.129  0.3830  0.8635 -0.0986
    4CHTO   C99 1338   7.609   8.671   0.935 -0.5721  0.1854  0.0536
    4CHTO  H186 1339   7.688   8.671   1.014  0.5134 -1.8381 -0.9891
    4CHTO   N17 1340   7.637   8.545   0.848  0.1888 -0.3714 -0.1899
    4CHTO  H174 1341   7.723   8.550   0.783  0.2138 -2.5127 -0.3696
    4CHTO  H175 1342   7.638   8.454   0.906  2.7510 -0.9962 -1.1656
    4CHTO   C97 1343   7.621   8.807   0.857  0.0536 -0.2874 -0.4015
    4CHTO  H184 1344   7.554   8.806   0.770  0.7364  0.3133 -0.9437
    4CHTO   O64 1345   7.587   8.922   0.945 -0.1751  0.5519 -0.3457
    4CHTO  C104 1346   7.466   8.912   1.022 -0.3322  0.3211 -0.3114
    4CHTO  H191 1347   7.378   8.913   0.957 -2.5641  1.5327  2.6372
    4CHTO  C108 1348   7.461   9.045   1.102 -0.2167  0.0864 -0.2337
    4CHTO   O71 1349   7.418   9.160   1.025  0.8328  0.7468 -0.2578
    4CHTO  H171 1350   7.424   9.230   1.087  2.4704  2.2132 -1.9876
    4CHTO   O62 1351   7.759   8.831   0.810 -0.1929 -0.4018 -0.0431
    4CHTO   C91 1352   7.765   8.906   0.691 -0.0890 -0.2193  0.3001
    4CHTO  H178 1353   7.666   8.935   0.656 -0.3327 -0.5795  0.6957
    4CHTO   C92 1354   7.823   8.809   0.578 -0.1221  0.1527  0.0809
    4CHTO  H179 1355   7.910   8.760   0.622  1.8830  1.5990 -2.1224
    4CHTO   O66 1356   7.734   8.707   0.553 -0.2313  0.7566 -0.2201
    4CHTO  H166 1357   7.660   8.734   0.502 -0.9972 -1.9484 -0.6337
    4CHTO   C93 1358   7.859   8.881   0.438  0.3219 -0.2679 -0.2064
    4CHTO  H180 1359   7.770   8.892   0.374 -1.2666 -2.2011  1.6032
    4CHTO   N16 1360   7.951   8.800   0.352  0.3080 -0.1219 -0.1854
    4CHTO  H172 1361   8.047   8.777   0.397 -0.4057 -1.9572  0.4401
    4CHTO  H173 1362   7.962   8.830   0.249  1.2222 -1.3293 -0.4507
    4CHTO   C94 1363   7.922   9.018   0.452  0.4332  0.6792 -0.3409
    4CHTO  H181 1364   8.024   9.012   0.490  0.3604  0.9946 -0.0969
    4CHTO   O61 1365   7.849   9.092   0.551  0.2088 -0.6112  0.3281
    4CHTO   C95 1366   7.856   9.032   0.681  0.2140 -0.0192 -1.3343
    4CHTO  H182 1367   7.958   8.999   0.703  0.9663  4.1948  2.0981
    4CHTO  C106 1368   7.820   9.132   0.787  0.2946 -0.3090  0.4227
    4CHTO   O69 1369   7.685   9.179   0.775 -0.1208  0.5623  0.0833
    4CHTO  H169 1370   7.678   9.256   0.722 -3.7631 -1.0178 -1.9064
    4CHTO   O63 1371   7.919   9.117   0.317  0.2579 -0.5207  0.2236
    4CHTO   C96 1372   7.785   9.202   0.293 -0.2133  1.0098 -0.5246
    4CHTO  H183 1373   7.722   9.176   0.378 -0.9690  0.8765 -1.1215
    4CHTO   C98 1374   7.703   9.178   0.167 -0.0561 -0.0497  0.4741
    4CHTO  H185 1375   7.763   9.200   0.078  1.1141 -2.5505  0.6074
    4CHTO   O67 1376   7.661   9.039   0.152 -0.0480  0.0939 -0.1406
    4CHTO  H167 1377   7.702   9.007   0.074  1.1026 -0.0386  0.5146
    4CHTO  C102 1378   7.569   9.262   0.169 -0.7580  0.0839  0.4280
    4CHTO  H189 1379   7.505   9.224   0.250 -0.0231  2.6201  2.2927
    4CHTO   N18 1380   7.479   9.259   0.046  0.3284 -0.2004  0.0230
    4CHTO  H176 1381   7.525   9.312  -0.037  2.8884 -0.6766  1.0682
    4CHTO  H177 1382   7.381   9.299   0.064 -0.8450 -2.4090 -1.3156
    4CHTO  C105 1383   7.595   9.410   0.214  0.1229  0.0744 -0.1865
    4CHTO  H192 1384   7.616   9.470   0.126 -1.1130  0.1002 -0.4739
    4CHTO   O65 1385   7.707   9.428   0.309 -0.0692  0.0273  0.4646
    4CHTO  C100 1386   7.828   9.350   0.296  0.5173 -0.6988  0.7196
    4CHTO  H187 1387   7.885   9.373   0.205 -1.0556  1.6036  0.2625
    4CHTO  C107 1388   7.917   9.384   0.417 -0.3225 -0.4367  0.0270
    4CHTO   O70 1389   7.853   9.372   0.539  0.3536 -0.2875  0.3702
    4CHTO  H170 1390   7.868   9.437   0.605  2.1494  2.0793 -2.2382
    4CHTO   O57 1391   7.464   9.454   0.287  0.5413  0.1443  0.2936
    4CHTO   C85 1392   7.438   9.523   0.409 -0.6651 -0.3928  0.4319
    4CHTO  H157 1393   7.516   9.599   0.431 -0.6162 -0.6205  1.0448
    4CHTO   C83 1394   7.449   9.431   0.536  0.0313 -0.4105  0.9724
    4CHTO  H155 1395   7.553   9.436   0.566 -0.0479  2.5865  0.8965
    4CHTO   O56 1396   7.417   9.296   0.500 -0.0294 -0.0967  0.1383
    4CHTO  H135 1397   7.337   9.271   0.457 -0.4810 -0.1315  0.9889
    4CHTO   C81 1398   7.366   9.498   0.651 -0.3091  0.7369  0.1848
    4CHTO  H153 1399   7.408   9.598   0.663 -0.4200  0.7056  0.8671
    4CHTO   N14 1400   7.384   9.426   0.777  0.6878 -0.0321 -0.1845
    4CHTO  H141 1401   7.436   9.483   0.852  1.5329  0.1555 -0.9019
    4CHTO  H142 1402   7.446   9.341   0.756  0.9086  0.9399 -3.5859
    4CHTO   C79 1403   7.223   9.515   0.606  0.1086  0.0306  0.4630
    4CHTO  H151 1404   7.166   9.554   0.690  1.0611  1.1987  0.5693
    4CHTO   O52 1405   7.218   9.624   0.514  0.0282 -0.2476  0.0934
    4CHTO   C86 1406   7.297   9.588   0.400 -0.0501 -0.4472  0.2559
    4CHTO  H158 1407   7.225   9.518   0.352  0.3144  1.0735 -2.5911
    4CHTO   C90 1408   7.300   9.712   0.303  0.4031  0.5762 -0.8193
    4CHTO   O60 1409   7.378   9.681   0.186  0.0486  0.3994 -0.1513
    4CHTO  H138 1410   7.443   9.615   0.198  0.8092  1.4966  1.9217
    4CHTO   O50 1411   7.155   9.394   0.567  0.5062 -0.0361  0.3023
    4CHTO   C73 1412   7.049   9.304   0.538  0.2487  0.1835 -0.9933
    4CHTO  H145 1413   6.957   9.356   0.507 -0.6763 -0.8544 -0.0464
    4CHTO   C74 1414   7.007   9.226   0.670  0.0000 -0.6702 -0.0186
    4CHTO  H146 1415   6.982   9.304   0.743  1.5002  0.3814 -0.5864
    4CHTO   O54 1416   6.878   9.165   0.658  0.2346  0.0433  0.0900
    4CHTO  H133 1417   6.835   9.167   0.741  0.3491 -0.5658  0.1631
    4CHTO   C75 1418   7.126   9.130   0.715  0.0963  0.0322  0.4820
    4CHTO  H147 1419   7.210   9.194   0.747  0.8814 -0.2892 -0.9087
    4CHTO   N13 1420   7.084   9.051   0.839 -0.0876  0.0500 -0.2456
    4CHTO  H139 1421   7.058   8.949   0.819 -1.5890  0.4791 -0.5118
    4CHTO  H140 1422   7.149   9.051   0.925 -0.4924  0.4844  0.0633
    4CHTO   C76 1423   7.160   9.038   0.581 -0.5260 -0.3262 -0.3449
    4CHTO  H148 1424   7.072   8.978   0.561  0.3334 -1.6092 -0.3625
    4CHTO   O49 1425   7.202   9.118   0.471  0.4239 -0.2539 -0.3039
    4CHTO   C77 1426   7.097   9.207   0.424  0.2269  0.5562 -0.1771
    4CHTO  H149 1427   7.012   9.143   0.399  0.2393  0.3585  0.2740
    4CHTO   C88 1428   7.137   9.281   0.296 -0.2418 -0.1618  0.2521
    4CHTO   O58 1429   7.174   9.171   0.181 -0.2658 -0.1488 -0.0079
    4CHTO  H136 1430   7.230   9.209   0.116 -2.6285  0.8577 -1.5252
    4CHTO   O51 1431   7.295   8.949   0.617 -0.7719 -1.0631  0.3832
    4CHTO   C78 1432   7.282   8.823   0.544  0.3712 -0.1747 -0.5176
    4CHTO  H150 1433   7.209   8.838   0.462 -0.8880 -0.4568  0.5404
    4CHTO   C80 1434   7.228   8.709   0.633  0.7348  0.6684 -0.0602
    4CHTO  H152 1435   7.300   8.700   0.717  0.2828 -2.8279  0.0257
    4CHTO   O55 1436   7.096   8.745   0.681  0.2210  0.3433  0.0416
    4CHTO  H134 1437   7.093   8.807   0.752 -0.6648  0.5003 -0.1289
    4CHTO   C84 1438   7.225   8.568   0.543  0.3030  0.5149  0.2001
    4CHTO  H156 1439   7.154   8.588   0.464 -2.3904  0.0361  2.4251
    4CHTO   N15 1440   7.169   8.451   0.621 -0.0610 -0.0042  0.3231
    4CHTO  H143 1441   7.248   8.412   0.682  1.0532  2.0206  0.2119
    4CHTO  H144 1442   7.139   8.383   0.545 -2.1987  0.0416  1.0826
    4CHTO   C87 1443   7.369   8.542   0.497 -0.9717  0.3081  0.3391
    4CHTO  H159 1444   7.439   8.523   0.579  1.2722  0.6493 -1.4522
    4CHTO   O53 1445   7.418   8.666   0.406  0.0137  0.8336 -0.0246
    4CHTO   C82 1446   7.421   8.787   0.486  0.4954 -0.2515 -0.0867
    4CHTO  H154 1447   7.488   8.767   0.569  0.2870  0.3516  0.2354
    4CHTO   C89 1448   7.479   8.905   0.405 -0.0239 -0.1595  0.4516
    4CHTO   O59 1449   7.501   9.027   0.474  0.3858  0.1195  0.6199
    4CHTO  H137 1450   7.582   9.027   0.521  0.9324  2.4271 -0.2707
    4CHTO   O45 1451   7.381   8.398   0.393  0.1002 -0.1183 -0.0548
    4CHTO   C67 1452   7.516   8.381   0.357 -0.1708  0.1403  0.2040
    4CHTO  H124 1453   7.563   8.470   0.315  2.3832 -0.7238  1.1369
    4CHTO   C65 1454   7.602   8.323   0.477  0.3158  0.0348 -0.1855
    4CHTO  H122 1455   7.586   8.387   0.563 -0.0210  0.5489 -0.6296
    4CHTO   O44 1456   7.743   8.321   0.455  0.6305 -0.6947  0.1952
    4CHTO  H102 1457   7.768   8.247   0.404  1.8759 -0.6822  0.7696
    4CHTO   C63 1458   7.540   8.180   0.524 -0.3235 -0.3817 -0.1040
    4CHTO  H120 1459   7.439   8.193   0.563  0.6116  1.6490  1.7036
    4CHTO   N11 1460   7.602   8.125   0.644  0.0995  0.3532 -0.2803
    4CHTO  H108 1461   7.543   8.044   0.681 -1.2487  1.1864 -0.5973
    4CHTO  H109 1462   7.703   8.090   0.638  0.3406  0.7816  1.0296
    4CHTO   C61 1463   7.534   8.073   0.400 -0.1546  0.0018  0.5284
    4CHTO  H118 1464   7.466   7.994   0.434 -0.0129 -0.1685  0.4182
    4CHTO   O40 1465   7.464   8.146   0.280  0.5936  0.2681 -0.1286
    4CHTO   C68 1466   7.526   8.274   0.238  0.2664 -0.2149  0.2468
    4CHTO  H125 1467   7.458   8.302   0.155  0.6641 -0.4329 -0.1547
    4CHTO   C72 1468   7.666   8.265   0.175 -0.6283 -0.0102  0.2300
    4CHTO   O48 1469   7.669   8.196   0.044  0.2291  0.0899 -0.3497
    4CHTO  H105 1470   7.753   8.157   0.030 -1.8527 -5.1837  0.9238
    4CHTO   O38 1471   7.662   8.009   0.362  0.0485 -0.1270 -0.0483
    4CHTO   C55 1472   7.652   7.868   0.329 -0.0683  0.6081  0.8155
    4CHTO  H112 1473   7.554   7.846   0.285  1.6693  0.1663 -3.0867
    4CHTO   C56 1474   7.683   7.779   0.462  0.4301  0.2376 -0.0567
    4CHTO  H113 1475   7.791   7.789   0.480  0.8267 -2.9902 -0.3367
    4CHTO   O42 1476   7.613   7.828   0.576 -0.6307 -0.0084  0.3922
    4CHTO  H100 1477   7.637   7.916   0.596 -2.3821  0.9888 -1.6905
    4CHTO   C57 1478   7.666   7.619   0.441 -0.0387  0.1540 -0.3887
    4CHTO  H114 1479   7.558   7.616   0.428 -0.4157 -0.0662  2.4600
    4CHTO   N10 1480   7.716   7.529   0.548  0.3140  0.3134 -0.3928
    4CHTO  H106 1481   7.665   7.434   0.556  0.3697  0.3179  0.0248
    4CHTO  H107 1482   7.823   7.513   0.548  0.2074 -0.4475  0.1817
    4CHTO   C58 1483   7.744   7.582   0.312  0.3512  0.2871  0.4576
    4CHTO  H115 1484   7.854   7.587   0.328  0.2246 -2.5388  2.4754
    4CHTO   O37 1485   7.711   7.669   0.204  0.2103  0.3864 -0.4026
    4CHTO   C59 1486   7.742   7.806   0.220  0.2396 -0.5988 -0.2120
    4CHTO  H116 1487   7.849   7.822   0.236 -0.0541  1.2304  0.0313
    4CHTO   C70 1488   7.723   7.875   0.082 -0.3819  0.6827 -0.2179
    4CHTO   O46 1489   7.815   7.825  -0.015  0.2306  0.6358  0.4927
    4CHTO  H103 1490   7.782   7.848  -0.100  0.6234 -0.0484  0.1464
    4CHTO   O39 1491   7.699   7.409   0.267 -0.5246  0.1367 -0.5106
    4CHTO   C60 1492   7.792   7.326   0.187 -0.2883 -0.0958 -0.1502
    4CHTO  H117 1493   7.881   7.386   0.167 -1.1470  0.5043 -2.2958
    4CHTO   C62 1494   7.843   7.208   0.272  0.2225  0.3362  0.3223
    4CHTO  H119 1495   7.893   7.255   0.360  0.9200  0.4141 -0.1139
    4CHTO   O43 1496   7.727   7.139   0.322 -0.1519 -0.3758  0.5171
    4CHTO  H101 1497   7.756   7.091   0.397 -0.0767  1.0681  1.4276
    4CHTO   C66 1498   7.947   7.122   0.193 -0.3947 -0.5085 -0.1915
    4CHTO  H123 1499   8.032   7.187   0.173 -1.2634  0.4054 -0.9406
    4CHTO   N12 1500   8.004   7.011   0.269  0.4038 -0.4874 -0.0852
    4CHTO  H110 1501   8.057   7.057   0.351 -0.0594 -2.5305  1.3861
    4CHTO  H111 1502   7.920   6.956   0.308  0.0060 -0.9749 -1.5780
    4CHTO   C69 1503   7.886   7.081   0.054  0.0934  0.1850 -0.2446
    4CHTO  H126 1504   7.805   7.008   0.077 -0.4518  0.4011 -1.4339
    4CHTO   O41 1505   7.817   7.209  -0.027 -0.0558  0.5508 -0.0365
    4CHTO   C64 1506   7.726   7.288   0.053 -0.5267  0.4427  0.1399
    4CHTO  H121 1507   7.642   7.217   0.067 -0.0500 -0.2128 -0.3051
    4CHTO   C71 1508   7.674   7.414  -0.026 -0.4823  0.0376  0.0794
    4CHTO   O47 1509   7.773   7.519  -0.032  0.4324 -0.3777 -0.1900
    4CHTO  H104 1510   7.828   7.503  -0.107  2.3871 -1.9458  1.5430
    4CHTO   O34 1511   7.998   7.019  -0.045 -0.6052 -0.0612 -0.1966
    4CHTO   C49 1512   8.076   6.888  -0.090  0.2486  0.2519 -0.4082
    4CHTO   H91 1513   8.177   6.922  -0.109 -0.2082  0.6257 -2.2925
    4CHTO   C47 1514   8.023   6.816  -0.219 -0.0429 -0.4453 -0.1558
    4CHTO   H89 1515   8.093   6.734  -0.244  2.0177  1.4116 -0.6668
    4CHTO   O33 1516   8.020   6.920  -0.316  0.0887  0.3315  0.7275
    4CHTO   H70 1517   7.999   6.879  -0.398 -1.8033  1.2306  0.7543
    4CHTO   C45 1518   7.871   6.757  -0.189  0.8469 -0.4064  0.0708
    4CHTO   H87 1519   7.813   6.842  -0.149  0.1063 -0.3266 -1.1386
    4CHTO    N8 1520   7.797   6.699  -0.308  0.4079 -0.9716  0.0238
    4CHTO   H75 1521   7.761   6.601  -0.278 -1.1655 -0.2349  0.6304
    4CHTO   H76 1522   7.848   6.694  -0.402 -1.4334  0.3595 -1.0725
    4CHTO   C43 1523   7.898   6.643  -0.073  0.1653 -0.0762 -0.1734
    4CHTO   H85 1524   7.797   6.608  -0.052 -0.3133  0.7910 -1.0216
    4CHTO   O29 1525   7.962   6.707   0.044  0.0042 -0.3945 -0.7474
    4CHTO   C50 1526   8.082   6.783   0.017  0.0217  0.6629 -0.0305
    4CHTO   H92 1527   8.109   6.838   0.108 -0.5947  0.2997  0.3755
    4CHTO   C54 1528   8.209   6.692   0.006 -0.4554  0.5986 -0.1979
    4CHTO   O36 1529   8.334   6.760   0.016  0.2828  0.0286 -0.1678
    4CHTO   H72 1530   8.395   6.740  -0.052  1.1623 -1.6122  1.0601
    4CHTO   O27 1531   7.976   6.531  -0.125  0.1107  0.5670  0.9446
    4CHTO   C37 1532   7.991   6.427  -0.218  0.2468  0.0585 -0.7302
    4CHTO   H79 1533   7.956   6.465  -0.315 -0.4085  0.6482 -0.2668
    4CHTO   C38 1534   8.139   6.394  -0.235 -0.1150 -0.2207  0.4631
    4CHTO   H80 1535   8.185   6.367  -0.139 -0.1487 -2.4412 -0.1082
    4CHTO   O31 1536   8.200   6.516  -0.282  0.5619 -0.0271  0.6828
    4CHTO   H68 1537   8.285   6.488  -0.310  0.2893 -0.0186 -0.1708
    4CHTO   C39 1538   8.165   6.271  -0.324  0.1852 -0.3288  0.2215
    4CHTO   H81 1539   8.152   6.305  -0.427  1.6207 -1.1649 -0.2421
    4CHTO    N7 1540   8.306   6.227  -0.332  0.3668 -0.3098 -0.1248
    4CHTO   H73 1541   8.317   6.158  -0.414  1.0005 -0.0831 -0.2297
    4CHTO   H74 1542   8.361   6.315  -0.360  2.5000 -2.2593 -2.2209
    4CHTO   C40 1543   8.063   6.153  -0.299 -0.2496  0.4271  0.2005
    4CHTO   H82 1544   8.088   6.095  -0.210  1.0434  1.4236  0.4952
    4CHTO   O26 1545   7.926   6.208  -0.290  0.0867 -0.3209  0.2569
    4CHTO   C41 1546   7.907   6.308  -0.186  0.0414 -0.6721 -0.4604
    4CHTO   H83 1547   7.950   6.267  -0.093 -0.8169 -0.7689 -0.1038
    4CHTO   C52 1548   7.754   6.330  -0.159  0.6978 -0.0104  0.5421
    4CHTO   O35 1549   7.742   6.371   0.002  0.1452 -0.1988 -0.4581
    4CHTO   H71 1550   7.756   6.298   0.059  0.9171 -0.3377 -0.8160
    4CHTO   O28 1551   8.069   6.057  -0.407  0.2292  0.2009  0.1105
    4CHTO   C42 1552   8.031   5.920  -0.374  0.0098  0.4003  0.0340
    4CHTO   H84 1553   8.008   5.868  -0.467 -1.2808 -0.3024  0.7310
    4CHTO   C44 1554   7.900   5.899  -0.280 -0.1680  0.1407 -0.6389
    4CHTO   H86 1555   7.906   5.955  -0.187  0.3383  0.7871 -1.0590
    4CHTO   O32 1556   7.789   5.948  -0.352  0.1198  0.0907 -0.2596
    4CHTO   H69 1557   7.761   6.035  -0.331 -0.8773  0.2724 -2.1808
    4CHTO   C48 1558   7.882   5.747  -0.234 -0.1875  0.5485 -0.0771
    4CHTO   H90 1559   7.860   5.684  -0.320  0.3179 -1.4835  1.2504
    4CHTO    N9 1560   7.763   5.730  -0.138 -0.0597 -0.2284  0.6345
    4CHTO   H77 1561   7.699   5.654  -0.180 -1.6829  1.0041  0.7775
    4CHTO   H78 1562   7.797   5.706  -0.038  0.5231 -0.9794  0.2547
    4CHTO   C51 1563   8.020   5.692  -0.178 -0.5171 -0.0946  0.6953
    4CHTO   H93 1564   8.054   5.741  -0.088  0.0582  0.8916 -0.0556
    4CHTO   O30 1565   8.121   5.695  -0.281  0.4202  0.2367 -0.3000
    4CHTO   C46 1566   8.158   5.839  -0.314 -0.1776 -0.1868 -0.5168
    4CHTO   H88 1567   8.195   5.881  -0.221  0.6444 -0.4566 -0.7111
    4CHTO   C53 1568   8.267   5.837  -0.413 -0.3062  0.5611  0.5731
    4CHTO   O72 1569   8.387   5.778  -0.357  0.2379  0.5534 -0.1426
    4CHTO  H199 1570   8.453   5.768  -0.423 -0.5100  1.2887 -1.0283
    4CHTO   O22 1571   8.018   5.550  -0.144 -0.3132  0.1552 -0.3685
    4CHTO   C31 1572   8.052   5.506  -0.008  1.1668  0.5744  0.3127
    4CHTO   H59 1573   8.054   5.599   0.053  0.7615  1.2928 -0.7572
    4CHTO   C29 1574   7.942   5.413   0.056 -0.2133 -0.1104  0.6097
    4CHTO   H57 1575   7.929   5.320  -0.001 -0.6568 -0.5842  1.4633
    4CHTO   O21 1576   7.819   5.485   0.062  0.7251  0.0039 -0.4937
    4CHTO   H37 1577   7.825   5.565   0.110  1.1857  0.4428 -1.2701
    4CHTO   C27 1578   7.984   5.368   0.207 -0.5900 -0.1167 -0.2381
    4CHTO   H55 1579   7.977   5.454   0.274 -0.1491 -0.5984  0.4335
    4CHTO    N5 1580   7.904   5.258   0.257  0.0018 -0.8661  0.9472
    4CHTO   H43 1581   7.882   5.257   0.363  2.6270 -2.1636  1.5246
    4CHTO   H44 1582   7.934   5.160   0.222  0.5194 -0.5885  0.6021
    4CHTO   C25 1583   8.138   5.326   0.213  0.5570  0.1958  0.0636
    4CHTO   H53 1584   8.169   5.236   0.157 -1.0615 -0.6182  0.4577
    4CHTO   O17 1585   8.221   5.420   0.139  0.3049  0.1969 -0.0054
    4CHTO   C32 1586   8.195   5.448   0.004  0.0359 -0.1391 -0.4983
    4CHTO   H60 1587   8.198   5.348  -0.040  1.7084 -0.2660 -0.1289
    4CHTO   C36 1588   8.297   5.552  -0.054 -0.1431  0.5036 -0.2084
    4CHTO   O25 1589   8.437   5.518  -0.046  0.2577 -0.4067  0.1213
    4CHTO   H40 1590   8.464   5.500   0.042  0.4940  0.5800  0.2621
    4CHTO   O15 1591   8.190   5.318   0.362 -0.0612 -0.0321 -0.1194
    4CHTO   C19 1592   8.199   5.423   0.463  0.6778 -0.3460 -0.9886
    4CHTO   H47 1593   8.279   5.390   0.530 -2.3436 -1.0496  2.4487
    4CHTO   C20 1594   8.224   5.565   0.413 -0.2255  0.9617  0.7113
    4CHTO   H48 1595   8.146   5.599   0.343 -1.0065  0.4944  1.3597
    4CHTO   O19 1596   8.341   5.561   0.341 -0.0032  0.4487  0.4531
    4CHTO   H35 1597   8.414   5.520   0.384  0.1830 -1.6989 -1.8114
    4CHTO   C21 1598   8.231   5.677   0.526  0.2622 -0.7393  0.0970
    4CHTO   H49 1599   8.313   5.645   0.590  1.0936 -2.2084 -1.6615
    4CHTO    N4 1600   8.255   5.810   0.459  0.6742 -0.4371  0.5702
    4CHTO   H41 1601   8.352   5.813   0.411  1.9834  2.6368  3.2099
    4CHTO   H42 1602   8.248   5.894   0.526  1.4813  1.0829 -1.2016
    4CHTO   C22 1603   8.098   5.664   0.606 -1.0388  0.1390 -0.3289
    4CHTO   H50 1604   8.015   5.678   0.536 -0.3123 -1.9733 -1.6436
    4CHTO   O14 1605   8.086   5.532   0.662  0.2215  0.1034 -0.0422
    4CHTO   C23 1606   8.074   5.428   0.560 -0.3045  0.4799  0.1038
    4CHTO   H51 1607   7.977   5.444   0.510 -0.7141  1.8033  1.2909
    4CHTO   C34 1608   8.056   5.295   0.640 -0.7069 -0.0529 -0.2879
    4CHTO   O23 1609   7.935   5.274   0.712 -0.1315  0.1048 -0.5763
    4CHTO   H38 1610   7.869   5.277   0.646 -0.3661  0.2125 -0.3395
    4CHTO   O16 1611   8.108   5.747   0.722 -0.1999  0.0474 -0.2686
    4CHTO   C24 1612   7.977   5.844   0.761  0.6455  0.1151  0.2207
    4CHTO   H52 1613   7.883   5.791   0.746  0.1476  0.4085  2.1957
    4CHTO   C26 1614   7.982   5.977   0.684  0.4734  0.1581  0.5260
    4CHTO   H54 1615   8.083   6.020   0.697  0.3390  0.7672 -0.4227
    4CHTO   O20 1616   7.950   5.944   0.544  0.5773  0.0759  0.1176
    4CHTO   H36 1617   8.009   5.983   0.483 -0.4781 -0.9171 -1.5844
    4CHTO   C30 1618   7.879   6.079   0.737 -0.0923  0.1611 -1.1889
    4CHTO   H58 1619   7.772   6.061   0.722 -0.5059  1.1712  0.4271
    4CHTO    N6 1620   7.897   6.210   0.673  0.1508  0.3522 -0.6207
    4CHTO   H45 1621   7.805   6.264   0.662  0.4160  0.7288 -1.0362
    4CHTO   H46 1622   7.940   6.182   0.578  1.9664 -0.1636  0.3244
    4CHTO   C33 1623   7.896   6.089   0.896 -0.0037 -0.5196 -0.6703
    4CHTO   H61 1624   7.998   6.124   0.917 -0.2726 -0.3018  0.3033
    4CHTO   O18 1625   7.879   5.959   0.950 -0.7953 -0.0262 -0.2157
    4CHTO   C28 1626   7.982   5.865   0.913  0.2102  0.3433 -0.2392
    4CHTO   H56 1627   8.083   5.902   0.934  1.2170 -1.5374 -1.5852
    4CHTO   C35 1628   7.959   5.729   0.978 -0.2100 -0.3279 -0.3290
    4CHTO   O24 1629   7.939   5.738   1.118  0.4077  0.1538  0.1555
    4CHTO   H39 1630   8.010   5.776   1.165  0.4613 -0.3865  0.5203
    4CHTO    O9 1631   7.813   6.183   0.961  0.4297 -0.5139 -0.2093
    4CHTO   C13 1632   7.838   6.195   1.135 -0.1546 -0.3136 -0.4798
    4CHTO   H26 1633   7.867   6.092   1.163 -1.7077 -1.0338 -1.4321
    4CHTO   C11 1634   7.699   6.226   1.192 -0.4902  0.2487  0.3543
    4CHTO   H24 1635   7.639   6.135   1.177  1.1517 -0.7710 -0.1004
    4CHTO    O8 1636   7.639   6.336   1.116  0.1516  0.0701 -0.1401
    4CHTO    H3 1637   7.597   6.303   1.039 -0.9518 -0.7609  0.7795
    4CHTO    C9 1638   7.709   6.256   1.343 -0.4487  0.4887 -0.3485
    4CHTO   H22 1639   7.764   6.174   1.391 -0.9119  0.8766  0.8723
    4CHTO    N2 1640   7.575   6.251   1.413  0.3241 -0.0905 -0.4562
    4CHTO   H10 1641   7.579   6.271   1.519  1.2377 -2.0023 -0.1096
    4CHTO   H11 1642   7.500   6.303   1.356 -0.8839  0.0734  1.2488
    4CHTO    C7 1643   7.793   6.384   1.369  0.3434 -0.1365 -0.4313
    4CHTO   H20 1644   7.801   6.394   1.480 -1.7204  0.8123 -0.3506
    4CHTO    O4 1645   7.925   6.360   1.315  0.4157 -0.2517  0.1957
    4CHTO   C14 1646   7.953   6.288   1.194 -0.3747  0.9496 -0.8874
    4CHTO   H27 1647   8.039   6.219   1.207 -0.0666  1.3922 -0.5457
    4CHTO   C18 1648   7.993   6.392   1.087 -0.3665  0.5517 -0.1450
    4CHTO   O13 1649   8.119   6.461   1.117 -0.2675  0.4300  0.8410
    4CHTO    H7 1650   8.130   6.526   1.051  0.2897 -1.9976 -1.5635
    4CHTO    O2 1651   7.730   6.519   1.308  0.2946  0.5962  0.3500
    4CHTO    C1 1652   7.772   6.641   1.374 -0.2176 -0.1304  0.2711
    4CHTO   H14 1653   7.753   6.728   1.307  1.7532  0.7227  0.7813
    4CHTO    C2 1654   7.923   6.657   1.417  0.6031 -0.7920 -0.2659
    4CHTO   H15 1655   7.954   6.567   1.473  1.2915 -1.8965 -2.3479
    4CHTO    O6 1656   8.008   6.651   1.301 -0.0875 -0.3829 -0.5395
    4CHTO    H1 1657   7.983   6.720   1.242 -1.7104 -2.2423 -2.1042
    4CHTO    C3 1658   7.955   6.787   1.509 -0.5717  0.2412 -0.0102
    4CHTO   H16 1659   7.955   6.887   1.463 -0.0190  0.3363  0.1990
    4CHTO    N1 1660   8.097   6.786   1.565 -0.2362 -0.0860 -0.1295
    4CHTO    H8 1661   8.137   6.686   1.569 -0.3082 -0.2308 -2.4296
    4CHTO    H9 1662   8.085   6.815   1.668  0.3169 -1.3614  0.2972
    4CHTO    C4 1663   7.842   6.800   1.621  0.2000  0.0729  0.0535
    4CHTO   H17 1664   7.857   6.721   1.695 -1.1301  1.6281  2.0186
    4CHTO    O1 1665   7.714   6.791   1.561  0.2670  0.0840 -0.5390
    4CHTO    C5 1666   7.680   6.661   1.500 -0.9608 -0.3205 -0.7228
    4CHTO   H18 1667   7.705   6.575   1.562 -0.2651  0.7748  0.5668
    4CHTO   C16 1668   7.523   6.656   1.469 -0.1493  0.3173  0.2364
    4CHTO   O11 1669   7.469   6.778   1.418  0.1323  0.1415  0.6170
    4CHTO    H5 1670   7.527   6.825   1.361 -1.3230  3.9982  2.1503
    4CHTO    O3 1671   7.852   6.930   1.683 -0.6659  0.4327  0.1371
    4CHTO    C6 1672   7.810   6.955   1.819  0.1395 -0.4264 -0.5816
    4CHTO   H19 1673   7.772   6.860   1.857 -1.0632 -0.2989 -1.4575
    4CHTO    C8 1674   7.932   7.009   1.891 -0.2714  0.5774 -0.0503
    4CHTO   H21 1675   7.974   7.091   1.832  1.8582 -1.9999 -2.2277
    4CHTO    O7 1676   8.021   6.897   1.911  0.5596 -0.2018 -0.1510
    4CHTO    H2 1677   8.019   6.841   1.837  1.5574  1.4051 -1.4342
    4CHTO   C12 1678   7.901   7.073   2.035  0.1749 -0.6555  0.4420
    4CHTO   H25 1679   7.892   6.988   2.105 -0.8348  0.7550  2.0838
    4CHTO    N3 1680   8.015   7.149   2.088  0.3181  0.0052  0.0261
    4CHTO   H12 1681   8.050   7.131   2.189  3.1089  2.6531 -0.4044
    4CHTO   H13 1682   7.999   7.254   2.071  0.7979  0.3587  1.7284
    4CHTO   C15 1683   7.766   7.159   2.032 -0.6230 -0.7066 -0.3175
    4CHTO   H28 1684   7.783   7.252   1.977 -0.8202 -0.2148  0.4458
    4CHTO   O10 1685   7.707   7.190   2.175 -0.0312 -0.3373 -0.8385
    4CHTO    H4 1686   7.673   7.115   2.220 -0.3542  0.3897  0.1628
    4CHTO    O5 1687   7.658   7.089   1.964 -0.3065 -0.0256  0.5268
    4CHTO   C10 1688   7.695   7.058   1.825 -0.0253  0.5423  0.3002
    4CHTO   H23 1689   7.719   7.145   1.765  0.0265  0.7165  0.5701
    4CHTO   C17 1690   7.568   7.000   1.759 -0.5361  0.1407 -0.2641
    4CHTO   O12 1691   7.538   6.872   1.823 -0.2897 -0.2937 -0.3010
    4CHTO    H6 1692   7.603   6.808   1.802  1.1838  0.8761  0.5956
    5CHTO  H203 1693   8.023   3.702   0.673  0.0791 -1.4427 -0.4404
    5CHTO   O82 1694   8.066   3.726   0.753  0.1296  0.0968 -0.9279
    5CHTO  C123 1695   8.011   3.661   0.869  0.2290  0.3277  0.5427
    5CHTO  H227 1696   7.902   3.679   0.870  0.4507  1.7249  0.5694
    5CHTO   O77 1697   8.052   3.521   0.849 -0.0488  0.4339  0.0156
    5CHTO  C118 1698   8.029   3.439   0.964  0.0089  0.4206  0.1307
    5CHTO  H222 1699   7.920   3.451   0.972 -0.1615  0.1536 -1.6156
    5CHTO  C125 1700   8.054   3.299   0.919  0.0479  0.1783 -0.1196
    5CHTO   O84 1701   8.191   3.274   0.895 -0.0830  0.1440  0.1341
    5CHTO  H205 1702   8.225   3.216   0.961 -0.6438  0.5680  0.8047
    5CHTO  C114 1703   8.102   3.483   1.093 -0.5640 -1.5981  0.3902
    5CHTO  H218 1704   8.207   3.490   1.063 -1.0020 -1.4211 -1.1386
    5CHTO  C116 1705   8.063   3.629   1.128 -0.3214  0.3001  0.2708
    5CHTO  H220 1706   7.955   3.633   1.152 -0.0709  0.7653  1.3290
    5CHTO   O79 1707   8.136   3.676   1.239 -0.0122 -0.0643  0.4689
    5CHTO  H201 1708   8.221   3.701   1.210 -0.3422  0.6952  0.1427
    5CHTO  C120 1709   8.080   3.725   1.002  0.2978 -0.7406 -0.5192
    5CHTO  H224 1710   8.189   3.739   0.986  0.5821 -3.2050 -0.8791
    5CHTO   N21 1711   8.014   3.856   1.026  0.4111 -0.0606  0.5215
    5CHTO  H211 1712   8.079   3.926   1.076 -2.3970  3.7087 -0.9187
    5CHTO  H212 1713   7.930   3.838   1.090  0.9630 -0.1244  1.2361
    5CHTO   O75 1714   8.084   3.379   1.192 -0.8335 -0.8578 -0.7320
    5CHTO  C112 1715   7.948   3.394   1.285  0.0863 -0.4861 -0.1381
    5CHTO  H216 1716   7.861   3.410   1.220 -3.1126 -2.8978  3.3274
    5CHTO   O73 1717   7.962   3.499   1.380 -0.3507  0.4401  0.0159
    5CHTO  C113 1718   7.834   3.540   1.437  0.0776  0.3478 -0.0547
    5CHTO  H217 1719   7.756   3.546   1.358 -1.3684 -1.0883  1.2237
    5CHTO  C124 1720   7.862   3.672   1.501  0.1193 -0.0757  0.1058
    5CHTO   O83 1721   7.754   3.730   1.569  0.1010  0.0807 -0.2933
    5CHTO  H204 1722   7.732   3.808   1.521  2.5542  0.3096 -1.1169
    5CHTO  C109 1723   7.798   3.432   1.539 -0.3279  0.4390 -0.4078
    5CHTO  H213 1724   7.874   3.435   1.618 -0.5988 -3.1584  0.0812
    5CHTO  C110 1725   7.801   3.292   1.468  0.3583  0.2045  0.2712
    5CHTO  H214 1726   7.709   3.285   1.410  1.3074  0.6175 -1.3400
    5CHTO   O78 1727   7.792   3.189   1.574 -0.3118  0.2870  0.4616
    5CHTO  H200 1728   7.846   3.219   1.645 -2.8547 -0.0453  2.6172
    5CHTO  C111 1729   7.920   3.267   1.374  0.4740 -0.2603 -0.0399
    5CHTO  H215 1730   8.007   3.258   1.440 -0.2407 -2.0898  0.6593
    5CHTO   N19 1731   7.915   3.137   1.299  0.3308  0.1117  0.1995
    5CHTO  H207 1732   8.012   3.107   1.262  0.7473  1.5054  0.1000
    5CHTO  H208 1733   7.845   3.153   1.218 -0.2743  1.3260  0.9497
    5CHTO   O74 1734   7.665   3.460   1.595  0.0188  0.0480 -0.4575
    5CHTO  C115 1735   7.648   3.386   1.737 -0.3672  0.0420 -0.2847
    5CHTO  H219 1736   7.681   3.282   1.735  2.9999  1.0287  0.0715
    5CHTO   O76 1737   7.736   3.450   1.846  0.3213 -0.2749  0.1623
    5CHTO  C122 1738   7.700   3.582   1.881 -0.3124 -0.6602  0.7828
    5CHTO  H226 1739   7.749   3.654   1.815 -1.1591 -0.3449  0.4912
    5CHTO  C126 1740   7.759   3.612   2.028 -0.3588 -0.7412  0.0543
    5CHTO   O85 1741   7.695   3.534   2.128 -0.1497  0.1803  0.3118
    5CHTO  H206 1742   7.731   3.450   2.145  0.9260  0.8067  1.1443
    5CHTO  C121 1743   7.543   3.619   1.873 -0.4631 -0.0994 -0.5953
    5CHTO  H225 1744   7.517   3.683   1.959 -0.1331  0.5393 -0.9684
    5CHTO   O81 1745   7.522   3.693   1.755 -0.2627  0.8757  0.0174
    5CHTO  H202 1746   7.448   3.750   1.763 -2.8029 -2.1549 -0.7177
    5CHTO  C119 1747   7.458   3.487   1.879 -0.3075  0.1796  0.1491
    5CHTO  H223 1748   7.487   3.444   1.975  1.5294  0.5458 -0.2262
    5CHTO  C117 1749   7.495   3.388   1.765 -0.2090  0.2924 -0.7254
    5CHTO  H221 1750   7.457   3.414   1.666 -3.9652 -0.0539  0.5434
    5CHTO   N20 1751   7.437   3.252   1.796  0.0986 -0.4854  0.3304
    5CHTO  H209 1752   7.491   3.164   1.765  0.9290  0.2241 -0.2842
    5CHTO  H210 1753   7.335   3.256   1.759  0.0906 -0.4008  0.3610
    5CHTO   O80 1754   7.297   3.504   1.897  0.0460  0.0002 -0.2756
    5CHTO  C103 1755   7.204   3.592   1.785 -0.6729  0.0329  0.4608
    5CHTO  H190 1756   7.217   3.700   1.786 -0.1697  0.0159 -1.4766
    5CHTO  C101 1757   7.214   3.557   1.629 -0.6286 -0.1333  0.6721
    5CHTO  H188 1758   7.212   3.449   1.614  0.7183 -0.3016  1.6718
    5CHTO   O68 1759   7.349   3.608   1.564  0.2257  0.0224 -0.2820
    5CHTO  H168 1760   7.375   3.688   1.606 -0.0336  0.5311 -1.0651
    5CHTO   C99 1761   7.090   3.627   1.550 -0.2206 -0.2917  0.4313
    5CHTO  H186 1762   7.094   3.736   1.569  0.0884 -0.0713 -0.8606
    5CHTO   N17 1763   7.090   3.607   1.400 -0.7484  0.0277 -0.6210
    5CHTO  H174 1764   7.015   3.670   1.354  0.1556 -0.1749 -2.4490
    5CHTO  H175 1765   7.063   3.504   1.383 -0.1484 -0.3070  0.4446
    5CHTO   C97 1766   6.960   3.568   1.614 -0.6248  0.2380 -0.3273
    5CHTO  H184 1767   6.960   3.458   1.616  1.8484  0.2121  0.0920
    5CHTO   O64 1768   6.961   3.627   1.747  0.5276  0.3770  0.0925
    5CHTO  C104 1769   7.059   3.564   1.830 -0.1880 -0.6777  0.1911
    5CHTO  H191 1770   7.037   3.457   1.834  0.0588 -0.6971  1.5397
    5CHTO  C108 1771   7.039   3.610   1.974 -0.1880 -0.5985 -0.4771
    5CHTO   O71 1772   6.913   3.584   2.025  0.1156 -0.2335 -0.1209
    5CHTO  H171 1773   6.915   3.496   2.058  1.0014 -0.8403 -1.7709
    5CHTO   O62 1774   6.835   3.619   1.557  0.5287 -0.3929 -0.1360
    5CHTO   C91 1775   6.712   3.549   1.550  0.3467  0.4172 -0.0443
    5CHTO  H178 1776   6.718   3.475   1.629  0.8710  0.4537 -0.0477
    5CHTO   C92 1777   6.695   3.478   1.409  0.1880 -0.3826 -0.3031
    5CHTO  H179 1778   6.701   3.553   1.329  3.4411  1.7851  1.9117
    5CHTO   O66 1779   6.807   3.387   1.389 -0.0199  0.1259 -0.7684
    5CHTO  H166 1780   6.802   3.360   1.300 -0.2492  0.4120 -0.8449
    5CHTO   C93 1781   6.553   3.399   1.410  0.3742  0.2722 -0.3789
    5CHTO  H180 1782   6.554   3.322   1.488  1.5093  0.3313 -0.3256
    5CHTO   N16 1783   6.527   3.319   1.286 -0.0747 -0.8626  0.1538
    5CHTO  H172 1784   6.475   3.370   1.207  1.8298 -0.3041 -0.7666
    5CHTO  H173 1785   6.616   3.271   1.249 -0.0038  0.3493 -1.2925
    5CHTO   C94 1786   6.438   3.501   1.450  0.2249 -0.1338 -0.3638
    5CHTO  H181 1787   6.412   3.569   1.370 -3.1347 -2.9432 -1.7604
    5CHTO   O61 1788   6.466   3.581   1.571  0.0634 -0.2855  0.5087
    5CHTO   C95 1789   6.591   3.642   1.574  0.3123  0.1343 -0.7764
    5CHTO  H182 1790   6.598   3.715   1.493 -0.8446 -0.4209 -1.3850
    5CHTO  C106 1791   6.621   3.722   1.713  0.2774 -0.0299 -0.2585
    5CHTO   O69 1792   6.522   3.823   1.729  0.2976  0.7306  0.1736
    5CHTO  H169 1793   6.441   3.775   1.738  1.4488 -1.0857  1.1348
    5CHTO   O63 1794   6.300   3.417   1.492  0.3802  0.0107  0.4683
    5CHTO   C96 1795   6.197   3.385   1.383  0.2849 -0.2391  0.6053
    5CHTO  H183 1796   6.250   3.380   1.288 -0.7636 -2.6214  0.1088
    5CHTO   C98 1797   6.090   3.495   1.362  0.2141  0.2974 -0.7764
    5CHTO  H185 1798   6.046   3.520   1.459 -1.6539 -1.1895 -1.2145
    5CHTO   O67 1799   6.161   3.615   1.310  0.4616  0.6700  0.0893
    5CHTO  H167 1800   6.097   3.682   1.297  2.3722  2.2198 -1.5887
    5CHTO  C102 1801   5.972   3.444   1.262 -0.4134  0.5406  0.3451
    5CHTO  H189 1802   6.009   3.468   1.161 -2.3782  0.8990 -0.2990
    5CHTO   N18 1803   5.847   3.519   1.275 -0.0507  0.3576  0.4004
    5CHTO  H176 1804   5.861   3.621   1.305 -0.5437  1.0040 -1.5102
    5CHTO  H177 1805   5.801   3.476   1.363  2.4795 -1.5323  0.8736
    5CHTO  C105 1806   5.952   3.291   1.267  0.1577  0.4050 -0.9213
    5CHTO  H192 1807   5.880   3.262   1.343  0.3448  0.4029 -0.7437
    5CHTO   O65 1808   6.066   3.204   1.296  0.6549 -0.5153 -0.3501
    5CHTO  C100 1809   6.124   3.256   1.418  0.3496 -0.3278 -0.1144
    5CHTO  H187 1810   6.042   3.271   1.490  1.1574 -1.0469  0.9785
    5CHTO  C107 1811   6.219   3.157   1.479  0.7671 -0.5609  0.8004
    5CHTO   O70 1812   6.144   3.042   1.530  0.0454 -0.2853  0.2760
    5CHTO  H170 1813   6.119   3.048   1.620 -0.1320 -0.2317  0.2250
    5CHTO   O57 1814   5.887   3.253   1.107  0.2221 -0.4617 -0.0745
    5CHTO   C85 1815   5.792   3.146   1.091  0.2815 -0.4529  0.4826
    5CHTO  H157 1816   5.705   3.190   1.143  0.7941  0.7224  0.3865
    5CHTO   C83 1817   5.835   3.016   1.160 -0.1700  0.1414  0.1078
    5CHTO  H155 1818   5.843   3.026   1.269 -0.0813 -0.1420  0.1274
    5CHTO   O56 1819   5.965   2.976   1.111 -0.3888 -0.1026 -0.2457
    5CHTO  H135 1820   6.023   2.969   1.185  2.4223 -1.2406 -2.4548
    5CHTO   C81 1821   5.719   2.911   1.133  0.1476  0.3072 -0.6811
    5CHTO  H153 1822   5.627   2.952   1.175  0.1072 -1.8452  1.4432
    5CHTO   N14 1823   5.739   2.784   1.214  0.0268 -0.3880 -0.0952
    5CHTO  H141 1824   5.840   2.780   1.251 -0.1838 -0.1460  0.5243
    5CHTO  H142 1825   5.724   2.694   1.158  1.9241  0.5986 -2.2637
    5CHTO   C79 1826   5.702   2.882   0.985 -0.4628  0.2734  1.0817
    5CHTO  H151 1827   5.617   2.817   0.968  0.5989 -0.8885  0.1277
    5CHTO   O52 1828   5.669   3.008   0.915 -0.1949  0.4272  0.3525
    5CHTO   C86 1829   5.759   3.116   0.935 -0.3681 -0.0845  0.9031
    5CHTO  H158 1830   5.852   3.102   0.876 -0.5021  1.1673  0.3874
    5CHTO   C90 1831   5.695   3.238   0.876 -0.5750  0.2764 -0.0205
    5CHTO   O60 1832   5.689   3.236   0.733 -0.0246  0.5001 -0.3109
    5CHTO  H138 1833   5.626   3.173   0.704 -1.6428  1.8654  0.1356
    5CHTO   O50 1834   5.802   2.806   0.921 -0.4718  0.0835 -0.3134
    5CHTO   C73 1835   5.820   2.773   0.783 -0.0792 -0.1807  0.4471
    5CHTO  H145 1836   5.747   2.832   0.727  1.5004  1.3636 -0.0335
    5CHTO   C74 1837   5.815   2.621   0.765 -0.4966  0.0131 -1.0862
    5CHTO  H146 1838   5.713   2.591   0.794  1.1523 -2.2986  2.7535
    5CHTO   O54 1839   5.828   2.600   0.629  0.0492  0.2081  0.5010
    5CHTO  H133 1840   5.743   2.590   0.590  1.0563  1.1459 -2.0600
    5CHTO   C75 1841   5.919   2.546   0.851  0.1703 -0.2334 -0.4805
    5CHTO  H147 1842   5.903   2.567   0.958  2.0326 -0.4517 -0.1473
    5CHTO   N13 1843   5.920   2.402   0.851  0.0258  0.5871  0.3069
    5CHTO  H139 1844   5.901   2.363   0.752 -0.0230  1.6300 -0.1008
    5CHTO  H140 1845   5.844   2.354   0.911  1.7703 -1.6318  0.8332
    5CHTO   C76 1846   6.061   2.603   0.817 -0.6759  1.0429 -0.0944
    5CHTO  H148 1847   6.079   2.566   0.717 -0.8789 -0.9017  0.5718
    5CHTO   O49 1848   6.066   2.758   0.813  0.4568  0.1576  0.2141
    5CHTO   C77 1849   5.962   2.815   0.731 -0.3127  0.0127  0.3763
    5CHTO  H149 1850   5.979   2.786   0.628  1.2688  2.3022 -0.0557
    5CHTO   C88 1851   5.984   2.966   0.717 -0.3461  0.1775 -0.0558
    5CHTO   O58 1852   5.909   3.015   0.613 -0.5743 -0.1630 -0.0602
    5CHTO  H136 1853   5.926   3.105   0.592 -2.7165  0.4577  0.7174
    5CHTO   O51 1854   6.166   2.574   0.938  0.1534  1.1227  0.2741
    5CHTO   C78 1855   6.313   2.644   0.943  0.2003  0.1535 -0.4849
    5CHTO  H150 1856   6.310   2.745   0.898  1.9709  0.9488  1.1228
    5CHTO   C80 1857   6.413   2.548   0.867  0.3141 -0.4219 -0.1783
    5CHTO  H152 1858   6.405   2.447   0.913 -1.8866  0.6585  1.9033
    5CHTO   O55 1859   6.371   2.520   0.732  0.3658 -0.0916  0.1297
    5CHTO  H134 1860   6.355   2.430   0.711 -1.2214  0.1652  0.1644
    5CHTO   C84 1861   6.568   2.593   0.871 -0.1765  0.1384  0.0705
    5CHTO  H156 1862   6.573   2.682   0.809 -1.1377  1.2574  1.5609
    5CHTO   N15 1863   6.669   2.506   0.813 -0.1610  0.5664  0.2508
    5CHTO  H143 1864   6.715   2.558   0.731 -0.3783  0.9775  0.3903
    5CHTO  H144 1865   6.743   2.491   0.888 -0.4430  0.4815  0.5128
    5CHTO   C87 1866   6.590   2.634   1.023  0.6229  0.0060  0.5204
    5CHTO  H159 1867   6.603   2.546   1.087 -2.4923 -1.7905 -1.1830
    5CHTO   O53 1868   6.480   2.737   1.091  0.7854 -0.0518 -0.3496
    5CHTO   C82 1869   6.345   2.679   1.090 -0.8597  0.6040  0.8570
    5CHTO  H154 1870   6.351   2.594   1.157 -0.5560  1.8384  2.4190
    5CHTO   C89 1871   6.239   2.776   1.156 -0.1690 -0.5262 -0.1606
    5CHTO   O59 1872   6.249   2.770   1.297  0.2917 -0.1530 -0.1543
    5CHTO  H137 1873   6.169   2.735   1.330  0.5448 -1.4585 -0.8858
    5CHTO   O45 1874   6.748   2.716   1.022  0.4316 -0.5719  0.1591
    5CHTO   C67 1875   6.804   2.753   1.153  0.9665  0.2721  0.2097
    5CHTO  H124 1876   6.717   2.746   1.219  0.6444 -2.1886 -0.4105
    5CHTO   C65 1877   6.904   2.649   1.200  0.4258 -0.1692 -0.1946
    5CHTO  H122 1878   6.957   2.615   1.111  0.4256  1.5917 -0.8894
    5CHTO   O44 1879   6.837   2.531   1.256  0.2594  0.3222  0.1474
    5CHTO  H102 1880   6.904   2.468   1.275 -0.4624  0.4617  3.3340
    5CHTO   C63 1881   7.023   2.710   1.292  0.4158 -0.7254  0.6218
    5CHTO  H120 1882   7.095   2.767   1.233  0.9552  0.1316  2.0777
    5CHTO   N11 1883   7.112   2.614   1.363  0.5523 -0.0681 -0.1074
    5CHTO  H108 1884   7.156   2.534   1.307  2.9747  1.3064 -0.2481
    5CHTO  H109 1885   7.181   2.666   1.426 -1.1878  2.2767 -0.0471
    5CHTO   C61 1886   6.962   2.831   1.380  0.0375  0.5579 -0.2008
    5CHTO  H118 1887   7.051   2.869   1.433 -0.8971  1.3266  0.8472
    5CHTO   O40 1888   6.911   2.934   1.301  0.1278 -0.2980 -0.3567
    5CHTO   C68 1889   6.858   2.893   1.166  0.3613  0.2004 -0.0805
    5CHTO  H125 1890   6.937   2.915   1.091  0.0694  3.0430  0.3986
    5CHTO   C72 1891   6.733   2.983   1.124  0.6339 -0.0809  0.0979
    5CHTO   O48 1892   6.757   3.129   1.126  0.3768 -0.4655 -0.6701
    5CHTO  H105 1893   6.699   3.164   1.190 -1.8672  0.2808 -3.0248
    5CHTO   O38 1894   6.859   2.784   1.464  0.2519  0.1314  0.3157
    5CHTO   C55 1895   6.825   2.873   1.569 -0.6498 -0.2999 -0.1902
    5CHTO  H112 1896   6.855   2.976   1.547 -0.9518  0.3034  2.1229
    5CHTO   C56 1897   6.884   2.828   1.706  0.4050  0.7870  0.3277
    5CHTO  H113 1898   6.847   2.727   1.732 -1.6902  1.2638 -0.6666
    5CHTO   O42 1899   7.029   2.827   1.692  0.0046 -0.5743  0.0552
    5CHTO  H100 1900   7.054   2.754   1.638 -0.1594  0.4917 -1.5035
    5CHTO   C57 1901   6.837   2.924   1.822 -0.0838 -0.3081 -0.4072
    5CHTO  H114 1902   6.885   3.021   1.808 -1.1351  0.5152  1.5324
    5CHTO   N10 1903   6.885   2.870   1.952  0.2896 -0.5900  0.3503
    5CHTO  H106 1904   6.912   2.767   1.967 -0.3771 -0.9359 -0.7565
    5CHTO  H107 1905   6.813   2.895   2.028 -0.2737 -1.7520  0.1995
    5CHTO   C58 1906   6.683   2.939   1.813  0.0160 -0.5452 -0.1175
    5CHTO  H115 1907   6.628   2.846   1.837 -0.4258 -0.0252  0.9228
    5CHTO   O37 1908   6.641   2.980   1.687 -0.0541 -0.3370 -0.2535
    5CHTO   C59 1909   6.665   2.878   1.587  0.1308 -0.0033 -0.1007
    5CHTO  H116 1910   6.623   2.784   1.623 -1.0268  1.0982  1.4514
    5CHTO   C70 1911   6.577   2.920   1.466 -0.0991  0.4211 -0.6140
    5CHTO   O46 1912   6.439   2.939   1.504  0.1002 -0.2774  0.1267
    5CHTO  H103 1913   6.390   2.935   1.424 -0.8132 -0.1602  0.6813
    5CHTO   O39 1914   6.637   3.070   1.903 -0.0582  0.5379  0.3644
    5CHTO   C60 1915   6.505   3.126   1.882 -0.0324  0.0617  0.0658
    5CHTO  H117 1916   6.489   3.156   1.778  0.7660  1.3448  0.3040
    5CHTO   C62 1917   6.388   3.025   1.917  0.3530  0.6701 -1.2496
    5CHTO  H119 1918   6.409   2.928   1.868  0.3690  0.0732 -0.0902
    5CHTO   O43 1919   6.399   2.994   2.053  0.0980  0.1170  0.6022
    5CHTO  H101 1920   6.316   2.972   2.092  1.2861  0.8687  3.7293
    5CHTO   C66 1921   6.241   3.075   1.885  0.7767 -0.1351  0.0895
    5CHTO  H123 1922   6.237   3.112   1.782 -0.4435  0.2348  0.2633
    5CHTO   N12 1923   6.138   2.966   1.896 -0.1310 -0.3093  1.0512
    5CHTO  H110 1924   6.037   2.993   1.868  0.3156 -0.0930 -0.3821
    5CHTO  H111 1925   6.137   2.945   2.002  0.6293  3.4205  1.8708
    5CHTO   C69 1926   6.210   3.200   1.968  0.1363 -0.8487 -0.0501
    5CHTO  H126 1927   6.226   3.165   2.072  0.2035 -0.9386 -0.0911
    5CHTO   O41 1928   6.333   3.313   1.921  0.0855 -0.5006 -0.3749
    5CHTO   C64 1929   6.486   3.257   1.968 -0.5255 -0.6623 -0.3867
    5CHTO  H121 1930   6.498   3.234   2.076  1.0982 -2.1778 -0.8618
    5CHTO   C71 1931   6.598   3.352   1.921  0.2554 -0.0627  0.1355
    5CHTO   O47 1932   6.740   3.325   1.941  0.6641  0.2218 -0.5345
    5CHTO  H104 1933   6.759   3.234   1.954  0.1313  0.2082  0.1473
    5CHTO   O34 1934   6.080   3.258   1.928  0.1220  0.0570 -0.4667
    5CHTO   C49 1935   5.998   3.384   1.935  0.5683  0.2901 -0.4116
    5CHTO   H91 1936   5.898   3.345   1.953  0.3760  1.4447  1.1323
    5CHTO   C47 1937   5.974   3.458   1.803  0.2628 -0.0275 -0.2416
    5CHTO   H89 1938   5.895   3.396   1.755  0.1146 -1.3688  1.7122
    5CHTO   O33 1939   6.095   3.459   1.723 -0.3629  1.0549  0.0627
    5CHTO   H70 1940   6.161   3.502   1.773 -0.5565  1.6499 -0.1872
    5CHTO   C45 1941   5.923   3.614   1.816  0.3059  0.0137 -0.4198
    5CHTO   H87 1942   6.010   3.681   1.812 -0.8026  1.5177  0.3663
    5CHTO    N8 1943   5.833   3.648   1.700  0.8205 -0.8482  0.0416
    5CHTO   H75 1944   5.785   3.559   1.661 -3.6576  1.1379  0.7098
    5CHTO   H76 1945   5.893   3.683   1.618 -1.9034 -0.7432 -2.0024
    5CHTO   C43 1946   5.853   3.636   1.960  0.4012  0.0763 -0.1382
    5CHTO   H85 1947   5.837   3.743   1.958  0.4864  0.0874 -0.2306
    5CHTO   O29 1948   5.955   3.602   2.058 -0.3920  0.2636  0.2467
    5CHTO   C50 1949   6.040   3.483   2.043  0.2735 -0.0544  0.6225
    5CHTO   H92 1950   6.141   3.505   2.006  0.3633 -1.4806 -0.0319
    5CHTO   C54 1951   6.071   3.420   2.181  0.3603 -0.7429  0.3809
    5CHTO   O36 1952   6.162   3.496   2.258 -0.0786 -0.2723  0.0815
    5CHTO   H72 1953   6.154   3.464   2.345 -1.0198 -0.9278 -0.2384
    5CHTO   O27 1954   5.728   3.561   1.978 -0.3573 -0.0740 -0.3185
    5CHTO   C37 1955   5.610   3.538   2.054 -0.0657 -0.4396 -0.1418
    5CHTO   H79 1956   5.542   3.624   2.051 -1.0910 -1.2117  0.5149
    5CHTO   C38 1957   5.532   3.423   1.985 -0.5447  0.0735  0.4077
    5CHTO   H80 1958   5.591   3.331   1.981 -0.6295 -0.0045  1.0424
    5CHTO   O31 1959   5.501   3.486   1.859 -0.0291  0.1478  0.6995
    5CHTO   H68 1960   5.550   3.457   1.784 -0.2171 -1.4359  1.1695
    5CHTO   C39 1961   5.402   3.400   2.076 -0.7622  0.4238 -0.0250
    5CHTO   H81 1962   5.352   3.497   2.073  1.7233  1.7751  0.6217
    5CHTO    N7 1963   5.315   3.294   2.021 -0.5018  0.0655  0.9741
    5CHTO   H73 1964   5.221   3.334   1.985  0.2389  1.3623  0.4598
    5CHTO   H74 1965   5.368   3.222   1.961 -0.2624  1.4950 -0.5324
    5CHTO   C40 1966   5.441   3.369   2.227  0.0086  0.3247 -0.0261
    5CHTO   H82 1967   5.496   3.275   2.220 -0.1072  0.2943 -0.5801
    5CHTO   O26 1968   5.523   3.480   2.274  0.2088 -0.6803  0.4088
    5CHTO   C41 1969   5.642   3.503   2.202  0.8523  0.3570 -0.2318
    5CHTO   H83 1970   5.707   3.414   2.198  0.0893 -0.1363 -2.6218
    5CHTO   C52 1971   5.718   3.612   2.275 -0.1207 -0.1727 -0.0181
    5CHTO   O35 1972   5.747   3.570   2.413 -0.0951 -0.7536  0.6266
    5CHTO   H71 1973   5.670   3.552   2.464 -0.7739 -0.4929 -0.2969
    5CHTO   O28 1974   5.331   3.348   2.325 -0.0452  0.5242 -0.3448
    5CHTO   C42 1975   5.350   3.316   2.465  0.2810  0.1423  0.2427
    5CHTO   H84 1976   5.252   3.304   2.510 -0.9941 -1.7423 -2.8915
    5CHTO   C44 1977   5.418   3.431   2.546  0.1710 -0.5237 -0.3135
    5CHTO   H86 1978   5.521   3.446   2.514  0.4161 -0.7517  0.3661
    5CHTO   O32 1979   5.348   3.555   2.530 -0.2049  0.0629  0.2990
    5CHTO   H69 1980   5.262   3.542   2.565 -1.0982  2.9232 -0.7365
    5CHTO   C48 1981   5.433   3.402   2.700  0.2393  0.0093 -0.8885
    5CHTO   H90 1982   5.338   3.410   2.754  1.2863  0.9703  0.8680
    5CHTO    N9 1983   5.505   3.511   2.781 -0.2034 -0.5798 -0.3447
    5CHTO   H77 1984   5.594   3.524   2.721 -0.9409  1.5332 -1.0428
    5CHTO   H78 1985   5.526   3.478   2.882  1.0315  0.0275 -0.4038
    5CHTO   C51 1986   5.502   3.264   2.722  0.0810  0.0922  0.2944
    5CHTO   H93 1987   5.605   3.273   2.687  0.2843  0.3555  0.9561
    5CHTO   O30 1988   5.429   3.172   2.642  0.1111  0.6303 -0.9910
    5CHTO   C46 1989   5.438   3.188   2.488 -0.9846  0.3517  0.2841
    5CHTO   H88 1990   5.541   3.205   2.460 -0.6149  3.8175  3.3016
    5CHTO   C53 1991   5.392   3.057   2.422  0.1547 -0.0752  0.0201
    5CHTO   O72 1992   5.476   2.955   2.453 -0.4819  0.5241  0.5329
    5CHTO  H199 1993   5.559   2.971   2.411 -0.7323 -3.2847 -1.7040
    5CHTO   O22 1994   5.491   3.206   2.855 -0.3826  0.0159  0.2081
    5CHTO   C31 1995   5.558   3.076   2.887  0.2201 -0.3067 -0.9097
    5CHTO   H59 1996   5.560   3.074   2.998 -1.4481  2.3171 -0.7815
    5CHTO   C29 1997   5.473   2.954   2.840 -0.1056 -0.9480  0.0959
    5CHTO   H57 1998   5.443   2.967   2.735  0.1414 -0.6151  0.0667
    5CHTO   O21 1999   5.346   2.953   2.907  0.2507 -0.0894 -0.6564
    5CHTO   H37 2000   5.339   2.943   3.000 -0.1163 -1.2780 -0.8049
    5CHTO   C27 2001   5.563   2.820   2.851  0.5739 -0.7102 -0.2488
    5CHTO   H55 2002   5.593   2.802   2.956  0.0446 -0.3581 -0.0371
    5CHTO    N5 2003   5.492   2.700   2.806  0.0064 -0.0593 -0.4734
    5CHTO   H43 2004   5.395   2.709   2.760  0.2452 -0.5061 -1.0829
    5CHTO   H44 2005   5.505   2.619   2.876 -0.5238  0.1874 -0.0959
    5CHTO   C25 2006   5.704   2.841   2.790 -0.1991 -0.3762  0.3110
    5CHTO   H53 2007   5.703   2.867   2.683  1.4794  0.6747  0.5278
    5CHTO   O17 2008   5.769   2.946   2.865 -0.4377 -0.0763  0.4993
    5CHTO   C32 2009   5.712   3.073   2.845 -0.5650  0.1421  1.0949
    5CHTO   H60 2010   5.722   3.111   2.743 -1.6742  0.6744  1.1695
    5CHTO   C36 2011   5.810   3.166   2.931 -0.1169 -0.8891 -0.2214
    5CHTO   O25 2012   5.774   3.304   2.917 -0.0971  0.3817  0.0034
    5CHTO   H40 2013   5.814   3.348   2.845 -0.2711 -0.8540 -0.8573
    5CHTO   O15 2014   5.796   2.730   2.824 -0.4371  0.3344  0.2596
    5CHTO   C19 2015   5.937   2.691   2.835  0.0603 -1.2768  0.0717
    5CHTO   H47 2016   5.988   2.758   2.907 -0.2271 -0.7434 -0.2156
    5CHTO   C20 2017   5.957   2.559   2.904 -0.6441 -0.1645 -0.0672
    5CHTO   H48 2018   5.909   2.479   2.845 -0.7753  0.9675 -1.5034
    5CHTO   O19 2019   5.885   2.560   3.028 -0.1456 -0.6991 -0.3037
    5CHTO   H35 2020   5.844   2.477   3.043 -0.8582  0.0186  1.9459
    5CHTO   C21 2021   6.111   2.522   2.926 -0.6190 -0.4132  0.6773
    5CHTO   H49 2022   6.154   2.594   2.996 -0.1978 -1.8528  1.9115
    5CHTO    N4 2023   6.140   2.385   2.976  0.6367  0.5583  0.0528
    5CHTO   H41 2024   6.102   2.307   2.912  0.4264  1.8276 -1.4064
    5CHTO   H42 2025   6.078   2.388   3.065 -0.3089 -2.1610 -0.4864
    5CHTO   C22 2026   6.192   2.548   2.795 -0.0455 -0.6039 -0.3509
    5CHTO   H50 2027   6.161   2.469   2.727 -0.3676 -0.2460 -0.6255
    5CHTO   O14 2028   6.156   2.673   2.734  0.6928 -0.6761 -0.1640
    5CHTO   C23 2029   6.017   2.700   2.704 -0.2962  0.3783  0.3420
    5CHTO   H51 2030   5.981   2.624   2.632  0.1766  0.8323 -0.3856
    5CHTO   C34 2031   6.020   2.842   2.642  0.0301 -0.2091  0.3903
    5CHTO   O23 2032   6.035   2.948   2.743  0.7092 -0.0345 -0.3993
    5CHTO   H38 2033   6.098   3.004   2.704  1.1663  0.8161  1.5180
    5CHTO   O16 2034   6.335   2.546   2.816 -0.4454  0.2007  0.0572
    5CHTO   C24 2035   6.418   2.440   2.740  0.3975 -0.6806  0.0944
    5CHTO   H52 2036   6.362   2.350   2.714  0.3032 -0.5169 -0.2618
    5CHTO   C26 2037   6.530   2.399   2.840 -0.0095  0.2758  0.2421
    5CHTO   H54 2038   6.569   2.494   2.884 -0.9806  1.9839 -2.4227
    5CHTO   O20 2039   6.467   2.325   2.946  0.2967  0.0556 -0.3737
    5CHTO   H36 2040   6.379   2.357   2.957  0.7791  0.5228  2.5782
    5CHTO   C30 2041   6.643   2.322   2.763 -0.9590  0.7372  0.5376
    5CHTO   H58 2042   6.621   2.217   2.741  1.5246  0.1100  0.9211
    5CHTO    N6 2043   6.760   2.294   2.849 -0.3085 -0.2982 -0.2930
    5CHTO   H45 2044   6.822   2.382   2.863  2.1728 -2.2840  1.7639
    5CHTO   H46 2045   6.731   2.259   2.946  3.2975  3.7544  2.4359
    5CHTO   C33 2046   6.685   2.405   2.636  0.2542  0.7424  0.4025
    5CHTO   H61 2047   6.722   2.501   2.674  1.0943  0.4747  0.2824
    5CHTO   O18 2048   6.573   2.427   2.553 -0.0882 -0.3534  0.0766
    5CHTO   C28 2049   6.472   2.507   2.609 -0.2891  0.2520 -0.0089
    5CHTO   H56 2050   6.511   2.605   2.636  2.8322 -1.1593  0.8044
    5CHTO   C35 2051   6.359   2.518   2.502  0.1130  0.6631  0.2971
    5CHTO   O24 2052   6.309   2.390   2.466 -0.1093  0.4313 -0.4925
    5CHTO   H39 2053   6.359   2.355   2.395  1.8665  0.6124  0.7633
    5CHTO    O9 2054   6.802   2.354   2.563  0.1343 -1.1151  1.1099
    5CHTO   C13 2055   6.864   2.466   2.475  0.0056 -0.3239 -0.1481
    5CHTO   H26 2056   6.828   2.568   2.499  1.5829 -0.5046  3.2354
    5CHTO   C11 2057   6.834   2.431   2.325 -0.3329  0.2086 -0.2146
    5CHTO   H24 2058   6.726   2.452   2.314 -0.5500 -1.3648 -1.2321
    5CHTO    O8 2059   6.851   2.288   2.306  0.0236  0.5648  0.2282
    5CHTO    H3 2060   6.777   2.250   2.262  0.3557 -1.9861  1.7652
    5CHTO    C9 2061   6.911   2.520   2.220 -0.0995 -0.2010 -0.2642
    5CHTO   H22 2062   6.856   2.615   2.212 -0.6355 -0.5590 -0.8306
    5CHTO    N2 2063   6.901   2.470   2.080  0.8465 -0.2880  0.7700
    5CHTO   H10 2064   6.954   2.534   2.011 -1.3041  1.8067  0.9932
    5CHTO   H11 2065   6.940   2.369   2.076 -0.4340 -0.8077  1.0796
    5CHTO    C7 2066   7.062   2.542   2.274  0.2203  0.0337  0.6544
    5CHTO   H20 2067   7.044   2.645   2.310  0.8125  0.1024  0.7740
    5CHTO    O4 2068   7.099   2.470   2.387  0.5897  0.1711 -0.3617
    5CHTO   C14 2069   7.015   2.484   2.506  0.0458 -0.5968  0.1356
    5CHTO   H27 2070   7.024   2.591   2.533 -0.1578  0.0289 -2.1776
    5CHTO   C18 2071   7.081   2.397   2.618  0.2795 -0.1746 -0.2079
    5CHTO   O13 2072   7.107   2.261   2.577  0.2147 -0.2339  0.3534
    5CHTO    H7 2073   7.125   2.256   2.485 -1.8304  1.2240 -0.1469
    5CHTO    O2 2074   7.185   2.535   2.155  0.3909 -0.5786  0.5481
    5CHTO    C1 2075   7.228   2.668   2.117 -0.1776  0.1770 -0.0135
    5CHTO   H14 2076   7.150   2.746   2.130 -1.1491 -0.2800 -2.7778
    5CHTO    C2 2077   7.267   2.662   1.966 -0.4467 -0.5961  0.2509
    5CHTO   H15 2078   7.348   2.588   1.953  0.6444  0.4685  0.9570
    5CHTO    O6 2079   7.159   2.627   1.881  0.0643  0.0109 -0.0628
    5CHTO    H1 2080   7.091   2.692   1.878  0.5553  0.5074 -0.5627
    5CHTO    C3 2081   7.332   2.810   1.928  0.3609 -0.1051  0.1931
    5CHTO   H16 2082   7.258   2.890   1.941 -0.2989 -0.9021  1.4338
    5CHTO    N1 2083   7.361   2.819   1.787 -0.4899  0.3091 -0.5220
    5CHTO    H8 2084   7.415   2.730   1.759 -3.6829 -1.7603 -0.3891
    5CHTO    H9 2085   7.411   2.913   1.775 -1.4441  1.0744  1.2279
    5CHTO    C4 2086   7.458   2.835   2.019 -0.1108 -0.6167  0.6040
    5CHTO   H17 2087   7.534   2.759   2.000 -1.0323 -0.8423 -2.4113
    5CHTO    O1 2088   7.421   2.817   2.157 -0.1234 -0.3852 -0.5011
    5CHTO    C5 2089   7.347   2.700   2.199  0.2281  0.4357  1.2061
    5CHTO   H18 2090   7.425   2.625   2.192 -0.2007 -0.0531  1.5970
    5CHTO   C16 2091   7.324   2.718   2.352 -0.6068 -0.3131 -0.2908
    5CHTO   O11 2092   7.440   2.753   2.436 -0.8060  0.4502  0.4951
    5CHTO    H5 2093   7.414   2.797   2.515 -1.3547  1.5303 -0.2693
    5CHTO    O3 2094   7.507   2.970   2.013 -0.3454  0.2048  0.2552
    5CHTO    C6 2095   7.646   2.988   2.055  0.1506 -0.1223 -0.2074
    5CHTO   H19 2096   7.691   2.895   2.087  0.5768  0.1347 -0.0530
    5CHTO    C8 2097   7.727   3.030   1.936 -0.5586  0.1188 -0.1374
    5CHTO   H21 2098   7.689   3.123   1.893  0.5383  0.4679 -0.3787
    5CHTO    O7 2099   7.713   2.922   1.844  0.5012  0.2642 -0.3572
    5CHTO    H2 2100   7.689   2.964   1.763 -0.4914 -0.8046 -0.6210
    5CHTO   C12 2101   7.876   3.057   1.975  0.7128  0.1111  0.1844
    5CHTO   H25 2102   7.907   2.960   2.021 -0.8861 -0.3628  0.3119
    5CHTO    N3 2103   7.965   3.076   1.852 -0.0493 -0.0608  0.9168
    5CHTO   H12 2104   7.916   3.139   1.779  1.8451 -1.5378 -1.7251
    5CHTO   H13 2105   7.971   2.979   1.804  2.2150 -0.8117  2.5977
    5CHTO   C15 2106   7.886   3.161   2.088 -0.4194 -0.3813 -0.3838
    5CHTO   H28 2107   7.848   3.256   2.051 -1.2552  0.5439  2.7148
    5CHTO   O10 2108   8.001   3.189   2.135  0.8271 -0.0866  0.4254
    5CHTO    H4 2109   8.030   3.257   2.077  1.1996 -1.5230 -1.1117
    5CHTO    O5 2110   7.801   3.130   2.197 -0.2665 -0.0660 -0.1816
    5CHTO   C10 2111   7.664   3.089   2.173 -0.2509 -0.5635 -0.2475
    5CHTO   H23 2112   7.609   3.182   2.155  2.5738  1.1814 -0.2547
    5CHTO   C17 2113   7.617   3.034   2.310 -0.2208  0.0816  0.6764
    5CHTO   O12 2114   7.681   2.902   2.323 -0.0147 -0.1144 -0.3239
    5CHTO    H6 2115   7.644   2.852   2.393  0.0851 -0.1352 -0.2862
    6CHTO  H203 2116   7.259   4.868  -0.176 -0.3651  0.1281 -0.1225
    6CHTO   O82 2117   7.177   4.823  -0.192 -0.4225  0.2621 -0.2049
    6CHTO  C123 2118   7.063   4.904  -0.176  1.0066 -0.2042 -0.0863
    6CHTO  H227 2119   7.089   5.004  -0.211 -0.4838  0.7250  1.4056
    6CHTO   O77 2120   6.965   4.847  -0.268 -0.0850 -0.4803  0.2000
    6CHTO  C118 2121   6.849   4.923  -0.293  0.1581 -0.3712  0.4689
    6CHTO  H222 2122   6.880   5.018  -0.339  2.0032 -2.1403 -2.0283
    6CHTO  C125 2123   6.753   4.852  -0.390  0.9511  0.6641  0.2233
    6CHTO   O84 2124   6.699   4.728  -0.346 -0.5045  0.7051  0.2401
    6CHTO  H205 2125   6.769   4.665  -0.344 -1.5105 -0.4482 -0.1315
    6CHTO  C114 2126   6.777   4.949  -0.162  0.2593  0.0655  0.2359
    6CHTO  H218 2127   6.750   4.853  -0.118  0.3749 -0.3322 -0.5582
    6CHTO  C116 2128   6.869   5.011  -0.049  0.0528  0.2285 -0.8211
    6CHTO  H220 2129   6.894   5.117  -0.069 -0.1455  0.6385  1.0115
    6CHTO   O79 2130   6.803   5.010   0.076 -0.0266  0.5448 -0.7655
    6CHTO  H201 2131   6.739   5.077   0.081 -0.5521  0.0031 -0.2129
    6CHTO  C120 2132   7.007   4.935  -0.029 -0.1066 -0.0948 -0.8233
    6CHTO  H224 2133   7.002   4.840   0.028 -1.3388  0.0304 -0.7261
    6CHTO   N21 2134   7.107   5.017   0.044  0.4369 -1.0409 -0.1687
    6CHTO  H211 2135   7.146   5.092  -0.023 -0.4306  0.1081  0.5946
    6CHTO  H212 2136   7.083   5.055   0.142 -1.3973 -2.0378 -0.2081
    6CHTO   O75 2137   6.669   5.037  -0.200  0.4878  0.6086  0.3497
    6CHTO  C112 2138   6.535   5.023  -0.117 -0.3334 -0.6941 -0.4848
    6CHTO  H216 2139   6.575   5.019  -0.015 -1.9496  0.6932  0.2341
    6CHTO   O73 2140   6.473   4.896  -0.154  0.5469 -0.6680 -0.0284
    6CHTO  C113 2141   6.347   4.871  -0.090 -0.7197 -0.1139  0.4800
    6CHTO  H217 2142   6.361   4.861   0.020  1.3490  0.9651  0.3268
    6CHTO  C124 2143   6.304   4.744  -0.165 -0.3114  0.4621 -0.7612
    6CHTO   O83 2144   6.166   4.741  -0.193 -0.0676  0.0927  0.2935
    6CHTO  H204 2145   6.125   4.753  -0.109 -0.3073  1.0296  0.0535
    6CHTO  C109 2146   6.247   4.994  -0.119 -0.0924 -0.4841 -0.4842
    6CHTO  H213 2147   6.242   5.002  -0.229  0.5665 -0.7203 -0.5347
    6CHTO  C110 2148   6.312   5.130  -0.069  0.3782  0.0582  0.5783
    6CHTO  H214 2149   6.321   5.138   0.040 -2.1701 -0.3842  0.8480
    6CHTO   O78 2150   6.223   5.235  -0.112  0.6960  0.1666  0.6173
    6CHTO  H200 2151   6.205   5.296  -0.042 -1.1255  0.3738  0.0072
    6CHTO  C111 2152   6.454   5.154  -0.140  0.3530  0.1179  0.4175
    6CHTO  H215 2153   6.436   5.159  -0.248  0.3081  1.1289  0.4619
    6CHTO   N19 2154   6.532   5.272  -0.108 -0.4551  0.3607  0.4264
    6CHTO  H207 2155   6.608   5.295  -0.181 -0.8482  0.9712  0.2070
    6CHTO  H208 2156   6.572   5.271  -0.008 -1.5032  3.0139  0.9148
    6CHTO   O74 2157   6.105   4.979  -0.068 -0.2229 -0.3909 -0.2770
    6CHTO  C115 2158   6.084   4.970   0.093  0.7570  0.3226 -0.4829
    6CHTO  H219 2159   6.163   4.914   0.143 -1.7717 -1.3959  1.6627
    6CHTO   O76 2160   6.081   5.109   0.162  0.8598 -0.0601 -0.1173
    6CHTO  C122 2161   5.964   5.194   0.120  0.4202 -0.1191 -0.0211
    6CHTO  H226 2162   5.968   5.214   0.013 -0.0397  1.4727  0.2443
    6CHTO  C126 2163   5.992   5.333   0.184 -0.4466 -0.8040 -0.4461
    6CHTO   O85 2164   5.889   5.430   0.194  0.5285  0.7590 -0.2355
    6CHTO  H206 2165   5.816   5.396   0.146  0.2347  0.1473  0.6213
    6CHTO  C121 2166   5.834   5.130   0.163  0.5754 -0.3541 -0.4270
    6CHTO  H225 2167   5.784   5.189   0.243 -0.7858  0.7042 -2.0191
    6CHTO   O81 2168   5.739   5.146   0.061 -0.4348  0.1139  0.5656
    6CHTO  H202 2169   5.660   5.180   0.100 -1.1020 -1.1574  0.3492
    6CHTO  C119 2170   5.844   4.977   0.204  0.2676 -0.7944  0.5685
    6CHTO  H223 2171   5.898   4.984   0.298  1.1880  1.9048 -0.0937
    6CHTO  C117 2172   5.938   4.896   0.104 -0.1273 -0.1111 -0.5128
    6CHTO  H221 2173   5.902   4.892   0.001 -2.1132 -1.3834  0.2064
    6CHTO   N20 2174   5.950   4.750   0.146 -0.0624  0.5153  0.1488
    6CHTO  H209 2175   5.854   4.720   0.185 -0.1434 -0.9612 -1.1304
    6CHTO  H210 2176   5.987   4.687   0.066 -1.6952 -2.4446  1.6566
    6CHTO   O80 2177   5.699   4.918   0.251  0.2186  0.0776 -0.1267
    6CHTO  C103 2178   5.635   4.942   0.410 -0.3371 -0.1702  0.4426
    6CHTO  H190 2179   5.701   4.909   0.491  0.3700 -1.7135 -0.7343
    6CHTO  C101 2180   5.574   5.094   0.446 -0.0751 -0.0870  0.1547
    6CHTO  H188 2181   5.511   5.126   0.363 -0.4954  3.8136  1.8858
    6CHTO   O68 2182   5.679   5.196   0.458 -0.2054  0.2601  0.4244
    6CHTO  H168 2183   5.654   5.286   0.448  0.6672  0.4888  0.3126
    6CHTO   C99 2184   5.486   5.076   0.577 -0.1831  0.8156 -0.3294
    6CHTO  H186 2185   5.548   5.036   0.660  1.5697  2.3986 -0.8207
    6CHTO   N17 2186   5.429   5.205   0.628 -0.4133 -0.1140  0.1444
    6CHTO  H174 2187   5.513   5.260   0.668 -0.3960  0.7407 -1.0207
    6CHTO  H175 2188   5.386   5.257   0.543 -0.5824  1.5033  1.1982
    6CHTO   C97 2189   5.375   4.970   0.549  0.0044 -0.1644 -0.0970
    6CHTO  H184 2190   5.316   5.003   0.462 -0.2906  1.4584  0.7021
    6CHTO   O64 2191   5.430   4.842   0.524  0.0802 -0.0678 -0.7382
    6CHTO  C104 2192   5.511   4.841   0.410  0.2125 -0.3419  0.5746
    6CHTO  H191 2193   5.445   4.863   0.326  1.7569 -1.9625 -1.1131
    6CHTO  C108 2194   5.560   4.702   0.389  0.2700  1.3576 -0.3711
    6CHTO   O71 2195   5.601   4.623   0.503  0.0109  0.8648 -0.3448
    6CHTO  H171 2196   5.675   4.668   0.539  0.8411  1.6826 -2.9309
    6CHTO   O62 2197   5.305   4.929   0.668  0.2556 -0.0447 -0.8063
    6CHTO   C91 2198   5.161   4.906   0.656  0.2385  0.2403  0.2107
    6CHTO  H178 2199   5.119   5.006   0.670  0.9468  0.6729 -0.7325
    6CHTO   C92 2200   5.120   4.822   0.772 -0.3036 -0.2256  0.7181
    6CHTO  H179 2201   5.149   4.871   0.866  0.1933 -0.6001  0.7659
    6CHTO   O66 2202   4.978   4.829   0.778  0.0330 -0.6183 -0.4907
    6CHTO  H166 2203   4.927   4.820   0.700  0.1472 -1.3715 -0.4819
    6CHTO   C93 2204   5.154   4.668   0.755 -0.2410  0.6127 -0.2234
    6CHTO  H180 2205   5.076   4.602   0.793  1.2972 -1.7007 -1.0057
    6CHTO   N16 2206   5.266   4.642   0.846  0.6901  0.3415  0.4042
    6CHTO  H172 2207   5.264   4.541   0.885  0.3883  0.0896 -0.2563
    6CHTO  H173 2208   5.251   4.715   0.924 -0.7524 -1.1951  1.5984
    6CHTO   C94 2209   5.181   4.626   0.609 -0.5902 -0.4774 -0.1412
    6CHTO  H181 2210   5.286   4.644   0.584 -0.2082 -0.0848  1.6949
    6CHTO   O61 2211   5.096   4.707   0.523 -0.3750 -0.4485  0.1863
    6CHTO   C95 2212   5.110   4.847   0.520 -0.0069 -0.1709 -0.5988
    6CHTO  H182 2213   5.174   4.867   0.434  0.5802 -0.8696 -0.3306
    6CHTO  C106 2214   4.977   4.926   0.473  0.1187 -0.3169 -0.1050
    6CHTO   O69 2215   4.943   4.870   0.348  0.1777  0.5068  0.8201
    6CHTO  H169 2216   4.893   4.938   0.307 -1.3036  0.0627  1.8583
    6CHTO   O63 2217   5.146   4.478   0.589  0.0412 -0.1428 -0.2184
    6CHTO   C96 2218   5.245   4.413   0.482  0.0695 -0.4862  0.2108
    6CHTO  H183 2219   5.341   4.449   0.518  0.3812 -1.0746 -0.0383
    6CHTO   C98 2220   5.233   4.449   0.333  0.8799 -0.0174  0.1530
    6CHTO  H185 2221   5.129   4.424   0.306  0.6666 -1.4246  2.2503
    6CHTO   O67 2222   5.237   4.590   0.325  0.2718 -0.1336 -0.3627
    6CHTO  H167 2223   5.329   4.601   0.339  0.3484  0.4273 -1.2399
    6CHTO  C102 2224   5.348   4.380   0.237 -0.2514 -0.4327  0.0706
    6CHTO  H189 2225   5.429   4.455   0.239 -0.0066 -0.6398 -1.6237
    6CHTO   N18 2226   5.312   4.367   0.094  0.3295 -0.2889 -0.0132
    6CHTO  H176 2227   5.286   4.464   0.054 -0.4703 -1.3628 -2.1444
    6CHTO  H177 2228   5.395   4.318   0.048  0.8667  0.7016 -0.1225
    6CHTO  C105 2229   5.416   4.254   0.302 -0.0681 -0.1284 -1.3210
    6CHTO  H192 2230   5.437   4.180   0.224 -0.9159 -0.2366 -1.4542
    6CHTO   O65 2231   5.330   4.181   0.399  0.6281 -0.7017  0.1005
    6CHTO  C100 2232   5.249   4.250   0.498 -0.0809  0.2448 -0.6233
    6CHTO  H187 2233   5.145   4.222   0.476 -0.8381  1.0702  1.7302
    6CHTO  C107 2234   5.291   4.207   0.642  0.2880 -0.4912 -0.0607
    6CHTO   O70 2235   5.194   4.258   0.733  0.6760 -0.2188 -0.5401
    6CHTO  H170 2236   5.153   4.334   0.697 -0.4767 -1.2974 -1.5657
    6CHTO   O57 2237   5.559   4.298   0.377  0.4620 -0.9085 -0.4551
    6CHTO   C85 2238   5.661   4.195   0.368 -0.3447  0.0572  0.1385
    6CHTO  H157 2239   5.648   4.138   0.274 -0.8022 -0.5150  0.5474
    6CHTO   C83 2240   5.641   4.094   0.478  0.6043  0.4595 -0.2247
    6CHTO  H155 2241   5.541   4.052   0.469  0.6136  0.4711 -0.3763
    6CHTO   O56 2242   5.652   4.166   0.608 -0.0676 -0.0976 -0.0732
    6CHTO  H135 2243   5.738   4.176   0.644 -0.5143  2.2344  0.4562
    6CHTO   C81 2244   5.746   3.981   0.467  0.1735 -0.0731  0.5808
    6CHTO  H153 2245   5.735   3.935   0.369  1.3436 -1.6400  1.1723
    6CHTO   N14 2246   5.732   3.871   0.564  0.1231  0.4066  0.7780
    6CHTO  H141 2247   5.631   3.837   0.564  1.2082 -2.9637  0.5661
    6CHTO  H142 2248   5.768   3.903   0.659  0.7385  0.9237  0.3807
    6CHTO   C79 2249   5.894   4.040   0.482  0.1351  0.2268 -0.0344
    6CHTO  H151 2250   5.966   3.961   0.461 -0.2470 -0.3162  0.6752
    6CHTO   O52 2251   5.912   4.155   0.386 -0.3730 -0.1379 -0.2182
    6CHTO   C86 2252   5.807   4.256   0.381 -0.1062  0.7003  0.4118
    6CHTO  H158 2253   5.822   4.312   0.476 -1.5724  1.5467  0.1643
    6CHTO   C90 2254   5.855   4.357   0.271 -0.5556  0.4040 -0.0044
    6CHTO   O60 2255   5.980   4.411   0.295 -0.0941  0.1496  0.7872
    6CHTO  H138 2256   5.980   4.496   0.335  1.9061  0.8091 -0.5410
    6CHTO   O50 2257   5.920   4.086   0.614 -0.6897 -0.0258 -0.5878
    6CHTO   C73 2258   6.012   4.086   0.719  0.0097  0.1071 -0.0490
    6CHTO  H145 2259   6.018   3.989   0.770  0.8929 -0.0771 -0.5044
    6CHTO   C74 2260   5.970   4.185   0.834 -0.5706 -0.2840 -0.0146
    6CHTO  H146 2261   5.879   4.148   0.883 -2.2298  1.7522 -1.4840
    6CHTO   O54 2262   6.071   4.179   0.936  0.5422 -0.0735 -0.4661
    6CHTO  H133 2263   6.148   4.218   0.898 -0.1598  0.3019 -1.5246
    6CHTO   C75 2264   5.952   4.330   0.767 -0.0858 -0.4132 -0.2802
    6CHTO  H147 2265   5.858   4.335   0.710 -1.6702  1.8813  2.3743
    6CHTO   N13 2266   5.927   4.434   0.871 -0.4956  0.7694  0.3860
    6CHTO  H139 2267   5.852   4.401   0.941 -0.1169 -0.1585  0.3703
    6CHTO  H140 2268   5.905   4.531   0.829  0.5853  2.2826  3.1850
    6CHTO   C76 2269   6.081   4.370   0.678 -0.0820  0.1184 -0.7344
    6CHTO  H148 2270   6.157   4.394   0.752 -3.0141  1.9774  1.7701
    6CHTO   O49 2271   6.134   4.260   0.594  0.1328 -0.4268  0.2464
    6CHTO   C77 2272   6.146   4.134   0.660  0.3896 -0.6015 -1.1876
    6CHTO  H149 2273   6.211   4.152   0.746  0.1357 -1.3798 -0.8294
    6CHTO   C88 2274   6.218   4.044   0.566  0.0975 -0.8622 -0.4225
    6CHTO   O58 2275   6.227   3.898   0.609  0.2213 -0.1589  0.6020
    6CHTO  H136 2276   6.141   3.864   0.620  1.3196 -2.6121  2.1049
    6CHTO   O51 2277   6.057   4.498   0.571 -0.0547 -1.1126 -0.0991
    6CHTO   C78 2278   6.123   4.642   0.607  0.2031 -0.5972 -0.0073
    6CHTO  H150 2279   6.145   4.644   0.715  0.6638  0.2435 -0.1189
    6CHTO   C80 2280   6.022   4.757   0.576  0.5417  0.0672 -0.1354
    6CHTO  H152 2281   5.976   4.735   0.477 -1.4544 -0.2932  0.8574
    6CHTO   O55 2282   5.914   4.756   0.670 -0.9040  0.5235  0.4780
    6CHTO  H134 2283   5.839   4.708   0.638  1.9163 -3.1574 -0.9671
    6CHTO   C84 2284   6.094   4.902   0.572  0.7777  0.2170  0.0817
    6CHTO  H156 2285   6.112   4.915   0.679  1.1533 -2.0010  0.3228
    6CHTO   N15 2286   5.998   5.004   0.528  0.4309  0.0081 -0.0534
    6CHTO  H143 2287   5.905   5.006   0.582  0.0904  0.7923 -0.6534
    6CHTO  H144 2288   6.043   5.101   0.537 -0.6559  0.6215 -1.1817
    6CHTO   C87 2289   6.221   4.910   0.489  0.2595  0.1890 -0.6003
    6CHTO  H159 2290   6.192   4.901   0.384  3.7108  0.1714 -1.5946
    6CHTO   O53 2291   6.311   4.781   0.531 -0.2580 -0.0472 -0.3615
    6CHTO   C82 2292   6.244   4.655   0.520  0.0021  0.6560 -0.2693
    6CHTO  H154 2293   6.214   4.651   0.416  0.9280 -0.8686 -0.4902
    6CHTO   C89 2294   6.349   4.536   0.547  0.5926 -0.0398  0.1334
    6CHTO   O59 2295   6.464   4.561   0.471  0.8109 -0.2100  0.0587
    6CHTO  H137 2296   6.465   4.513   0.390  0.8238 -0.4615  0.2055
    6CHTO   O45 2297   6.295   5.047   0.515 -0.2059 -0.3327 -0.2502
    6CHTO   C67 2298   6.436   5.045   0.485 -0.4444  0.2815  0.0884
    6CHTO  H124 2299   6.470   4.942   0.470 -0.8058  0.1385  0.2344
    6CHTO   C65 2300   6.457   5.119   0.349 -0.2629  0.0586 -0.5541
    6CHTO  H122 2301   6.360   5.163   0.324  0.6661  1.1034 -2.4231
    6CHTO   O44 2302   6.493   5.027   0.239  0.4748  0.1142  0.0691
    6CHTO  H102 2303   6.420   5.006   0.184  0.9265  0.7101 -0.7558
    6CHTO   C63 2304   6.552   5.242   0.372  0.1032 -0.1029 -1.2946
    6CHTO  H120 2305   6.499   5.316   0.431  2.1147  1.2362 -1.1401
    6CHTO   N11 2306   6.578   5.323   0.255  0.6681  0.2282 -0.0867
    6CHTO  H108 2307   6.666   5.381   0.274  1.2234 -1.0447  1.3568
    6CHTO  H109 2308   6.494   5.386   0.235 -0.7016 -1.3079  0.6994
    6CHTO   C61 2309   6.685   5.199   0.446 -0.5932 -0.2067  0.6053
    6CHTO  H118 2310   6.736   5.292   0.475 -1.5833  0.4747  0.1671
    6CHTO   O40 2311   6.661   5.124   0.571 -0.0012  0.1239  1.2179
    6CHTO   C68 2312   6.521   5.107   0.602 -0.4127 -0.2383 -0.1759
    6CHTO  H125 2313   6.475   5.204   0.631 -2.3389 -0.6438 -1.7692
    6CHTO   C72 2314   6.515   5.012   0.727  0.1291 -0.0964 -0.1466
    6CHTO   O48 2315   6.392   4.972   0.783  0.1876  0.0248 -0.2567
    6CHTO  H105 2316   6.416   4.926   0.861  1.4250  3.4240  1.4849
    6CHTO   O38 2317   6.787   5.123   0.370 -0.0809 -0.2892  0.0760
    6CHTO   C55 2318   6.921   5.128   0.426 -0.1022 -0.4199 -0.4321
    6CHTO  H112 2319   6.923   5.163   0.531  3.3128 -0.0543 -0.5663
    6CHTO   C56 2320   7.016   5.214   0.330 -0.0711 -0.0777 -1.5349
    6CHTO  H113 2321   7.019   5.159   0.235 -2.4809 -1.5144 -0.8201
    6CHTO   O42 2322   6.960   5.349   0.310  0.0911  0.9209 -0.1061
    6CHTO  H100 2323   7.001   5.406   0.249  1.7662 -0.2866 -0.1481
    6CHTO   C57 2324   7.157   5.218   0.400  0.3770  0.2300 -0.4342
    6CHTO  H114 2325   7.135   5.261   0.497 -1.6031 -1.8491  0.0931
    6CHTO   N10 2326   7.265   5.286   0.324  0.0128 -0.6506  0.3960
    6CHTO  H106 2327   7.250   5.393   0.328  2.7532 -0.3143  3.0114
    6CHTO  H107 2328   7.363   5.263   0.361 -0.9505 -2.6029  1.7895
    6CHTO   C58 2329   7.201   5.064   0.418  0.1697 -0.1270  0.0204
    6CHTO  H115 2330   7.204   5.006   0.323  1.0437 -0.2819  0.1449
    6CHTO   O37 2331   7.106   4.985   0.498 -0.0529 -0.5932 -0.2605
    6CHTO   C59 2332   6.978   4.981   0.439 -0.5941 -0.5549  0.2193
    6CHTO  H116 2333   6.983   4.929   0.344  1.3371 -0.2081  0.1206
    6CHTO   C70 2334   6.887   4.909   0.537 -0.3219  0.3437  0.3448
    6CHTO   O46 2335   6.928   4.777   0.563  0.2362 -0.1686 -0.6047
    6CHTO  H103 2336   6.866   4.717   0.526  1.3390 -1.1098 -0.9537
    6CHTO   O39 2337   7.326   5.054   0.524 -0.1798  0.0717 -0.2350
    6CHTO   C60 2338   7.430   4.952   0.500  0.2627  0.0955 -0.4877
    6CHTO  H117 2339   7.383   4.859   0.468 -0.2683  0.4715 -0.8023
    6CHTO   C62 2340   7.523   4.992   0.384  0.2266  0.2573 -0.2882
    6CHTO  H119 2341   7.466   4.984   0.289  1.3366 -1.0817 -0.8732
    6CHTO   O43 2342   7.571   5.129   0.389  0.0011 -0.4728 -0.4584
    6CHTO  H101 2343   7.576   5.172   0.307 -1.4050  1.8293  0.6360
    6CHTO   C66 2344   7.651   4.890   0.365 -0.1269 -0.4214  0.2889
    6CHTO  H123 2345   7.616   4.789   0.345  1.0661 -0.6782 -0.5635
    6CHTO   N12 2346   7.730   4.920   0.243  0.4919 -0.0639 -0.5613
    6CHTO  H110 2347   7.782   4.836   0.198 -1.5845 -2.5071  1.3851
    6CHTO  H111 2348   7.792   5.005   0.266 -2.3047  1.4662  1.6895
    6CHTO   C69 2349   7.738   4.901   0.491  0.2912  1.1650  0.1567
    6CHTO  H126 2350   7.772   5.004   0.513  0.4479  1.3626 -1.0051
    6CHTO   O41 2351   7.635   4.835   0.606 -0.0493  0.1668 -0.1447
    6CHTO   C64 2352   7.508   4.925   0.628 -0.4627  0.0187  0.0213
    6CHTO  H121 2353   7.544   5.018   0.676  0.0510 -0.6484  0.9311
    6CHTO   C71 2354   7.416   4.854   0.728 -0.4327  0.3454 -0.1270
    6CHTO   O47 2355   7.403   4.724   0.673 -0.0668  0.2951 -0.2631
    6CHTO  H104 2356   7.401   4.665   0.746 -0.5229  0.6398  0.0048
    6CHTO   O34 2357   7.865   4.798   0.489  0.3886 -0.8202  0.2937
    6CHTO   C49 2358   8.017   4.795   0.423  0.7981 -0.1333 -0.6910
    6CHTO   H91 2359   7.991   4.767   0.321  0.5353  0.4547 -0.7899
    6CHTO   C47 2360   8.103   4.687   0.498  1.2072 -0.3603  0.0787
    6CHTO   H89 2361   8.202   4.678   0.448  2.2448  0.7206  1.8931
    6CHTO   O33 2362   8.032   4.559   0.498 -0.3016 -0.0723 -0.0082
    6CHTO   H70 2363   7.973   4.545   0.426 -1.1204 -1.4093  0.8950
    6CHTO   C45 2364   8.122   4.744   0.645 -0.5879 -0.8531 -0.7534
    6CHTO   H87 2365   8.023   4.761   0.691  0.0617  0.8635  0.0784
    6CHTO    N8 2366   8.198   4.657   0.737  0.2214 -0.2401 -0.6934
    6CHTO   H75 2367   8.173   4.682   0.839  1.7566 -1.2101 -0.0754
    6CHTO   H76 2368   8.161   4.557   0.719 -0.0346 -0.4128  0.7447
    6CHTO   C43 2369   8.192   4.889   0.643 -0.4176  0.3847 -0.4603
    6CHTO   H85 2370   8.178   4.931   0.743  0.2191  1.3862 -0.7815
    6CHTO   O29 2371   8.142   4.980   0.541  0.2137  0.0651  0.1856
    6CHTO   C50 2372   8.096   4.924   0.420  0.3617  0.3012 -0.1537
    6CHTO   H92 2373   8.036   5.006   0.378 -0.4389 -0.2486 -0.1123
    6CHTO   C54 2374   8.213   4.911   0.321  0.6143 -0.1606 -0.2414
    6CHTO   O36 2375   8.161   4.930   0.191 -0.3111  0.0932  0.3257
    6CHTO   H72 2376   8.086   4.986   0.184  0.1302  0.3802 -2.6626
    6CHTO   O27 2377   8.336   4.900   0.633  0.4828 -0.2766 -0.4767
    6CHTO   C37 2378   8.424   5.007   0.663 -0.6599  0.2399 -0.7401
    6CHTO   H79 2379   8.524   4.963   0.679 -1.5472 -1.8686 -0.8038
    6CHTO   C38 2380   8.442   5.116   0.555 -0.1002  0.4324  0.2606
    6CHTO   H80 2381   8.342   5.158   0.538 -0.3134 -0.7663 -1.6877
    6CHTO   O31 2382   8.491   5.051   0.430  0.6020  0.0679  0.5091
    6CHTO   H68 2383   8.487   5.109   0.356 -2.7653  2.1115  2.1220
    6CHTO   C39 2384   8.541   5.232   0.599  0.7379  1.2831  0.2785
    6CHTO   H81 2385   8.637   5.187   0.621 -1.2299 -4.0802 -1.3791
    6CHTO    N7 2386   8.564   5.330   0.495 -0.1388 -0.1960 -0.0101
    6CHTO   H73 2387   8.648   5.397   0.508  0.5891 -0.3349 -3.3931
    6CHTO   H74 2388   8.583   5.288   0.397  3.1151 -0.5908  0.7352
    6CHTO   C40 2389   8.487   5.294   0.732  0.0882  0.2972  0.0174
    6CHTO   H82 2390   8.389   5.335   0.707  0.4250  1.0599 -0.0496
    6CHTO   O26 2391   8.481   5.185   0.826  0.1210  0.4792  0.1774
    6CHTO   C41 2392   8.389   5.073   0.798  0.7285  0.1964 -0.5452
    6CHTO   H83 2393   8.287   5.113   0.798  0.7849  0.5250 -4.7457
    6CHTO   C52 2394   8.411   4.975   0.910  0.2960 -0.4120 -0.1342
    6CHTO   O35 2395   8.382   5.037   1.042  0.3627 -0.5377  0.0068
    6CHTO   H71 2396   8.456   5.087   1.072  1.1131 -0.3914 -2.0126
    6CHTO   O28 2397   8.572   5.387   0.797  0.0465  0.9723  0.0376
    6CHTO   C42 2398   8.559   5.451   0.931  0.4270  0.2272 -0.0547
    6CHTO   H84 2399   8.610   5.546   0.916  1.1093  0.0047  0.7990
    6CHTO   C44 2400   8.638   5.384   1.043  0.1659 -0.4673  0.0950
    6CHTO   H86 2401   8.596   5.285   1.062  1.9410 -1.2065  0.2188
    6CHTO   O32 2402   8.761   5.366   0.989 -0.3483  0.2617 -0.1332
    6CHTO   H69 2403   8.762   5.302   0.921  1.2946 -0.7945  0.8623
    6CHTO   C48 2404   8.632   5.468   1.174  0.3856  0.0750 -0.2578
    6CHTO   H90 2405   8.673   5.568   1.158 -0.1338 -0.0104 -2.1792
    6CHTO    N9 2406   8.715   5.404   1.283 -0.0594 -0.2073 -0.0225
    6CHTO   H77 2407   8.683   5.432   1.382  0.9274  0.6024  0.0748
    6CHTO   H78 2408   8.817   5.429   1.254  0.3806 -2.0730 -0.1363
    6CHTO   C51 2409   8.487   5.506   1.227 -0.4542 -0.0817  0.3866
    6CHTO   H93 2410   8.442   5.408   1.246  1.6737 -1.0007  0.8835
    6CHTO   O30 2411   8.420   5.573   1.118 -0.3501 -0.2686 -0.1541
    6CHTO   C46 2412   8.412   5.485   0.980 -0.0994  0.1612  0.5901
    6CHTO   H88 2413   8.355   5.395   1.001  0.2821 -1.1130 -3.4965
    6CHTO   C53 2414   8.324   5.569   0.887 -0.0541  0.0662  0.0191
    6CHTO   O72 2415   8.397   5.680   0.833 -0.0677  0.3325 -0.3762
    6CHTO  H199 2416   8.342   5.730   0.777 -1.1466 -1.0455 -0.5811
    6CHTO   O22 2417   8.488   5.602   1.331 -0.0761  0.2353  0.0193
    6CHTO   C31 2418   8.372   5.622   1.417 -0.7795  0.2413  0.5526
    6CHTO   H59 2419   8.367   5.731   1.437 -0.3575  0.9289 -2.7170
    6CHTO   C29 2420   8.232   5.579   1.356  0.3037  0.0385  0.3468
    6CHTO   H57 2421   8.233   5.472   1.328  0.5512 -0.4943  2.3349
    6CHTO   O21 2422   8.211   5.660   1.238  0.8268 -0.0138 -0.3320
    6CHTO   H37 2423   8.204   5.622   1.153  0.9212 -2.5341  0.7677
    6CHTO   C27 2424   8.116   5.596   1.461  0.7641  0.3199  0.4113
    6CHTO   H55 2425   8.115   5.703   1.488  1.7306  1.4532 -3.7473
    6CHTO    N5 2426   7.977   5.559   1.411 -0.4973  0.0615 -0.3451
    6CHTO   H43 2427   7.917   5.493   1.471  0.1925  0.6334  1.0280
    6CHTO   H44 2428   7.983   5.510   1.315  1.7309 -1.0789  0.3427
    6CHTO   C25 2429   8.160   5.514   1.597  0.3840 -0.4702  0.5433
    6CHTO   H53 2430   8.179   5.408   1.575 -1.4766 -0.3856 -1.7457
    6CHTO   O17 2431   8.293   5.557   1.651  0.0627 -0.5570 -0.2358
    6CHTO   C32 2432   8.409   5.552   1.559  0.0798  0.1614 -1.2336
    6CHTO   H60 2433   8.426   5.447   1.539  1.3377  0.4034 -1.4965
    6CHTO   C36 2434   8.525   5.593   1.635  0.2355 -0.1979  0.1147
    6CHTO   O25 2435   8.521   5.734   1.654  0.1835 -0.0803 -0.2406
    6CHTO   H40 2436   8.576   5.778   1.593 -0.7220  0.9603 -0.3253
    6CHTO   O15 2437   8.068   5.533   1.704 -0.3997 -0.0416 -0.4909
    6CHTO   C19 2438   8.007   5.647   1.781 -0.2588  0.4500 -0.5250
    6CHTO   H47 2439   7.994   5.607   1.882 -1.3956 -0.6421 -1.0866
    6CHTO   C20 2440   8.099   5.775   1.796 -0.2222  0.1652 -0.0696
    6CHTO   H48 2441   8.126   5.816   1.697  0.5664  1.3408  0.6234
    6CHTO   O19 2442   8.216   5.742   1.870 -0.0066 -0.1607 -0.0125
    6CHTO   H35 2443   8.194   5.752   1.961  0.9095 -1.4478  0.3714
    6CHTO   C21 2444   8.009   5.892   1.870 -0.2413  0.0202 -0.2208
    6CHTO   H49 2445   7.988   5.857   1.971  1.4288 -1.1747 -0.2518
    6CHTO    N4 2446   8.090   6.021   1.891  0.9363 -0.3085  0.1768
    6CHTO   H41 2447   8.128   6.030   1.992  0.0364  1.1598  0.4028
    6CHTO   H42 2448   8.172   6.029   1.822 -1.2692  2.0795 -2.3138
    6CHTO   C22 2449   7.870   5.913   1.805 -0.1182 -0.8341 -0.7672
    6CHTO   H50 2450   7.876   5.961   1.708 -1.2637 -0.3464 -0.6110
    6CHTO   O14 2451   7.797   5.791   1.800  0.4489 -0.1622 -0.4289
    6CHTO   C23 2452   7.863   5.684   1.729 -0.4342 -0.6599 -0.5718
    6CHTO   H51 2453   7.863   5.717   1.624  0.0421 -1.0966 -0.7083
    6CHTO   C34 2454   7.769   5.560   1.736 -0.1498 -0.0573 -0.2879
    6CHTO   O23 2455   7.746   5.517   1.871  0.2540 -0.2358  0.1120
    6CHTO   H38 2456   7.720   5.428   1.857 -1.3809  0.2136  0.1162
    6CHTO   O16 2457   7.784   5.998   1.883 -0.1775 -0.6874  0.0100
    6CHTO   C24 2458   7.715   6.116   1.795  0.3969 -0.0910 -0.2827
    6CHTO   H52 2459   7.747   6.113   1.691 -1.8461  0.3487 -1.0240
    6CHTO   C26 2460   7.730   6.258   1.849 -0.2411  0.5450 -0.5721
    6CHTO   H54 2461   7.706   6.253   1.957  0.3563  1.0723 -0.4146
    6CHTO   O20 2462   7.868   6.280   1.825  0.0494 -0.6064  0.3181
    6CHTO   H36 2463   7.895   6.359   1.866  0.2211 -1.1987  1.3644
    6CHTO   C30 2464   7.631   6.361   1.779 -0.4064 -0.3624  0.6057
    6CHTO   H58 2465   7.665   6.365   1.674 -2.4515  0.3300 -0.0591
    6CHTO    N6 2466   7.643   6.493   1.852 -0.6189  0.1859  0.6901
    6CHTO   H45 2467   7.684   6.490   1.952  0.2131 -1.1665  0.3266
    6CHTO   H46 2468   7.705   6.560   1.794 -2.1695  2.9660  2.1380
    6CHTO   C33 2469   7.488   6.307   1.783  0.1767  0.2554  0.5526
    6CHTO   H61 2470   7.443   6.291   1.881 -2.0233  0.0944 -0.4526
    6CHTO   O18 2471   7.495   6.179   1.719 -0.0856  0.2064  0.0379
    6CHTO   C28 2472   7.562   6.076   1.789  0.1867 -0.2590  0.0376
    6CHTO   H56 2473   7.522   6.066   1.890  0.3233  1.1907  0.2489
    6CHTO   C35 2474   7.548   5.942   1.712  0.5324  0.1696  0.3820
    6CHTO   O24 2475   7.580   5.966   1.576  0.4241 -0.1659  0.3864
    6CHTO   H39 2476   7.535   5.905   1.521 -0.2205 -0.7018  1.5025
    6CHTO    O9 2477   7.394   6.391   1.714  0.3326 -0.1469  0.0086
    6CHTO   C13 2478   7.277   6.470   1.807  0.7709  0.0775  0.1738
    6CHTO   H26 2479   7.328   6.528   1.886 -0.7087 -0.2544  1.4065
    6CHTO   C11 2480   7.173   6.366   1.873  0.5229 -0.4848  0.1957
    6CHTO   H24 2481   7.226   6.310   1.952  0.4084 -2.5011 -1.0961
    6CHTO    O8 2482   7.125   6.270   1.771  0.0316 -0.3916  0.6935
    6CHTO    H3 2483   7.064   6.214   1.815 -0.4052 -0.8064 -0.4174
    6CHTO    C9 2484   7.060   6.453   1.934 -0.2431  0.2711 -0.3108
    6CHTO   H22 2485   7.113   6.528   1.994  0.6373  0.0368 -0.7733
    6CHTO    N2 2486   6.975   6.388   2.034  0.1440  0.2072 -0.2844
    6CHTO   H10 2487   7.016   6.405   2.133 -1.3633 -0.5810  0.4900
    6CHTO   H11 2488   6.969   6.282   2.014  0.6045 -0.0056  0.6328
    6CHTO    C7 2489   6.982   6.534   1.824  0.4969  0.5315  0.6617
    6CHTO   H20 2490   6.915   6.605   1.877  0.8927 -0.1219  2.0565
    6CHTO    O4 2491   7.078   6.622   1.755 -0.3019  0.2800  0.7180
    6CHTO   C14 2492   7.200   6.566   1.708  0.1682 -0.3684  0.4075
    6CHTO   H27 2493   7.263   6.657   1.695 -0.9555  0.5890  1.5185
    6CHTO   C18 2494   7.175   6.507   1.565  0.2033  0.5857  0.3695
    6CHTO   O13 2495   7.173   6.614   1.465  0.2569 -0.2092  0.4058
    6CHTO    H7 2496   7.229   6.585   1.396  0.2924 -2.4204  1.3247
    6CHTO    O2 2497   6.909   6.437   1.716  0.2357 -0.2008  0.0379
    6CHTO    C1 2498   6.768   6.452   1.689 -0.0577 -0.0094  0.1381
    6CHTO   H14 2499   6.760   6.414   1.585 -2.6462 -0.8331  0.6004
    6CHTO    C2 2500   6.718   6.601   1.694 -0.3600 -0.4126  0.1892
    6CHTO   H15 2501   6.727   6.639   1.798  1.9312  0.5841 -0.3438
    6CHTO    O6 2502   6.796   6.669   1.604 -0.5245 -0.7331 -0.6439
    6CHTO    H1 2503   6.824   6.750   1.641 -0.3853 -0.6686 -0.8902
    6CHTO    C3 2504   6.560   6.590   1.654 -0.0025 -0.0533 -0.0780
    6CHTO   H16 2505   6.547   6.553   1.551 -0.1477  1.7489 -0.7237
    6CHTO    N1 2506   6.497   6.731   1.653  0.2937  0.3366 -0.9580
    6CHTO    H8 2507   6.537   6.794   1.575 -0.7635  4.2801  1.5131
    6CHTO    H9 2508   6.500   6.769   1.754 -0.4680 -1.1711 -0.3427
    6CHTO    C4 2509   6.475   6.491   1.740 -0.0088  0.2440  0.0440
    6CHTO   H17 2510   6.460   6.538   1.837 -1.6862 -0.9675  0.3959
    6CHTO    O1 2511   6.541   6.364   1.750 -0.2248 -0.0602 -0.3103
    6CHTO    C5 2512   6.679   6.361   1.780  0.4276  0.2451  0.4634
    6CHTO   H18 2513   6.698   6.393   1.882  0.1430  0.7366  0.3602
    6CHTO   C16 2514   6.730   6.211   1.768 -0.8110  0.4591  0.0293
    6CHTO   O11 2515   6.628   6.111   1.774  0.2554 -0.6900  0.2536
    6CHTO    H5 2516   6.558   6.138   1.718 -0.6735 -0.9509  1.2851
    6CHTO    O3 2517   6.352   6.452   1.668 -0.2291 -0.5578 -0.0070
    6CHTO    C6 2518   6.230   6.427   1.742  0.4595 -0.6091  0.7936
    6CHTO   H19 2519   6.249   6.411   1.848 -0.7926 -0.8309  0.9964
    6CHTO    C8 2520   6.136   6.550   1.724 -0.6717  0.1475 -0.2176
    6CHTO   H21 2521   6.117   6.564   1.618 -1.4381  0.1727 -0.0785
    6CHTO    O7 2522   6.213   6.661   1.779 -0.0434 -0.0266  0.2939
    6CHTO    H2 2523   6.181   6.669   1.867 -1.5258  0.6957 -0.2773
    6CHTO   C12 2524   6.000   6.515   1.795  0.6516 -1.2154  0.3137
    6CHTO   H25 2525   6.015   6.512   1.905 -2.2428  0.0107  0.7959
    6CHTO    N3 2526   5.903   6.627   1.786 -0.1224  1.0952 -0.0795
    6CHTO   H12 2527   5.940   6.717   1.833  0.8568  1.1922 -1.0204
    6CHTO   H13 2528   5.818   6.592   1.842  1.3737 -3.0465 -0.2705
    6CHTO   C15 2529   5.940   6.375   1.756 -0.3342  0.2195  0.3759
    6CHTO   H28 2530   5.901   6.384   1.655 -2.1772  0.2117  1.0699
    6CHTO   O10 2531   5.834   6.328   1.849  0.1314  0.5109 -0.2586
    6CHTO    H4 2532   5.801   6.252   1.806 -1.6882  1.6526 -0.9289
    6CHTO    O5 2533   6.041   6.270   1.754 -0.7301  0.2243 -0.1881
    6CHTO   C10 2534   6.164   6.296   1.684  0.0688  0.2809  0.1985
    6CHTO   H23 2535   6.147   6.303   1.576  0.5792  0.4209  0.1280
    6CHTO   C17 2536   6.256   6.181   1.710 -0.4338 -0.1349  0.5861
    6CHTO   O12 2537   6.272   6.160   1.845 -0.2483  0.2249  0.6066
    6CHTO    H6 2538   6.273   6.068   1.864  1.6263  0.0279 -0.3049
    7CHTO  H203 2539   5.113   2.291   1.635  1.2914  1.0194  0.1619
    7CHTO   O82 2540   5.172   2.235   1.589  0.2239 -0.2811  0.3428
    7CHTO  C123 2541   5.273   2.307   1.523  0.5016 -0.5039 -1.1217
    7CHTO  H227 2542   5.228   2.358   1.437 -1.4727  0.9071  0.7205
    7CHTO   O77 2543   5.331   2.390   1.629  1.1022 -0.1050 -0.3783
    7CHTO  C118 2544   5.456   2.460   1.590  0.1877 -0.2212  0.4293
    7CHTO  H222 2545   5.423   2.527   1.509  1.8670  0.8929  0.6461
    7CHTO  C125 2546   5.505   2.549   1.707 -0.5358 -0.0259  0.4037
    7CHTO   O84 2547   5.433   2.676   1.716 -0.6508  0.4165  0.9864
    7CHTO  H205 2548   5.347   2.655   1.748 -0.8165  1.7796  1.4698
    7CHTO  C114 2549   5.568   2.365   1.540 -0.2879 -0.5008 -0.0869
    7CHTO  H218 2550   5.595   2.299   1.623 -1.1720 -0.5509  0.1690
    7CHTO  C116 2551   5.507   2.278   1.421 -0.3082 -0.1054  0.4188
    7CHTO  H220 2552   5.473   2.341   1.336 -0.3592  0.6110  0.9746
    7CHTO   O79 2553   5.605   2.184   1.373 -0.1969 -0.0011  0.4729
    7CHTO  H201 2554   5.649   2.145   1.446  2.2486  2.2786  0.3009
    7CHTO  C120 2555   5.378   2.200   1.466  0.4758 -0.1573  0.1985
    7CHTO  H224 2556   5.403   2.124   1.542 -0.1583 -1.5536 -0.9822
    7CHTO   N21 2557   5.325   2.117   1.358  0.4185  0.1759  0.3115
    7CHTO  H211 2558   5.340   2.164   1.262  1.6024 -0.0169  0.3901
    7CHTO  H212 2559   5.220   2.102   1.377 -0.2688  0.9435 -2.5764
    7CHTO   O75 2560   5.680   2.449   1.497  0.1859 -0.2494  0.0224
    7CHTO  C112 2561   5.840   2.369   1.541  0.2768 -1.2091 -0.4806
    7CHTO  H216 2562   5.821   2.261   1.532 -1.5771 -0.8073 -1.6452
    7CHTO   O73 2563   5.877   2.412   1.674  0.0910  0.3417  0.1032
    7CHTO  C113 2564   6.004   2.365   1.722 -0.1222  0.1049  0.4242
    7CHTO  H217 2565   6.008   2.254   1.724 -2.9009 -0.0554 -0.8773
    7CHTO  C124 2566   6.025   2.404   1.871 -0.4693  0.1533  0.0412
    7CHTO   O83 2567   6.034   2.545   1.886  0.2058  0.3661  0.0584
    7CHTO  H204 2568   6.051   2.577   1.973  1.0195 -0.8235  0.3460
    7CHTO  C109 2569   6.125   2.404   1.635  0.7537 -0.2187 -0.5346
    7CHTO  H213 2570   6.135   2.513   1.645 -0.4534 -0.1987  0.7627
    7CHTO  C110 2571   6.094   2.381   1.484 -0.4226  0.1892  0.3972
    7CHTO  H214 2572   6.097   2.274   1.462 -4.7399  0.4113 -1.6794
    7CHTO   O78 2573   6.189   2.455   1.405  0.0689 -0.7368 -0.3181
    7CHTO  H200 2574   6.170   2.451   1.313  0.7187  0.3111 -0.5010
    7CHTO  C111 2575   5.952   2.426   1.447  0.0879  0.2249 -0.2567
    7CHTO  H215 2576   5.944   2.535   1.460 -2.9957 -0.0545  0.6165
    7CHTO   N19 2577   5.921   2.394   1.302  0.4634  0.1439  0.1805
    7CHTO  H207 2578   5.988   2.442   1.232  0.1041  1.5489  0.7864
    7CHTO  H208 2579   5.828   2.442   1.278  0.8541  1.0040  0.3719
    7CHTO   O74 2580   6.254   2.348   1.685  0.5798  0.4217  0.6494
    7CHTO  C115 2581   6.367   2.451   1.678 -0.3976  0.0451  0.1494
    7CHTO  H219 2582   6.361   2.520   1.594 -0.2994 -0.0033  0.1016
    7CHTO   O76 2583   6.383   2.539   1.821 -0.3718 -0.6276  0.7528
    7CHTO  C122 2584   6.409   2.461   1.933 -0.2528 -0.7796 -0.0815
    7CHTO  H226 2585   6.324   2.395   1.947 -1.2161  0.0784 -1.7514
    7CHTO  C126 2586   6.414   2.561   2.057  0.7230  0.4692 -0.0302
    7CHTO   O85 2587   6.445   2.499   2.183 -0.5682 -0.8541  0.8112
    7CHTO  H206 2588   6.418   2.410   2.169 -2.9860 -0.1560  0.8827
    7CHTO  C121 2589   6.545   2.390   1.910 -0.2075 -0.2117 -0.2834
    7CHTO  H225 2590   6.628   2.464   1.906 -1.4900  1.2377 -0.5282
    7CHTO   O81 2591   6.578   2.313   2.030 -0.1297 -0.1226 -0.8899
    7CHTO  H202 2592   6.631   2.351   2.097 -3.1257 -0.7906  1.9387
    7CHTO  C119 2593   6.538   2.305   1.789 -0.1585  0.5851 -0.3877
    7CHTO  H223 2594   6.640   2.270   1.774  0.0540 -0.6509  3.5413
    7CHTO  C117 2595   6.498   2.379   1.655  0.0166  0.2069  0.4041
    7CHTO  H221 2596   6.485   2.308   1.573 -1.9953  1.0876 -0.0694
    7CHTO   N20 2597   6.609   2.473   1.607 -0.0658  0.8051 -0.1849
    7CHTO  H209 2598   6.692   2.465   1.675  0.7741  0.3793 -1.2531
    7CHTO  H210 2599   6.583   2.572   1.573 -4.0421  0.2513  0.9286
    7CHTO   O80 2600   6.452   2.165   1.812 -0.1688  0.2170 -0.5693
    7CHTO  C103 2601   6.490   2.033   1.714 -0.3824 -0.3048 -1.0538
    7CHTO  H190 2602   6.521   2.068   1.616  0.7775 -0.4809 -0.7601
    7CHTO  C101 2603   6.593   1.931   1.778  0.7423 -0.1501 -0.2330
    7CHTO  H188 2604   6.560   1.911   1.879 -1.9577  0.2765 -0.9912
    7CHTO   O68 2605   6.732   2.005   1.789 -0.1482  0.1522  0.1599
    7CHTO  H168 2606   6.774   2.015   1.872  0.7688 -0.7109 -0.1825
    7CHTO   C99 2607   6.609   1.795   1.706 -0.3797  0.1081 -0.2512
    7CHTO  H186 2608   6.650   1.810   1.603 -0.5835 -1.2610 -0.5373
    7CHTO   N17 2609   6.701   1.698   1.774 -0.3077  0.4675  0.1924
    7CHTO  H174 2610   6.783   1.683   1.705 -1.3522  1.1975 -1.2331
    7CHTO  H175 2611   6.655   1.604   1.800 -0.0243 -0.0709 -1.2021
    7CHTO   C97 2612   6.465   1.737   1.679 -0.2041 -0.4571 -0.2481
    7CHTO  H184 2613   6.426   1.709   1.778  0.9483 -0.3690  0.2315
    7CHTO   O64 2614   6.379   1.831   1.616 -0.1282  0.2851  0.2043
    7CHTO  C104 2615   6.355   1.953   1.696 -0.6803  0.1832 -0.5502
    7CHTO  H191 2616   6.325   1.911   1.791 -2.1319 -1.6346 -1.7758
    7CHTO  C108 2617   6.242   2.042   1.651 -0.2110  0.0855  0.3274
    7CHTO   O71 2618   6.263   2.098   1.517 -0.2306 -0.6096 -0.0125
    7CHTO  H171 2619   6.342   2.146   1.506 -0.5130 -0.0776  0.2715
    7CHTO   O62 2620   6.477   1.626   1.585  0.2827 -0.3612  0.2044
    7CHTO   C91 2621   6.382   1.517   1.587  0.0764 -0.3735  0.2263
    7CHTO  H178 2622   6.410   1.456   1.501 -1.0454 -1.9197  0.9256
    7CHTO   C92 2623   6.232   1.564   1.561  0.4955 -0.5571  0.1921
    7CHTO  H179 2624   6.212   1.659   1.611  0.8557 -0.5988  0.4213
    7CHTO   O66 2625   6.231   1.588   1.416 -0.2511 -0.4746  0.9427
    7CHTO  H166 2626   6.233   1.505   1.372  1.9387  1.2673 -2.4901
    7CHTO   C93 2627   6.123   1.451   1.602  0.1559 -0.6188 -0.1495
    7CHTO  H180 2628   6.125   1.369   1.528  1.1157 -0.1947 -0.6039
    7CHTO   N16 2629   5.988   1.501   1.597  0.0742  0.0768 -0.4128
    7CHTO  H172 2630   5.935   1.446   1.520 -2.0281 -1.0417  1.7508
    7CHTO  H173 2631   5.943   1.509   1.695 -0.8947 -0.9732 -0.7624
    7CHTO   C94 2632   6.160   1.399   1.741 -0.4552  0.4615  0.3907
    7CHTO  H181 2633   6.185   1.480   1.810 -0.5235 -0.0629  1.0362
    7CHTO   O61 2634   6.279   1.328   1.719  0.1211  0.3448  0.0710
    7CHTO   C95 2635   6.401   1.411   1.705  0.4846 -0.3328  0.2210
    7CHTO  H182 2636   6.428   1.457   1.801 -0.5744 -0.8348  0.7667
    7CHTO  C106 2637   6.518   1.315   1.672  1.1181  0.8473  0.2213
    7CHTO   O69 2638   6.489   1.233   1.561  0.2720 -0.5451  0.0924
    7CHTO  H169 2639   6.561   1.175   1.542  0.9500 -0.0792  1.1479
    7CHTO   O63 2640   6.064   1.288   1.797 -0.3128 -0.1806 -0.9016
    7CHTO   C96 2641   6.082   1.264   1.948 -0.0096 -0.2473  0.4427
    7CHTO  H183 2642   6.147   1.333   2.001 -0.2368 -1.8413  2.8387
    7CHTO   C98 2643   6.123   1.114   1.974 -0.3161 -0.1895  0.1045
    7CHTO  H185 2644   6.066   1.047   1.909  1.8252  0.7685 -2.8196
    7CHTO   O67 2645   6.261   1.095   1.929  0.3499 -0.4406 -0.7890
    7CHTO  H167 2646   6.311   1.050   1.994 -0.7377 -1.1324 -0.4198
    7CHTO  C102 2647   6.108   1.052   2.120  0.3837  0.0487 -1.2695
    7CHTO  H189 2648   6.197   1.085   2.177 -0.0540 -4.0106  2.0518
    7CHTO   N18 2649   6.115   0.903   2.130 -0.1372 -0.4606  0.7299
    7CHTO  H176 2650   6.134   0.875   2.233  1.0077  0.0517  0.6684
    7CHTO  H177 2651   6.198   0.872   2.068  0.5807  2.0171  0.3912
    7CHTO  C105 2652   5.984   1.112   2.188 -0.2342  0.2690 -0.5370
    7CHTO  H192 2653   5.891   1.064   2.157 -1.3069 -0.0301  2.8955
    7CHTO   O65 2654   5.966   1.250   2.165  0.0228  0.0250 -0.2860
    7CHTO  C100 2655   5.955   1.288   2.024 -0.3192 -0.5177 -0.1948
    7CHTO  H187 2656   5.882   1.222   1.975 -0.2746 -0.1924 -0.7078
    7CHTO  C107 2657   5.896   1.435   2.006 -0.1383 -0.4935  0.8219
    7CHTO   O70 2658   5.770   1.447   2.061 -0.1235  0.3049 -0.1505
    7CHTO  H170 2659   5.780   1.471   2.152 -2.5928 -1.2861  0.5892
    7CHTO   O57 2660   6.005   1.071   2.350  0.6425  0.1634 -0.6037
    7CHTO   C85 2661   5.918   1.116   2.456 -0.2535 -0.1472  0.7781
    7CHTO  H157 2662   5.898   1.223   2.436 -1.6959  0.1927  3.8937
    7CHTO   C83 2663   5.993   1.099   2.594  0.0908  0.3916  0.0885
    7CHTO  H155 2664   6.080   1.164   2.589 -0.5767  1.1343 -3.5596
    7CHTO   O56 2665   6.038   0.967   2.595  0.2512 -0.0282 -0.2802
    7CHTO  H135 2666   6.005   0.922   2.670  0.7517 -0.3066 -0.2208
    7CHTO   C81 2667   5.900   1.145   2.710 -0.8317 -0.8976  0.1132
    7CHTO  H153 2668   5.867   1.247   2.688  1.3506 -0.2263 -0.1981
    7CHTO   N14 2669   5.972   1.145   2.841  0.0227 -0.0340 -0.2292
    7CHTO  H141 2670   5.906   1.200   2.905 -1.5229 -1.5284 -0.5042
    7CHTO  H142 2671   6.071   1.183   2.829 -0.5283  0.9421 -1.7861
    7CHTO   C79 2672   5.770   1.056   2.720 -0.6793  0.1718  0.0055
    7CHTO  H151 2673   5.704   1.104   2.793  0.5693  0.7392  0.7921
    7CHTO   O52 2674   5.709   1.057   2.591  0.0690  0.1185  0.3875
    7CHTO   C86 2675   5.782   1.035   2.461 -0.6315  0.1358  0.0924
    7CHTO  H158 2676   5.797   0.924   2.460 -0.4132  0.1579 -2.3173
    7CHTO   C90 2677   5.695   1.068   2.349 -0.4543 -0.3303 -0.1834
    7CHTO   O60 2678   5.643   1.199   2.355 -0.8950  0.2197  0.4137
    7CHTO  H138 2679   5.577   1.198   2.287  1.5204  2.3229 -2.0790
    7CHTO   O50 2680   5.801   0.918   2.752  0.1954  0.1139  0.1555
    7CHTO   C73 2681   5.817   0.784   2.787 -0.2618  0.5172  0.4553
    7CHTO  H145 2682   5.926   0.771   2.799 -0.4958 -3.3772 -0.8731
    7CHTO   C74 2683   5.762   0.688   2.668  0.1861  0.1849 -0.0883
    7CHTO  H146 2684   5.807   0.723   2.574  0.7501  0.5683  0.3174
    7CHTO   O54 2685   5.810   0.552   2.695 -0.5205 -0.1973  0.1080
    7CHTO  H133 2686   5.856   0.518   2.621 -1.4938 -0.3259 -0.4460
    7CHTO   C75 2687   5.606   0.701   2.663 -0.0939  0.4971 -0.2529
    7CHTO  H147 2688   5.588   0.800   2.618  0.6953  0.7974  0.0880
    7CHTO   N13 2689   5.553   0.603   2.567 -0.1471 -0.2153 -0.9359
    7CHTO  H139 2690   5.503   0.655   2.487 -1.3535  0.8630  0.5002
    7CHTO  H140 2691   5.631   0.535   2.536 -0.7323 -0.9333 -0.8404
    7CHTO   C76 2692   5.544   0.674   2.813  1.0525  0.2034 -0.5077
    7CHTO  H148 2693   5.566   0.569   2.832  0.8745  0.0548 -1.1086
    7CHTO   O49 2694   5.609   0.749   2.924  0.0150  0.0889  0.3348
    7CHTO   C77 2695   5.750   0.743   2.921 -0.7218 -0.4155  0.6361
    7CHTO  H149 2696   5.773   0.639   2.941  1.8114  0.0298  0.2750
    7CHTO   C88 2697   5.801   0.826   3.041 -0.1474  0.0243 -0.1738
    7CHTO   O58 2698   5.749   0.770   3.164 -0.5717 -0.7782 -0.6851
    7CHTO  H136 2699   5.681   0.829   3.191  2.0146  0.8422  2.7085
    7CHTO   O51 2700   5.378   0.714   2.802 -0.7324 -0.9877  0.2277
    7CHTO   C78 2701   5.335   0.740   2.969  0.3161 -0.8886  0.1815
    7CHTO  H150 2702   5.408   0.694   3.039  0.0874 -1.2507  0.1837
    7CHTO   C80 2703   5.203   0.668   2.991  1.3088  0.3039 -0.2919
    7CHTO  H152 2704   5.125   0.708   2.922  1.4430  3.5384  1.3269
    7CHTO   O55 2705   5.232   0.534   2.955 -0.6717 -0.1994  0.0411
    7CHTO  H134 2706   5.162   0.474   2.974 -1.8921  2.4052  4.2152
    7CHTO   C84 2707   5.159   0.682   3.142 -0.0151 -0.6219  0.0431
    7CHTO  H156 2708   5.237   0.645   3.209 -1.6848 -2.7440  0.8770
    7CHTO   N15 2709   5.034   0.613   3.182  0.1241  0.2606 -0.1368
    7CHTO  H143 2710   4.989   0.557   3.103  2.3447  1.9741 -2.6845
    7CHTO  H144 2711   5.052   0.552   3.269  0.2294  0.9397  0.3245
    7CHTO   C87 2712   5.146   0.836   3.165 -0.7440  0.5826  1.2056
    7CHTO  H159 2713   5.078   0.876   3.090 -1.4593 -1.1233  0.9224
    7CHTO   O53 2714   5.290   0.894   3.145 -0.2581 -0.8687  0.2112
    7CHTO   C82 2715   5.318   0.893   3.003  0.5187 -0.0588 -0.0632
    7CHTO  H154 2716   5.237   0.938   2.946 -0.2601 -1.0674  0.2477
    7CHTO   C89 2717   5.437   0.985   2.992 -0.3090 -0.1763  0.1243
    7CHTO   O59 2718   5.450   1.007   2.855 -0.0189 -0.4439  0.7810
    7CHTO  H137 2719   5.539   1.036   2.843 -0.8272  1.4891 -0.7589
    7CHTO   O45 2720   5.078   0.877   3.314  0.1649 -0.4800  0.0444
    7CHTO   C67 2721   5.114   1.016   3.339 -0.3682 -0.4633  0.2554
    7CHTO  H124 2722   5.189   1.038   3.263  0.4374 -1.5653  0.7183
    7CHTO   C65 2723   4.984   1.104   3.312 -0.2277 -0.1188 -0.3125
    7CHTO  H122 2724   4.900   1.052   3.359 -0.0020  0.5512  0.8535
    7CHTO   O44 2725   4.956   1.096   3.168  0.2612  0.4026  0.8239
    7CHTO  H102 2726   5.041   1.107   3.129 -0.7554  2.0260 -1.0433
    7CHTO   C63 2727   4.992   1.244   3.388 -0.0471  0.2688 -0.2799
    7CHTO  H120 2728   4.957   1.232   3.491  0.1844  0.2880 -0.1980
    7CHTO   N11 2729   4.904   1.347   3.333  0.1719 -0.3430 -0.5059
    7CHTO  H108 2730   4.810   1.308   3.302 -1.1622  3.0199 -0.8940
    7CHTO  H109 2731   4.896   1.434   3.395 -0.4277 -1.6958  1.3862
    7CHTO   C61 2732   5.137   1.289   3.409 -0.6160 -0.1115 -0.0714
    7CHTO  H118 2733   5.131   1.379   3.471  0.7405 -0.0116 -0.0763
    7CHTO   O40 2734   5.215   1.196   3.485 -0.4927 -0.7579  0.4506
    7CHTO   C68 2735   5.184   1.051   3.477  0.3450 -0.2575 -0.5026
    7CHTO  H125 2736   5.108   1.022   3.552 -0.0075 -0.0873 -0.7897
    7CHTO   C72 2737   5.315   0.984   3.513 -0.2701  0.4503  0.2691
    7CHTO   O48 2738   5.335   0.996   3.652  0.4699  0.1282 -0.7160
    7CHTO  H105 2739   5.324   1.085   3.681  1.6637  0.1086 -0.1615
    7CHTO   O38 2740   5.206   1.307   3.283  0.0857 -0.0901  0.3515
    7CHTO   C55 2741   5.308   1.409   3.272 -0.6429  0.0047 -0.7907
    7CHTO  H112 2742   5.347   1.442   3.369 -1.3266 -1.4510 -0.0014
    7CHTO   C56 2743   5.272   1.533   3.175 -0.6056 -0.8432 -0.1346
    7CHTO  H113 2744   5.219   1.491   3.088  1.0391 -2.5896 -0.3261
    7CHTO   O42 2745   5.164   1.603   3.243 -0.6659 -0.0287 -0.2236
    7CHTO  H100 2746   5.090   1.558   3.279 -2.0728  1.1317 -1.5415
    7CHTO   C57 2747   5.391   1.622   3.125  0.0441 -0.8009 -0.0951
    7CHTO  H114 2748   5.425   1.684   3.208  0.0523 -1.2445  0.2348
    7CHTO   N10 2749   5.343   1.715   3.024 -0.2554 -0.2587  0.0087
    7CHTO  H106 2750   5.308   1.806   3.070  1.0029  1.0728 -1.5636
    7CHTO  H107 2751   5.425   1.738   2.958 -0.8373  0.7638 -0.3624
    7CHTO   C58 2752   5.503   1.534   3.085 -0.8596  0.2976 -0.3752
    7CHTO  H115 2753   5.482   1.478   2.992  3.4337 -1.0808 -0.6058
    7CHTO   O37 2754   5.538   1.437   3.184 -0.1129 -0.2447  0.2035
    7CHTO   C59 2755   5.436   1.336   3.213  0.9338 -0.8588  0.3168
    7CHTO  H116 2756   5.405   1.282   3.124  2.2034  0.8967 -1.2466
    7CHTO   C70 2757   5.487   1.229   3.309 -0.0286  0.6691 -0.4056
    7CHTO   O46 2758   5.590   1.142   3.270  0.1647  0.4420  0.0296
    7CHTO  H103 2759   5.609   1.146   3.179 -0.0754  0.6136 -0.0132
    7CHTO   O39 2760   5.638   1.651   3.050 -0.0655  0.2526 -0.3097
    7CHTO   C60 2761   5.732   1.605   2.951  0.0135 -0.3599 -0.1811
    7CHTO  H117 2762   5.731   1.496   2.946 -3.4100 -0.4020 -0.0888
    7CHTO   C62 2763   5.680   1.647   2.806 -0.1419 -0.4858  0.0761
    7CHTO  H119 2764   5.576   1.611   2.796 -0.0282 -0.5169 -1.0672
    7CHTO   O43 2765   5.675   1.787   2.798  0.2923  0.2420 -0.1631
    7CHTO  H101 2766   5.741   1.813   2.737 -0.1129  1.9135  0.0930
    7CHTO   C66 2767   5.788   1.588   2.698  0.2486  0.4691 -0.1484
    7CHTO  H123 2768   5.787   1.479   2.703  0.0484  0.4975  0.4275
    7CHTO   N12 2769   5.762   1.631   2.556  0.0854 -0.1602 -0.3019
    7CHTO  H110 2770   5.671   1.604   2.506 -0.3504  0.2772  0.2454
    7CHTO  H111 2771   5.841   1.661   2.489 -1.8845 -0.2258 -2.6854
    7CHTO   C69 2772   5.931   1.615   2.734  0.6680  0.1162  0.1154
    7CHTO  H126 2773   5.957   1.721   2.713 -0.1651 -0.0347 -1.8432
    7CHTO   O41 2774   5.956   1.578   2.886 -0.6453 -0.4250 -0.3501
    7CHTO   C64 2775   5.874   1.650   2.984 -0.1231  0.7922  0.0535
    7CHTO  H121 2776   5.883   1.760   2.976  0.9353  0.8375  1.5986
    7CHTO   C71 2777   5.929   1.609   3.116  0.1687 -1.3282 -0.1088
    7CHTO   O47 2778   5.881   1.476   3.159 -0.0581  0.4474 -0.0835
    7CHTO  H104 2779   5.787   1.480   3.164 -0.2346 -1.6669 -1.0692
    7CHTO   O34 2780   6.023   1.504   2.635 -0.1843  0.5133 -0.1998
    7CHTO   C49 2781   6.114   1.583   2.519 -0.3230 -0.4723  0.4509
    7CHTO   H91 2782   6.074   1.681   2.491  0.9256  0.0465  0.4072
    7CHTO   C47 2783   6.127   1.510   2.385  0.4850  0.0753 -0.0701
    7CHTO   H89 2784   6.172   1.589   2.322 -0.7921 -0.8132 -2.1644
    7CHTO   O33 2785   5.996   1.482   2.332 -0.1910 -0.1959  0.3376
    7CHTO   H70 2786   5.942   1.559   2.331 -0.1420 -0.1579  0.6823
    7CHTO   C45 2787   6.218   1.372   2.405 -0.1951  0.1102  0.1675
    7CHTO   H87 2788   6.150   1.287   2.420  0.4842 -0.2049  1.5217
    7CHTO    N8 2789   6.296   1.343   2.280  0.3145  0.2091  0.4182
    7CHTO   H75 2790   6.297   1.237   2.264 -4.8506  0.4058 -2.2634
    7CHTO   H76 2791   6.398   1.379   2.287  0.3007  0.8745 -2.2066
    7CHTO   C43 2792   6.306   1.382   2.540 -0.4168  0.1323  0.3009
    7CHTO   H85 2793   6.241   1.358   2.624 -0.9639  0.3153 -0.0681
    7CHTO   O29 2794   6.364   1.513   2.551 -0.3776 -0.4987  0.0125
    7CHTO   C50 2795   6.257   1.611   2.582  0.3394  0.2994  0.1850
    7CHTO   H92 2796   6.235   1.607   2.690  1.6344 -1.2881  0.4071
    7CHTO   C54 2797   6.309   1.753   2.550 -0.5762  0.0111 -0.7251
    7CHTO   O36 2798   6.410   1.783   2.640  0.0265  0.5449 -0.1126
    7CHTO   H72 2799   6.374   1.798   2.726 -0.7758  0.9756 -0.5219
    7CHTO   O27 2800   6.409   1.286   2.539  0.0879  0.2959  0.6538
    7CHTO   C37 2801   6.480   1.207   2.633 -0.5797  1.0425 -0.5830
    7CHTO   H79 2802   6.455   1.238   2.736  0.7070  1.1825 -0.3044
    7CHTO   C38 2803   6.446   1.056   2.628 -0.0602  0.3619  0.6385
    7CHTO   H80 2804   6.450   1.030   2.521  0.2046  0.7078  0.5641
    7CHTO   O31 2805   6.310   1.032   2.669  0.0957  0.0674  0.0816
    7CHTO   H68 2806   6.280   0.952   2.630  0.8830  0.1923 -0.7901
    7CHTO   C39 2807   6.553   0.968   2.706 -0.6740 -0.1322 -0.1154
    7CHTO   H81 2808   6.534   0.986   2.812  0.7605 -3.7302  0.8271
    7CHTO    N7 2809   6.530   0.820   2.683 -0.0316 -0.0323  0.1056
    7CHTO   H73 2810   6.582   0.770   2.764  0.2236 -3.8958 -2.2986
    7CHTO   H74 2811   6.425   0.794   2.691 -0.1545 -0.4226 -2.4578
    7CHTO   C40 2812   6.704   1.008   2.682 -0.2131 -0.4121 -1.2267
    7CHTO   H82 2813   6.722   0.973   2.580  0.4838 -2.0666 -0.5667
    7CHTO   O26 2814   6.721   1.150   2.692  0.0053 -0.8897 -0.0174
    7CHTO   C41 2815   6.632   1.234   2.616  0.2529 -0.0397  0.2001
    7CHTO   H83 2816   6.664   1.241   2.511  1.3158 -1.6463  0.3989
    7CHTO   C52 2817   6.660   1.379   2.667 -1.0221  0.0701 -0.0876
    7CHTO   O35 2818   6.642   1.398   2.799  0.2867 -0.4874  0.3596
    7CHTO   H71 2819   6.600   1.481   2.810  2.0200  0.4266  0.4202
    7CHTO   O28 2820   6.794   0.945   2.778 -0.1625 -0.0587  0.7643
    7CHTO   C42 2821   6.937   0.947   2.752 -0.1865 -0.2509  0.5992
    7CHTO   H84 2822   6.969   0.886   2.836  0.0020 -2.2417 -0.8662
    7CHTO   C44 2823   7.012   1.088   2.763  0.4548  0.4581  0.6275
    7CHTO   H86 2824   6.978   1.154   2.684  0.1547  0.9592  1.1670
    7CHTO   O32 2825   6.969   1.149   2.890  0.0658 -0.0811 -0.5286
    7CHTO   H69 2826   7.031   1.204   2.934  2.6169 -2.0897 -1.5373
    7CHTO   C48 2827   7.167   1.078   2.752  0.1558  0.0540  0.3866
    7CHTO   H90 2828   7.194   1.022   2.841  3.6844  3.7116  1.7818
    7CHTO    N9 2829   7.240   1.208   2.766  0.0685  0.0526  0.5359
    7CHTO   H77 2830   7.204   1.259   2.854 -2.7640  0.8031 -1.0036
    7CHTO   H78 2831   7.231   1.272   2.680  1.3382 -0.1323  0.2456
    7CHTO   C51 2832   7.204   0.988   2.624  0.3948  0.8066  0.7764
    7CHTO   H93 2833   7.181   1.046   2.535  1.8242  2.7340  1.6221
    7CHTO   O30 2834   7.131   0.863   2.626  0.2700 -0.4405  0.1024
    7CHTO   C46 2835   6.993   0.873   2.619  0.2797 -0.0503 -0.5064
    7CHTO   H88 2836   6.965   0.923   2.526 -1.6778 -2.0209 -1.0015
    7CHTO   C53 2837   6.963   0.723   2.618 -0.1959  0.2840  0.2369
    7CHTO   O72 2838   6.820   0.689   2.618  0.3139 -0.6219 -0.2553
    7CHTO  H199 2839   6.770   0.765   2.640 -1.5345 -1.3380 -1.8836
    7CHTO   O22 2840   7.345   0.952   2.624  0.6792 -0.4326  0.8624
    7CHTO   C31 2841   7.419   0.881   2.506  0.5889 -0.8989 -0.4633
    7CHTO   H59 2842   7.525   0.912   2.519  0.1423  0.5662 -0.2457
    7CHTO   C29 2843   7.423   0.726   2.514  0.1568  0.2883 -0.3781
    7CHTO   H57 2844   7.320   0.695   2.492  0.9013 -1.3739 -1.6609
    7CHTO   O21 2845   7.462   0.687   2.644  0.0297 -1.2691  0.1893
    7CHTO   H37 2846   7.538   0.721   2.687 -0.4914 -1.3550  1.1782
    7CHTO   C27 2847   7.516   0.652   2.411 -0.8634  0.0001  0.2707
    7CHTO   H55 2848   7.617   0.693   2.427 -1.1304 -0.0053  2.1648
    7CHTO    N5 2849   7.518   0.501   2.413  1.1464  0.5625  0.2068
    7CHTO   H43 2850   7.581   0.456   2.338 -0.8086  1.1060 -1.8029
    7CHTO   H44 2851   7.537   0.479   2.517  2.5094  0.5308 -0.0289
    7CHTO   C25 2852   7.476   0.705   2.272 -0.3214  0.4637  0.3944
    7CHTO   H53 2853   7.380   0.660   2.241  0.1986 -0.8418  0.6719
    7CHTO   O17 2854   7.479   0.850   2.270  0.0049  0.7004  0.2555
    7CHTO   C32 2855   7.381   0.920   2.355  0.4530  0.3444  0.2035
    7CHTO   H60 2856   7.278   0.889   2.340 -0.0767  1.5787  1.1845
    7CHTO   C36 2857   7.412   1.070   2.336  0.1594  0.7499  0.9523
    7CHTO   O25 2858   7.307   1.167   2.361 -0.3276  0.2052  0.0238
    7CHTO   H40 2859   7.273   1.154   2.448 -0.4633  2.5815  0.3597
    7CHTO   O15 2860   7.594   0.639   2.145 -0.2308  0.1267 -0.2511
    7CHTO   C19 2861   7.595   0.690   2.005  0.0286  0.4152 -0.1075
    7CHTO   H47 2862   7.683   0.644   1.958  0.2443  0.2241  0.4863
    7CHTO   C20 2863   7.458   0.649   1.934  0.1386 -0.2586  0.2012
    7CHTO   H48 2864   7.372   0.679   1.995  2.4059  0.7654  2.9891
    7CHTO   O19 2865   7.469   0.508   1.928  0.3938 -0.6424 -0.6258
    7CHTO   H35 2866   7.427   0.470   2.003  0.7950  0.0375 -0.0524
    7CHTO   C21 2867   7.466   0.712   1.787 -0.5966  0.1311  0.3687
    7CHTO   H49 2868   7.551   0.665   1.738 -0.0111  2.0411 -0.4931
    7CHTO    N4 2869   7.348   0.679   1.702 -0.2429  0.0670 -0.5808
    7CHTO   H41 2870   7.375   0.672   1.597 -1.0071  1.6711 -0.8992
    7CHTO   H42 2871   7.290   0.769   1.715  0.2667  0.3509 -0.2202
    7CHTO   C22 2872   7.492   0.865   1.799  0.9729 -0.2264 -0.1014
    7CHTO   H50 2873   7.417   0.907   1.867  3.7130 -1.4809  3.8878
    7CHTO   O14 2874   7.617   0.880   1.864  0.3616  0.0935  0.7479
    7CHTO   C23 2875   7.619   0.843   1.997 -0.4472 -0.4400 -0.4079
    7CHTO   H51 2876   7.546   0.899   2.057 -0.9682 -0.5083 -0.9755
    7CHTO   C34 2877   7.755   0.884   2.046  0.5210  0.2075 -0.3126
    7CHTO   O23 2878   7.773   0.872   2.191 -0.0361  0.1369 -0.0155
    7CHTO   H38 2879   7.720   0.929   2.245  2.2117  1.1067  1.2539
    7CHTO   O16 2880   7.496   0.936   1.673 -0.1642 -0.0568  0.1303
    7CHTO   C24 2881   7.422   1.077   1.683  0.2054 -0.4894 -0.1810
    7CHTO   H52 2882   7.398   1.108   1.785  0.0768  4.5383 -1.6183
    7CHTO   C26 2883   7.287   1.076   1.606 -0.1784 -0.2372  0.1624
    7CHTO   H54 2884   7.310   1.051   1.500 -2.6200  0.4550 -0.5590
    7CHTO   O20 2885   7.201   0.981   1.661  0.1732  0.4090 -0.4125
    7CHTO   H36 2886   7.114   1.009   1.640 -0.2167 -0.0710  0.5235
    7CHTO   C30 2887   7.226   1.221   1.599  0.1532  0.4888 -0.4604
    7CHTO   H58 2888   7.212   1.248   1.705  0.3613 -3.0282  0.5369
    7CHTO    N6 2889   7.096   1.235   1.526 -0.0681 -0.0581  0.0156
    7CHTO   H45 2890   7.021   1.271   1.596  1.4686 -0.6966  2.0437
    7CHTO   H46 2891   7.111   1.313   1.453 -0.5861  0.4098  0.3994
    7CHTO   C33 2892   7.330   1.326   1.550 -0.2704 -0.3955  0.3506
    7CHTO   H61 2893   7.357   1.306   1.445 -1.0676 -1.3470  0.3198
    7CHTO   O18 2894   7.446   1.309   1.633 -0.5141 -0.8145 -0.4000
    7CHTO   C28 2895   7.520   1.184   1.628  0.6104 -0.6216  0.2121
    7CHTO   H56 2896   7.541   1.159   1.524  0.0750  0.8171 -0.2573
    7CHTO   C35 2897   7.654   1.192   1.708 -0.4413  0.6243  0.4646
    7CHTO   O24 2898   7.647   1.194   1.851  0.3641  0.2986 -0.1707
    7CHTO   H39 2899   7.649   1.283   1.881 -1.1026 -0.4471  2.2678
    7CHTO    O9 2900   7.284   1.461   1.553  0.1468  0.2915 -0.4698
    7CHTO   C13 2901   7.362   1.598   1.470  0.6249 -0.0545 -0.3482
    7CHTO   H26 2902   7.336   1.585   1.363 -1.6309 -2.8389  0.4905
    7CHTO   C11 2903   7.512   1.602   1.496 -0.1315  0.3334 -0.4544
    7CHTO   H24 2904   7.553   1.514   1.444 -1.5750 -0.2413 -0.6433
    7CHTO    O8 2905   7.521   1.577   1.637 -0.0504  0.3931  0.6513
    7CHTO    H3 2906   7.611   1.566   1.660  0.0197  0.1590  0.2639
    7CHTO    C9 2907   7.574   1.726   1.435  0.2025  0.6793  0.0183
    7CHTO   H22 2908   7.534   1.729   1.332  0.3720 -0.9221 -0.1148
    7CHTO    N2 2909   7.723   1.724   1.435 -0.4462 -0.5469 -0.2244
    7CHTO   H10 2910   7.765   1.822   1.454  1.9110 -0.7727 -3.8074
    7CHTO   H11 2911   7.763   1.695   1.339 -0.4230  0.1882 -0.4382
    7CHTO    C7 2912   7.503   1.856   1.505  0.7519  0.5399  1.3090
    7CHTO   H20 2913   7.531   1.941   1.440 -0.0578  2.6198  3.5998
    7CHTO    O4 2914   7.361   1.852   1.488  0.3774  0.2600  0.0458
    7CHTO   C14 2915   7.288   1.730   1.518 -0.9795 -0.5120  0.2647
    7CHTO   H27 2916   7.189   1.729   1.466 -0.7389 -0.1393 -0.2080
    7CHTO   C18 2917   7.257   1.724   1.666  0.8762  0.3772 -0.5495
    7CHTO   O13 2918   7.168   1.829   1.709 -0.5340 -0.0841 -0.1774
    7CHTO    H7 2919   7.089   1.794   1.745 -1.5480  1.7437 -0.5596
    7CHTO    O2 2920   7.541   1.879   1.655 -0.5223 -0.0994 -0.4911
    7CHTO    C1 2921   7.484   1.987   1.730  0.1475 -0.9794  0.3589
    7CHTO   H14 2922   7.378   1.972   1.757 -0.3093 -0.3365 -1.0168
    7CHTO    C2 2923   7.503   2.128   1.669  0.4212  0.5003 -0.5195
    7CHTO   H15 2924   7.612   2.136   1.656  0.7202 -1.3492  0.7206
    7CHTO    O6 2925   7.424   2.135   1.549  0.4924  0.4435  0.1735
    7CHTO    H1 2926   7.333   2.125   1.571  0.8771  0.1400  1.6594
    7CHTO    C3 2927   7.461   2.244   1.774  0.2835  0.6667 -0.1110
    7CHTO   H16 2928   7.352   2.237   1.786  0.6052 -2.2037  1.7294
    7CHTO    N1 2929   7.499   2.381   1.736 -0.0221  0.0225  0.4640
    7CHTO    H8 2930   7.589   2.383   1.677 -0.3435  0.5366 -0.0180
    7CHTO    H9 2931   7.416   2.425   1.682  0.7845  0.2189 -0.6297
    7CHTO    C4 2932   7.515   2.216   1.916  0.0703 -0.0480 -0.2536
    7CHTO   H17 2933   7.622   2.234   1.911 -0.0362  0.4465 -0.8136
    7CHTO    O1 2934   7.477   2.082   1.953  0.1168  0.2027  0.0269
    7CHTO    C5 2935   7.553   1.994   1.867 -0.3770  0.1770 -0.0337
    7CHTO   H18 2936   7.656   2.025   1.850 -0.7712  0.6694 -1.6114
    7CHTO   C16 2937   7.561   1.867   1.948  0.4060 -0.0905 -0.3946
    7CHTO   O11 2938   7.632   1.768   1.888  0.4439 -0.1317  0.3196
    7CHTO    H5 2939   7.650   1.698   1.948  0.0140 -1.3136 -0.9164
    7CHTO    O3 2940   7.455   2.294   2.021  0.0414  0.7252 -0.2331
    7CHTO    C6 2941   7.512   2.279   2.155 -0.8572 -0.4794 -0.4134
    7CHTO   H19 2942   7.567   2.186   2.172  0.8769  0.9221  1.9466
    7CHTO    C8 2943   7.618   2.385   2.187  0.5192  0.1365  0.0102
    7CHTO   H21 2944   7.572   2.482   2.172  1.4445  0.4530 -0.8223
    7CHTO    O7 2945   7.735   2.361   2.108 -0.4265  0.3038  0.7488
    7CHTO    H2 2946   7.795   2.432   2.118  1.0362 -1.0108  1.7655
    7CHTO   C12 2947   7.665   2.379   2.334 -0.1955  0.7384  0.3156
    7CHTO   H25 2948   7.733   2.293   2.347 -0.1646  0.7679  0.3481
    7CHTO    N3 2949   7.756   2.501   2.359 -0.7801 -0.5121 -0.0219
    7CHTO   H12 2950   7.789   2.548   2.268  0.7451  0.5916  1.0677
    7CHTO   H13 2951   7.839   2.465   2.419  0.9590  1.2099 -1.3057
    7CHTO   C15 2952   7.543   2.358   2.423  0.2459  0.1444 -0.1241
    7CHTO   H28 2953   7.481   2.446   2.439  1.4303  1.1545 -0.9444
    7CHTO   O10 2954   7.596   2.315   2.568  0.0749  0.0334 -0.0186
    7CHTO    H4 2955   7.593   2.221   2.572  0.8337  0.0133  0.1583
    7CHTO    O5 2956   7.451   2.252   2.391  0.4980  0.2281  0.3329
    7CHTO   C10 2957   7.395   2.280   2.256 -0.7354 -0.5097  0.8953
    7CHTO   H23 2958   7.344   2.376   2.265  1.0106  0.4208  1.0399
    7CHTO   C17 2959   7.282   2.179   2.228  0.1980  0.3227 -0.0786
    7CHTO   O12 2960   7.158   2.222   2.280 -0.3262  0.2186  0.3424
    7CHTO    H6 2961   7.102   2.151   2.255  1.5336 -1.1783  0.0560
    8CHTO  H203 2962   7.789   8.037   1.005  0.1410 -0.5226  0.5715
    8CHTO   O82 2963   7.727   8.008   0.941  0.0579  0.9422 -0.0184
    8CHTO  C123 2964   7.609   7.968   1.017  0.9207 -0.0896  0.2084
    8CHTO  H227 2965   7.632   7.874   1.068 -1.7254  0.7466  3.0762
    8CHTO   O77 2966   7.585   8.079   1.110 -0.4555 -0.0280  0.0151
    8CHTO  C118 2967   7.474   8.071   1.199 -0.0232 -0.2399  0.3646
    8CHTO  H222 2968   7.476   7.983   1.264 -0.8466  0.9182  1.9926
    8CHTO  C125 2969   7.490   8.211   1.291  0.9542  0.2508 -0.6380
    8CHTO   O84 2970   7.392   8.193   1.395 -0.4865  0.9237  0.1020
    8CHTO  H205 2971   7.414   8.258   1.458  2.7351 -0.9820  1.0192
    8CHTO  C114 2972   7.351   8.057   1.111  0.4999  0.4020  0.1421
    8CHTO  H218 2973   7.338   8.147   1.050 -0.6526 -0.3335 -0.6936
    8CHTO  C116 2974   7.356   7.938   1.021 -0.1413 -0.5140 -0.1237
    8CHTO  H220 2975   7.367   7.846   1.082 -0.6541 -0.1848  0.4696
    8CHTO   O79 2976   7.242   7.935   0.940  0.1138  0.5455 -0.1529
    8CHTO  H201 2977   7.202   7.852   0.957  0.2066  0.2692 -1.2551
    8CHTO  C120 2978   7.483   7.937   0.927  0.1900  0.0644 -0.3618
    8CHTO  H224 2979   7.461   8.017   0.853  2.0101  2.1759  1.3195
    8CHTO   N21 2980   7.496   7.815   0.849 -0.0775 -0.4742  0.3579
    8CHTO  H211 2981   7.457   7.843   0.752  0.9356  4.1847  1.1799
    8CHTO  H212 2982   7.594   7.772   0.838 -1.0337 -2.3894 -1.0224
    8CHTO   O75 2983   7.245   8.048   1.209 -0.2744  0.2242 -0.4584
    8CHTO  C112 2984   7.107   8.154   1.196  0.1742  0.1215 -1.1004
    8CHTO  H216 2985   7.043   8.122   1.112  1.0349  1.8446 -2.4362
    8CHTO   O73 2986   7.153   8.289   1.176  0.1932  0.0747  0.3938
    8CHTO  C113 2987   7.052   8.386   1.147  0.6963  0.3421  0.1450
    8CHTO  H217 2988   6.977   8.354   1.071 -0.8987  0.4916  1.6340
    8CHTO  C124 2989   7.118   8.517   1.102  0.1801  0.3674 -0.6252
    8CHTO   O83 2990   7.217   8.485   1.005 -0.1695 -0.2998  0.0919
    8CHTO  H204 2991   7.185   8.485   0.917 -0.0717  2.9896 -0.0274
    8CHTO  C109 2992   6.979   8.410   1.283  0.1715  0.6140 -0.8437
    8CHTO  H213 2993   7.058   8.425   1.358  1.1808 -1.8794 -1.3499
    8CHTO  C110 2994   6.907   8.277   1.322  0.8804 -0.3226  0.2800
    8CHTO  H214 2995   6.826   8.253   1.254 -1.6687  1.1460  2.7168
    8CHTO   O78 2996   6.837   8.293   1.449  0.5659  0.7291 -0.5490
    8CHTO  H200 2997   6.904   8.322   1.507  1.7062  0.5303 -1.7439
    8CHTO  C111 2998   7.015   8.158   1.328 -0.3492  0.1830  0.1856
    8CHTO  H215 2999   7.087   8.174   1.410 -0.3940 -0.1478  0.2881
    8CHTO   N19 3000   6.956   8.024   1.344  0.5248  0.3250 -0.2830
    8CHTO  H207 3001   6.849   8.039   1.338  0.4930  0.4160  0.4461
    8CHTO  H208 3002   7.009   7.964   1.272  0.2848 -1.5262  1.0520
    8CHTO   O74 3003   6.887   8.522   1.285  0.2746 -0.5113 -0.4652
    8CHTO  C115 3004   6.768   8.522   1.173 -0.2438 -0.5053 -0.9269
    8CHTO  H219 3005   6.767   8.431   1.113  0.3267 -2.0499  1.3558
    8CHTO   O76 3006   6.615   8.528   1.248  0.3217  0.2225  0.8246
    8CHTO  C122 3007   6.618   8.638   1.340 -0.1052 -0.0747  0.2389
    8CHTO  H226 3008   6.702   8.618   1.406  1.3737 -2.4300 -2.2820
    8CHTO  C126 3009   6.493   8.658   1.434  0.1489  0.2211  0.6290
    8CHTO   O85 3010   6.511   8.581   1.553 -0.0650  0.5101  0.1293
    8CHTO  H206 3011   6.438   8.596   1.610 -0.0059  0.3509  0.2467
    8CHTO  C121 3012   6.658   8.781   1.269  0.1078  0.1872 -0.0205
    8CHTO  H225 3013   6.568   8.847   1.278  0.0482 -0.0316  1.0914
    8CHTO   O81 3014   6.768   8.840   1.344  0.1601 -0.0416  0.7352
    8CHTO  H202 3015   6.780   8.927   1.312 -1.3136 -0.4064 -0.8925
    8CHTO  C119 3016   6.693   8.767   1.111 -0.2052 -0.0670 -0.1900
    8CHTO  H223 3017   6.595   8.761   1.064 -1.8026  2.0408  2.6506
    8CHTO  C117 3018   6.789   8.648   1.079 -0.1475 -1.3116  0.9231
    8CHTO  H221 3019   6.896   8.668   1.094 -0.2478 -2.3087  3.1749
    8CHTO   N20 3020   6.777   8.603   0.937  0.5609 -0.2947  0.1116
    8CHTO  H209 3021   6.770   8.690   0.873  1.4221 -1.2116 -1.2776
    8CHTO  H210 3022   6.861   8.538   0.916  0.1113 -0.5047 -1.1025
    8CHTO   O80 3023   6.743   8.892   1.055  0.5968 -0.1477  0.6985
    8CHTO  C103 3024   6.652   9.021   1.032 -0.3662  0.5323 -0.3857
    8CHTO  H190 3025   6.547   9.008   1.055 -0.3050 -0.0726 -0.4412
    8CHTO  C101 3026   6.696   9.141   1.112  0.5754  0.1802  0.5668
    8CHTO  H188 3027   6.804   9.157   1.114  0.2506  2.5019  0.8775
    8CHTO   O68 3028   6.651   9.108   1.267 -0.7259  0.6173 -0.3182
    8CHTO  H168 3029   6.647   9.187   1.316  4.1135  1.3527 -0.8494
    8CHTO   C99 3030   6.625   9.274   1.064  0.2868 -0.3033 -0.6332
    8CHTO  H186 3031   6.516   9.257   1.067  0.1730  0.7842  2.1923
    8CHTO   N17 3032   6.666   9.397   1.144  0.1875 -0.4460  0.0407
    8CHTO  H174 3033   6.603   9.443   1.218 -0.0688 -0.9034  0.1067
    8CHTO  H175 3034   6.769   9.413   1.170  0.1135  2.6657 -1.3183
    8CHTO   C97 3035   6.666   9.293   0.911 -0.5128 -0.1328 -0.8974
    8CHTO  H184 3036   6.776   9.295   0.906 -0.5243 -0.5882 -1.3155
    8CHTO   O64 3037   6.611   9.178   0.840  0.3909  0.1654 -0.1227
    8CHTO  C104 3038   6.665   9.047   0.882 -0.1911 -0.1234 -0.7776
    8CHTO  H191 3039   6.768   9.051   0.848  0.3691 -2.6056  0.5378
    8CHTO  C108 3040   6.601   8.940   0.797  0.0989  0.0081 -0.1639
    8CHTO   O71 3041   6.463   8.914   0.817  0.1043 -0.1635 -0.0942
    8CHTO  H171 3042   6.458   8.835   0.868 -0.9863 -0.0037  0.0503
    8CHTO   O62 3043   6.610   9.402   0.842  0.5132  0.0923  0.2125
    8CHTO   C91 3044   6.700   9.453   0.740  0.5041 -0.0045  0.1904
    8CHTO  H178 3045   6.787   9.388   0.728  1.1353  0.6799  1.0615
    8CHTO   C92 3046   6.760   9.593   0.773  0.3764  0.1591  0.1487
    8CHTO  H179 3047   6.681   9.667   0.790  0.2809 -0.1182  0.9044
    8CHTO   O66 3048   6.819   9.586   0.905  0.1687  0.0716  0.3415
    8CHTO  H166 3049   6.759   9.603   0.975  1.8874 -1.0417  2.1490
    8CHTO   C93 3050   6.866   9.642   0.666  0.8755  0.1603  0.3963
    8CHTO  H180 3051   6.943   9.563   0.672  0.4590 -0.1130  2.5025
    8CHTO   N16 3052   6.921   9.774   0.701  0.0836 -0.0311 -0.7080
    8CHTO  H172 3053   6.848   9.853   0.703 -0.6462 -0.6953  2.1652
    8CHTO  H173 3054   7.002   9.796   0.634  1.1577  2.1624  1.2179
    8CHTO   C94 3055   6.791   9.636   0.529  0.0295  0.7949 -0.1733
    8CHTO  H181 3056   6.706   9.704   0.521  1.8769  2.9333 -2.7152
    8CHTO   O61 3057   6.744   9.504   0.508  0.4030 -0.5220  0.2393
    8CHTO   C95 3058   6.635   9.467   0.596  0.3392  0.1673 -0.3210
    8CHTO  H182 3059   6.562   9.548   0.601  0.8699  0.6336 -0.0271
    8CHTO  C106 3060   6.555   9.345   0.539 -0.3648  0.1938 -0.3431
    8CHTO   O69 3061   6.482   9.379   0.425 -0.9874  0.1149 -0.2437
    8CHTO  H169 3062   6.401   9.421   0.444 -0.5695  0.4938  0.7622
    8CHTO   O63 3063   6.913   9.664   0.423  0.1406 -0.0631 -0.3628
    8CHTO   C96 3064   6.860   9.716   0.274  0.2005 -0.0877  0.7609
    8CHTO  H183 3065   6.753   9.699   0.275  0.2894 -0.6574  1.6215
    8CHTO   C98 3066   6.929   9.647   0.158  0.4241  0.1104 -0.4588
    8CHTO  H185 3067   7.039   9.653   0.171  0.3158  1.9032 -0.2044
    8CHTO   O67 3068   6.888   9.508   0.163 -0.5982  0.1589  0.4137
    8CHTO  H167 3069   6.937   9.455   0.103  1.1353  0.3436  1.6185
    8CHTO  C102 3070   6.888   9.709   0.008  0.5105  0.3018  0.2957
    8CHTO  H189 3071   6.793   9.660  -0.017 -0.7003  1.2381  2.9375
    8CHTO   N18 3072   6.985   9.671  -0.098 -0.3461  0.8171  0.2555
    8CHTO  H176 3073   7.038   9.747  -0.153  0.1556 -0.3054 -0.8195
    8CHTO  H177 3074   7.060   9.601  -0.063 -0.8728 -0.6645 -1.5441
    8CHTO  C105 3075   6.858   9.862   0.015  0.0796 -0.1424  0.4083
    8CHTO  H192 3076   6.950   9.917  -0.002 -0.3047 -0.5054 -3.2822
    8CHTO   O65 3077   6.806   9.909   0.139 -0.3304 -0.1991 -0.3108
    8CHTO  C100 3078   6.883   9.866   0.257 -0.6119 -0.1531  0.6098
    8CHTO  H187 3079   6.989   9.885   0.239 -0.8543 -0.2997 -0.9946
    8CHTO  C107 3080   6.836   9.954   0.375  0.0244  0.6225 -0.6526
    8CHTO   O70 3081   6.852  10.090   0.350  0.3680  0.4970 -0.0500
    8CHTO  H170 3082   6.770  10.134   0.354 -1.7611 -3.2280 -1.0764
    8CHTO   O57 3083   6.751   9.869  -0.099  0.7012 -0.3337 -0.1024
    8CHTO   C85 3084   6.700   9.986  -0.158 -0.6192  0.2295  0.1127
    8CHTO  H157 3085   6.793  10.045  -0.171  0.8770 -1.6472  2.0261
    8CHTO   C83 3086   6.604  10.055  -0.066  0.4342  0.5869 -0.1898
    8CHTO  H155 3087   6.654  10.085   0.026 -0.2996  2.2516 -0.3025
    8CHTO   O56 3088   6.498   9.957  -0.033 -0.0657 -0.1911  0.0809
    8CHTO  H135 3089   6.426   9.992   0.015  2.6698  1.5423  3.0665
    8CHTO   C81 3090   6.560  10.189  -0.131 -0.4949  0.8961 -0.1859
    8CHTO  H153 3091   6.649  10.251  -0.142  1.0122 -1.1567  0.0746
    8CHTO   N14 3092   6.492  10.273  -0.028 -0.1560 -0.5163  0.0724
    8CHTO  H141 3093   6.387  10.276  -0.048  0.2941  2.4282 -2.2249
    8CHTO  H142 3094   6.513  10.242   0.072  2.0602  0.5923 -0.0321
    8CHTO   C79 3095   6.489  10.167  -0.269  0.0818 -0.4814  0.1096
    8CHTO  H151 3096   6.478  10.264  -0.317 -0.2448  0.2735  1.6995
    8CHTO   O52 3097   6.566  10.080  -0.354 -0.4439  0.2006  0.2213
    8CHTO   C86 3098   6.624   9.962  -0.297  0.1365  0.0316 -0.3432
    8CHTO  H158 3099   6.541   9.888  -0.291 -0.0132  0.0809 -1.6055
    8CHTO   C90 3100   6.718   9.905  -0.409  0.2301  0.4813 -0.0196
    8CHTO   O60 3101   6.746   9.769  -0.396 -0.2027 -0.0567  0.0042
    8CHTO  H138 3102   6.790   9.743  -0.475 -1.5692 -0.2946 -0.7085
    8CHTO   O50 3103   6.350  10.118  -0.248  0.1061 -0.0309 -0.4359
    8CHTO   C73 3104   6.215  10.091  -0.272  0.1154  0.1776 -0.0398
    8CHTO  H145 3105   6.201  10.056  -0.375  0.2315 -0.8488  0.2902
    8CHTO   C74 3106   6.124  10.216  -0.250 -0.5615  0.2364  0.2898
    8CHTO  H146 3107   6.152  10.290  -0.326  1.6165 -0.7725  0.0697
    8CHTO   O54 3108   5.997  10.164  -0.288 -0.1280  0.0537  0.1433
    8CHTO  H133 3109   5.984  10.164  -0.380 -0.0868 -1.6425  0.1233
    8CHTO   C75 3110   6.132  10.269  -0.103  0.3792  0.3482 -0.3151
    8CHTO  H147 3111   6.228  10.320  -0.089 -0.9802  3.4579 -1.8975
    8CHTO   N13 3112   6.036  10.378  -0.072 -0.1996 -0.1894  0.1544
    8CHTO  H139 3113   5.974  10.401  -0.157 -0.7493 -2.8637 -0.1995
    8CHTO  H140 3114   5.966  10.344   0.002 -0.1371  0.2761  0.4329
    8CHTO   C76 3115   6.109  10.142   0.005  0.0370 -1.1603  0.1671
    8CHTO  H148 3116   6.001  10.134   0.016 -0.4818  1.7481 -2.0259
    8CHTO   O49 3117   6.174  10.020  -0.035 -0.2676 -0.1677  0.1425
    8CHTO   C77 3118   6.164   9.978  -0.170 -0.6761  0.1910  0.4640
    8CHTO  H149 3119   6.063   9.945  -0.192  0.2690 -1.7967 -1.1787
    8CHTO   C88 3120   6.251   9.853  -0.192  0.1998 -0.6431 -0.2038
    8CHTO   O58 3121   6.234   9.795  -0.323  0.2751 -0.0689 -0.3318
    8CHTO  H136 3122   6.324   9.783  -0.345  1.1869 -0.3948  3.3270
    8CHTO   O51 3123   6.189  10.177   0.154  0.9830  0.3056  0.2983
    8CHTO   C78 3124   6.160  10.110   0.256 -0.2235  1.1050  0.2750
    8CHTO  H150 3125   6.139  10.003   0.235 -0.4559  1.3090 -0.5317
    8CHTO   C80 3126   6.038  10.165   0.326  0.1741  0.4515 -0.6941
    8CHTO  H152 3127   6.039  10.276   0.314 -1.9933  0.4772 -0.8286
    8CHTO   O55 3128   5.922  10.127   0.253  0.3271 -0.0217  0.6565
    8CHTO  H134 3129   5.918  10.184   0.179 -3.2244  0.2319  0.9362
    8CHTO   C84 3130   6.018  10.119   0.480  0.3040  0.0877 -0.0546
    8CHTO  H156 3131   5.989  10.016   0.500 -2.9677  0.9048 -0.2984
    8CHTO   N15 3132   5.916  10.207   0.546 -0.0078  0.0081  0.0842
    8CHTO  H143 3133   5.892  10.287   0.479 -1.3389  0.4023  1.0051
    8CHTO  H144 3134   5.828  10.149   0.565 -0.3588 -0.1485 -1.8962
    8CHTO   C87 3135   6.151  10.122   0.559  0.5541  0.4930  0.2343
    8CHTO  H159 3136   6.178  10.227   0.575  1.3451  0.1493  1.2110
    8CHTO   O53 3137   6.256  10.044   0.473 -0.1995  0.1543 -0.2258
    8CHTO   C82 3138   6.286  10.117   0.355  0.6728  1.2379  0.8916
    8CHTO  H154 3139   6.311  10.220   0.379 -1.1605  1.3783  2.3332
    8CHTO   C89 3140   6.409  10.047   0.283  0.2107  0.1268  0.2363
    8CHTO   O59 3141   6.522  10.044   0.365 -0.4427 -0.0454 -0.5414
    8CHTO  H137 3142   6.521   9.973   0.426  2.2537 -0.4622 -0.9231
    8CHTO   O45 3143   6.123  10.040   0.714 -0.3742 -0.1943  0.4569
    8CHTO   C67 3144   6.148   9.900   0.728 -0.3041  0.4879  0.0663
    8CHTO  H124 3145   6.145   9.853   0.630 -0.3546 -0.7129  0.6242
    8CHTO   C65 3146   6.287   9.879   0.803  0.6157  0.7056 -0.4414
    8CHTO  H122 3147   6.329   9.979   0.804  1.4961  0.3403  1.4853
    8CHTO   O44 3148   6.366   9.786   0.725 -0.4318 -0.0552 -0.0399
    8CHTO  H102 3149   6.458   9.779   0.745 -0.1316  1.7386 -0.6843
    8CHTO   C63 3150   6.269   9.842   0.958  0.3840  0.5694 -0.1357
    8CHTO  H120 3151   6.208   9.916   1.010 -0.2684 -0.1716  0.1636
    8CHTO   N11 3152   6.385   9.853   1.053 -0.8359  0.6134 -1.0644
    8CHTO  H108 3153   6.394   9.767   1.115 -1.3566  1.5351  0.3077
    8CHTO  H109 3154   6.468   9.872   0.988  0.9757 -0.0494  1.0370
    8CHTO   C61 3155   6.180   9.708   0.971  1.1646 -0.2219  0.7797
    8CHTO  H118 3156   6.133   9.703   1.070 -0.8357  1.7368 -0.0238
    8CHTO   O40 3157   6.071   9.701   0.875 -0.0847 -0.3360 -0.5302
    8CHTO   C68 3158   6.029   9.825   0.805  0.3751  0.4178  0.4673
    8CHTO  H125 3159   5.978   9.891   0.877  0.7310  0.7542  0.4126
    8CHTO   C72 3160   5.925   9.790   0.702 -1.0463 -0.0644 -0.2589
    8CHTO   O48 3161   5.789   9.818   0.723  0.1001  0.2216  0.1421
    8CHTO  H105 3162   5.782   9.858   0.808  0.6565 -0.9478  0.7574
    8CHTO   O38 3163   6.262   9.595   0.948  0.7024  0.7594 -0.3693
    8CHTO   C55 3164   6.197   9.466   0.970  0.0914  0.3785 -0.5647
    8CHTO  H112 3165   6.088   9.465   0.957 -0.1413  0.1132  1.2406
    8CHTO   C56 3166   6.237   9.398   1.107 -0.2680  0.2905  0.3660
    8CHTO  H113 3167   6.346   9.382   1.111 -0.2899  0.0506  0.0415
    8CHTO   O42 3168   6.201   9.488   1.213 -0.2683  0.5918 -0.2370
    8CHTO  H100 3169   6.118   9.471   1.252 -0.8112  3.1747 -0.2264
    8CHTO   C57 3170   6.175   9.251   1.117  0.8088  0.1535  0.2788
    8CHTO  H114 3171   6.066   9.260   1.116  0.9150  1.4640 -0.8204
    8CHTO   N10 3172   6.211   9.173   1.236  0.0312  0.3648 -0.5824
    8CHTO  H106 3173   6.237   9.232   1.323 -0.6458 -0.2767  0.0674
    8CHTO  H107 3174   6.125   9.112   1.261 -1.0655  2.1091 -0.0262
    8CHTO   C58 3175   6.217   9.176   0.991  0.4524 -0.2152 -0.2180
    8CHTO  H115 3176   6.324   9.148   0.999 -0.1110 -2.6677 -0.7568
    8CHTO   O37 3177   6.193   9.253   0.869 -0.4392  0.0744  0.1042
    8CHTO   C59 3178   6.251   9.381   0.856 -0.5232 -0.8163 -0.2836
    8CHTO  H116 3179   6.360   9.377   0.857 -0.5372 -1.2853 -0.5842
    8CHTO   C70 3180   6.199   9.423   0.715 -0.2289 -0.0749  0.2531
    8CHTO   O46 3181   6.269   9.525   0.653 -0.6794  0.0736 -0.0645
    8CHTO  H103 3182   6.245   9.549   0.566 -3.0902 -0.0343  0.5396
    8CHTO   O39 3183   6.138   9.032   0.976  0.4803  0.2657 -0.5989
    8CHTO   C60 3184   5.998   9.040   0.931 -0.4671 -0.2797  0.5546
    8CHTO  H117 3185   5.960   9.134   0.971 -1.2877 -0.5626  0.4465
    8CHTO   C62 3186   5.978   9.043   0.773  0.6838  0.5229 -0.3422
    8CHTO  H119 3187   6.051   9.118   0.735 -1.0360  3.3535  1.7027
    8CHTO   O43 3188   6.033   8.923   0.715 -0.1501  0.1061  0.1336
    8CHTO  H101 3189   6.119   8.902   0.747 -0.4586 -0.1981  0.7735
    8CHTO   C66 3190   5.831   9.063   0.733  0.1340 -0.3681 -0.0260
    8CHTO  H123 3191   5.786   9.142   0.793  2.5808 -0.2029  1.6359
    8CHTO   N12 3192   5.811   9.100   0.589  0.3593 -0.2933 -0.0128
    8CHTO  H110 3193   5.900   9.111   0.528 -0.6605  1.7316 -1.1900
    8CHTO  H111 3194   5.747   9.186   0.575  0.8944  0.0976 -0.0703
    8CHTO   C69 3195   5.739   8.953   0.783 -0.3504  0.1862 -0.0559
    8CHTO  H126 3196   5.762   8.864   0.720  0.0478  0.0188  0.3230
    8CHTO   O41 3197   5.756   8.935   0.955  0.1046  0.0337  0.4288
    8CHTO   C64 3198   5.910   8.923   0.991 -0.6630  0.0544 -0.0614
    8CHTO  H121 3199   5.953   8.827   0.957 -0.7641  0.1491 -0.4711
    8CHTO   C71 3200   5.919   8.914   1.147 -0.4881  0.1591 -0.5530
    8CHTO   O47 3201   5.860   9.024   1.212  0.5937 -0.0046 -0.2868
    8CHTO  H104 3202   5.769   9.012   1.231  0.4142  1.1477 -0.3511
    8CHTO   O34 3203   5.582   9.003   0.757 -0.7227 -0.4912 -0.0776
    8CHTO   C49 3204   5.480   9.060   0.854 -0.9005  0.0613  0.1017
    8CHTO   H91 3205   5.472   8.983   0.930  1.1744  0.6061  0.9152
    8CHTO   C47 3206   5.356   9.074   0.771 -0.8934  0.0777  0.0586
    8CHTO   H89 3207   5.274   9.102   0.840 -2.3856 -1.2272 -1.1230
    8CHTO   O33 3208   5.330   8.943   0.715 -0.2537  0.5835 -0.5911
    8CHTO   H70 3209   5.238   8.944   0.698 -0.8041 -1.9174  1.9148
    8CHTO   C45 3210   5.375   9.194   0.665  0.0179  0.8765  0.3129
    8CHTO   H87 3211   5.469   9.171   0.613 -0.5137  0.9996 -0.7222
    8CHTO    N8 3212   5.267   9.197   0.567 -0.2927 -0.1813  0.1357
    8CHTO   H75 3213   5.258   9.107   0.509 -0.8964  0.3325 -0.5678
    8CHTO   H76 3214   5.280   9.279   0.497 -2.0934 -0.3765 -0.4343
    8CHTO   C43 3215   5.412   9.323   0.749  0.5772  0.5548 -0.2382
    8CHTO   H85 3216   5.433   9.399   0.674  2.7298 -0.2859 -0.5259
    8CHTO   O29 3217   5.525   9.309   0.841  0.1161 -0.0064  0.2219
    8CHTO   C50 3218   5.530   9.195   0.920  0.1217  0.5020  0.7055
    8CHTO   H92 3219   5.631   9.165   0.952 -0.4509 -2.2382  0.0786
    8CHTO   C54 3220   5.454   9.211   1.050 -0.7525 -0.1132 -0.1456
    8CHTO   O36 3221   5.518   9.297   1.139  0.1646 -0.2002 -0.3100
    8CHTO   H72 3222   5.502   9.260   1.224 -1.0684  0.9804 -0.0066
    8CHTO   O27 3223   5.303   9.377   0.825  0.2112  0.0173 -0.0290
    8CHTO   C37 3224   5.285   9.514   0.851 -0.4392  0.2795 -0.5112
    8CHTO   H79 3225   5.218   9.528   0.937  0.3319  0.4028  0.0754
    8CHTO   C38 3226   5.414   9.596   0.897 -0.0945  0.3440  0.2394
    8CHTO   H80 3227   5.498   9.559   0.838  1.2886  1.1714  1.6603
    8CHTO   O31 3228   5.458   9.540   1.027 -0.5275 -0.5673  0.1539
    8CHTO   H68 3229   5.534   9.586   1.058 -0.8634 -0.7135  1.2295
    8CHTO   C39 3230   5.404   9.755   0.891  0.1006  0.0258 -0.6566
    8CHTO   H81 3231   5.344   9.776   0.980  0.0980 -1.7763 -0.2147
    8CHTO    N7 3232   5.535   9.835   0.891  0.5415 -0.5366 -0.0305
    8CHTO   H73 3233   5.530   9.910   0.968 -0.0641 -0.5811 -0.0213
    8CHTO   H74 3234   5.616   9.763   0.900  2.4841  1.2315 -2.8214
    8CHTO   C40 3235   5.309   9.800   0.778 -0.7268 -1.1168 -1.1538
    8CHTO   H82 3236   5.367   9.811   0.686  1.4064 -0.3497  0.2310
    8CHTO   O26 3237   5.194   9.714   0.764 -0.1083  0.2255 -0.3498
    8CHTO   C41 3238   5.223   9.580   0.727  0.4914  0.5918  0.0913
    8CHTO   H83 3239   5.291   9.593   0.641 -1.3725 -0.4180 -1.5803
    8CHTO   C52 3240   5.093   9.504   0.679 -0.5769 -0.1990 -0.0279
    8CHTO   O35 3241   5.037   9.562   0.562  0.5797  0.2074  0.0025
    8CHTO   H71 3242   5.067   9.508   0.491 -1.6396 -0.3029 -0.5961
    8CHTO   O28 3243   5.250   9.927   0.811 -0.2170 -0.0452  0.3328
    8CHTO   C42 3244   5.204  10.030   0.712  0.0021  0.1980 -0.1898
    8CHTO   H84 3245   5.160  10.114   0.766 -0.1136  0.4439 -0.6629
    8CHTO   C44 3246   5.091   9.978   0.618 -0.0567 -0.2067  0.1008
    8CHTO   H86 3247   5.118   9.880   0.578 -0.5269 -0.1975 -0.2485
    8CHTO   O32 3248   4.980   9.946   0.696  0.5065 -0.3365 -0.3363
    8CHTO   H69 3249   4.919   9.903   0.640  1.7155  0.4280 -2.3119
    8CHTO   C48 3250   5.051  10.073   0.495 -0.3333  0.0034 -0.0201
    8CHTO   H90 3251   4.986  10.153   0.530 -0.6068 -0.2444  0.0416
    8CHTO    N9 3252   4.962   9.997   0.403  0.0580  0.4573  0.2144
    8CHTO   H77 3253   4.936   9.904   0.450  2.0050  0.0554  0.5438
    8CHTO   H78 3254   4.881  10.066   0.385  0.0775  0.5550  0.4914
    8CHTO   C51 3255   5.180  10.138   0.428  0.5532 -0.2797  0.7272
    8CHTO   H93 3256   5.228  10.058   0.370 -1.2076  1.0316 -2.6641
    8CHTO   O30 3257   5.261  10.194   0.528  0.2050  0.0782  0.5536
    8CHTO   C46 3258   5.313  10.086   0.622 -0.3505 -0.1830  0.0224
    8CHTO   H88 3259   5.354  10.011   0.554  0.4023  0.3713 -0.1379
    8CHTO   C53 3260   5.431  10.142   0.701  0.0424  0.4205  0.0545
    8CHTO   O72 3261   5.549  10.152   0.620 -0.4595 -0.4251  0.0786
    8CHTO  H199 3262   5.610  10.191   0.680 -1.1694 -0.7353  1.0045
    8CHTO   O22 3263   5.151  10.244   0.339 -0.1647 -0.4521  0.6272
    8CHTO   C31 3264   5.226  10.265   0.210 -0.1508 -0.5125 -0.2639
    8CHTO   H59 3265   5.180  10.354   0.163 -1.1702 -0.1805  1.3106
    8CHTO   C29 3266   5.378  10.294   0.229  0.7609  0.0405 -0.1521
    8CHTO   H57 3267   5.421  10.222   0.300 -2.4319  0.1288  1.9860
    8CHTO   O21 3268   5.380  10.416   0.302 -0.1730  0.3359 -0.2623
    8CHTO   H37 3269   5.440  10.407   0.373  0.5154 -0.4745 -0.9431
    8CHTO   C27 3270   5.467  10.302   0.097 -0.5145 -0.0026 -0.2775
    8CHTO   H55 3271   5.438  10.391   0.039 -2.6847  1.0284  2.2889
    8CHTO    N5 3272   5.610  10.313   0.119  0.0190  0.1155 -0.3452
    8CHTO   H43 3273   5.660  10.257   0.042  1.2274 -0.3331  0.7433
    8CHTO   H44 3274   5.626  10.418   0.141  0.4478 -0.3394  1.6643
    8CHTO   C25 3275   5.430  10.175   0.006  0.1666 -0.2439  0.5404
    8CHTO   H53 3276   5.470  10.082   0.050  0.5555 -0.0485  0.6035
    8CHTO   O17 3277   5.287  10.159  -0.011 -0.1422  0.3061  0.1408
    8CHTO   C32 3278   5.210  10.147   0.110  0.4157 -0.3017 -0.2231
    8CHTO   H60 3279   5.234  10.051   0.156 -0.5081 -1.6531 -2.4635
    8CHTO   C36 3280   5.057  10.153   0.066  0.3045  0.1680 -0.2226
    8CHTO   O25 3281   5.023  10.033  -0.002  0.3071  0.3593  0.1937
    8CHTO   H40 3282   5.062  10.022  -0.086 -0.9494 -1.2655 -0.2134
    8CHTO   O15 3283   5.514  10.183  -0.131  0.4457 -0.1996  0.6697
    8CHTO   C19 3284   5.542  10.104  -0.248 -0.4811  0.1907  0.1467
    8CHTO   H47 3285   5.461  10.030  -0.253  1.0043 -1.7955  3.3797
    8CHTO   C20 3286   5.544  10.193  -0.376 -0.0338  0.4034  0.5786
    8CHTO   H48 3287   5.580  10.295  -0.359  2.0386 -0.3415  0.7985
    8CHTO   O19 3288   5.407  10.213  -0.414  0.0718  0.3203  0.1745
    8CHTO   H35 3289   5.360  10.133  -0.426  2.5021 -1.1902  0.4873
    8CHTO   C21 3290   5.618  10.142  -0.501  0.1407  0.2344 -0.8344
    8CHTO   H49 3291   5.548  10.082  -0.559  0.7470 -1.8990  0.6028
    8CHTO    N4 3292   5.669  10.248  -0.595 -0.0336  0.1150 -0.2090
    8CHTO   H41 3293   5.593  10.301  -0.652  0.8254 -0.2401 -1.7158
    8CHTO   H42 3294   5.730  10.320  -0.544 -1.7952  1.5826 -0.1349
    8CHTO   C22 3295   5.735  10.038  -0.467  0.3871 -1.2240  0.2707
    8CHTO   H50 3296   5.823  10.094  -0.437 -0.8628  1.5554 -1.1312
    8CHTO   O14 3297   5.697   9.946  -0.361  0.3435 -0.4093 -0.3811
    8CHTO   C23 3298   5.676  10.020  -0.240 -0.7477 -1.0177  0.4410
    8CHTO   H51 3299   5.764  10.083  -0.221 -0.3638 -1.2925 -0.4193
    8CHTO   C34 3300   5.682   9.921  -0.123 -0.8177  0.2148 -0.1692
    8CHTO   O23 3301   5.709   9.995  -0.002 -0.2323 -0.2768 -0.6851
    8CHTO   H38 3302   5.717   9.940   0.073  0.8480 -0.4591 -0.9318
    8CHTO   O16 3303   5.776   9.959  -0.575  0.4573 -0.2436 -0.4042
    8CHTO   C24 3304   5.923   9.889  -0.572 -0.5202  0.3807 -0.1496
    8CHTO   H52 3305   5.963   9.877  -0.472  1.0740  0.1397 -0.8073
    8CHTO   C26 3306   6.029   9.954  -0.652 -0.0570 -0.0605  0.0718
    8CHTO   H54 3307   5.992   9.961  -0.757  0.4424  1.0620 -0.0369
    8CHTO   O20 3308   6.048  10.090  -0.595  0.5694  0.2735  0.5204
    8CHTO   H36 3309   5.968  10.124  -0.559  1.7262  0.9314  2.5853
    8CHTO   C30 3310   6.162   9.872  -0.650 -0.3470 -0.0413  0.0191
    8CHTO   H58 3311   6.193   9.865  -0.545 -2.5948  0.8255  0.7774
    8CHTO    N6 3312   6.271   9.935  -0.727 -0.7622 -0.6196 -0.5178
    8CHTO   H45 3313   6.247   9.939  -0.832  2.2829 -0.0813 -1.2549
    8CHTO   H46 3314   6.285  10.037  -0.694 -3.1280 -0.6917  0.7441
    8CHTO   C33 3315   6.139   9.726  -0.706  0.0709 -0.4204 -0.3952
    8CHTO   H61 3316   6.115   9.716  -0.813 -0.9384  0.6601 -0.2779
    8CHTO   O18 3317   6.032   9.674  -0.621 -0.1571 -0.0255 -0.2039
    8CHTO   C28 3318   5.904   9.742  -0.630 -0.2044  0.1913 -0.3284
    8CHTO   H56 3319   5.880   9.744  -0.736  0.5956  0.9261 -0.5023
    8CHTO   C35 3320   5.795   9.653  -0.569 -0.1792 -0.1133  0.2915
    8CHTO   O24 3321   5.808   9.665  -0.427  0.5178  0.3745  0.0958
    8CHTO   H39 3322   5.728   9.631  -0.391  0.6778  0.7793  0.8285
    8CHTO    O9 3323   6.259   9.644  -0.690 -0.4591 -0.4223 -0.2093
    8CHTO   C13 3324   6.264   9.511  -0.779  0.2036 -0.7041  0.3019
    8CHTO   H26 3325   6.247   9.545  -0.884  1.3540  0.0899  0.3651
    8CHTO   C11 3326   6.154   9.397  -0.736 -0.4306 -0.7136  0.1130
    8CHTO   H24 3327   6.058   9.427  -0.781 -0.0925 -2.8256 -2.1522
    8CHTO    O8 3328   6.147   9.386  -0.596 -0.0690 -0.1261 -0.4828
    8CHTO    H3 3329   6.104   9.310  -0.562 -0.0694  0.4943  0.9714
    8CHTO    C9 3330   6.201   9.270  -0.804 -0.2265  0.0013  0.1911
    8CHTO   H22 3331   6.219   9.298  -0.909 -3.3920 -0.3897 -0.5151
    8CHTO    N2 3332   6.105   9.162  -0.810  0.8186 -0.0156 -0.6050
    8CHTO   H10 3333   6.100   9.110  -0.715  0.9690  0.7500 -0.1782
    8CHTO   H11 3334   6.113   9.103  -0.900  1.2973 -1.3939  0.3162
    8CHTO    C7 3335   6.348   9.223  -0.747 -0.0310 -1.0074 -0.2383
    8CHTO   H20 3336   6.400   9.185  -0.837  0.2810 -0.3795 -0.3304
    8CHTO    O4 3337   6.424   9.334  -0.696  0.2203  0.0426  0.6683
    8CHTO   C14 3338   6.415   9.455  -0.774  0.2020  0.2104 -0.3815
    8CHTO   H27 3339   6.442   9.434  -0.880 -0.8439 -0.6773 -0.4884
    8CHTO   C18 3340   6.517   9.558  -0.721  1.0309 -0.2238 -0.0304
    8CHTO   O13 3341   6.540   9.661  -0.817 -0.0993 -0.1496 -0.3148
    8CHTO    H7 3342   6.565   9.623  -0.899 -1.6442  0.6993 -1.1917
    8CHTO    O2 3343   6.349   9.116  -0.648 -0.2398  0.1463 -0.6089
    8CHTO    C1 3344   6.472   9.063  -0.592  0.3000  0.2175 -0.7766
    8CHTO   H14 3345   6.546   9.140  -0.562 -1.5128  1.5096  0.6036
    8CHTO    C2 3346   6.539   8.955  -0.688 -0.5369  0.2835 -0.0758
    8CHTO   H15 3347   6.460   8.889  -0.725 -0.0483 -1.5863  2.1313
    8CHTO    O6 3348   6.598   9.032  -0.797  0.4641  0.1507 -0.0284
    8CHTO    H1 3349   6.608   8.971  -0.868 -1.4836 -2.4376  1.8331
    8CHTO    C3 3350   6.658   8.868  -0.617 -0.0460 -0.0852 -0.1785
    8CHTO   H16 3351   6.731   8.949  -0.601  1.3561 -1.5402  0.8314
    8CHTO    N1 3352   6.720   8.763  -0.707  0.6862 -1.1500  0.4317
    8CHTO    H8 3353   6.700   8.760  -0.813  1.6252 -0.0175  0.2170
    8CHTO    H9 3354   6.726   8.662  -0.668  0.1276 -1.1349  0.5631
    8CHTO    C4 3355   6.612   8.818  -0.477  0.1695 -0.3853  0.5104
    8CHTO   H17 3356   6.530   8.746  -0.485  0.2254 -0.5908  1.6414
    8CHTO    O1 3357   6.563   8.938  -0.404 -0.8298  0.2288  0.7076
    8CHTO    C5 3358   6.440   9.000  -0.454 -0.3105  0.0247  0.1204
    8CHTO   H18 3359   6.359   8.928  -0.469 -0.0243 -0.4145  0.6735
    8CHTO   C16 3360   6.401   9.103  -0.346  0.1269  0.3260 -0.2448
    8CHTO   O11 3361   6.264   9.148  -0.379  0.1528 -0.3292 -0.3855
    8CHTO    H5 3362   6.241   9.225  -0.331 -1.1783  0.0210 -1.5266
    8CHTO    O3 3363   6.718   8.761  -0.402 -0.2826 -0.0200 -0.3563
    8CHTO    C6 3364   6.688   8.632  -0.332  0.0236 -0.2064  0.4130
    8CHTO   H19 3365   6.580   8.620  -0.330 -0.1053 -0.2903 -3.0430
    8CHTO    C8 3366   6.743   8.508  -0.404 -0.2932 -0.2603 -0.0640
    8CHTO   H21 3367   6.848   8.526  -0.427  0.8049 -4.2718  1.3442
    8CHTO    O7 3368   6.672   8.493  -0.529  0.2252 -0.1834  0.5563
    8CHTO    H2 3369   6.728   8.459  -0.596  0.1444 -0.3261  0.5642
    8CHTO   C12 3370   6.737   8.379  -0.313 -0.2265  0.0574  0.0814
    8CHTO   H25 3371   6.629   8.354  -0.313 -0.3522  0.6058  0.4632
    8CHTO    N3 3372   6.805   8.266  -0.384 -0.3330  0.4409 -0.2254
    8CHTO   H12 3373   6.766   8.237  -0.480 -0.6402 -2.0346  0.6082
    8CHTO   H13 3374   6.912   8.284  -0.383 -0.0686 -1.0498  2.5138
    8CHTO   C15 3375   6.788   8.409  -0.168  0.1248 -0.4491  0.3803
    8CHTO   H28 3376   6.895   8.430  -0.173  0.3736 -1.5491  0.7760
    8CHTO   O10 3377   6.775   8.307  -0.083  0.2604 -0.5288 -0.6487
    8CHTO    H4 3378   6.813   8.229  -0.121 -0.4936 -0.7225 -1.0343
    8CHTO    O5 3379   6.710   8.514  -0.121 -1.1739 -0.0326 -0.6498
    8CHTO   C10 3380   6.735   8.635  -0.188 -0.2299 -0.6263  0.5425
    8CHTO   H23 3381   6.841   8.656  -0.205 -0.1435 -1.9526 -0.6460
    8CHTO   C17 3382   6.667   8.748  -0.115 -0.3283  0.7443 -0.7895
    8CHTO   O12 3383   6.735   8.795   0.004 -0.6311 -0.2875  0.2225
    8CHTO    H6 3384   6.696   8.743   0.071 -1.0569  1.6805  1.5588
    9CHTO  H203 3385   8.071   4.533   3.055  0.9456 -0.3770 -0.1642
    9CHTO   O82 3386   8.137   4.596   3.034  0.1095  0.3409 -0.6593
    9CHTO  C123 3387   8.161   4.580   2.896  0.0672 -0.2472  0.4060
    9CHTO  H227 3388   8.210   4.672   2.860  0.9007 -1.1054 -0.7195
    9CHTO   O77 3389   8.261   4.478   2.884  0.4106  0.1259 -1.1628
    9CHTO  C118 3390   8.315   4.471   2.749 -0.2078 -0.8326  0.2207
    9CHTO  H222 3391   8.350   4.570   2.715 -3.3478  0.2525 -0.0367
    9CHTO  C125 3392   8.434   4.371   2.755  0.4398  0.3371  0.3919
    9CHTO   O84 3393   8.535   4.417   2.847  0.4529  0.4134  0.4066
    9CHTO  H205 3394   8.577   4.496   2.818 -1.8265  0.9008 -1.8212
    9CHTO  C114 3395   8.200   4.423   2.657  0.3635 -0.0995 -0.4637
    9CHTO  H218 3396   8.170   4.326   2.696 -1.0782  0.6134  0.2505
    9CHTO  C116 3397   8.077   4.512   2.662  0.6481  0.7635  1.0076
    9CHTO  H220 3398   8.104   4.603   2.605  1.4985  0.5455  1.0660
    9CHTO   O79 3399   7.973   4.440   2.599  0.2690  0.1124 -0.0959
    9CHTO  H201 3400   7.889   4.481   2.603  0.4749  0.6155 -0.8465
    9CHTO  C120 3401   8.037   4.545   2.807 -0.8708  0.0573 -0.5539
    9CHTO  H224 3402   7.992   4.450   2.844  0.7097 -0.7126 -0.5582
    9CHTO   N21 3403   7.934   4.651   2.810  0.6464  0.1299  0.2392
    9CHTO  H211 3404   7.952   4.704   2.902  0.9837  1.0140 -0.3300
    9CHTO  H212 3405   7.836   4.607   2.811 -0.6292  2.8059 -1.8691
    9CHTO   O75 3406   8.253   4.417   2.521  0.6636  0.8686 -0.8868
    9CHTO  C112 3407   8.205   4.306   2.429 -0.5934  0.2780 -0.1788
    9CHTO  H216 3408   8.095   4.299   2.431 -0.4744 -1.8735  0.0430
    9CHTO   O73 3409   8.265   4.184   2.466  0.0543  0.1268 -0.2763
    9CHTO  C113 3410   8.216   4.073   2.402 -0.1450 -0.1277  0.3801
    9CHTO  H217 3411   8.106   4.059   2.401 -0.4050  1.4696  2.5749
    9CHTO  C124 3412   8.261   3.945   2.469  0.2858  0.4020 -0.7245
    9CHTO   O83 3413   8.217   3.826   2.408  0.1123 -0.0208 -0.0824
    9CHTO  H204 3414   8.132   3.805   2.441  1.0786 -0.8659  1.9981
    9CHTO  C109 3415   8.273   4.083   2.255  0.6181 -0.5305 -0.5932
    9CHTO  H213 3416   8.382   4.093   2.262  0.7572 -1.5910 -1.2297
    9CHTO  C110 3417   8.212   4.214   2.198 -0.0485 -0.1841  0.1338
    9CHTO  H214 3418   8.104   4.201   2.190 -0.3871  2.1614  0.4910
    9CHTO   O78 3419   8.267   4.229   2.061  0.3292  0.0439  0.2345
    9CHTO  H200 3420   8.244   4.156   2.007 -0.5546  2.1209 -2.2763
    9CHTO  C111 3421   8.257   4.332   2.283 -0.3363  0.3395  0.9248
    9CHTO  H215 3422   8.366   4.336   2.290  0.1881 -4.0848 -2.7142
    9CHTO   N19 3423   8.212   4.466   2.228 -0.2293 -0.2440  0.1790
    9CHTO  H207 3424   8.223   4.545   2.299  0.0240 -1.1221  1.1247
    9CHTO  H208 3425   8.269   4.485   2.138 -0.3724 -0.4552  0.0402
    9CHTO   O74 3426   8.235   3.973   2.165 -0.3810 -0.1413 -0.7351
    9CHTO  C115 3427   8.349   3.888   2.123  0.2327 -0.7142  0.4508
    9CHTO  H219 3428   8.444   3.922   2.164  0.5388  1.4539 -1.9223
    9CHTO   O76 3429   8.330   3.744   2.172  0.2366  0.2940  0.5828
    9CHTO  C122 3430   8.219   3.663   2.115 -0.4424  0.2318  0.1817
    9CHTO  H226 3431   8.125   3.714   2.137  0.8886  2.4750  0.8350
    9CHTO  C126 3432   8.213   3.525   2.174 -0.2963  0.6966 -0.2522
    9CHTO   O85 3433   8.080   3.469   2.171 -0.2330  0.4992 -0.2148
    9CHTO  H206 3434   8.015   3.520   2.216 -2.6103 -0.7693 -2.1268
    9CHTO  C121 3435   8.237   3.657   1.950 -0.0884 -0.6938 -0.1443
    9CHTO  H225 3436   8.338   3.614   1.936  0.7341  0.9111  0.6103
    9CHTO   O81 3437   8.137   3.584   1.882  0.0938  0.1188 -0.8929
    9CHTO  H202 3438   8.057   3.621   1.914 -0.3378 -1.4037 -0.1270
    9CHTO  C119 3439   8.242   3.804   1.897 -0.7939  0.7374 -0.1346
    9CHTO  H223 3440   8.259   3.803   1.790  0.5766 -0.9394  0.0822
    9CHTO  C117 3441   8.363   3.890   1.966  0.4107 -0.2226 -0.4030
    9CHTO  H221 3442   8.352   3.999   1.960  0.5894 -0.2116 -0.5448
    9CHTO   N20 3443   8.501   3.857   1.909  0.1628 -0.1638  0.2418
    9CHTO  H209 3444   8.496   3.854   1.801  2.9888  0.8820  0.0573
    9CHTO  H210 3445   8.513   3.756   1.944  0.4470  0.1931  1.2143
    9CHTO   O80 3446   8.112   3.881   1.906  0.0716 -0.3567 -0.0215
    9CHTO  C103 3447   8.062   3.984   1.775 -1.0013  0.3230  0.4565
    9CHTO  H190 3448   8.102   4.081   1.803 -2.3748  1.4809 -1.4504
    9CHTO  C101 3449   8.103   3.958   1.625 -0.2417  0.8764  1.1926
    9CHTO  H188 3450   8.090   3.854   1.597  0.9387  1.2551 -0.8741
    9CHTO   O68 3451   8.258   3.982   1.599  0.5444  0.2693 -0.1755
    9CHTO  H168 3452   8.274   4.068   1.631  1.6276 -0.0039  0.0516
    9CHTO   C99 3453   8.017   4.040   1.514 -0.2065 -0.2624  0.0754
    9CHTO  H186 3454   8.060   4.142   1.515  0.6534 -0.5981 -1.1507
    9CHTO   N17 3455   8.030   3.991   1.372  0.0687 -0.2568 -1.0677
    9CHTO  H174 3456   8.030   3.883   1.370  0.6336 -0.2765 -0.1627
    9CHTO  H175 3457   7.944   4.029   1.318 -0.2501  0.9498  0.2462
    9CHTO   C97 3458   7.871   4.058   1.562 -0.0697 -0.5029 -0.4601
    9CHTO  H184 3459   7.815   3.966   1.539 -0.0915 -0.8683  1.0389
    9CHTO   O64 3460   7.858   4.096   1.702 -0.0098 -0.0255  0.0448
    9CHTO  C104 3461   7.907   3.995   1.793 -0.1988 -0.4482 -0.6462
    9CHTO  H191 3462   7.862   3.897   1.775  0.2472 -0.5729 -1.1027
    9CHTO  C108 3463   7.877   4.036   1.941 -0.6314 -0.3550 -0.6227
    9CHTO   O71 3464   7.736   4.030   1.966 -0.5786  0.1834 -0.4089
    9CHTO  H171 3465   7.695   4.113   1.979  0.2792  0.6349 -0.5675
    9CHTO   O62 3466   7.798   4.170   1.508 -0.4168  0.1226 -0.6346
    9CHTO   C91 3467   7.707   4.147   1.402  0.4157  0.0383 -0.1816
    9CHTO  H178 3468   7.743   4.063   1.343  1.8391  1.6277 -1.6383
    9CHTO   C92 3469   7.706   4.276   1.309  1.0310  0.5097  0.3641
    9CHTO  H179 3470   7.808   4.302   1.277  0.6500  3.0964  1.1436
    9CHTO   O66 3471   7.643   4.236   1.186 -0.7774 -0.1969  0.6128
    9CHTO  H166 3472   7.590   4.160   1.199 -0.9849  0.0489  1.2148
    9CHTO   C93 3473   7.627   4.402   1.379 -0.0398  0.5919  0.0765
    9CHTO  H180 3474   7.605   4.479   1.305 -1.5543  0.1230  0.0130
    9CHTO   N16 3475   7.716   4.473   1.477  0.6928 -0.5482  0.2301
    9CHTO  H172 3476   7.721   4.423   1.573  0.2665 -0.5211  0.2690
    9CHTO  H173 3477   7.805   4.499   1.422 -0.0963 -1.3685 -1.4841
    9CHTO   C94 3478   7.487   4.348   1.446  0.3568 -0.0645  0.0460
    9CHTO  H181 3479   7.489   4.359   1.554  1.6703  0.8733 -0.0624
    9CHTO   O61 3480   7.452   4.215   1.403 -0.3839 -0.0779 -0.5563
    9CHTO   C95 3481   7.555   4.120   1.454  0.3729  0.0085 -0.1521
    9CHTO  H182 3482   7.555   4.119   1.563  0.1250 -0.4438 -0.1574
    9CHTO  C106 3483   7.516   3.971   1.430  0.0138 -0.6996 -0.5877
    9CHTO   O69 3484   7.435   3.921   1.537 -0.3089  0.2202  0.4709
    9CHTO  H169 3485   7.471   3.841   1.570  2.2271  0.7108 -0.9724
    9CHTO   O63 3486   7.372   4.436   1.404  0.7863 -0.1903  0.4589
    9CHTO   C96 3487   7.260   4.444   1.535 -0.3916  0.4137 -0.2012
    9CHTO  H183 3488   7.324   4.472   1.619 -1.2656  0.4098  0.4701
    9CHTO   C98 3489   7.193   4.308   1.578  0.3928  0.8501 -0.1684
    9CHTO  H185 3490   7.142   4.272   1.487 -0.2811  1.7746 -0.1638
    9CHTO   O67 3491   7.286   4.202   1.616  0.0058 -0.5664 -0.4467
    9CHTO  H167 3492   7.247   4.118   1.614 -1.3494  0.0662 -0.8319
    9CHTO  C102 3493   7.076   4.320   1.694 -0.1713  0.0913  0.4485
    9CHTO  H189 3494   7.117   4.369   1.784 -1.3797  0.5694  0.7427
    9CHTO   N18 3495   7.007   4.196   1.736  0.4658  0.2639  0.2728
    9CHTO  H176 3496   7.062   4.124   1.794 -1.4177 -1.0966  0.4110
    9CHTO  H177 3497   6.951   4.149   1.657  0.3617 -0.9583  1.0727
    9CHTO  C105 3498   6.980   4.421   1.638 -0.8706  0.2478 -0.0264
    9CHTO  H192 3499   6.937   4.379   1.547 -1.9701  0.5118  0.3579
    9CHTO   O65 3500   7.046   4.541   1.603  0.6574 -0.4242 -0.1859
    9CHTO  C100 3501   7.142   4.545   1.501 -0.6329  0.2847  0.6711
    9CHTO  H187 3502   7.092   4.516   1.407  0.6057  1.2704 -0.3058
    9CHTO  C107 3503   7.192   4.687   1.483 -0.1738  0.8318  0.4507
    9CHTO   O70 3504   7.094   4.767   1.419 -0.3384 -0.5459 -0.5000
    9CHTO  H170 3505   7.039   4.786   1.492 -1.3886  3.8727 -2.2619
    9CHTO   O57 3506   6.863   4.451   1.740  0.1034 -0.1842  0.3460
    9CHTO   C85 3507   6.742   4.526   1.714  0.2740 -0.1899  0.4584
    9CHTO  H157 3508   6.707   4.495   1.613  0.2216 -2.4625  1.1668
    9CHTO   C83 3509   6.779   4.675   1.689  0.8396 -0.0495  0.6079
    9CHTO  H155 3510   6.825   4.689   1.591 -2.3563  1.4407 -0.7602
    9CHTO   O56 3511   6.881   4.722   1.780  0.0631  0.1822  0.1752
    9CHTO  H135 3512   6.960   4.745   1.734 -2.1872  3.2676 -2.3322
    9CHTO   C81 3513   6.645   4.759   1.695  0.7396  0.0630  0.3722
    9CHTO  H153 3514   6.577   4.717   1.620  0.2236  3.3368 -1.1073
    9CHTO   N14 3515   6.666   4.897   1.646 -0.2961 -0.2314  0.1733
    9CHTO  H141 3516   6.751   4.893   1.582  0.7537 -0.5447  1.5497
    9CHTO  H142 3517   6.577   4.924   1.594 -1.2305 -1.5116  1.0536
    9CHTO   C79 3518   6.583   4.747   1.830  0.0425 -0.0240  0.5000
    9CHTO  H151 3519   6.500   4.818   1.829 -1.0873 -1.3337  0.2224
    9CHTO   O52 3520   6.528   4.612   1.839  0.1226 -0.4848  0.3186
    9CHTO   C86 3521   6.631   4.507   1.819  0.6981  0.1173 -0.1523
    9CHTO  H158 3522   6.674   4.497   1.921  1.0196 -0.3173 -0.3272
    9CHTO   C90 3523   6.546   4.380   1.797 -0.5621 -0.2006  0.4940
    9CHTO   O60 3524   6.616   4.259   1.769  0.3411  0.1467  0.0054
    9CHTO  H138 3525   6.689   4.260   1.828 -0.5958 -0.1966  1.1683
    9CHTO   O50 3526   6.668   4.790   1.929  0.1489  0.2053  0.3630
    9CHTO   C73 3527   6.679   4.861   2.052 -0.1777 -0.7129  0.2433
    9CHTO  H145 3528   6.591   4.855   2.118 -0.3652 -0.8406 -0.0199
    9CHTO   C74 3529   6.685   5.011   2.023 -1.0017  0.3932 -0.4704
    9CHTO  H146 3530   6.595   5.042   1.968 -1.6813  0.2077  0.5351
    9CHTO   O54 3531   6.681   5.085   2.149  0.3258  0.4418 -0.7301
    9CHTO  H133 3532   6.762   5.130   2.167  0.7536 -0.5885  0.0093
    9CHTO   C75 3533   6.825   5.045   1.944  0.6019  0.7050  0.6434
    9CHTO  H147 3534   6.827   4.984   1.852  0.9289  1.3585  0.2054
    9CHTO   N13 3535   6.843   5.188   1.906  0.0135  0.1016  0.4210
    9CHTO  H139 3536   6.809   5.253   1.985 -0.6143  2.0055 -1.3977
    9CHTO  H140 3537   6.951   5.193   1.904 -0.0402  1.3940  0.7137
    9CHTO   C76 3538   6.947   4.991   2.027  0.2882 -0.4105  0.8274
    9CHTO  H148 3539   6.946   5.054   2.116 -1.9006  0.5284  0.1664
    9CHTO   O49 3540   6.930   4.851   2.062 -0.3508  0.1568  0.1290
    9CHTO   C77 3541   6.807   4.823   2.131 -0.0955 -0.0359  0.5500
    9CHTO  H149 3542   6.816   4.881   2.222 -4.9968  0.2462  0.9720
    9CHTO   C88 3543   6.836   4.682   2.184 -0.0193  0.0239  0.4745
    9CHTO   O58 3544   6.853   4.571   2.062 -0.4278  0.0321 -0.0510
    9CHTO  H136 3545   6.835   4.487   2.099 -0.8693  0.2678  0.2716
    9CHTO   O51 3546   7.089   5.003   1.945  0.1818  0.6168 -0.5094
    9CHTO   C78 3547   7.214   4.976   2.039 -0.3817 -0.1003  0.0618
    9CHTO  H150 3548   7.184   4.947   2.142 -0.6824 -1.5258 -0.4146
    9CHTO   C80 3549   7.285   5.111   2.041 -0.1908  0.7444 -0.0203
    9CHTO  H152 3550   7.297   5.147   1.937 -1.5273 -0.2252 -0.5239
    9CHTO   O55 3551   7.198   5.191   2.121 -0.3981 -0.2875  0.1908
    9CHTO  H134 3552   7.232   5.278   2.134 -1.8180  0.4779 -1.0124
    9CHTO   C84 3553   7.430   5.099   2.105  0.2469 -0.0282 -0.2375
    9CHTO  H156 3554   7.394   5.067   2.203  1.0182  0.8267  0.3203
    9CHTO   N15 3555   7.502   5.232   2.112 -0.3893 -0.1254 -0.2954
    9CHTO  H143 3556   7.430   5.311   2.108  0.6380  0.8082 -0.7002
    9CHTO  H144 3557   7.556   5.238   2.205  1.1374 -1.2581 -1.0837
    9CHTO   C87 3558   7.507   4.976   2.046 -0.4048 -0.1796 -0.1935
    9CHTO  H159 3559   7.546   5.005   1.949  1.0384 -1.4465 -0.0141
    9CHTO   O53 3560   7.421   4.860   2.050  0.4583  0.0186  0.3969
    9CHTO   C82 3561   7.297   4.868   1.974 -0.1281  0.6270 -0.2763
    9CHTO  H154 3562   7.313   4.890   1.868  0.2506 -2.1595 -0.8400
    9CHTO   C89 3563   7.219   4.739   1.978 -0.8053  0.5999  0.1715
    9CHTO   O59 3564   7.202   4.695   2.111  0.1942  0.2129 -0.2783
    9CHTO  H137 3565   7.252   4.618   2.130  3.4853  1.7608 -2.2239
    9CHTO   O45 3566   7.636   4.952   2.124 -0.1914  0.0202  0.0765
    9CHTO   C67 3567   7.702   4.828   2.095  0.2540  0.4090  0.1180
    9CHTO  H124 3568   7.632   4.747   2.120  0.7415 -0.2471 -0.6295
    9CHTO   C65 3569   7.764   4.807   1.953 -0.0692  0.3860  0.4082
    9CHTO  H122 3570   7.780   4.911   1.923 -1.7814  1.2090  2.2650
    9CHTO   O44 3571   7.654   4.747   1.877 -0.4102  0.5477 -0.4945
    9CHTO  H102 3572   7.681   4.714   1.794  1.0337 -1.2562  0.6269
    9CHTO   C63 3573   7.897   4.734   1.951  0.3585 -0.1930  0.6338
    9CHTO  H120 3574   7.975   4.807   1.973 -2.0748  2.1965  1.6735
    9CHTO   N11 3575   7.946   4.692   1.821 -0.0983 -0.1561  0.2073
    9CHTO  H108 3576   8.052   4.705   1.833 -0.0640  3.4820 -2.9389
    9CHTO  H109 3577   7.912   4.598   1.783  0.2328 -0.2704  0.1848
    9CHTO   C61 3578   7.895   4.621   2.060 -1.1474 -0.3328 -0.3261
    9CHTO  H118 3579   7.997   4.580   2.057 -1.6749 -1.5290 -2.4681
    9CHTO   O40 3580   7.877   4.682   2.193 -0.5331  0.0644 -0.9189
    9CHTO   C68 3581   7.816   4.812   2.207  0.4994  0.2438 -0.1598
    9CHTO  H125 3582   7.880   4.901   2.189 -0.5684  1.3591  1.3857
    9CHTO   C72 3583   7.755   4.831   2.349 -0.3348  0.3258 -0.0561
    9CHTO   O48 3584   7.845   4.847   2.461  0.2708 -0.0867 -0.2364
    9CHTO  H105 3585   7.805   4.829   2.544 -1.5274 -0.7756 -1.2143
    9CHTO   O38 3586   7.796   4.515   2.036 -0.9128  0.7515  0.1599
    9CHTO   C55 3587   7.705   4.436   2.114  0.2408 -0.0438  0.5538
    9CHTO  H112 3588   7.647   4.519   2.158 -2.0421 -0.5633 -1.3708
    9CHTO   C56 3589   7.776   4.338   2.215 -0.3180  0.8130 -0.1548
    9CHTO  H113 3590   7.833   4.264   2.157  1.5290  0.4780  1.9823
    9CHTO   O42 3591   7.875   4.413   2.297 -0.6325 -0.0982 -0.1699
    9CHTO  H100 3592   7.962   4.403   2.265 -0.6916  2.9480 -1.4096
    9CHTO   C57 3593   7.663   4.269   2.304  0.7265  0.1220  0.3500
    9CHTO  H114 3594   7.614   4.355   2.348 -0.4723 -1.5011  2.2878
    9CHTO   N10 3595   7.703   4.187   2.420  0.2183 -0.0352  0.2929
    9CHTO  H106 3596   7.698   4.250   2.508 -1.0901 -2.2962  1.8739
    9CHTO  H107 3597   7.639   4.104   2.444  1.1480 -1.0044 -0.5465
    9CHTO   C58 3598   7.568   4.189   2.206 -0.4773 -0.3898 -0.7926
    9CHTO  H115 3599   7.628   4.105   2.165  2.1351 -0.7294  3.3780
    9CHTO   O37 3600   7.519   4.274   2.104 -0.6034  0.4113  0.2380
    9CHTO   C59 3601   7.601   4.362   2.025  0.6770  0.0925  0.4737
    9CHTO  H116 3602   7.653   4.297   1.956 -2.4129 -1.6745 -0.3077
    9CHTO   C70 3603   7.506   4.470   1.957  0.2590  0.5378  0.1285
    9CHTO   O46 3604   7.412   4.408   1.868 -0.0684 -0.4312 -0.2012
    9CHTO  H103 3605   7.451   4.394   1.785  0.4243 -0.6351  0.0644
    9CHTO   O39 3606   7.435   4.137   2.270  0.2959 -0.8655 -0.1092
    9CHTO   C60 3607   7.422   3.998   2.277 -0.0773  0.7525 -0.1876
    9CHTO  H117 3608   7.515   3.949   2.248 -0.5914 -0.3215 -0.0506
    9CHTO   C62 3609   7.384   3.955   2.430 -0.3609  0.0518  0.1833
    9CHTO  H119 3610   7.463   4.000   2.493  1.1960 -0.4208 -1.3826
    9CHTO   O43 3611   7.262   4.023   2.465 -0.2704  0.1232  0.4150
    9CHTO  H101 3612   7.200   3.986   2.405  0.5985  0.1859 -0.5404
    9CHTO   C66 3613   7.379   3.789   2.451 -0.1226 -0.3314  0.0127
    9CHTO  H123 3614   7.474   3.749   2.415 -0.8989 -2.4166  0.2292
    9CHTO   N12 3615   7.365   3.754   2.598  0.1077 -0.3029  0.0611
    9CHTO  H110 3616   7.436   3.679   2.630  1.1224  0.8176  0.4343
    9CHTO  H111 3617   7.263   3.739   2.632  0.3528  1.3381  1.5341
    9CHTO   C69 3618   7.266   3.741   2.367 -0.7759 -0.1451  0.8326
    9CHTO  H126 3619   7.172   3.793   2.396 -1.3089 -0.4464 -0.3425
    9CHTO   O41 3620   7.307   3.782   2.204 -0.5407  0.8356 -0.4230
    9CHTO   C64 3621   7.319   3.932   2.177  0.1287 -0.8659  0.5131
    9CHTO  H121 3622   7.221   3.979   2.201  0.7493  0.5463  0.3439
    9CHTO   C71 3623   7.360   3.952   2.031 -0.4373  0.3052  0.3019
    9CHTO   O47 3624   7.277   3.899   1.939  0.6912  0.0331 -0.6662
    9CHTO  H104 3625   7.325   3.840   1.884 -0.1557 -1.9157  0.6240
    9CHTO   O34 3626   7.233   3.581   2.397 -0.3042 -0.2151 -0.4281
    9CHTO   C49 3627   7.200   3.434   2.346  0.3030  0.5629  0.7431
    9CHTO   H91 3628   7.106   3.446   2.292 -0.3355 -3.4568  0.7664
    9CHTO   C47 3629   7.177   3.333   2.458  0.1071  0.2330 -0.7938
    9CHTO   H89 3630   7.163   3.235   2.408 -0.7827 -0.1296  0.1480
    9CHTO   O33 3631   7.056   3.361   2.537 -0.2271  0.4594  0.0476
    9CHTO   H70 3632   7.034   3.275   2.568 -3.3459  1.2316  0.1376
    9CHTO   C45 3633   7.316   3.317   2.551 -0.1535 -0.2562  0.6700
    9CHTO   H87 3634   7.325   3.398   2.625  1.3357 -1.3870  1.7519
    9CHTO    N8 3635   7.311   3.189   2.628 -0.1792  0.4682 -0.2396
    9CHTO   H75 3636   7.405   3.176   2.679 -0.2387 -0.6849 -0.4264
    9CHTO   H76 3637   7.238   3.197   2.707  0.6745  0.4677  0.5627
    9CHTO   C43 3638   7.447   3.345   2.451 -0.0496 -0.5910 -1.1366
    9CHTO   H85 3639   7.463   3.452   2.456 -0.2083 -0.5802 -0.8365
    9CHTO   O29 3640   7.427   3.300   2.320  0.5480  0.1108  0.3349
    9CHTO   C50 3641   7.314   3.376   2.263  0.0367 -0.3814 -0.2240
    9CHTO   H92 3642   7.350   3.467   2.212 -2.0105  0.9333  0.6235
    9CHTO   C54 3643   7.254   3.290   2.147  0.0614  0.3949 -0.8010
    9CHTO   O36 3644   7.235   3.154   2.184 -0.4350 -0.0551 -0.3060
    9CHTO   H72 3645   7.145   3.148   2.211 -0.6223 -1.5163 -1.2074
    9CHTO   O27 3646   7.572   3.307   2.514  0.1290  0.6768 -0.3592
    9CHTO   C37 3647   7.690   3.380   2.567 -0.4484 -0.6182 -0.1345
    9CHTO   H79 3648   7.773   3.310   2.588 -0.0668  0.5272  2.3116
    9CHTO   C38 3649   7.750   3.477   2.456  0.1209 -0.2757 -0.8721
    9CHTO   H80 3650   7.663   3.525   2.409 -2.6922 -1.5866  2.7927
    9CHTO   O31 3651   7.818   3.386   2.364  1.0848  0.3031 -0.1650
    9CHTO   H68 3652   7.872   3.432   2.303  0.3164  0.3605 -0.8058
    9CHTO   C39 3653   7.850   3.585   2.520  0.3062 -0.2067  0.4226
    9CHTO   H81 3654   7.938   3.529   2.548  0.3353 -1.1321 -1.4579
    9CHTO    N7 3655   7.884   3.688   2.419  0.1021  0.2197 -0.3961
    9CHTO   H73 3656   7.785   3.715   2.383 -0.1181  0.4712  0.3848
    9CHTO   H74 3657   7.932   3.774   2.463  1.2844 -1.0631  0.8519
    9CHTO   C40 3658   7.783   3.648   2.653  0.2095 -0.2894  0.2958
    9CHTO   H82 3659   7.694   3.704   2.624 -2.1205 -4.2031 -0.3960
    9CHTO   O26 3660   7.750   3.540   2.743 -0.0159 -0.3131  0.0867
    9CHTO   C41 3661   7.654   3.448   2.703  0.0247  0.4155  0.1897
    9CHTO   H83 3662   7.560   3.502   2.685 -0.5283 -0.7920 -0.6587
    9CHTO   C52 3663   7.624   3.351   2.829  0.4408 -0.7893 -0.1003
    9CHTO   O35 3664   7.738   3.292   2.878  0.6138  0.4151 -0.3961
    9CHTO   H71 3665   7.713   3.210   2.916  0.3546  0.1592 -1.1172
    9CHTO   O28 3666   7.880   3.727   2.724 -0.5423 -0.2440  0.2641
    9CHTO   C42 3667   7.848   3.833   2.822 -0.0362  0.2186  0.1943
    9CHTO   H84 3668   7.930   3.832   2.894  0.0307  0.7378  0.1297
    9CHTO   C44 3669   7.716   3.803   2.897  0.1115 -0.2171 -0.1310
    9CHTO   H86 3670   7.643   3.769   2.824 -1.2989  0.2218  1.0443
    9CHTO   O32 3671   7.739   3.688   2.985 -0.6590 -0.3317 -0.4003
    9CHTO   H69 3672   7.658   3.655   3.021 -0.1917  0.9632  1.9943
    9CHTO   C48 3673   7.648   3.920   2.978  0.4655  0.1858  0.2268
    9CHTO   H90 3674   7.712   3.936   3.065  0.2896  2.4559 -0.0296
    9CHTO    N9 3675   7.516   3.876   3.027 -0.0663  0.5827  0.4762
    9CHTO   H77 3676   7.435   3.861   2.957  0.8694  0.9493 -0.6994
    9CHTO   H78 3677   7.530   3.794   3.095  0.4158  0.6054  0.4089
    9CHTO   C51 3678   7.652   4.051   2.895  0.2337  0.1241  0.1611
    9CHTO   H93 3679   7.590   4.040   2.806  0.0872 -0.3275  0.3208
    9CHTO   O30 3680   7.791   4.073   2.862  0.4003 -0.1086  0.2873
    9CHTO   C46 3681   7.840   3.980   2.753  0.1144 -0.4013 -0.1491
    9CHTO   H88 3682   7.764   3.978   2.675 -0.4913 -1.4810  0.4444
    9CHTO   C53 3683   7.976   4.041   2.708  0.2315  0.1865 -0.1742
    9CHTO   O72 3684   8.080   4.032   2.803  0.1439  0.0151  0.7635
    9CHTO  H199 3685   8.159   4.023   2.753 -0.7488  0.3289 -0.7454
    9CHTO   O22 3686   7.601   4.171   2.959  0.0444 -0.2682 -0.2676
    9CHTO   C31 3687   7.521   4.275   2.886 -1.0412 -0.4425  0.0786
    9CHTO   H59 3688   7.481   4.337   2.969 -0.5472 -1.1766  0.8712
    9CHTO   C29 3689   7.605   4.359   2.787  0.7423 -0.1281 -0.1129
    9CHTO   H57 3690   7.646   4.283   2.718  0.3257 -0.5285  0.0827
    9CHTO   O21 3691   7.712   4.419   2.863 -0.3812 -0.2761 -0.0247
    9CHTO   H37 3692   7.783   4.360   2.881  3.0054  4.3068  2.7754
    9CHTO   C27 3693   7.530   4.469   2.705 -0.2869 -0.8053 -0.6661
    9CHTO   H55 3694   7.502   4.548   2.777  1.1229  0.1316 -1.1359
    9CHTO    N5 3695   7.617   4.528   2.602  0.0571 -0.1389  0.0155
    9CHTO   H43 3696   7.723   4.530   2.622  0.3342 -0.6721 -1.3613
    9CHTO   H44 3697   7.577   4.626   2.582 -0.4428 -0.6485 -1.5051
    9CHTO   C25 3698   7.395   4.402   2.652 -0.1572  0.3216 -0.7187
    9CHTO   H53 3699   7.407   4.325   2.574  0.8192  0.2793 -0.5330
    9CHTO   O17 3700   7.325   4.341   2.763  0.1174 -0.2585  0.4531
    9CHTO   C32 3701   7.393   4.225   2.811  0.0199 -0.0585  0.2855
    9CHTO   H60 3702   7.424   4.167   2.724 -0.1519  0.2276  0.0339
    9CHTO   C36 3703   7.301   4.139   2.901  0.6737  0.0877 -0.9062
    9CHTO   O25 3704   7.226   4.050   2.824  0.3477 -0.1449 -0.0928
    9CHTO   H40 3705   7.279   3.973   2.818 -0.3881 -0.7462  0.9469
    9CHTO   O15 3706   7.305   4.501   2.589 -0.0070  0.2167  0.5816
    9CHTO   C19 3707   7.201   4.468   2.493 -0.1824 -0.4777  0.5856
    9CHTO   H47 3708   7.184   4.571   2.456  0.0381 -0.5235  0.3607
    9CHTO   C20 3709   7.248   4.378   2.375  0.1231 -0.0313 -0.2336
    9CHTO   H48 3710   7.280   4.280   2.413 -0.7640  0.3285  1.5140
    9CHTO   O19 3711   7.357   4.444   2.314 -0.5559  0.2524  0.4444
    9CHTO   H35 3712   7.405   4.484   2.384 -0.0588 -0.7899  0.7113
    9CHTO   C21 3713   7.129   4.359   2.269 -0.3615  1.3727  0.2858
    9CHTO   H49 3714   7.108   4.455   2.221 -0.2669  0.9876 -0.5294
    9CHTO    N4 3715   7.173   4.269   2.154  0.1348  0.7200  0.1339
    9CHTO   H41 3716   7.225   4.185   2.199 -0.9562  1.2678  2.5200
    9CHTO   H42 3717   7.082   4.243   2.101  1.1542 -0.7383 -0.9458
    9CHTO   C22 3718   7.002   4.307   2.336 -0.1464 -0.2170  0.3774
    9CHTO   H50 3719   7.011   4.207   2.378  1.1902  0.3794  1.5419
    9CHTO   O14 3720   6.963   4.402   2.441 -0.0821 -0.4964 -0.3370
    9CHTO   C23 3721   7.062   4.415   2.549 -0.8923  0.4785  0.0446
    9CHTO   H51 3722   7.073   4.320   2.603 -1.7601  0.1311 -0.3691
    9CHTO   C34 3723   7.004   4.515   2.650  0.0807 -0.0098 -0.0625
    9CHTO   O23 3724   7.091   4.565   2.750 -0.4657  0.9665  0.1343
    9CHTO   H38 3725   7.132   4.634   2.701  3.6632 -0.6298  1.0878
    9CHTO   O16 3726   6.894   4.316   2.239 -0.0859  1.0659  0.2304
    9CHTO   C24 3727   6.775   4.208   2.252 -0.3036  0.1599 -0.3173
    9CHTO   H52 3728   6.751   4.190   2.357  1.0395  2.0016  0.3229
    9CHTO   C26 3729   6.821   4.073   2.189 -0.0828 -0.1276 -0.4205
    9CHTO   H54 3730   6.861   4.092   2.087 -0.6678 -2.1490 -1.0499
    9CHTO   O20 3731   6.921   3.993   2.272  0.7375 -0.6421 -0.1384
    9CHTO   H36 3732   6.962   4.034   2.345  2.9131 -0.1851 -1.5482
    9CHTO   C30 3733   6.701   3.975   2.159  0.4389  0.5923  0.1962
    9CHTO   H58 3734   6.674   3.920   2.250 -1.9047 -0.7143 -1.2409
    9CHTO    N6 3735   6.731   3.871   2.055 -0.4387 -0.0583 -0.2669
    9CHTO   H45 3736   6.771   3.792   2.117 -2.0657 -1.8156 -1.4224
    9CHTO   H46 3737   6.653   3.834   1.991 -0.4672 -1.5546  0.5997
    9CHTO   C33 3738   6.574   4.055   2.110  0.5740 -0.2742  0.5124
    9CHTO   H61 3739   6.597   4.096   2.010  3.4274  0.6581  1.4841
    9CHTO   O18 3740   6.546   4.163   2.194 -0.3702  0.3935  0.2845
    9CHTO   C28 3741   6.644   4.267   2.186  0.6378  1.0014  0.7706
    9CHTO   H56 3742   6.671   4.292   2.083 -1.4286  0.6155  0.1257
    9CHTO   C35 3743   6.602   4.397   2.254  0.3333  0.0633 -1.2870
    9CHTO   O24 3744   6.489   4.457   2.194  0.1821  0.3245 -0.1920
    9CHTO   H39 3745   6.470   4.539   2.236  1.7757 -0.5115  2.2773
    9CHTO    O9 3746   6.460   3.974   2.094  0.0119 -0.4625 -0.1854
    9CHTO   C13 3747   6.351   4.040   1.975 -0.3693 -0.8069 -0.1984
    9CHTO   H26 3748   6.403   4.039   1.877 -1.8010  2.5126 -1.0809
    9CHTO   C11 3749   6.296   4.184   2.013  0.2808 -0.2561 -0.3990
    9CHTO   H24 3750   6.376   4.260   2.010  0.2100 -0.1224  0.8768
    9CHTO    O8 3751   6.261   4.192   2.157  0.6110  0.2077  0.1918
    9CHTO    H3 3752   6.328   4.216   2.219  0.2145  3.1916 -0.4311
    9CHTO    C9 3753   6.169   4.217   1.928 -0.4661  0.6148 -0.2761
    9CHTO   H22 3754   6.191   4.173   1.830  0.2550 -1.0085  0.5829
    9CHTO    N2 3755   6.141   4.364   1.910  0.3038  0.0575 -0.1315
    9CHTO   H10 3756   6.225   4.430   1.892  0.4736 -0.3047 -0.6849
    9CHTO   H11 3757   6.056   4.388   1.848 -0.7723 -0.2073  1.2340
    9CHTO    C7 3758   6.057   4.116   1.974  0.3157 -0.4990 -0.3346
    9CHTO   H20 3759   6.007   4.103   1.876  0.3568 -2.2307 -0.1331
    9CHTO    O4 3760   6.106   3.989   2.016 -0.5345 -0.1580 -0.0691
    9CHTO   C14 3761   6.227   3.946   1.951 -0.4744 -0.2431  0.0814
    9CHTO   H27 3762   6.207   3.935   1.843 -3.0898 -1.1327  0.6365
    9CHTO   C18 3763   6.238   3.801   2.008  0.0080  0.6175  0.5508
    9CHTO   O13 3764   6.348   3.740   1.946 -0.3716  0.1438 -0.6204
    9CHTO    H7 3765   6.324   3.651   1.927 -0.6038 -0.0549  0.5446
    9CHTO    O2 3766   5.975   4.186   2.093  0.0407 -0.5601  0.3812
    9CHTO    C1 3767   5.872   4.104   2.140 -0.0187 -0.5477  0.2958
    9CHTO   H14 3768   5.907   3.999   2.142  1.6462 -0.0246 -0.8450
    9CHTO    C2 3769   5.738   4.108   2.057  0.5437  0.1308  0.0269
    9CHTO   H15 3770   5.713   4.214   2.045 -0.4614  0.0704  1.4587
    9CHTO    O6 3771   5.764   4.040   1.938  0.1677  0.2751  0.0780
    9CHTO    H1 3772   5.714   4.084   1.871 -0.2666  0.6309  0.6378
    9CHTO    C3 3773   5.610   4.056   2.142 -0.5624 -0.3312  0.4152
    9CHTO   H16 3774   5.601   3.947   2.140  3.0590 -0.7049 -2.8485
    9CHTO    N1 3775   5.486   4.087   2.070  0.3651 -0.2721  0.0232
    9CHTO    H8 3776   5.470   4.194   2.063 -0.2631 -0.4347 -1.1514
    9CHTO    H9 3777   5.496   4.042   1.972  0.6960 -0.9628  0.3690
    9CHTO    C4 3778   5.609   4.100   2.294  0.4039  0.3847  0.2363
    9CHTO   H17 3779   5.576   4.203   2.302 -2.0317 -0.2837 -0.7441
    9CHTO    O1 3780   5.737   4.079   2.356 -0.2856 -0.4532  0.0596
    9CHTO    C5 3781   5.846   4.144   2.293 -0.0403 -0.7001 -0.2524
    9CHTO   H18 3782   5.840   4.251   2.310 -1.7331 -0.7947 -0.0923
    9CHTO   C16 3783   5.968   4.091   2.370 -0.0054  0.1932 -0.3379
    9CHTO   O11 3784   5.984   4.159   2.494 -0.1654 -0.1198 -0.4010
    9CHTO    H5 3785   6.066   4.134   2.533  0.2277  2.5362  0.5573
    9CHTO    O3 3786   5.524   4.010   2.369  0.3782  0.5489  0.2841
    9CHTO    C6 3787   5.471   4.049   2.500 -0.3921  0.0466  0.5188
    9CHTO   H19 3788   5.541   4.115   2.551 -0.8412  0.7320  0.2562
    9CHTO    C8 3789   5.331   4.113   2.481  0.6096 -0.4934  0.5513
    9CHTO   H21 3790   5.268   4.054   2.415  0.6289  0.5210 -0.4014
    9CHTO    O7 3791   5.345   4.240   2.411 -0.5873  0.6339  0.7019
    9CHTO    H2 3792   5.425   4.246   2.364 -0.3009 -0.8677  0.9573
    9CHTO   C12 3793   5.263   4.149   2.620 -0.4929 -0.4082  0.0894
    9CHTO   H25 3794   5.323   4.233   2.660  2.4314 -1.5716 -1.6617
    9CHTO    N3 3795   5.128   4.212   2.613 -0.1297 -0.6052 -0.1726
    9CHTO   H12 3796   5.055   4.135   2.632  0.0737 -1.2435 -1.9115
    9CHTO   H13 3797   5.113   4.242   2.510  0.8862  2.6892  0.5927
    9CHTO   C15 3798   5.274   4.024   2.721  0.0301 -0.8750  0.0920
    9CHTO   H28 3799   5.196   3.949   2.705  0.6791 -1.4665 -0.3934
    9CHTO   O10 3800   5.260   4.066   2.859 -0.1747  0.9502 -0.3783
    9CHTO    H4 3801   5.208   3.999   2.899  2.4528 -1.8748 -1.4506
    9CHTO    O5 3802   5.411   3.968   2.724 -0.3359 -0.1394  0.0514
    9CHTO   C10 3803   5.452   3.929   2.589 -0.0892 -0.2012  0.2501
    9CHTO   H23 3804   5.389   3.865   2.528  2.1313 -0.7281 -1.5455
    9CHTO   C17 3805   5.579   3.843   2.603 -0.0905 -0.1684 -0.2570
    9CHTO   O12 3806   5.686   3.923   2.666 -0.1476 -0.3545 -0.1286
    9CHTO    H6 3807   5.762   3.912   2.611 -1.3288  0.9508 -2.0928
   10CHTO  H203 3808   5.421   6.622  -0.698 -0.5837  1.1601 -0.3281
   10CHTO   O82 3809   5.388   6.593  -0.781  0.1766  0.5181 -0.4134
   10CHTO  C123 3810   5.264   6.653  -0.825 -0.2763 -0.1376  0.4069
   10CHTO  H227 3811   5.257   6.647  -0.935  0.2136 -1.0449  0.4233
   10CHTO   O77 3812   5.154   6.569  -0.761 -0.3274 -0.0365 -0.0385
   10CHTO  C118 3813   5.017   6.606  -0.797  0.2884 -0.5601 -0.5823
   10CHTO  H222 3814   5.009   6.625  -0.905  1.2989  1.1229 -0.3821
   10CHTO  C125 3815   4.910   6.503  -0.758  0.4084 -0.0730  0.0403
   10CHTO   O84 3816   4.937   6.376  -0.812 -0.3434 -0.3612 -0.1362
   10CHTO  H205 3817   4.936   6.305  -0.751  0.7274 -0.4893 -0.2591
   10CHTO  C114 3818   5.000   6.738  -0.725 -0.3201 -0.3906 -0.0786
   10CHTO  H218 3819   5.036   6.734  -0.622  1.0941  0.9667 -0.5028
   10CHTO  C116 3820   5.091   6.843  -0.801 -0.7786 -0.4090 -0.2774
   10CHTO  H220 3821   5.074   6.834  -0.910  2.8952  0.2290 -0.9654
   10CHTO   O79 3822   5.060   6.975  -0.757 -0.1426  0.2955  0.0803
   10CHTO  H201 3823   5.052   7.031  -0.831 -1.5099 -0.8882 -0.6890
   10CHTO  C120 3824   5.241   6.802  -0.778 -0.0220  0.0078  0.4460
   10CHTO  H224 3825   5.258   6.810  -0.668  1.3889 -0.2144  0.2550
   10CHTO   N21 3826   5.343   6.888  -0.844 -0.3631  0.0727  0.1958
   10CHTO  H211 3827   5.358   6.863  -0.948  0.6289 -2.8623  0.9944
   10CHTO  H212 3828   5.438   6.894  -0.793  1.1059 -0.2224 -2.4755
   10CHTO   O75 3829   4.862   6.769  -0.725  0.3485  0.5606 -0.3067
   10CHTO  C112 3830   4.801   6.822  -0.578 -0.6127  0.3279  0.0005
   10CHTO  H216 3831   4.881   6.869  -0.518  0.3615 -0.4376 -0.6902
   10CHTO   O73 3832   4.745   6.703  -0.513 -0.5572  0.9173  0.5028
   10CHTO  C113 3833   4.695   6.722  -0.382  0.0751 -1.0856 -0.3348
   10CHTO  H217 3834   4.781   6.751  -0.318 -0.5924 -1.6691  0.8412
   10CHTO  C124 3835   4.655   6.582  -0.337 -0.8865 -0.4943  0.6538
   10CHTO   O83 3836   4.663   6.580  -0.195  0.3187  0.3421  0.0245
   10CHTO  H204 3837   4.573   6.571  -0.172 -0.6637  0.4637 -3.4761
   10CHTO  C109 3838   4.587   6.831  -0.388 -0.1495  0.4605 -0.1869
   10CHTO  H213 3839   4.502   6.791  -0.446 -1.1466  4.4114 -1.5830
   10CHTO  C110 3840   4.623   6.962  -0.462  0.2216 -0.2024 -0.8227
   10CHTO  H214 3841   4.698   7.013  -0.401 -0.2187  1.3945 -1.5626
   10CHTO   O78 3842   4.508   7.051  -0.483  0.5070  0.1540  0.0551
   10CHTO  H200 3843   4.521   7.142  -0.500 -1.6786  0.6544  0.9285
   10CHTO  C111 3844   4.691   6.930  -0.602  0.6550  0.0551 -0.6029
   10CHTO  H215 3845   4.616   6.885  -0.668  0.7300 -0.8864 -0.0494
   10CHTO   N19 3846   4.740   7.058  -0.668  0.0497 -0.5079 -0.2513
   10CHTO  H207 3847   4.680   7.141  -0.633 -0.8662 -1.4620  0.4458
   10CHTO  H208 3848   4.844   7.077  -0.645  0.1512  0.1891 -1.2374
   10CHTO   O74 3849   4.544   6.867  -0.244 -0.6670  0.3217  0.2175
   10CHTO  C115 3850   4.390   6.822  -0.207 -0.1842  0.2970 -0.3523
   10CHTO  H219 3851   4.320   6.851  -0.286  0.0739  1.8333 -0.0311
   10CHTO   O76 3852   4.379   6.664  -0.201 -0.1562 -0.0314  0.7500
   10CHTO  C122 3853   4.259   6.608  -0.137 -0.4038  0.5314  0.1136
   10CHTO  H226 3854   4.279   6.503  -0.120 -1.4535  0.1345 -0.9800
   10CHTO  C126 3855   4.134   6.611  -0.243 -0.6231  0.0500 -0.3998
   10CHTO   O85 3856   4.018   6.563  -0.180 -0.0948 -0.5513 -0.0130
   10CHTO  H206 3857   4.016   6.472  -0.204  1.0383 -0.7348  0.5398
   10CHTO  C121 3858   4.232   6.673  -0.003  0.6367 -0.3059 -0.0479
   10CHTO  H225 3859   4.144   6.627   0.047 -1.0172  0.3003 -2.3051
   10CHTO   O81 3860   4.340   6.635   0.083 -0.5602 -0.5257 -0.2610
   10CHTO  H202 3861   4.406   6.701   0.075  2.0413 -2.9845  0.1519
   10CHTO  C119 3862   4.216   6.824  -0.023  0.2170  0.1028  0.6181
   10CHTO  H223 3863   4.140   6.838  -0.100  1.1225 -1.3569 -0.5556
   10CHTO  C117 3864   4.351   6.891  -0.072 -0.4261  0.8312  0.3712
   10CHTO  H221 3865   4.435   6.885  -0.003  0.1618  0.7630 -0.3475
   10CHTO   N20 3866   4.332   7.034  -0.115 -0.1190  0.1415 -0.1171
   10CHTO  H209 3867   4.366   7.106  -0.042 -2.1944  0.3382  0.6882
   10CHTO  H210 3868   4.227   7.054  -0.131  0.0970 -0.4884 -2.5250
   10CHTO   O80 3869   4.163   6.892   0.087 -0.1297 -0.4312  0.0314
   10CHTO  C103 3870   4.014   6.963   0.076  0.8659  0.2882 -0.0057
   10CHTO  H190 3871   4.020   7.042   0.001  3.8971 -0.8584 -1.0773
   10CHTO  C101 3872   3.880   6.880   0.063 -0.1346  0.3871 -0.7047
   10CHTO  H188 3873   3.882   6.784   0.114  1.0531 -0.0276 -1.5002
   10CHTO   O68 3874   3.858   6.824  -0.101  0.2843 -0.0070  0.1013
   10CHTO  H168 3875   3.788   6.762  -0.105  2.9965 -3.1744  0.1974
   10CHTO   C99 3876   3.759   6.981   0.107 -0.3927 -0.0758  0.0894
   10CHTO  H186 3877   3.768   7.075   0.049  1.1428  1.1700  2.2787
   10CHTO   N17 3878   3.625   6.913   0.082  0.8070  0.1458 -0.0082
   10CHTO  H174 3879   3.606   6.869  -0.015 -0.7750 -0.4367  0.5445
   10CHTO  H175 3880   3.580   6.852   0.158 -1.4022  1.5371 -0.1465
   10CHTO   C97 3881   3.783   7.018   0.257 -0.9848  0.1572 -0.0258
   10CHTO  H184 3882   3.794   6.920   0.305  0.0880 -0.4909 -1.5231
   10CHTO   O64 3883   3.900   7.094   0.259  0.5594 -0.1784  0.1133
   10CHTO  C104 3884   4.021   7.027   0.218 -0.0378  0.0762  0.2058
   10CHTO  H191 3885   4.049   6.961   0.300 -0.9282 -0.7117 -0.1219
   10CHTO  C108 3886   4.131   7.135   0.221 -0.3450  0.3103  0.2496
   10CHTO   O71 3887   4.089   7.234   0.124 -0.0038  0.5095 -0.1474
   10CHTO  H171 3888   4.121   7.319   0.147 -2.2251  1.2894  0.1989
   10CHTO   O62 3889   3.698   7.117   0.323 -0.7116 -0.1540  0.5496
   10CHTO   C91 3890   3.617   7.051   0.426 -0.5107 -0.6150 -0.4766
   10CHTO  H178 3891   3.594   6.951   0.390  0.6683 -0.7039 -1.0312
   10CHTO   C92 3892   3.478   7.117   0.453  0.0849  0.4256 -0.1473
   10CHTO  H179 3893   3.471   7.223   0.479 -3.9579 -0.0438  1.0541
   10CHTO   O66 3894   3.417   7.109   0.320 -0.5183  0.6762  0.1572
   10CHTO  H166 3895   3.467   7.143   0.247  1.0540  0.6039  1.1688
   10CHTO   C93 3896   3.395   7.038   0.560 -0.2412  0.4241 -0.1959
   10CHTO  H180 3897   3.375   6.938   0.519  0.6965  0.4379 -0.6916
   10CHTO   N16 3898   3.266   7.096   0.597  0.2857 -1.0097  0.8300
   10CHTO  H172 3899   3.192   7.088   0.518  0.4257  1.5109  0.4169
   10CHTO  H173 3900   3.278   7.200   0.624  0.0696 -0.6047 -0.5661
   10CHTO   C94 3901   3.480   7.008   0.690  0.5472  1.0802 -0.1835
   10CHTO  H181 3902   3.513   7.098   0.742  1.5628  0.6094 -0.0133
   10CHTO   O61 3903   3.607   6.949   0.651 -0.3758  0.4592  0.2912
   10CHTO   C95 3904   3.685   7.036   0.567  0.6517 -0.1933  0.0329
   10CHTO  H182 3905   3.684   7.133   0.616 -0.8828 -0.6495  0.9399
   10CHTO  C106 3906   3.839   6.990   0.576  0.3450  0.4057 -0.0887
   10CHTO   O69 3907   3.876   7.007   0.712  0.2593  0.5870  0.1210
   10CHTO  H169 3908   3.821   6.954   0.766 -1.4653  0.5419 -1.6307
   10CHTO   O63 3909   3.414   6.903   0.784  0.1618  0.0581 -0.3303
   10CHTO   C96 3910   3.501   6.859   0.909  0.1005  0.1960  0.0006
   10CHTO  H183 3911   3.583   6.929   0.926 -0.0142 -0.0304  1.5788
   10CHTO   C98 3912   3.560   6.718   0.879  1.0368  0.4623  0.0352
   10CHTO  H185 3913   3.491   6.661   0.815  0.9564  0.7681 -0.1538
   10CHTO   O67 3914   3.680   6.739   0.805 -0.1805  0.3944 -0.5170
   10CHTO  H167 3915   3.663   6.780   0.723 -2.7663  1.6801  0.6238
   10CHTO  C102 3916   3.604   6.637   1.014  0.1011  0.3568  0.0279
   10CHTO  H189 3917   3.681   6.702   1.059 -0.8617  1.5421  0.0128
   10CHTO   N18 3918   3.670   6.505   0.997 -0.2003 -0.1453  0.2155
   10CHTO  H176 3919   3.769   6.527   0.963 -1.0048  2.3241 -0.6506
   10CHTO  H177 3920   3.610   6.436   0.940 -0.1809 -0.5428  0.6694
   10CHTO  C105 3921   3.486   6.645   1.124 -0.5088  0.0154  0.1268
   10CHTO  H192 3922   3.402   6.588   1.084  1.5009 -1.1879 -2.5015
   10CHTO   O65 3923   3.455   6.778   1.150 -0.1257  0.6797  0.7973
   10CHTO  C100 3924   3.406   6.859   1.039  0.4327  0.1696  0.5423
   10CHTO  H187 3925   3.305   6.828   1.008  0.8276 -1.4532  0.8531
   10CHTO  C107 3926   3.391   7.000   1.088 -0.2154  0.0545  1.4648
   10CHTO   O70 3927   3.312   7.018   1.205 -0.0849  0.0265 -0.0217
   10CHTO  H170 3928   3.368   7.040   1.277 -0.1532  0.0109  0.0367
   10CHTO   O57 3929   3.547   6.579   1.268  0.4776 -0.2604 -0.2334
   10CHTO   C85 3930   3.463   6.551   1.384  0.2245 -0.2624 -0.4016
   10CHTO  H157 3931   3.367   6.514   1.341 -1.4187  1.8024  1.4211
   10CHTO   C83 3932   3.423   6.694   1.443 -0.2154  0.0058  0.0253
   10CHTO  H155 3933   3.373   6.745   1.361  1.3783  0.0341 -0.9541
   10CHTO   O56 3934   3.539   6.774   1.478 -0.0823  0.3589 -0.0246
   10CHTO  H135 3935   3.506   6.861   1.481 -0.5423  0.1971 -0.4458
   10CHTO   C81 3936   3.324   6.673   1.566  0.6975 -0.3223  0.2252
   10CHTO  H153 3937   3.244   6.608   1.529  0.5247  0.8375 -1.5088
   10CHTO   N14 3938   3.262   6.794   1.617  0.5787 -0.2271 -0.0625
   10CHTO  H141 3939   3.319   6.878   1.583  3.7145 -1.0115  2.9458
   10CHTO  H142 3940   3.254   6.802   1.724 -0.1543 -1.0768 -0.0440
   10CHTO   C79 3941   3.399   6.589   1.678 -0.5230 -0.1989  0.8398
   10CHTO  H151 3942   3.325   6.561   1.753 -2.2712  0.5568 -0.6027
   10CHTO   O52 3943   3.442   6.464   1.627 -0.6189  0.5272 -0.0206
   10CHTO   C86 3944   3.521   6.449   1.500 -0.2086 -0.4573  0.1567
   10CHTO  H158 3945   3.624   6.472   1.535 -0.7837  1.2616  0.8065
   10CHTO   C90 3946   3.522   6.298   1.440  0.6470  0.1089 -0.1243
   10CHTO   O60 3947   3.639   6.290   1.360  0.0238  0.3275 -0.5362
   10CHTO  H138 3948   3.636   6.329   1.274 -0.9195 -0.0918 -0.6998
   10CHTO   O50 3949   3.504   6.665   1.731 -0.1176  0.1170  0.5995
   10CHTO   C73 3950   3.578   6.673   1.851  0.0916 -0.0635 -0.7487
   10CHTO  H145 3951   3.577   6.576   1.903 -1.2951  0.0882 -0.4685
   10CHTO   C74 3952   3.507   6.774   1.942 -0.3721  0.5021 -0.3476
   10CHTO  H146 3953   3.400   6.755   1.954 -0.2973  0.2480 -0.0746
   10CHTO   O54 3954   3.572   6.749   2.065 -0.1100 -0.1694  0.5070
   10CHTO  H133 3955   3.552   6.812   2.132  2.4814  2.1188 -0.7551
   10CHTO   C75 3956   3.537   6.922   1.884 -0.0518  0.4189 -0.3049
   10CHTO  H147 3957   3.487   6.930   1.786  2.7308 -2.8768 -2.0858
   10CHTO   N13 3958   3.477   7.034   1.959 -0.9252  0.3802  0.5607
   10CHTO  H139 3959   3.538   7.064   2.043  0.0401  1.5061 -0.5220
   10CHTO  H140 3960   3.481   7.124   1.900  2.0425  0.9302  1.5551
   10CHTO   C76 3961   3.692   6.943   1.847  0.0093  0.3900 -0.1832
   10CHTO  H148 3962   3.751   6.930   1.937 -0.4268  2.1616  0.3754
   10CHTO   O49 3963   3.731   6.832   1.761  0.0841 -0.4720 -0.5157
   10CHTO   C77 3964   3.732   6.700   1.819  0.1439  0.0172 -0.1981
   10CHTO  H149 3965   3.794   6.692   1.908 -0.2258 -0.0020  0.0594
   10CHTO   C88 3966   3.791   6.615   1.704 -0.1348 -0.1359 -0.5868
   10CHTO   O58 3967   3.834   6.484   1.753 -0.1913  0.2228  0.2760
   10CHTO  H136 3968   3.782   6.423   1.704 -0.5983  0.7678  0.0146
   10CHTO   O51 3969   3.721   7.078   1.779  0.4739  0.1236 -0.2615
   10CHTO   C78 3970   3.867   7.121   1.791 -0.8435 -0.4331 -0.1435
   10CHTO  H150 3971   3.920   7.044   1.850 -1.6645  0.7478  2.1689
   10CHTO   C80 3972   3.887   7.254   1.865 -0.0663 -0.1743 -0.6539
   10CHTO  H152 3973   3.858   7.338   1.799 -0.5673  1.0905  1.1059
   10CHTO   O55 3974   3.820   7.237   1.990 -0.2784  0.7678 -0.1528
   10CHTO  H134 3975   3.728   7.248   1.976 -0.4892 -1.9359 -1.2791
   10CHTO   C84 3976   4.044   7.277   1.887  0.5033  1.0244  0.0919
   10CHTO  H156 3977   4.078   7.207   1.964 -0.5369 -0.3510 -0.6558
   10CHTO   N15 3978   4.079   7.403   1.953  0.7478 -0.1523  0.4380
   10CHTO  H143 3979   4.184   7.404   1.972  0.3459 -1.8345  3.1092
   10CHTO  H144 3980   4.050   7.495   1.908  3.6444  0.2638 -0.6910
   10CHTO   C87 3981   4.124   7.251   1.757 -0.3558  0.0209 -0.6817
   10CHTO  H159 3982   4.128   7.338   1.691  0.9898 -1.5909 -2.8015
   10CHTO   O53 3983   4.082   7.135   1.680 -0.6195 -0.0863 -0.3400
   10CHTO   C82 3984   3.942   7.136   1.657  0.5647 -0.4918 -0.3357
   10CHTO  H154 3985   3.912   7.224   1.600 -0.1883 -1.4928 -1.5176
   10CHTO   C89 3986   3.908   7.009   1.569  0.0178  0.6700  0.2196
   10CHTO   O59 3987   4.008   6.996   1.467 -0.2499 -0.0865  0.4296
   10CHTO  H137 3988   4.036   6.907   1.474 -0.7479 -0.6002 -3.0891
   10CHTO   O45 3989   4.292   7.215   1.813 -0.1849  0.3556 -0.4070
   10CHTO   C67 3990   4.378   7.327   1.786  0.1794 -0.2349  0.8160
   10CHTO  H124 3991   4.316   7.405   1.743 -0.4508 -2.0644 -1.7357
   10CHTO   C65 3992   4.450   7.383   1.916  0.3800 -0.3679  0.8292
   10CHTO  H122 3993   4.427   7.310   1.994 -3.0882 -0.4666 -0.1970
   10CHTO   O44 3994   4.388   7.503   1.957 -0.1883 -0.3487 -0.1974
   10CHTO  H102 3995   4.411   7.584   1.915  0.6436  0.3898  1.6572
   10CHTO   C63 3996   4.611   7.381   1.902  0.1974 -0.4589  0.0128
   10CHTO  H120 3997   4.639   7.276   1.902  0.5149 -0.3870  1.8139
   10CHTO   N11 3998   4.693   7.436   2.017 -0.0276 -0.4819  0.3259
   10CHTO  H108 3999   4.669   7.540   2.011  2.5041  0.0243 -1.2387
   10CHTO  H109 4000   4.797   7.425   1.997 -0.2396 -3.4654  0.6117
   10CHTO   C61 4001   4.658   7.444   1.762  1.0612  0.3869 -0.2837
   10CHTO  H118 4002   4.763   7.416   1.751  1.7265  1.1490  3.2562
   10CHTO   O40 4003   4.587   7.382   1.659 -0.3885 -0.2701 -0.0886
   10CHTO   C68 4004   4.481   7.287   1.667  0.5999  0.0031  0.0081
   10CHTO  H125 4005   4.526   7.186   1.674 -0.6335 -0.7568 -2.5204
   10CHTO   C72 4006   4.415   7.293   1.526  0.3390 -0.4913 -0.2332
   10CHTO   O48 4007   4.340   7.177   1.490  0.0730 -0.4338 -0.0089
   10CHTO  H105 4008   4.339   7.166   1.397  0.2085 -1.8808  0.1452
   10CHTO   O38 4009   4.638   7.586   1.754  0.5505 -0.1487 -0.0968
   10CHTO   C55 4010   4.714   7.681   1.672 -0.1390 -0.0687 -0.6388
   10CHTO  H112 4011   4.633   7.737   1.622 -1.1316 -0.4523  0.5159
   10CHTO   C56 4012   4.814   7.624   1.569 -0.2065 -0.2212  0.4296
   10CHTO  H113 4013   4.882   7.557   1.624 -0.0945 -1.3301 -1.0352
   10CHTO   O42 4014   4.741   7.534   1.476 -0.0548 -0.2594 -0.0544
   10CHTO  H100 4015   4.800   7.502   1.411  1.2875  0.0708  0.9858
   10CHTO   C57 4016   4.893   7.743   1.502 -0.1001 -0.3258  0.2749
   10CHTO  H114 4017   4.825   7.807   1.447 -1.2523 -2.1558 -0.4662
   10CHTO   N10 4018   4.991   7.688   1.408  0.3297 -0.4532  0.4294
   10CHTO  H106 4019   4.974   7.584   1.388 -0.5388  0.0535 -1.6269
   10CHTO  H107 4020   5.094   7.711   1.434  0.1011  0.9172  0.1973
   10CHTO   C58 4021   4.967   7.832   1.604  0.3266  0.5653 -0.6964
   10CHTO  H115 4022   5.031   7.768   1.668  0.6616  0.3889 -1.2075
   10CHTO   O37 4023   4.871   7.876   1.702 -0.1357 -0.5268 -0.3158
   10CHTO   C59 4024   4.799   7.770   1.770 -0.3175 -0.4614 -0.0461
   10CHTO  H116 4025   4.871   7.704   1.818  1.2802  0.3774 -1.2497
   10CHTO   C70 4026   4.719   7.832   1.879  0.1258 -0.3717 -0.1309
   10CHTO   O46 4027   4.614   7.921   1.844 -0.2429 -0.4715 -0.2029
   10CHTO  H103 4028   4.642   7.980   1.777 -0.9726 -0.1364 -0.2144
   10CHTO   O39 4029   5.041   7.975   1.526  0.1443 -0.1835 -0.4964
   10CHTO   C60 4030   5.107   8.061   1.620  0.3406 -0.5662 -0.3071
   10CHTO  H117 4031   5.080   8.032   1.721  2.0334  2.5675  1.1126
   10CHTO   C62 4032   5.265   8.066   1.598 -0.0782  0.4303 -0.3426
   10CHTO  H119 4033   5.299   7.965   1.632 -0.1513  0.8007  0.8464
   10CHTO   O43 4034   5.300   8.096   1.462 -0.3458 -0.7516 -0.0822
   10CHTO  H101 4035   5.374   8.046   1.434  0.0673  0.0757 -0.5016
   10CHTO   C66 4036   5.327   8.180   1.700  0.6407 -0.3086  1.0378
   10CHTO  H123 4037   5.301   8.157   1.803 -1.8240 -0.7928  0.3254
   10CHTO   N12 4038   5.473   8.185   1.686 -0.0155  0.7180 -0.5965
   10CHTO  H110 4039   5.521   8.153   1.594 -0.1638  2.3384 -1.2645
   10CHTO  H111 4040   5.510   8.130   1.770 -0.4564 -0.1233 -0.9489
   10CHTO   C69 4041   5.270   8.321   1.663  0.0013  0.7485 -0.4966
   10CHTO  H126 4042   5.290   8.346   1.557  2.0572 -0.5318 -0.4514
   10CHTO   O41 4043   5.121   8.325   1.695 -0.1319 -0.1070  0.2627
   10CHTO   C64 4044   5.047   8.208   1.597  0.6395  0.6275 -0.6964
   10CHTO  H121 4045   5.060   8.244   1.492 -0.7840  1.7453 -0.5142
   10CHTO   C71 4046   4.898   8.221   1.629 -0.0670  0.5217  0.4897
   10CHTO   O47 4047   4.850   8.337   1.560 -0.5195  0.5351  0.0309
   10CHTO  H104 4048   4.855   8.413   1.614  0.4144  0.6378 -0.2009
   10CHTO   O34 4049   5.327   8.447   1.734 -0.2957 -0.0274 -0.5088
   10CHTO   C49 4050   5.320   8.582   1.725  0.9106  0.8289 -0.1244
   10CHTO   H91 4051   5.356   8.630   1.816 -0.6437  2.5516 -0.3957
   10CHTO   C47 4052   5.172   8.628   1.705 -0.2028  0.3208  0.1094
   10CHTO   H89 4053   5.162   8.737   1.721  2.5422  0.6989 -0.3783
   10CHTO   O33 4054   5.084   8.566   1.799 -0.1101  0.2077  0.1764
   10CHTO   H70 4055   5.001   8.609   1.788 -0.6122 -0.7709  0.0738
   10CHTO   C45 4056   5.121   8.607   1.556 -0.1549 -0.1807 -0.2247
   10CHTO   H87 4057   5.129   8.504   1.518  0.1926 -0.2437  0.0130
   10CHTO    N8 4058   4.979   8.651   1.546  0.0105  0.1085 -0.0043
   10CHTO   H75 4059   4.925   8.586   1.613 -2.0189  1.1032 -0.6372
   10CHTO   H76 4060   4.969   8.752   1.580  0.2169 -0.0235  0.4536
   10CHTO   C43 4061   5.218   8.689   1.463  0.7771  0.6814 -0.2741
   10CHTO   H85 4062   5.181   8.670   1.363  0.0692  0.3883  0.0379
   10CHTO   O29 4063   5.353   8.646   1.476  0.1634  0.4129  0.3641
   10CHTO   C50 4064   5.405   8.636   1.610 -0.2928 -0.7074  0.2073
   10CHTO   H92 4065   5.495   8.573   1.605 -1.6602 -2.5521 -2.2296
   10CHTO   C54 4066   5.461   8.774   1.664  0.2921  0.4214 -0.4773
   10CHTO   O36 4067   5.587   8.803   1.597  0.2645  0.3926  0.0212
   10CHTO   H72 4068   5.658   8.741   1.603  0.3473  0.0101 -3.5963
   10CHTO   O27 4069   5.203   8.834   1.479 -0.2816  0.0037 -0.0028
   10CHTO   C37 4070   5.216   8.938   1.387 -0.5285 -0.0086  0.8514
   10CHTO   H79 4071   5.316   8.937   1.342 -1.3041 -1.7545 -0.8719
   10CHTO   C38 4072   5.111   8.934   1.267 -0.8301 -0.0495 -0.5305
   10CHTO   H80 4073   5.012   8.933   1.315 -0.5781  0.5690  0.0046
   10CHTO   O31 4074   5.135   8.812   1.195  0.3215 -0.1979  0.3440
   10CHTO   H68 4075   5.110   8.734   1.240 -2.5790 -0.3646 -1.4637
   10CHTO   C39 4076   5.130   9.060   1.176 -0.1895 -0.5269 -0.3614
   10CHTO   H81 4077   5.232   9.063   1.139  0.3049 -1.5869  0.8961
   10CHTO    N7 4078   5.056   9.065   1.048  0.4968  0.2367 -0.1748
   10CHTO   H73 4079   4.949   9.070   1.064  0.0431  1.1874 -3.2587
   10CHTO   H74 4080   5.082   8.978   0.990 -0.9573 -0.1774 -0.2306
   10CHTO   C40 4081   5.103   9.189   1.260  0.0664  0.5291  0.0912
   10CHTO   H82 4082   4.997   9.187   1.283 -0.0063  0.5072 -0.2443
   10CHTO   O26 4083   5.176   9.194   1.377 -0.2163  0.9156 -0.8631
   10CHTO   C41 4084   5.192   9.077   1.459  0.5581  0.1622  0.3449
   10CHTO   H83 4085   5.102   9.059   1.520  2.0671 -0.5890  2.3822
   10CHTO   C52 4086   5.304   9.097   1.565 -1.0658  0.4488  0.0630
   10CHTO   O35 4087   5.449   9.118   1.509 -0.3022  0.7110 -0.1372
   10CHTO   H71 4088   5.504   9.089   1.579 -1.0970 -2.0541 -0.5730
   10CHTO   O28 4089   5.137   9.314   1.198  0.3110  0.3324  0.0839
   10CHTO   C42 4090   5.058   9.435   1.218  0.2466  1.1640  0.3459
   10CHTO   H84 4091   4.999   9.426   1.310  1.9048  0.3032  1.3557
   10CHTO   C44 4092   4.949   9.451   1.112 -0.2742 -0.1083 -0.2569
   10CHTO   H86 4093   4.998   9.436   1.016  1.1308 -0.2565  0.4726
   10CHTO   O32 4094   4.854   9.346   1.136  0.5431  0.1374 -0.1471
   10CHTO   H69 4095   4.803   9.342   1.057  1.4595  2.2382 -0.8777
   10CHTO   C48 4096   4.878   9.597   1.108 -0.6925 -0.2140 -0.3523
   10CHTO   H90 4097   4.797   9.605   1.181 -1.8868  2.8255 -1.9176
   10CHTO    N9 4098   4.799   9.611   0.982  0.1316  0.6675  0.0083
   10CHTO   H77 4099   4.718   9.540   0.972  0.0524  0.8358 -0.5541
   10CHTO   H78 4100   4.867   9.595   0.900 -1.2188  0.2420 -1.0350
   10CHTO   C51 4101   4.971   9.722   1.139 -0.4158  0.4786  0.0876
   10CHTO   H93 4102   5.034   9.739   1.052  0.8653 -2.2260  0.4567
   10CHTO   O30 4103   5.049   9.682   1.250 -1.4671  0.2449  0.2141
   10CHTO   C46 4104   5.142   9.567   1.224  1.0687 -0.2806  0.0540
   10CHTO   H88 4105   5.181   9.591   1.125  2.2598 -0.6518  0.4189
   10CHTO   C53 4106   5.257   9.552   1.334  0.5822 -0.0379 -0.5328
   10CHTO   O72 4107   5.327   9.677   1.355  0.0316  0.1842  0.0769
   10CHTO  H199 4108   5.361   9.680   1.442 -0.4666  0.4401  0.2616
   10CHTO   O22 4109   4.908   9.851   1.164  0.1718  0.0581  0.0357
   10CHTO   C31 4110   4.973   9.984   1.155 -0.8568 -0.0576 -0.1500
   10CHTO   H59 4111   4.918  10.043   1.230 -1.3885 -0.4089 -0.2582
   10CHTO   C29 4112   5.127   9.996   1.195 -0.2075 -0.4551 -0.2613
   10CHTO   H57 4113   5.189   9.934   1.129  1.5034  1.1144 -0.1559
   10CHTO   O21 4114   5.143   9.936   1.321 -0.6289 -0.2119 -0.0263
   10CHTO   H37 4115   5.102   9.998   1.378  1.2389  1.5303 -0.5154
   10CHTO   C27 4116   5.167  10.148   1.188 -0.4029  0.0129 -0.3564
   10CHTO   H55 4117   5.112  10.206   1.264  1.0291  2.3067 -1.0211
   10CHTO    N5 4118   5.309  10.165   1.207 -0.1174  0.0417 -0.1327
   10CHTO   H43 4119   5.366  10.102   1.141  0.5106  1.1467 -0.6525
   10CHTO   H44 4120   5.341  10.268   1.212 -1.5261  0.4844  0.0170
   10CHTO   C25 4121   5.124  10.212   1.049  0.6760  0.4419 -0.0147
   10CHTO   H53 4122   5.166  10.164   0.959 -0.9313 -1.7685  0.3667
   10CHTO   O17 4123   4.978  10.193   1.032 -0.4337 -0.2050  0.6253
   10CHTO   C32 4124   4.941  10.060   1.020  0.2424 -0.0030  0.5436
   10CHTO   H60 4125   5.004  10.017   0.941  1.1050 -0.7685  1.6267
   10CHTO   C36 4126   4.793  10.052   0.984 -0.5632 -0.2708  0.4284
   10CHTO   O25 4127   4.740   9.921   0.953 -0.1616  0.0283 -0.2910
   10CHTO   H40 4128   4.691   9.884   1.024  0.8137 -0.2984  0.2248
   10CHTO   O15 4129   5.158  10.382   1.045  0.0395  0.0846  0.0377
   10CHTO   C19 4130   5.252  10.444   0.953  0.2682  0.5096 -0.8608
   10CHTO   H47 4131   5.328  10.365   0.943  1.1063  0.7183  2.9578
   10CHTO   C20 4132   5.193  10.479   0.812 -0.0411 -0.8005  0.0356
   10CHTO   H48 4133   5.109  10.549   0.821 -0.7276 -1.8933  2.4469
   10CHTO   O19 4134   5.133  10.357   0.767  0.1438 -0.1607 -1.0342
   10CHTO   H35 4135   5.041  10.355   0.751 -0.4402 -0.1419  1.9345
   10CHTO   C21 4136   5.298  10.540   0.713  0.6441  0.4849  0.5882
   10CHTO   H49 4137   5.375  10.463   0.706 -0.3561 -0.7083  2.1393
   10CHTO    N4 4138   5.234  10.582   0.583 -0.7355  0.1434 -0.1235
   10CHTO   H41 4139   5.140  10.534   0.558 -0.4013 -0.1149 -0.8830
   10CHTO   H42 4140   5.310  10.551   0.513 -0.4081  1.3004 -0.2958
   10CHTO   C22 4141   5.363  10.662   0.794  0.7712  1.0550 -0.0631
   10CHTO   H50 4142   5.285  10.736   0.811  0.6645  1.2547 -1.4396
   10CHTO   O14 4143   5.422  10.619   0.912  0.3820 -0.1232  0.3941
   10CHTO   C23 4144   5.333  10.568   1.015  0.9338 -0.0752  0.5433
   10CHTO   H51 4145   5.268  10.650   1.048 -0.3226 -0.7750 -0.1589
   10CHTO   C34 4146   5.427  10.529   1.130  0.3776  0.1827 -0.0400
   10CHTO   O23 4147   5.463  10.646   1.200 -0.1240 -0.6407 -0.4111
   10CHTO   H38 4148   5.508  10.609   1.275 -2.3633  1.8019  2.2459
   10CHTO   O16 4149   5.464  10.724   0.713 -0.0864 -0.7296 -0.2310
   10CHTO   C24 4150   5.624  10.686   0.739  0.1989 -0.0689  0.0199
   10CHTO   H52 4151   5.630  10.590   0.790 -2.5179  0.3560  1.2442
   10CHTO   C26 4152   5.685  10.793   0.827  0.0642 -0.2582  0.3063
   10CHTO   H54 4153   5.668  10.889   0.776  1.1717 -0.4969 -0.5213
   10CHTO   O20 4154   5.618  10.790   0.958  0.1821 -0.3793 -0.3902
   10CHTO   H36 4155   5.531  10.773   0.930  0.4591  1.1537 -2.3358
   10CHTO   C30 4156   5.839  10.780   0.836 -1.2063 -0.4942  1.1705
   10CHTO   H58 4157   5.860  10.701   0.910  1.4494  0.3355  1.3257
   10CHTO    N6 4158   5.901  10.887   0.912  0.0380 -0.2879  0.0037
   10CHTO   H45 4159   5.999  10.914   0.875  0.9688 -2.3931  0.8137
   10CHTO   H46 4160   5.842  10.976   0.920  1.4995  0.5675  1.5293
   10CHTO   C33 4161   5.906  10.735   0.702  0.2311  0.2295  1.0646
   10CHTO   H61 4162   5.927  10.826   0.643  1.4046  0.8378  2.3818
   10CHTO   O18 4163   5.822  10.640   0.624  0.0986 -0.4239  0.4341
   10CHTO   C28 4164   5.686  10.672   0.601  0.1320  0.7082  0.8782
   10CHTO   H56 4165   5.671  10.768   0.551 -1.0200 -0.8561 -1.8916
   10CHTO   C35 4166   5.612  10.559   0.521  0.2772 -0.1943  0.3116
   10CHTO   O24 4167   5.621  10.433   0.591  0.3316 -0.7518  0.0061
   10CHTO   H39 4168   5.549  10.433   0.652 -1.0633  1.8858 -1.5907
   10CHTO    O9 4169   6.033  10.683   0.729 -0.0038 -0.1119  0.2648
   10CHTO   C13 4170   6.141  10.670   0.596  0.1173  0.6077  0.1186
   10CHTO   H26 4171   6.192  10.768   0.591 -2.0844  1.7543 -0.5068
   10CHTO   C11 4172   6.068  10.634   0.459  0.3019  0.9633  0.8857
   10CHTO   H24 4173   5.990  10.709   0.437  1.6940  1.7574 -1.6058
   10CHTO    O8 4174   6.004  10.503   0.470 -0.1582 -0.1104  0.1580
   10CHTO    H3 4175   5.938  10.503   0.537  1.2409  2.6406  1.6259
   10CHTO    C9 4176   6.174  10.642   0.347 -0.3935 -0.1321  0.0652
   10CHTO   H22 4177   6.196  10.749   0.332 -2.1301 -0.0205 -1.7989
   10CHTO    N2 4178   6.126  10.598   0.214 -0.7739  0.1155 -0.5961
   10CHTO   H10 4179   6.087  10.497   0.211 -2.6982  0.7640  1.5909
   10CHTO   H11 4180   6.212  10.591   0.150  0.9045  1.5559  1.4238
   10CHTO    C7 4181   6.315  10.573   0.411  0.4424  0.4092  0.4235
   10CHTO   H20 4182   6.370  10.660   0.454  2.2726  0.0997 -1.2001
   10CHTO    O4 4183   6.286  10.486   0.523 -0.6263  0.0484 -0.0554
   10CHTO   C14 4184   6.248  10.561   0.637 -0.0257  0.0825 -0.7260
   10CHTO   H27 4185   6.341  10.603   0.680 -0.0122 -0.1632 -0.5152
   10CHTO   C18 4186   6.196  10.455   0.741 -0.3122  0.0015 -0.3743
   10CHTO   O13 4187   6.308  10.381   0.789  0.3211 -0.6205  0.1390
   10CHTO    H7 4188   6.323  10.401   0.879  1.0368  0.0716 -0.1319
   10CHTO    O2 4189   6.405  10.498   0.318 -0.1952 -0.1059  0.4606
   10CHTO    C1 4190   6.538  10.542   0.304  0.1654  0.1903  0.3443
   10CHTO   H14 4191   6.565  10.623   0.376 -0.0921 -1.4161  2.2912
   10CHTO    C2 4192   6.564  10.592   0.152 -0.3321  0.9344 -0.4795
   10CHTO   H15 4193   6.527  10.522   0.076  0.3758 -1.3998  1.2610
   10CHTO    O6 4194   6.500  10.719   0.128 -0.3643 -0.4512 -0.4431
   10CHTO    H1 4195   6.522  10.774   0.201  0.1020  1.1704 -1.7846
   10CHTO    C3 4196   6.727  10.609   0.127  0.0768 -0.0034  0.1389
   10CHTO   H16 4197   6.768  10.680   0.200 -0.9109  0.3889  0.3253
   10CHTO    N1 4198   6.750  10.638  -0.009 -0.6385 -0.4091  0.1199
   10CHTO    H8 4199   6.701  10.725  -0.049  0.9519  0.2185 -0.5057
   10CHTO    H9 4200   6.743  10.554  -0.078 -2.0603 -0.2284  0.0391
   10CHTO    C4 4201   6.801  10.479   0.168  0.1803 -0.2030 -0.4863
   10CHTO   H17 4202   6.778  10.398   0.099 -0.6232 -0.6052  0.2544
   10CHTO    O1 4203   6.766  10.446   0.308 -0.0145 -0.7479  0.1497
   10CHTO    C5 4204   6.627  10.421   0.333 -0.4424 -0.0484  0.1488
   10CHTO   H18 4205   6.604  10.332   0.275 -2.3431  0.3809  0.1924
   10CHTO   C16 4206   6.625  10.391   0.483 -0.7008  0.5017 -0.5159
   10CHTO   O11 4207   6.516  10.301   0.522 -0.7059 -0.5466  0.5078
   10CHTO    H5 4208   6.536  10.276   0.610 -0.0286  0.1573  0.5672
   10CHTO    O3 4209   6.945  10.498   0.167  0.0904  0.4415 -0.8703
   10CHTO    C6 4210   7.017  10.368   0.179  0.0610  0.8362 -0.3548
   10CHTO   H19 4211   6.959  10.291   0.231 -0.1407  0.1234 -1.6129
   10CHTO    C8 4212   7.057  10.300   0.044 -0.5062  0.4569  0.2971
   10CHTO   H21 4213   7.117  10.369  -0.016 -1.1330 -0.5599 -1.5287
   10CHTO    O7 4214   6.936  10.273  -0.032  0.4398  0.5812 -0.0844
   10CHTO    H2 4215   6.880  10.345  -0.053  0.2531  0.2130 -0.8926
   10CHTO   C12 4216   7.142  10.168   0.075 -0.1626  0.7213  0.8101
   10CHTO   H25 4217   7.069  10.104   0.128 -0.2186  0.3557  0.2925
   10CHTO    N3 4218   7.183  10.101  -0.050  0.3145  0.2529  0.6217
   10CHTO   H12 4219   7.230  10.173  -0.116 -0.1589  0.1363  0.1601
   10CHTO   H13 4220   7.250  10.020  -0.027  1.7242  1.1511 -0.2141
   10CHTO   C15 4221   7.261  10.197   0.175  0.1881 -0.0274  0.0248
   10CHTO   H28 4222   7.351  10.241   0.132  0.1410 -0.5584 -0.6203
   10CHTO   O10 4223   7.319  10.058   0.253 -0.0034  0.0693 -0.1974
   10CHTO    H4 4224   7.276  10.033   0.332 -1.1678 -1.3619 -1.2483
   10CHTO    O5 4225   7.222  10.275   0.290  0.3257  0.1367  0.0214
   10CHTO   C10 4226   7.146  10.396   0.267  0.2854 -0.1596  0.6479
   10CHTO   H23 4227   7.209  10.469   0.216 -0.6603  0.7556  0.7615
   10CHTO   C17 4228   7.119  10.450   0.410 -0.0013  0.3678  0.3443
   10CHTO   O12 4229   7.220  10.511   0.488 -0.0717 -0.5800  0.2679
   10CHTO    H6 4230   7.306  10.474   0.478  0.5700  0.4986  1.5683
   11CHTO  H203 4231   7.456   4.777  -0.329 -0.6309 -0.8370 -0.5764
   11CHTO   O82 4232   7.418   4.846  -0.379  0.7271  0.2753 -0.1226
   11CHTO  C123 4233   7.465   4.972  -0.332  0.7592 -0.3305 -0.2805
   11CHTO  H227 4234   7.549   5.006  -0.393  0.2229  1.6330  0.0309
   11CHTO   O77 4235   7.350   5.059  -0.359 -0.0950  0.4457  0.0255
   11CHTO  C118 4236   7.380   5.199  -0.344 -0.7201 -0.5033 -0.0077
   11CHTO  H222 4237   7.472   5.220  -0.401  0.1157 -2.4078  0.6003
   11CHTO  C125 4238   7.258   5.279  -0.408 -0.3935 -0.0400  0.4027
   11CHTO   O84 4239   7.227   5.262  -0.548 -0.8084  0.4765 -0.3767
   11CHTO  H205 4240   7.270   5.181  -0.570  0.7351  1.5921 -1.5612
   11CHTO  C114 4241   7.388   5.224  -0.189 -0.3169  0.5390  0.6824
   11CHTO  H218 4242   7.286   5.208  -0.152 -0.3644 -0.4796  0.1105
   11CHTO  C116 4243   7.499   5.134  -0.127 -0.4086 -0.2992 -0.5549
   11CHTO  H220 4244   7.595   5.183  -0.154  0.0804 -2.1314 -2.2644
   11CHTO   O79 4245   7.499   5.135   0.018 -0.3193 -0.5043 -0.0321
   11CHTO  H201 4246   7.441   5.066   0.045 -0.4560 -0.1060  0.6968
   11CHTO  C120 4247   7.490   4.984  -0.179  0.4318  0.0832  0.3653
   11CHTO  H224 4248   7.402   4.937  -0.129  0.4789 -0.2401  0.1511
   11CHTO   N21 4249   7.616   4.908  -0.142  0.5004  0.3101 -0.0677
   11CHTO  H211 4250   7.609   4.800  -0.144 -2.8283  0.5094 -0.7450
   11CHTO  H212 4251   7.694   4.945  -0.207 -0.1505 -0.7982 -1.4986
   11CHTO   O75 4252   7.405   5.364  -0.165  0.3793  0.2984 -0.0512
   11CHTO  C112 4253   7.319   5.426  -0.041 -0.5753  0.2944  0.0841
   11CHTO  H216 4254   7.325   5.353   0.041  2.8195 -0.3141 -0.6294
   11CHTO   O73 4255   7.190   5.437  -0.091  0.6457 -0.2107  0.3139
   11CHTO  C113 4256   7.093   5.493  -0.004  0.1208  0.1469 -0.2697
   11CHTO  H217 4257   7.091   5.442   0.094 -2.0907 -0.2749 -0.5081
   11CHTO  C124 4258   6.959   5.475  -0.071 -0.3654  0.0248  0.3850
   11CHTO   O83 4259   6.843   5.511   0.010  0.0209 -0.2989 -0.1670
   11CHTO  H204 4260   6.768   5.484  -0.039 -0.4736 -0.5332  0.7136
   11CHTO  C109 4261   7.132   5.645   0.001  0.1016  0.5260 -0.3181
   11CHTO  H213 4262   7.140   5.680  -0.103  0.4632 -0.2305 -0.5467
   11CHTO  C110 4263   7.275   5.652   0.073  0.0534 -0.5638 -0.4331
   11CHTO  H214 4264   7.259   5.613   0.174 -1.2811 -0.7189 -0.7054
   11CHTO   O78 4265   7.319   5.789   0.084  0.0570 -0.1462 -0.1674
   11CHTO  H200 4266   7.270   5.848   0.138 -0.1236 -1.0062  0.6275
   11CHTO  C111 4267   7.378   5.567  -0.004 -0.7761 -0.7211  0.2955
   11CHTO  H215 4268   7.410   5.616  -0.097  1.1018 -0.3871  1.1056
   11CHTO   N19 4269   7.500   5.553   0.082 -0.0287 -0.8691  0.5300
   11CHTO  H207 4270   7.551   5.642   0.115  0.0280  0.2810 -2.4689
   11CHTO  H208 4271   7.564   5.471   0.053  1.6751  0.6711 -0.1542
   11CHTO   O74 4272   7.046   5.745   0.072  0.0020  0.3462 -0.1749
   11CHTO  C115 4273   6.992   5.886  -0.002 -0.3646  0.0316  0.0804
   11CHTO  H219 4274   7.039   5.903  -0.099  0.1372 -0.6831  0.1985
   11CHTO   O76 4275   6.838   5.879  -0.033 -0.5242 -0.0036 -0.3466
   11CHTO  C122 4276   6.758   5.867   0.091  0.2439  0.1368  0.3232
   11CHTO  H226 4277   6.764   5.767   0.132  0.6803 -0.7695 -1.8702
   11CHTO  C126 4278   6.605   5.892   0.054  0.2072 -0.7426  0.7088
   11CHTO   O85 4279   6.591   6.012  -0.021  0.4378 -0.2935 -0.3400
   11CHTO  H206 4280   6.514   6.015  -0.076 -0.3691  0.0686  0.7878
   11CHTO  C121 4281   6.808   5.967   0.205 -0.0655 -0.9095  0.0325
   11CHTO  H225 4282   6.714   6.011   0.244 -0.9429 -1.5309 -1.3627
   11CHTO   O81 4283   6.868   5.908   0.311  0.5444  0.6561 -0.2632
   11CHTO  H202 4284   6.957   5.886   0.292  0.5260 -1.0085  1.4166
   11CHTO  C119 4285   6.902   6.079   0.142 -0.4485  0.5583 -0.5707
   11CHTO  H223 4286   6.854   6.125   0.056  1.7640 -1.1495 -2.8097
   11CHTO  C117 4287   7.029   6.014   0.090 -0.2876 -0.0633 -0.9131
   11CHTO  H221 4288   7.093   5.979   0.170  0.5056 -0.5350 -1.7395
   11CHTO   N20 4289   7.112   6.114   0.024 -0.0613  0.3715  0.2118
   11CHTO  H209 4290   7.204   6.132   0.078  0.2407 -0.6607  0.0691
   11CHTO  H210 4291   7.139   6.085  -0.077 -1.5339  4.0420 -1.3122
   11CHTO   O80 4292   6.912   6.212   0.252  0.0544  0.8433  0.3445
   11CHTO  C103 4293   6.841   6.208   0.401 -0.3595  0.8765 -0.0768
   11CHTO  H190 4294   6.788   6.113   0.414  0.5974  0.4658  0.8664
   11CHTO  C101 4295   6.933   6.221   0.522 -0.2938 -0.1288 -0.2716
   11CHTO  H188 4296   7.001   6.307   0.522  0.8386 -1.0113  1.1284
   11CHTO   O68 4297   7.019   6.105   0.525 -0.4051  0.0764  0.4784
   11CHTO  H168 4298   6.967   6.036   0.563 -1.0512  1.1062  1.4910
   11CHTO   C99 4299   6.841   6.235   0.663 -0.8517 -0.3658  0.1952
   11CHTO  H186 4300   6.784   6.140   0.664  1.4025 -1.7433  1.5899
   11CHTO   N17 4301   6.920   6.238   0.785  0.9661 -0.1873 -0.3400
   11CHTO  H174 4302   6.988   6.321   0.777  2.6049 -1.5519 -0.9140
   11CHTO  H175 4303   6.980   6.150   0.799  1.3061  0.1240  0.1931
   11CHTO   C97 4304   6.742   6.353   0.647  0.5893  0.1086  0.8860
   11CHTO  H184 4305   6.798   6.448   0.638 -0.0414  0.3186 -1.0905
   11CHTO   O64 4306   6.661   6.335   0.531 -0.2509 -0.1217  0.2516
   11CHTO  C104 4307   6.729   6.322   0.405 -0.6297 -0.3268  0.2502
   11CHTO  H191 4308   6.778   6.414   0.375  0.2628 -0.6565  0.6725
   11CHTO  C108 4309   6.625   6.290   0.296  0.0519  0.2409  0.2622
   11CHTO   O71 4310   6.550   6.174   0.332  0.0091  0.4036  0.5015
   11CHTO  H171 4311   6.476   6.167   0.275  0.4327  2.2431 -0.2807
   11CHTO   O62 4312   6.652   6.371   0.759 -0.4225  0.0607 -0.0781
   11CHTO   C91 4313   6.569   6.490   0.741  0.3613 -0.0702  0.0320
   11CHTO  H178 4314   6.553   6.512   0.635  1.4910  0.3134 -0.0749
   11CHTO   C92 4315   6.647   6.613   0.790 -0.1059 -0.8961 -0.3217
   11CHTO  H179 4316   6.754   6.611   0.764  0.2240  0.4916  0.8980
   11CHTO   O66 4317   6.595   6.727   0.719  0.3063 -0.3835 -0.2454
   11CHTO  H166 4318   6.662   6.787   0.694  0.1799 -0.6401 -1.2104
   11CHTO   C93 4319   6.626   6.642   0.946  0.0198 -0.6486 -0.5635
   11CHTO  H180 4320   6.670   6.739   0.973  0.1424 -0.8878  0.1242
   11CHTO   N16 4321   6.703   6.541   1.022 -0.0154  0.7557  0.4447
   11CHTO  H172 4322   6.697   6.550   1.130  0.1724 -1.5792  0.6755
   11CHTO  H173 4323   6.808   6.527   1.001 -0.0037 -1.4958  1.7652
   11CHTO   C94 4324   6.476   6.643   0.986 -0.0408 -0.3359 -0.8997
   11CHTO  H181 4325   6.454   6.573   1.066  2.2075  0.8695  0.8096
   11CHTO   O61 4326   6.388   6.602   0.879 -0.4429  0.3495  0.1513
   11CHTO   C95 4327   6.430   6.483   0.809  0.5710  0.7215 -0.1227
   11CHTO  H182 4328   6.430   6.402   0.882 -0.6578  1.5343  0.8054
   11CHTO  C106 4329   6.319   6.439   0.714  0.4947 -0.2569  0.2947
   11CHTO   O69 4330   6.193   6.414   0.779  0.2215 -0.2082  0.2586
   11CHTO  H169 4331   6.135   6.364   0.724 -0.9182  1.8319 -0.4511
   11CHTO   O63 4332   6.424   6.790   1.021  0.1928  0.2478 -0.1442
   11CHTO   C96 4333   6.433   6.829   1.186  0.1908  0.1303  0.0083
   11CHTO  H183 4334   6.448   6.737   1.242  0.7235  1.4157  2.0414
   11CHTO   C98 4335   6.312   6.917   1.234 -0.4161  0.7877  0.3700
   11CHTO  H185 4336   6.273   6.984   1.156 -3.8652  0.3805  1.6315
   11CHTO   O67 4337   6.206   6.823   1.269 -0.5338 -0.2151  0.0483
   11CHTO  H167 4338   6.199   6.766   1.195  2.2899 -0.7341  0.1182
   11CHTO  C102 4339   6.347   6.995   1.364 -0.5615 -0.6397  0.3035
   11CHTO  H189 4340   6.374   6.920   1.439 -2.1987 -1.3275  0.2390
   11CHTO   N18 4341   6.231   7.072   1.424 -0.0079  0.5623 -0.1262
   11CHTO  H176 4342   6.233   7.175   1.392 -0.5939  0.7946  0.5621
   11CHTO  H177 4343   6.136   7.029   1.397 -0.6319  1.3756  0.7343
   11CHTO  C105 4344   6.477   7.087   1.344 -0.2559  0.7542 -0.4796
   11CHTO  H192 4345   6.452   7.190   1.318  0.0706  1.3307  1.4216
   11CHTO   O65 4346   6.552   7.041   1.238  0.3307  0.2377  0.1739
   11CHTO  C100 4347   6.573   6.902   1.205  0.6156 -0.3182 -0.4288
   11CHTO  H187 4348   6.613   6.913   1.103  1.4217 -0.1717 -0.0969
   11CHTO  C107 4349   6.673   6.826   1.290 -0.1032  0.5459  0.7631
   11CHTO   O70 4350   6.809   6.873   1.259  0.3654  0.5839 -0.3928
   11CHTO  H170 4351   6.819   6.963   1.284 -0.7206  0.2647  1.2018
   11CHTO   O57 4352   6.544   7.088   1.484 -0.0530  0.1771  0.7217
   11CHTO   C85 4353   6.570   7.210   1.544  0.2454 -0.8966 -1.0391
   11CHTO  H157 4354   6.480   7.273   1.526  2.3867  2.3644 -0.6688
   11CHTO   C83 4355   6.685   7.284   1.465 -0.6801  0.0763  0.6851
   11CHTO  H155 4356   6.651   7.324   1.370  1.1250  1.1005  0.4553
   11CHTO   O56 4357   6.797   7.193   1.442 -0.3084  0.5672 -0.7706
   11CHTO  H135 4358   6.869   7.246   1.412 -0.6489  1.6730  0.3446
   11CHTO   C81 4359   6.727   7.409   1.547  0.5173 -0.3084  0.0273
   11CHTO  H153 4360   6.639   7.472   1.557  0.8098  0.1907 -0.4932
   11CHTO   N14 4361   6.833   7.495   1.482  0.5279  0.2575 -0.0699
   11CHTO  H141 4362   6.794   7.592   1.459  0.7276  0.4066  0.2268
   11CHTO  H142 4363   6.880   7.452   1.396  4.1673  1.8635  1.0460
   11CHTO   C79 4364   6.775   7.361   1.690 -1.2432 -0.5195 -0.2984
   11CHTO  H151 4365   6.809   7.450   1.744  0.5666 -1.8998  0.8895
   11CHTO   O52 4366   6.652   7.315   1.756  0.2776 -0.1588 -0.7751
   11CHTO   C86 4367   6.601   7.198   1.694 -0.4084 -0.1101 -0.7954
   11CHTO  H158 4368   6.679   7.120   1.712  1.0832  1.6269  0.4535
   11CHTO   C90 4369   6.473   7.143   1.775  0.5019 -0.3364  0.3383
   11CHTO   O60 4370   6.502   7.110   1.910  0.3295 -0.0756  0.6947
   11CHTO  H138 4371   6.434   7.148   1.962  0.5254  2.1799 -0.6378
   11CHTO   O50 4372   6.882   7.274   1.699 -0.2992 -0.1886 -0.7868
   11CHTO   C73 4373   6.967   7.225   1.805 -0.2871  0.3817 -0.0145
   11CHTO  H145 4374   6.906   7.189   1.889  0.1366 -1.8417 -0.6184
   11CHTO   C74 4375   7.056   7.340   1.852  0.4728  0.5029 -0.6553
   11CHTO  H146 4376   6.990   7.421   1.886 -1.2467 -0.6852 -1.0530
   11CHTO   O54 4377   7.134   7.293   1.966 -0.1270  0.1125  0.6368
   11CHTO  H133 4378   7.183   7.364   2.000 -0.8744  1.4132 -0.9431
   11CHTO   C75 4379   7.141   7.381   1.734 -0.0044  0.3413 -0.5002
   11CHTO  H147 4380   7.074   7.438   1.667 -0.4631  0.5614  0.1369
   11CHTO   N13 4381   7.254   7.475   1.768  0.1941 -0.1286 -0.3121
   11CHTO  H139 4382   7.218   7.567   1.810  1.8252  0.6751 -0.6211
   11CHTO  H140 4383   7.319   7.447   1.850 -0.2064 -4.2388 -1.2635
   11CHTO   C76 4384   7.215   7.259   1.665 -0.2849  0.5887  0.3701
   11CHTO  H148 4385   7.301   7.227   1.724  1.7695  3.1817 -1.0937
   11CHTO   O49 4386   7.125   7.155   1.631 -0.0156  0.1469 -0.2995
   11CHTO   C77 4387   7.048   7.106   1.747  0.0325  0.6333  0.8179
   11CHTO  H149 4388   7.103   7.061   1.829 -1.5787  1.6238  2.4726
   11CHTO   C88 4389   6.956   6.998   1.694  0.1566  0.3612 -0.5558
   11CHTO   O58 4390   6.905   6.897   1.805  0.3272  0.3673 -0.0534
   11CHTO  H136 4391   6.982   6.888   1.858  2.0937  1.3249 -2.3636
   11CHTO   O51 4392   7.273   7.309   1.505  0.5373  0.5428  0.0317
   11CHTO   C78 4393   7.379   7.187   1.439 -0.2466 -0.4890 -0.6421
   11CHTO  H150 4394   7.377   7.103   1.511 -1.0559 -0.8956 -1.1316
   11CHTO   C80 4395   7.521   7.239   1.423 -0.5942 -0.4768 -0.3899
   11CHTO  H152 4396   7.528   7.316   1.343 -1.4759 -0.7899 -0.7690
   11CHTO   O55 4397   7.568   7.290   1.549  0.3441 -0.0272 -0.9087
   11CHTO  H134 4398   7.662   7.291   1.546  0.2907  1.3631 -2.3176
   11CHTO   C84 4399   7.615   7.124   1.370  0.1133 -0.1497  0.3166
   11CHTO  H156 4400   7.626   7.045   1.444  2.1752 -0.3367 -0.1488
   11CHTO   N15 4401   7.748   7.176   1.341  0.2175  0.2906  0.3916
   11CHTO  H143 4402   7.823   7.161   1.417  0.7183 -0.0755 -0.1672
   11CHTO  H144 4403   7.736   7.281   1.328 -0.7564  0.2501  0.9486
   11CHTO   C87 4404   7.545   7.058   1.246  0.5120  0.1432  0.2567
   11CHTO  H159 4405   7.565   7.128   1.164 -0.6502  2.1906  1.6644
   11CHTO   O53 4406   7.403   7.035   1.256  0.6692  0.3232 -0.2319
   11CHTO   C82 4407   7.324   7.138   1.305 -0.2298 -0.2385 -0.8154
   11CHTO  H154 4408   7.315   7.222   1.235 -2.1824  0.4513  0.2271
   11CHTO   C89 4409   7.181   7.080   1.331 -0.0073  0.4814  0.9004
   11CHTO   O59 4410   7.066   7.165   1.311 -0.1585 -0.0639  0.3701
   11CHTO  H137 4411   7.068   7.213   1.230 -1.0709 -0.3324  0.1905
   11CHTO   O45 4412   7.623   6.914   1.220  0.0932  0.3507  0.4959
   11CHTO   C67 4413   7.654   6.900   1.084  0.3309  0.4388  0.5179
   11CHTO  H124 4414   7.586   6.968   1.033 -0.4795  0.9513  2.2778
   11CHTO   C65 4415   7.803   6.927   1.046  0.2835 -0.3396 -0.4368
   11CHTO  H122 4416   7.870   6.932   1.132  0.9491  0.3695 -0.9869
   11CHTO   O44 4417   7.805   7.064   0.995 -0.0669  0.1479  0.4571
   11CHTO  H102 4418   7.805   7.132   1.060 -0.6663 -0.1771  0.8010
   11CHTO   C63 4419   7.874   6.815   0.966 -0.0707  0.2121  0.1253
   11CHTO  H120 4420   7.894   6.736   1.039  1.3939  0.1831 -0.2895
   11CHTO   N11 4421   8.013   6.843   0.917  0.4181 -0.5033  0.1060
   11CHTO  H108 4422   8.057   6.752   0.882 -2.2819 -1.8878  0.2062
   11CHTO  H109 4423   8.028   6.923   0.848  0.0270 -1.4671 -1.1058
   11CHTO   C61 4424   7.780   6.757   0.853  0.0232 -0.2169 -0.0139
   11CHTO  H118 4425   7.832   6.664   0.828  0.7117  0.3426 -0.7109
   11CHTO   O40 4426   7.645   6.729   0.896 -0.4388 -0.1027  0.3979
   11CHTO   C68 4427   7.608   6.754   1.034 -0.0410  0.0908 -0.1246
   11CHTO  H125 4428   7.656   6.668   1.085  1.0596 -0.0563 -1.3715
   11CHTO   C72 4429   7.450   6.743   1.053  0.1136 -0.3981  0.1763
   11CHTO   O48 4430   7.383   6.833   0.959  0.1194  0.0152  0.3160
   11CHTO  H105 4431   7.411   6.922   0.973  0.2364  0.2820 -1.5145
   11CHTO   O38 4432   7.780   6.834   0.728  0.0249 -0.0698  0.0571
   11CHTO   C55 4433   7.726   6.768   0.613 -0.0977  0.6996  0.3945
   11CHTO  H112 4434   7.640   6.703   0.635  0.5378 -0.3762 -0.2687
   11CHTO   C56 4435   7.832   6.700   0.528 -0.6921 -0.0307  0.2049
   11CHTO  H113 4436   7.892   6.789   0.504 -3.7454  1.7485 -1.2020
   11CHTO   O42 4437   7.909   6.605   0.607 -1.1061  0.2577 -0.1473
   11CHTO  H100 4438   7.976   6.649   0.655 -1.8194  0.2072  0.9031
   11CHTO   C57 4439   7.772   6.628   0.397  0.2061  0.1138 -0.0357
   11CHTO  H114 4440   7.695   6.563   0.438  1.1627 -1.4146 -0.6025
   11CHTO   N10 4441   7.865   6.544   0.321 -0.1583  0.7497 -0.1674
   11CHTO  H106 4442   7.967   6.576   0.338 -0.2736 -0.0209  2.2652
   11CHTO  H107 4443   7.860   6.439   0.345  0.8890  0.3799 -1.5205
   11CHTO   C58 4444   7.708   6.738   0.315 -0.1009 -0.4459 -0.5765
   11CHTO  H115 4445   7.787   6.805   0.272  0.5214 -1.1719 -0.5718
   11CHTO   O37 4446   7.611   6.813   0.394  0.3970  0.8043  0.1710
   11CHTO   C59 4447   7.662   6.870   0.516 -0.1773 -0.4851  0.3686
   11CHTO  H116 4448   7.728   6.952   0.490 -0.7636 -0.4451 -1.0400
   11CHTO   C70 4449   7.538   6.934   0.582 -0.0403  0.6604  0.0068
   11CHTO   O46 4450   7.439   6.851   0.643  0.4840 -0.2857  0.1089
   11CHTO  H103 4451   7.368   6.893   0.688 -0.3588  0.1687 -1.5809
   11CHTO   O39 4452   7.631   6.674   0.165 -0.5320 -0.1402  0.3896
   11CHTO   C60 4453   7.499   6.733   0.153  0.1865  0.3874 -0.0722
   11CHTO  H117 4454   7.448   6.712   0.247  0.5632  0.1029  0.0697
   11CHTO   C62 4455   7.510   6.883   0.113  0.2197  0.7622  0.9802
   11CHTO  H119 4456   7.554   6.939   0.198  1.0623  0.8928  0.4657
   11CHTO   O43 4457   7.610   6.889   0.004 -0.2385 -0.5013 -0.0865
   11CHTO  H101 4458   7.625   6.977  -0.024 -1.2021  1.0710  3.9817
   11CHTO   C66 4459   7.366   6.944   0.080 -0.0522 -0.5227 -0.3656
   11CHTO  H123 4460   7.307   6.946   0.172  1.0481 -0.9447  0.3741
   11CHTO   N12 4461   7.379   7.086   0.031  0.1928  0.2698  1.0650
   11CHTO  H110 4462   7.316   7.149   0.093  1.3904  0.6146  1.9482
   11CHTO  H111 4463   7.479   7.125   0.042  0.6694 -0.4454 -0.5292
   11CHTO   C69 4464   7.297   6.848  -0.020  0.0361  0.0795  0.4530
   11CHTO  H126 4465   7.339   6.842  -0.122  0.3565 -0.2725  0.6058
   11CHTO   O41 4466   7.298   6.715   0.032  0.1324  0.2923  0.1705
   11CHTO   C64 4467   7.429   6.645   0.045 -0.4225 -0.1459  0.0638
   11CHTO  H121 4468   7.487   6.644  -0.049 -0.2563 -2.9345  0.1666
   11CHTO   C71 4469   7.398   6.498   0.101  0.1848 -0.0482 -0.4100
   11CHTO   O47 4470   7.292   6.433   0.033 -0.0821  0.3239 -0.3271
   11CHTO  H104 4471   7.213   6.471   0.066  1.2446  1.9075  1.1964
   11CHTO   O34 4472   7.147   6.890  -0.042  0.3056  0.7649  0.3975
   11CHTO   C49 4473   7.063   6.796  -0.095 -0.5535 -0.4582 -0.0607
   11CHTO   H91 4474   7.114   6.726  -0.161 -1.4136 -0.8642 -0.3119
   11CHTO   C47 4475   6.951   6.873  -0.177 -0.0185 -0.3358  0.0549
   11CHTO   H89 4476   6.898   6.797  -0.237  1.0634  2.0372 -4.0879
   11CHTO   O33 4477   7.003   6.970  -0.273 -0.4721  0.3073 -0.1685
   11CHTO   H70 4478   7.096   6.960  -0.284 -0.5335 -0.9437  0.3609
   11CHTO   C45 4479   6.859   6.950  -0.063  0.9755 -0.0475 -0.3103
   11CHTO   H87 4480   6.924   7.015  -0.002 -0.1241  0.0031  0.8169
   11CHTO    N8 4481   6.754   7.034  -0.118 -0.4318 -0.5669 -0.0483
   11CHTO   H75 4482   6.659   6.984  -0.105 -1.8102  2.4737  2.3745
   11CHTO   H76 4483   6.757   7.134  -0.076 -0.9368  0.1287 -1.6398
   11CHTO   C43 4484   6.799   6.843   0.048  0.1499 -0.4604  0.2096
   11CHTO   H85 4485   6.763   6.910   0.125  1.1100  1.6441 -1.1331
   11CHTO   O29 4486   6.905   6.760   0.101  0.1784 -0.3281  0.3314
   11CHTO   C50 4487   6.996   6.697   0.010  0.1574  0.1184  0.1551
   11CHTO   H92 4488   7.075   6.651   0.071  0.6047 -0.4696 -0.8527
   11CHTO   C54 4489   6.933   6.576  -0.069  0.1375 -0.5113  0.6417
   11CHTO   O36 4490   6.957   6.455  -0.001 -0.2916 -0.3564  0.3919
   11CHTO   H72 4491   6.878   6.429   0.042  0.7871  2.4234  4.2913
   11CHTO   O27 4492   6.685   6.768   0.009 -0.2328  1.0564 -0.4403
   11CHTO   C37 4493   6.618   6.667   0.091  0.2366 -0.0249 -0.2291
   11CHTO   H79 4494   6.693   6.596   0.128 -1.4607 -0.7322  1.9193
   11CHTO   C38 4495   6.552   6.731   0.215 -0.3039  0.1569 -0.1693
   11CHTO   H80 4496   6.504   6.826   0.185 -0.5005  0.1970  0.2725
   11CHTO   O31 4497   6.651   6.754   0.317 -0.0265 -0.2037  0.4122
   11CHTO   H68 4498   6.709   6.821   0.286 -1.4306  1.6590  1.7248
   11CHTO   C39 4499   6.455   6.637   0.285 -0.0311 -0.3876  0.0384
   11CHTO   H81 4500   6.517   6.556   0.323  0.4359  0.6897  1.6172
   11CHTO    N7 4501   6.375   6.697   0.403 -0.3100 -0.0074 -0.1690
   11CHTO   H73 4502   6.353   6.610   0.463 -0.8989  0.4822  0.3212
   11CHTO   H74 4503   6.291   6.750   0.363 -1.6399 -1.6406  0.4046
   11CHTO   C40 4504   6.358   6.567   0.183  0.7654  0.9643 -0.1820
   11CHTO   H82 4505   6.282   6.632   0.140 -0.0445 -0.1827 -0.4995
   11CHTO   O26 4506   6.437   6.499   0.082 -0.0970  0.4098  0.2627
   11CHTO   C41 4507   6.512   6.588   0.007  0.7454 -0.3265  0.2490
   11CHTO   H83 4508   6.450   6.661  -0.048  2.1722 -0.6755 -1.9284
   11CHTO   C52 4509   6.587   6.513  -0.114  0.1501 -0.1873  0.0840
   11CHTO   O35 4510   6.492   6.465  -0.220  0.3309 -0.1143 -0.6552
   11CHTO   H71 4511   6.525   6.490  -0.304  3.5827 -0.0774  0.5351
   11CHTO   O28 4512   6.312   6.450   0.247 -0.8675  0.3318  0.9306
   11CHTO   C42 4513   6.176   6.407   0.227 -0.2068 -0.3820  0.3670
   11CHTO   H84 4514   6.145   6.440   0.129 -0.3422 -0.5490  0.3527
   11CHTO   C44 4515   6.075   6.469   0.334 -0.3845 -0.5442  1.1312
   11CHTO   H86 4516   6.123   6.465   0.432  2.2169 -2.2860 -0.1628
   11CHTO   O32 4517   6.064   6.609   0.305  0.0945 -0.4513 -0.7885
   11CHTO   H69 4518   6.091   6.621   0.215 -0.8373  1.6451 -0.8239
   11CHTO   C48 4519   5.933   6.396   0.325 -0.2418  0.4771  0.0832
   11CHTO   H90 4520   5.893   6.431   0.230  0.6625 -0.9072 -0.8173
   11CHTO    N9 4521   5.827   6.435   0.424  0.1315  0.1274  0.0452
   11CHTO   H77 4522   5.724   6.406   0.410 -0.0876  0.6470  0.5266
   11CHTO   H78 4523   5.828   6.543   0.435 -0.8020  0.0233  1.2415
   11CHTO   C51 4524   5.950   6.239   0.309 -0.2314 -0.4645 -0.0295
   11CHTO   H93 4525   5.997   6.198   0.398  2.6037 -2.0842 -2.1563
   11CHTO   O30 4526   6.039   6.214   0.194  0.1972 -0.4729 -0.1523
   11CHTO   C46 4527   6.178   6.255   0.221 -0.4408 -0.1812  0.2669
   11CHTO   H88 4528   6.211   6.216   0.317  0.4722  1.2041  0.5187
   11CHTO   C53 4529   6.265   6.202   0.109 -0.6959 -0.2460  0.1289
   11CHTO   O72 4530   6.273   6.062   0.124 -0.2600  0.2293 -0.0691
   11CHTO  H199 4531   6.327   6.029   0.055  0.2105  0.1904  0.3179
   11CHTO   O22 4532   5.826   6.173   0.278 -0.8755  0.2726  0.5483
   11CHTO   C31 4533   5.774   6.058   0.359 -0.5672  0.7724  1.2024
   11CHTO   H59 4534   5.841   6.055   0.447 -0.8070 -0.4721  1.3454
   11CHTO   C29 4535   5.631   6.085   0.407  0.1824  0.2180 -0.2012
   11CHTO   H57 4536   5.568   6.100   0.318  0.4798 -3.4169 -1.1009
   11CHTO   O21 4537   5.623   6.199   0.488  0.0558  0.4217  0.1399
   11CHTO   H37 4538   5.627   6.275   0.433 -1.2404 -0.2140 -0.8691
   11CHTO   C27 4539   5.581   5.956   0.486  0.0794  0.3878  0.1842
   11CHTO   H55 4540   5.638   5.949   0.580 -0.3940  0.1676  0.4555
   11CHTO    N5 4541   5.442   5.962   0.522 -0.1945  0.2473  0.4453
   11CHTO   H43 4542   5.418   6.041   0.592 -0.6875  0.8206 -0.3701
   11CHTO   H44 4543   5.373   5.960   0.440  0.3473  1.8430 -0.0748
   11CHTO   C25 4544   5.604   5.834   0.382 -0.1958  0.3510  0.1213
   11CHTO   H53 4545   5.565   5.855   0.281 -1.6406  1.3201  0.8580
   11CHTO   O17 4546   5.743   5.822   0.345 -0.1299 -1.0782 -0.1485
   11CHTO   C32 4547   5.804   5.928   0.273  0.3220 -0.7020 -0.6588
   11CHTO   H60 4548   5.782   5.950   0.168 -0.8294  1.4581 -0.0015
   11CHTO   C36 4549   5.952   5.891   0.270  0.2145  0.5958 -0.0779
   11CHTO   O25 4550   5.986   5.757   0.240  1.0022 -0.7273  0.5242
   11CHTO   H40 4551   6.061   5.755   0.184  2.3398 -0.3035  2.2550
   11CHTO   O15 4552   5.559   5.679   0.437 -0.1863  0.1104 -0.2555
   11CHTO   C19 4553   5.459   5.577   0.439 -0.2346 -0.1446  0.3156
   11CHTO   H47 4554   5.487   5.502   0.514  0.8866  0.7450  0.7956
   11CHTO   C20 4555   5.316   5.635   0.469  0.0333  0.1193 -0.4194
   11CHTO   H48 4556   5.291   5.716   0.400  3.5130 -0.7869 -2.9264
   11CHTO   O19 4557   5.323   5.678   0.609  0.1824  0.8005 -0.0019
   11CHTO   H35 4558   5.392   5.739   0.625  1.6055 -0.3460 -1.5974
   11CHTO   C21 4559   5.205   5.518   0.460  0.5741 -0.5459 -0.1120
   11CHTO   H49 4560   5.216   5.453   0.547  0.2382 -3.2174 -2.0151
   11CHTO    N4 4561   5.066   5.560   0.470 -0.1476  0.2481 -0.1778
   11CHTO   H41 4562   5.015   5.534   0.561  0.6802 -1.2269 -0.1054
   11CHTO   H42 4563   5.069   5.668   0.465  1.0436  0.4621  3.7080
   11CHTO   C22 4564   5.225   5.424   0.338 -0.1435  1.0312 -0.0742
   11CHTO   H50 4565   5.191   5.478   0.249  1.7633 -0.1037 -1.5277
   11CHTO   O14 4566   5.366   5.397   0.316  0.4923  0.4772  0.1766
   11CHTO   C23 4567   5.454   5.504   0.302 -0.1973 -0.6319  0.4778
   11CHTO   H51 4568   5.423   5.573   0.222  1.0212 -0.0196  0.5238
   11CHTO   C34 4569   5.584   5.430   0.272  0.2989 -0.5999 -0.4687
   11CHTO   O23 4570   5.578   5.369   0.148 -0.1788  0.0212  0.2685
   11CHTO   H38 4571   5.516   5.299   0.141  1.1612 -1.1896  0.2569
   11CHTO   O16 4572   5.161   5.295   0.355  0.2707 -0.4129 -0.5884
   11CHTO   C24 4573   5.076   5.252   0.224  0.9439  0.4190 -0.4072
   11CHTO   H52 4574   5.088   5.321   0.140  0.4847  0.1597 -0.6923
   11CHTO   C26 4575   4.928   5.235   0.258  0.3526  0.0826 -0.2069
   11CHTO   H54 4576   4.912   5.155   0.333  0.2326 -2.0045 -2.3917
   11CHTO   O20 4577   4.871   5.356   0.318 -0.9342 -0.4947  0.3229
   11CHTO   H36 4578   4.892   5.377   0.407 -0.5669  0.7675 -0.0474
   11CHTO   C30 4579   4.847   5.195   0.129 -0.9360 -0.3680 -0.6470
   11CHTO   H58 4580   4.840   5.287   0.069 -1.1749  1.8518  2.6699
   11CHTO    N6 4581   4.709   5.160   0.165 -0.1478  0.0332 -0.2959
   11CHTO   H45 4582   4.657   5.246   0.204 -2.7871 -2.2339  1.4431
   11CHTO   H46 4583   4.709   5.081   0.238  0.0304 -2.0070 -2.4246
   11CHTO   C33 4584   4.922   5.080   0.049  0.0611 -0.1027  0.0533
   11CHTO   H61 4585   4.901   4.987   0.103 -0.0167  0.9417  1.8585
   11CHTO   O18 4586   5.062   5.078   0.043  0.7089  0.3900  0.0968
   11CHTO   C28 4587   5.124   5.108   0.172  0.5702  0.1457 -0.0083
   11CHTO   H56 4588   5.112   5.030   0.247 -1.6274  0.2237 -0.2403
   11CHTO   C35 4589   5.277   5.115   0.154  0.5768 -0.3021  0.0099
   11CHTO   O24 4590   5.331   5.012   0.072 -0.0500  0.2249  0.0120
   11CHTO   H39 4591   5.331   4.940   0.131 -2.6224 -0.6038 -0.9333
   11CHTO    O9 4592   4.860   5.064  -0.081 -0.5797  0.2463  0.0772
   11CHTO   C13 4593   4.915   5.188  -0.178 -0.0526  0.3653 -0.6484
   11CHTO   H26 4594   4.971   5.264  -0.120  2.5746 -0.8039 -1.5518
   11CHTO   C11 4595   4.798   5.252  -0.252  0.3262  0.8674  0.3289
   11CHTO   H24 4596   4.739   5.297  -0.171  0.7781 -0.2623  1.3091
   11CHTO    O8 4597   4.714   5.154  -0.307  0.1531  0.0162 -0.2224
   11CHTO    H3 4598   4.625   5.184  -0.302  0.1906 -0.2396  2.5560
   11CHTO    C9 4599   4.846   5.372  -0.337 -0.5310  0.2992 -0.1169
   11CHTO   H22 4600   4.862   5.452  -0.264  1.4212  0.7428 -0.9918
   11CHTO    N2 4601   4.756   5.432  -0.434 -0.3250 -0.5540  0.2299
   11CHTO   H10 4602   4.809   5.517  -0.476  1.5421 -0.7699  2.0818
   11CHTO   H11 4603   4.722   5.364  -0.510 -1.8699  0.7386 -0.2605
   11CHTO    C7 4604   4.998   5.348  -0.379  0.6357 -0.3813  0.4687
   11CHTO   H20 4605   5.051   5.379  -0.287  0.9533 -2.5655  1.0419
   11CHTO    O4 4606   5.032   5.213  -0.409 -0.0592  0.1858 -0.2740
   11CHTO   C14 4607   5.018   5.130  -0.287 -0.1781 -0.2537  0.8625
   11CHTO   H27 4608   5.122   5.130  -0.247 -0.0792  0.7408  0.6035
   11CHTO   C18 4609   4.992   4.979  -0.341  0.4574 -0.9798 -0.5338
   11CHTO   O13 4610   5.043   4.903  -0.229 -0.7055  0.0394  0.1810
   11CHTO    H7 4611   5.023   4.811  -0.235 -0.9518  0.0705  0.5489
   11CHTO    O2 4612   5.061   5.434  -0.523 -0.0925 -0.1017 -0.6191
   11CHTO    C1 4613   5.171   5.512  -0.480  0.4704 -0.0260  0.6674
   11CHTO   H14 4614   5.224   5.461  -0.397 -0.3931  1.8693  2.4240
   11CHTO    C2 4615   5.140   5.655  -0.426  1.1852  0.1138 -0.9530
   11CHTO   H15 4616   5.074   5.704  -0.499 -1.0420  2.5431  2.5227
   11CHTO    O6 4617   5.074   5.639  -0.300 -0.5009  0.1014 -0.0568
   11CHTO    H1 4618   5.146   5.646  -0.240  1.4083 -0.4399 -2.1785
   11CHTO    C3 4619   5.277   5.744  -0.412  0.4916 -0.8187  0.1299
   11CHTO   H16 4620   5.345   5.724  -0.328 -0.3169 -0.8578  0.7855
   11CHTO    N1 4621   5.232   5.886  -0.382  0.4899 -0.1148  0.1089
   11CHTO    H8 4622   5.195   5.887  -0.281  2.8044 -0.9804  1.0104
   11CHTO    H9 4623   5.159   5.929  -0.449  0.4587 -0.0726  0.1700
   11CHTO    C4 4624   5.358   5.725  -0.538 -1.0417  0.3506  0.2340
   11CHTO   H17 4625   5.311   5.773  -0.624  1.7496  0.4652 -1.2744
   11CHTO    O1 4626   5.372   5.585  -0.566  0.1325  0.2629  0.0087
   11CHTO    C5 4627   5.261   5.516  -0.610  0.0829 -0.1878  1.1294
   11CHTO   H18 4628   5.206   5.567  -0.689  1.3152  1.4684  1.3116
   11CHTO   C16 4629   5.315   5.377  -0.659  0.7601 -0.7718  0.7340
   11CHTO   O11 4630   5.363   5.304  -0.546  0.6463  0.1220  0.4769
   11CHTO    H5 4631   5.453   5.284  -0.559  0.4218 -1.0050  0.5612
   11CHTO    O3 4632   5.496   5.763  -0.514  0.5062  0.9191 -0.8527
   11CHTO    C6 4633   5.578   5.797  -0.629 -0.7195  0.0177  0.7586
   11CHTO   H19 4634   5.523   5.769  -0.719 -0.9759  0.5565  0.7432
   11CHTO    C8 4635   5.594   5.956  -0.629 -0.3534 -0.6187  0.1176
   11CHTO   H21 4636   5.634   5.982  -0.531  2.4547  0.6880 -1.3143
   11CHTO    O7 4637   5.462   6.008  -0.648 -0.2484 -0.3571  0.1358
   11CHTO    H2 4638   5.443   6.079  -0.590 -0.1646 -0.5885  0.4465
   11CHTO   C12 4639   5.707   5.994  -0.739 -0.3284 -0.6173  0.4189
   11CHTO   H25 4640   5.655   5.979  -0.836 -2.2927 -0.0372  1.3573
   11CHTO    N3 4641   5.735   6.147  -0.733  0.6401  0.0960 -0.3415
   11CHTO   H12 4642   5.691   6.206  -0.812 -0.6848 -0.6334 -0.1576
   11CHTO   H13 4643   5.717   6.191  -0.636 -1.9275 -0.2516 -0.6337
   11CHTO   C15 4644   5.837   5.909  -0.736  0.4804  0.6276  0.3045
   11CHTO   H28 4645   5.916   5.932  -0.664  0.5665  0.8104  0.1507
   11CHTO   O10 4646   5.903   5.918  -0.862  0.8462  0.7542  0.1760
   11CHTO    H4 4647   5.912   6.009  -0.882  0.0443  1.3378  2.2832
   11CHTO    O5 4648   5.809   5.768  -0.739  0.5721  0.1483 -0.4524
   11CHTO   C10 4649   5.721   5.724  -0.636 -0.0412  1.0385  0.5006
   11CHTO   H23 4650   5.773   5.723  -0.540  1.9259  1.9605 -0.5252
   11CHTO   C17 4651   5.697   5.578  -0.668  0.1661  0.5005 -0.3290
   11CHTO   O12 4652   5.811   5.495  -0.646 -0.3093 -0.5657  0.1340
   11CHTO    H6 4653   5.793   5.406  -0.671  0.6782 -0.4845 -0.9007
   12CHTO  H203 4654   4.761  11.947   1.575  0.6772  3.0365  2.5803
   12CHTO   O82 4655   4.756  11.902   1.657 -0.0937 -0.6374  0.6384
   12CHTO  C123 4656   4.871  11.926   1.737 -0.0253  0.1454  0.0137
   12CHTO  H227 4657   4.915  12.022   1.706  1.6406 -0.2321  1.1213
   12CHTO   O77 4658   4.820  11.930   1.876  0.8496 -0.3926  0.0228
   12CHTO  C118 4659   4.923  11.949   1.976 -0.4110  0.0156  0.0045
   12CHTO  H222 4660   4.983  12.039   1.957  1.6383 -1.0685  1.1572
   12CHTO  C125 4661   4.853  11.973   2.114  0.9252  0.1208  0.5345
   12CHTO   O84 4662   4.762  11.870   2.158  0.2917 -0.8234  0.4800
   12CHTO  H205 4663   4.792  11.791   2.116 -0.3901 -0.9608  0.2405
   12CHTO  C114 4664   5.014  11.825   1.982 -0.2742 -0.4012 -0.2517
   12CHTO  H218 4665   4.949  11.743   2.014 -1.8920  1.1708  0.5448
   12CHTO  C116 4666   5.071  11.793   1.836 -0.5181  0.3387 -0.2134
   12CHTO  H220 4667   5.159  11.856   1.812  0.8403 -1.2354  0.5212
   12CHTO   O79 4668   5.123  11.654   1.843  0.3840  0.0919  0.6000
   12CHTO  H201 4669   5.204  11.633   1.802 -0.2462 -0.1438 -0.5459
   12CHTO  C120 4670   4.967  11.807   1.713  0.5740  0.5242 -1.3564
   12CHTO  H224 4671   4.917  11.708   1.711 -1.6786  1.5599  0.5431
   12CHTO   N21 4672   5.034  11.802   1.583 -0.4785 -0.8650  0.1245
   12CHTO  H211 4673   5.131  11.756   1.580 -0.0607  0.0451 -0.7657
   12CHTO  H212 4674   4.973  11.752   1.509  0.2371  0.6461 -1.5527
   12CHTO   O75 4675   5.123  11.853   2.071  0.4916  0.1211 -0.0824
   12CHTO  C112 4676   5.123  11.741   2.203  0.6492 -0.8778 -0.2087
   12CHTO  H216 4677   5.064  11.654   2.170 -0.6047 -0.5863  1.2374
   12CHTO   O73 4678   5.059  11.805   2.314 -0.3363  0.7969 -0.7037
   12CHTO  C113 4679   5.024  11.700   2.409  0.1197 -0.1489  0.4212
   12CHTO  H217 4680   4.970  11.617   2.358  2.2518 -0.8519 -0.7337
   12CHTO  C124 4681   4.912  11.769   2.505 -0.1003 -0.3299 -0.2279
   12CHTO   O83 4682   4.862  11.683   2.612  0.1547 -0.1957  0.2562
   12CHTO  H204 4683   4.798  11.721   2.668  1.0748  0.9862  0.5204
   12CHTO  C109 4684   5.162  11.642   2.469  0.1489 -0.2377 -0.3902
   12CHTO  H213 4685   5.211  11.728   2.517  0.0067 -0.5469  0.3254
   12CHTO  C110 4686   5.258  11.600   2.357 -0.7532 -0.8829  0.3978
   12CHTO  H214 4687   5.224  11.500   2.328 -0.2167 -0.7680 -0.6285
   12CHTO   O78 4688   5.385  11.565   2.422 -0.3488 -0.1881 -0.2211
   12CHTO  H200 4689   5.448  11.531   2.361 -1.4423 -1.0528 -0.8820
   12CHTO  C111 4690   5.272  11.701   2.238 -0.1828 -0.0820  0.4557
   12CHTO  H215 4691   5.324  11.791   2.273  2.1831 -1.7451  1.2964
   12CHTO   N19 4692   5.345  11.647   2.122  0.5316 -0.4821  0.2775
   12CHTO  H207 4693   5.287  11.567   2.078  0.9242 -0.1935 -0.7801
   12CHTO  H208 4694   5.440  11.599   2.142  1.2088  0.2412 -1.1220
   12CHTO   O74 4695   5.133  11.539   2.568  0.3690  0.7880  0.5201
   12CHTO  C115 4696   5.223  11.515   2.686  0.3738  0.1560  0.0752
   12CHTO  H219 4697   5.311  11.579   2.679 -0.3126  1.1618  0.5239
   12CHTO   O76 4698   5.158  11.550   2.806  0.2107 -0.2371  0.0637
   12CHTO  C122 4699   5.028  11.480   2.815  0.5795 -0.4737 -0.3377
   12CHTO  H226 4700   4.952  11.528   2.754 -1.0862 -1.4643  0.9162
   12CHTO  C126 4701   4.972  11.495   2.968  0.4819  0.1273  0.0996
   12CHTO   O85 4702   4.960  11.636   2.997  0.0791 -0.0529 -0.5980
   12CHTO  H206 4703   5.040  11.677   2.973  0.0243 -1.1331 -2.6989
   12CHTO  C121 4704   5.035  11.326   2.765 -0.8419 -0.2813 -0.2536
   12CHTO  H225 4705   4.980  11.258   2.833 -0.8201  1.7320  1.8468
   12CHTO   O81 4706   4.954  11.308   2.652 -0.0251  0.1889  0.0788
   12CHTO  H202 4707   4.927  11.384   2.604  0.4023 -0.8362 -1.8792
   12CHTO  C119 4708   5.177  11.281   2.759  0.6128 -0.6125 -0.6356
   12CHTO  H223 4709   5.220  11.289   2.859  1.4870 -0.2432 -1.0352
   12CHTO  C117 4710   5.266  11.365   2.669 -1.0882  0.1470 -0.1461
   12CHTO  H221 4711   5.250  11.349   2.563 -1.0672 -2.1720  0.1783
   12CHTO   N20 4712   5.415  11.336   2.693 -0.0011 -0.0017  0.1306
   12CHTO  H209 4713   5.426  11.229   2.693 -1.5065 -0.2653 -3.7442
   12CHTO  H210 4714   5.476  11.368   2.610 -0.6366  0.6421 -0.1024
   12CHTO   O80 4715   5.189  11.124   2.734 -0.2650 -0.3075  0.4106
   12CHTO  C103 4716   5.144  11.061   2.597  0.1380 -0.1243 -0.1965
   12CHTO  H190 4717   5.065  11.117   2.546  0.0184 -2.2018 -2.3648
   12CHTO  C101 4718   5.264  11.033   2.496 -0.7728 -0.5981 -0.2424
   12CHTO  H188 4719   5.354  11.006   2.551  0.3936  0.4662 -1.5854
   12CHTO   O68 4720   5.298  11.163   2.434 -0.0071 -0.1921  0.0728
   12CHTO  H168 4721   5.389  11.182   2.445  0.3062 -2.1283  0.9661
   12CHTO   C99 4722   5.227  10.916   2.390  0.1064 -0.5279 -0.6002
   12CHTO  H186 4723   5.141  10.951   2.329  2.2252 -0.6227 -3.7308
   12CHTO   N17 4724   5.333  10.889   2.286  0.4814 -0.1423 -0.8984
   12CHTO  H174 4725   5.309  10.804   2.224  0.5879  0.0853 -1.2503
   12CHTO  H175 4726   5.415  10.861   2.350 -1.1811 -2.6555  0.2380
   12CHTO   C97 4727   5.171  10.792   2.467 -0.0802 -0.5354  0.1524
   12CHTO  H184 4728   5.254  10.757   2.531 -0.3854 -0.1693  0.7551
   12CHTO   O64 4729   5.053  10.820   2.546 -0.3468  0.2008  0.2036
   12CHTO  C104 4730   5.088  10.917   2.648 -0.3911  0.3355 -0.6315
   12CHTO  H191 4731   5.164  10.876   2.714 -1.4093  1.1989  1.0937
   12CHTO  C108 4732   4.971  10.950   2.742  0.0740 -0.0484 -0.2884
   12CHTO   O71 4733   4.851  10.988   2.664 -0.4957  0.6400 -0.8521
   12CHTO  H171 4734   4.808  11.064   2.697 -0.7812 -0.0542  0.3725
   12CHTO   O62 4735   5.127  10.695   2.374  0.2186 -0.3398 -0.1826
   12CHTO   C91 4736   5.169  10.553   2.387 -0.2650  0.2566 -0.8278
   12CHTO  H178 4737   5.273  10.550   2.416 -0.5372  0.5394  0.1968
   12CHTO   C92 4738   5.155  10.489   2.246  0.0146  0.3913 -0.8857
   12CHTO  H179 4739   5.054  10.517   2.213 -1.8529 -0.7108  3.4576
   12CHTO   O66 4740   5.254  10.556   2.164 -0.0458  0.3085 -0.1856
   12CHTO  H166 4741   5.220  10.580   2.080  1.3719 -3.5685 -2.0025
   12CHTO   C93 4742   5.168  10.331   2.243 -0.2211  1.0237 -0.2402
   12CHTO  H180 4743   5.270  10.306   2.275  0.1711  2.0144 -0.7004
   12CHTO   N16 4744   5.144  10.275   2.105 -0.2567  0.5776  0.7460
   12CHTO  H172 4745   5.230  10.279   2.040  0.1438 -0.1336  1.2223
   12CHTO  H173 4746   5.107  10.173   2.106 -0.9132  0.8047  0.1072
   12CHTO   C94 4747   5.065  10.278   2.348 -0.0068  0.0718 -0.5036
   12CHTO  H181 4748   4.966  10.319   2.329  0.1625  0.3590 -0.7648
   12CHTO   O61 4749   5.104  10.327   2.480  0.2414 -0.5578  0.0055
   12CHTO   C95 4750   5.095  10.466   2.494  0.4829  0.2643  0.3427
   12CHTO  H182 4751   4.990  10.493   2.490  0.3758 -0.0180  1.1590
   12CHTO  C106 4752   5.141  10.508   2.645  0.1489 -0.0666 -0.1556
   12CHTO   O69 4753   5.062  10.458   2.752  0.0716 -0.1782  0.2806
   12CHTO  H169 4754   5.094  10.501   2.829  0.3262  0.9660 -0.4521
   12CHTO   O63 4755   5.054  10.110   2.350  0.1943  0.6516  0.3367
   12CHTO   C96 4756   5.130  10.033   2.444  0.7182  0.3646 -0.0568
   12CHTO  H183 4757   5.187  10.096   2.511  1.2293 -0.0834 -0.0724
   12CHTO   C98 4758   5.226   9.938   2.377  1.3666  0.4577  0.6445
   12CHTO  H185 4759   5.167   9.870   2.314 -0.7021  1.2536  1.6850
   12CHTO   O67 4760   5.314  10.010   2.290  0.3782  0.1027  0.2992
   12CHTO  H167 4761   5.383   9.951   2.267 -0.0592  1.0842 -3.9808
   12CHTO  C102 4762   5.316   9.864   2.498  0.2773 -0.0337  0.4282
   12CHTO  H189 4763   5.396   9.933   2.529  0.9009  0.0558 -1.3162
   12CHTO   N18 4764   5.387   9.747   2.443 -0.6027 -0.2090  0.3810
   12CHTO  H176 4765   5.316   9.671   2.416 -0.5327 -0.3974  0.7291
   12CHTO  H177 4766   5.453   9.774   2.362  1.8157 -0.9679  2.0341
   12CHTO  C105 4767   5.234   9.827   2.627 -0.4766  0.0162 -0.0431
   12CHTO  H192 4768   5.187   9.730   2.609  0.0916  0.0128 -1.5158
   12CHTO   O65 4769   5.121   9.910   2.659  0.6086  0.3167  0.5205
   12CHTO  C100 4770   5.041   9.953   2.550 -0.4171 -0.8012  0.3733
   12CHTO  H187 4771   4.995   9.866   2.500 -0.5741 -0.8373  0.5759
   12CHTO  C107 4772   4.935  10.038   2.618 -0.2326 -0.1135 -0.2253
   12CHTO   O70 4773   4.982  10.152   2.676  0.5422  0.2166  0.2333
   12CHTO  H170 4774   5.042  10.125   2.743 -0.6782  0.1659  1.3232
   12CHTO   O57 4775   5.348   9.817   2.760  0.7814  0.6838  0.0288
   12CHTO   C85 4776   5.314   9.708   2.850 -0.8828  0.3967  0.1845
   12CHTO  H157 4777   5.229   9.647   2.813  0.8433 -1.6210 -0.5545
   12CHTO   C83 4778   5.262   9.765   2.987 -0.6741  0.0118  0.4043
   12CHTO  H155 4779   5.181   9.838   2.978  0.2571  1.0389  0.1955
   12CHTO   O56 4780   5.369   9.842   3.041  0.6616  0.0649 -0.5521
   12CHTO  H135 4781   5.333   9.896   3.108  1.3416 -0.4150  0.2023
   12CHTO   C81 4782   5.217   9.647   3.077  0.1864  0.1925  0.1982
   12CHTO  H153 4783   5.138   9.597   3.021  0.4393  1.1083 -1.0133
   12CHTO   N14 4784   5.149   9.677   3.207 -0.0609 -0.5897  0.0885
   12CHTO  H141 4785   5.153   9.779   3.239  1.8004 -0.5153 -0.3012
   12CHTO  H142 4786   5.177   9.611   3.286  1.1450  0.0982  0.2523
   12CHTO   C79 4787   5.337   9.546   3.082 -0.1140 -0.0162 -0.1300
   12CHTO  H151 4788   5.295   9.451   3.116 -0.0429  0.5388  1.5531
   12CHTO   O52 4789   5.414   9.511   2.959 -0.1846  0.1404  0.3855
   12CHTO   C86 4790   5.445   9.620   2.875  0.1784 -0.4546 -0.5737
   12CHTO  H158 4791   5.525   9.675   2.930 -1.1087 -0.5262  1.4273
   12CHTO   C90 4792   5.508   9.571   2.736 -0.1939  0.2313 -0.0433
   12CHTO   O60 4793   5.634   9.515   2.755  0.0599  0.4258  0.8578
   12CHTO  H138 4794   5.624   9.463   2.833  0.7814 -4.6093 -2.2286
   12CHTO   O50 4795   5.437   9.584   3.179 -0.3007  0.9472 -0.0194
   12CHTO   C73 4796   5.484   9.531   3.307  0.4532 -0.3607 -0.4172
   12CHTO  H145 4797   5.409   9.463   3.349  1.2316 -2.2478 -2.0010
   12CHTO   C74 4798   5.523   9.650   3.406 -0.5171  0.3763 -0.6028
   12CHTO  H146 4799   5.428   9.703   3.419 -1.1386 -1.0526  0.8430
   12CHTO   O54 4800   5.574   9.607   3.536 -0.2267 -0.1604 -0.4944
   12CHTO  H133 4801   5.511   9.615   3.605 -0.5346 -2.1140 -0.5183
   12CHTO   C75 4802   5.627   9.736   3.326 -0.5123 -0.5107 -1.0170
   12CHTO  H147 4803   5.590   9.760   3.225 -0.3324 -0.8838 -1.1713
   12CHTO   N13 4804   5.663   9.870   3.384  0.8253 -0.2399 -0.3598
   12CHTO  H139 4805   5.770   9.877   3.379  0.8005  0.6205  0.2587
   12CHTO  H140 4806   5.632   9.956   3.326  0.0954  0.7945  1.5305
   12CHTO   C76 4807   5.759   9.647   3.299 -0.4647  0.3903  0.6487
   12CHTO  H148 4808   5.803   9.624   3.396 -2.1312 -0.3809  1.2394
   12CHTO   O49 4809   5.722   9.518   3.232  0.0383 -0.4246  0.5995
   12CHTO   C77 4810   5.613   9.448   3.285 -1.5236 -0.4275 -0.3515
   12CHTO  H149 4811   5.640   9.399   3.379 -2.2207  0.2302  0.2001
   12CHTO   C88 4812   5.588   9.342   3.178  0.6690  0.1941  0.2616
   12CHTO   O58 4813   5.478   9.226   3.216  0.4446  0.4043  0.3542
   12CHTO  H136 4814   5.520   9.153   3.258 -0.2464 -1.8812 -2.7791
   12CHTO   O51 4815   5.855   9.725   3.193 -0.0891 -0.1433  0.7924
   12CHTO   C78 4816   5.986   9.646   3.164 -0.0328  0.0626  0.0743
   12CHTO  H150 4817   5.967   9.537   3.167 -0.7343  0.1666 -0.3821
   12CHTO   C80 4818   6.097   9.685   3.269  0.1276  0.3201 -0.1478
   12CHTO  H152 4819   6.095   9.796   3.278  2.2275  0.2552  1.4085
   12CHTO   O55 4820   6.058   9.635   3.398 -0.5672 -0.2158 -0.3397
   12CHTO  H134 4821   6.007   9.697   3.446  0.4130  0.6952 -0.4469
   12CHTO   C84 4822   6.239   9.649   3.223  0.6325 -0.3600 -0.2032
   12CHTO  H156 4823   6.243   9.540   3.229 -0.2106 -0.2505  3.2455
   12CHTO   N15 4824   6.342   9.716   3.309  0.8870  0.0462 -0.4989
   12CHTO  H143 4825   6.376   9.655   3.391  1.3203  1.4127  0.3451
   12CHTO  H144 4826   6.424   9.742   3.246 -1.9003  1.3180 -3.7495
   12CHTO   C87 4827   6.262   9.679   3.070 -0.6893  0.0694 -0.0240
   12CHTO  H159 4828   6.260   9.786   3.048 -2.7686 -0.0217 -0.3923
   12CHTO   O53 4829   6.155   9.614   2.989 -0.4126  0.2680 -0.4447
   12CHTO   C82 4830   6.032   9.678   3.018 -0.1341 -0.8088 -0.2107
   12CHTO  H154 4831   6.034   9.786   3.004 -0.6460 -0.6990  0.5330
   12CHTO   C89 4832   5.923   9.625   2.924 -0.6294  0.1743 -0.1716
   12CHTO   O59 4833   5.952   9.672   2.791  0.5455  0.2055  0.1830
   12CHTO  H137 4834   5.903   9.644   2.716  0.0607  2.6246 -0.4406
   12CHTO   O45 4835   6.401   9.619   3.017  0.0039 -0.1928 -0.1866
   12CHTO   C67 4836   6.409   9.481   2.993 -0.2225 -0.2495  0.0737
   12CHTO  H124 4837   6.338   9.427   3.055 -1.5733  0.2448 -1.0212
   12CHTO   C65 4838   6.376   9.454   2.843 -0.1333  0.6957  0.7377
   12CHTO  H122 4839   6.289   9.513   2.815 -0.1986  0.2364 -0.0422
   12CHTO   O44 4840   6.346   9.316   2.825 -0.6151  0.1658  0.5836
   12CHTO  H102 4841   6.253   9.309   2.826 -0.6857  1.0481  0.7496
   12CHTO   C63 4842   6.493   9.519   2.760 -0.4956  0.3963  0.6130
   12CHTO  H120 4843   6.505   9.620   2.798 -0.1288  0.1572  1.1410
   12CHTO   N11 4844   6.477   9.532   2.606  0.3207  0.5565 -0.1210
   12CHTO  H108 4845   6.380   9.572   2.585  0.8070  1.6781 -0.3151
   12CHTO  H109 4846   6.487   9.436   2.560 -0.3707  0.0523  0.7671
   12CHTO   C61 4847   6.635   9.448   2.796 -0.1703 -0.2794 -0.2639
   12CHTO  H118 4848   6.712   9.512   2.750  0.9147 -1.1244  0.3588
   12CHTO   O40 4849   6.656   9.450   2.936  0.2197  0.7249 -0.7540
   12CHTO   C68 4850   6.552   9.425   3.026  0.6237 -0.1610 -0.5376
   12CHTO  H125 4851   6.581   9.485   3.115 -0.4770  1.6956 -1.4010
   12CHTO   C72 4852   6.566   9.279   3.067  0.6787 -0.7368  0.5331
   12CHTO   O48 4853   6.449   9.221   3.124 -0.1387  0.3520 -0.7263
   12CHTO  H105 4854   6.456   9.128   3.118 -0.6843  0.2081  0.5611
   12CHTO   O38 4855   6.652   9.313   2.743 -0.0585 -0.2957 -0.1592
   12CHTO   C55 4856   6.782   9.296   2.688 -0.4252  0.0461  0.2635
   12CHTO  H112 4857   6.863   9.366   2.712 -0.4164  0.8147 -1.9095
   12CHTO   C56 4858   6.770   9.268   2.527  0.3745  0.7062  0.1194
   12CHTO  H113 4859   6.691   9.196   2.502 -0.4148  0.4721  3.0479
   12CHTO   O42 4860   6.728   9.397   2.469 -0.2371 -0.0693 -0.4884
   12CHTO  H100 4861   6.725   9.386   2.375 -1.2376 -1.2113 -0.3375
   12CHTO   C57 4862   6.907   9.221   2.458 -0.1694  0.3140  0.4507
   12CHTO  H114 4863   6.979   9.300   2.477 -0.4770  0.7321 -0.1282
   12CHTO   N10 4864   6.909   9.196   2.310 -0.4330 -0.3288  0.3433
   12CHTO  H106 4865   6.813   9.160   2.275  0.3329 -1.4990 -0.6105
   12CHTO  H107 4866   6.991   9.130   2.282  1.0503 -0.1799  4.0372
   12CHTO   C58 4867   6.955   9.094   2.534  0.0161  0.1412  0.3757
   12CHTO  H115 4868   6.884   9.013   2.509  0.9781 -0.5045 -0.3129
   12CHTO   O37 4869   6.956   9.121   2.675 -0.0788  0.8468  0.2436
   12CHTO   C59 4870   6.835   9.167   2.733  1.1255 -0.1569 -0.2570
   12CHTO  H116 4871   6.761   9.094   2.701  0.1218  1.7938 -2.5008
   12CHTO   C70 4872   6.858   9.152   2.881 -0.2514 -0.3672 -0.1698
   12CHTO   O46 4873   6.969   9.218   2.937  0.7248  0.3562 -0.1861
   12CHTO  H103 4874   6.972   9.207   3.030  2.2645 -1.6623 -0.4196
   12CHTO   O39 4875   7.109   9.058   2.497 -1.1014  0.6190  0.2468
   12CHTO   C60 4876   7.141   8.925   2.531 -0.2090  0.3091  0.4386
   12CHTO  H117 4877   7.082   8.895   2.617 -1.3642 -1.1464 -0.8452
   12CHTO   C62 4878   7.093   8.843   2.410 -0.6690  0.3370 -0.2313
   12CHTO  H119 4879   6.983   8.851   2.412 -0.5624  1.8256  3.5185
   12CHTO   O43 4880   7.148   8.889   2.284  0.3075 -0.0717  0.4244
   12CHTO  H101 4881   7.142   8.819   2.222  4.4288  0.8764 -1.1931
   12CHTO   C66 4882   7.126   8.688   2.447 -0.5364 -0.0210 -0.2863
   12CHTO  H123 4883   7.069   8.655   2.534  0.8502 -0.7179  0.3769
   12CHTO   N12 4884   7.082   8.603   2.335 -0.0953  0.7408  0.3723
   12CHTO  H110 4885   7.143   8.514   2.334 -0.8286  0.2396  0.4073
   12CHTO  H111 4886   7.090   8.653   2.239 -1.5465 -0.4005 -0.3653
   12CHTO   C69 4887   7.279   8.666   2.469 -0.3151 -0.7468 -0.6727
   12CHTO  H126 4888   7.342   8.705   2.387 -1.9412  2.4297 -0.4782
   12CHTO   O41 4889   7.310   8.767   2.608 -0.4024  0.2596 -0.3133
   12CHTO   C64 4890   7.293   8.901   2.570 -0.4047 -0.0170  0.0163
   12CHTO  H121 4891   7.359   8.920   2.482 -1.0787 -0.7719 -0.6513
   12CHTO   C71 4892   7.341   8.979   2.697  0.3716 -0.1657  0.6840
   12CHTO   O47 4893   7.255   8.946   2.808 -0.2718 -0.1888  0.0691
   12CHTO  H104 4894   7.297   8.968   2.889  1.9226  0.6858 -1.2323
   12CHTO   O34 4895   7.314   8.502   2.494 -0.7228  0.2562  0.1660
   12CHTO   C49 4896   7.394   8.370   2.513 -0.3092  0.0987  0.5616
   12CHTO   H91 4897   7.444   8.344   2.420  1.0433  1.4047  0.8986
   12CHTO   C47 4898   7.274   8.276   2.545  0.0301  0.1028  0.4921
   12CHTO   H89 4899   7.311   8.173   2.567 -0.6432 -0.5756 -1.4117
   12CHTO   O33 4900   7.192   8.257   2.424 -0.6575 -0.3646 -0.2806
   12CHTO   H70 4901   7.103   8.244   2.451 -0.9005  0.8256 -0.4760
   12CHTO   C45 4902   7.194   8.330   2.680 -0.3372  0.1087  0.2699
   12CHTO   H87 4903   7.120   8.405   2.649  2.1643  2.8157  0.6523
   12CHTO    N8 4904   7.129   8.212   2.736  0.4090 -0.1612  0.2870
   12CHTO   H75 4905   7.055   8.170   2.669  1.2352 -2.9809  1.0811
   12CHTO   H76 4906   7.204   8.138   2.759 -1.2266 -1.0494  2.8802
   12CHTO   C43 4907   7.293   8.404   2.777 -0.3936  0.2010 -0.2571
   12CHTO   H85 4908   7.285   8.511   2.758  2.6842  0.4012 -0.7217
   12CHTO   O29 4909   7.430   8.355   2.761  0.2964 -0.3780 -0.2058
   12CHTO   C50 4910   7.493   8.363   2.631 -0.0031  0.7074  0.2457
   12CHTO   H92 4911   7.550   8.456   2.641 -1.2020  1.4751  0.0445
   12CHTO   C54 4912   7.588   8.241   2.619  0.2188  0.4459 -0.3572
   12CHTO   O36 4913   7.705   8.259   2.546  0.0706  0.5143 -0.0966
   12CHTO   H72 4914   7.685   8.242   2.456  1.6901  1.6534 -0.7057
   12CHTO   O27 4915   7.259   8.405   2.915 -0.3402  0.3689 -0.6450
   12CHTO   C37 4916   7.206   8.467   3.033  0.2241  0.2381  0.0517
   12CHTO   H79 4917   7.273   8.443   3.117 -0.8998  2.9488  1.7789
   12CHTO   C38 4918   7.202   8.622   3.022  0.3431 -0.2400 -0.2119
   12CHTO   H80 4919   7.143   8.648   2.932 -0.3668 -1.0053  0.0286
   12CHTO   O31 4920   7.335   8.676   2.996 -0.0288 -0.4403 -0.2662
   12CHTO   H68 4921   7.350   8.768   2.990 -0.6370 -0.3482 -0.3319
   12CHTO   C39 4922   7.129   8.694   3.143  0.4578  0.4996  0.2609
   12CHTO   H81 4923   7.193   8.679   3.229  0.8368 -1.3722 -0.3264
   12CHTO    N7 4924   7.115   8.844   3.127 -0.4619 -0.2556  0.4568
   12CHTO   H73 4925   7.090   8.872   3.026  3.3631 -0.3073 -0.5823
   12CHTO   H74 4926   7.057   8.892   3.204  0.8102 -0.8963  1.8459
   12CHTO   C40 4927   7.002   8.634   3.189  0.5086  0.0596  0.1999
   12CHTO   H82 4928   6.922   8.650   3.117  0.1061 -0.3522  0.5547
   12CHTO   O26 4929   7.030   8.498   3.199 -0.4443  0.1099  0.3739
   12CHTO   C41 4930   7.060   8.427   3.075 -0.2623 -0.3167  0.5314
   12CHTO   H83 4931   6.992   8.452   2.993  1.6249 -0.9474 -1.2856
   12CHTO   C52 4932   7.046   8.276   3.089 -0.8512  0.0929 -0.4184
   12CHTO   O35 4933   6.904   8.242   3.143  0.5219  0.5584  0.1967
   12CHTO   H71 4934   6.890   8.275   3.230 -0.5231 -0.6703  0.5228
   12CHTO   O28 4935   6.954   8.679   3.321  0.0001  0.0514  0.6441
   12CHTO   C42 4936   6.812   8.676   3.339 -0.6850  1.1870  0.3764
   12CHTO   H84 4937   6.808   8.675   3.448  0.9118  2.1650  0.4543
   12CHTO   C44 4938   6.730   8.552   3.293  0.9543 -0.4669  0.0141
   12CHTO   H86 4939   6.742   8.541   3.185 -0.2482  0.3860 -0.2020
   12CHTO   O32 4940   6.785   8.436   3.350 -0.1254 -0.6154  0.2106
   12CHTO   H69 4941   6.767   8.366   3.289  1.8183  0.7957 -2.0601
   12CHTO   C48 4942   6.575   8.568   3.323 -0.4389 -0.5809  0.1872
   12CHTO   H90 4943   6.551   8.552   3.428 -2.3818  0.2671 -0.0921
   12CHTO    N9 4944   6.491   8.458   3.260  0.3424 -0.0792 -0.4082
   12CHTO   H77 4945   6.533   8.426   3.166  1.4676  0.5707 -0.1304
   12CHTO   H78 4946   6.387   8.482   3.240  0.3465  0.1279 -0.1818
   12CHTO   C51 4947   6.518   8.713   3.276 -0.4339 -0.0270 -0.3423
   12CHTO   H93 4948   6.526   8.718   3.168 -1.1941 -4.6666 -0.7254
   12CHTO   O30 4949   6.594   8.808   3.343  0.0136  0.2017 -0.3764
   12CHTO   C46 4950   6.749   8.813   3.297  0.5538  0.4742  0.4083
   12CHTO   H88 4951   6.749   8.820   3.188 -0.4634  0.2729  0.3853
   12CHTO   C53 4952   6.818   8.926   3.368 -0.2613  0.1232  0.9286
   12CHTO   O72 4953   6.766   9.055   3.332  0.1324  0.4387 -0.5052
   12CHTO  H199 4954   6.680   9.043   3.296 -1.2470  1.5788  2.2148
   12CHTO   O22 4955   6.377   8.733   3.321 -0.3543 -0.1714  0.1327
   12CHTO   C31 4956   6.277   8.830   3.285  0.0343 -0.1302  0.4551
   12CHTO   H59 4957   6.185   8.786   3.329  1.0506 -3.9045 -0.9623
   12CHTO   C29 4958   6.296   8.977   3.347  1.0854 -0.0004  0.1171
   12CHTO   H57 4959   6.383   9.032   3.306  0.9207 -1.1407 -1.8406
   12CHTO   O21 4960   6.323   8.959   3.483  0.3140  0.2769 -0.0009
   12CHTO   H37 4961   6.404   8.914   3.500  0.7571  1.1570  0.2240
   12CHTO   C27 4962   6.171   9.062   3.324 -0.1109  0.0266  0.0900
   12CHTO   H55 4963   6.087   9.012   3.375 -0.1134  1.8628  1.9611
   12CHTO    N5 4964   6.180   9.201   3.383 -0.6286 -0.5392  0.2056
   12CHTO   H43 4965   6.203   9.202   3.488 -2.5731  1.6957  0.6249
   12CHTO   H44 4966   6.249   9.269   3.335  0.2111  0.3000  2.5350
   12CHTO   C25 4967   6.132   9.065   3.177 -1.1215 -0.0861 -0.0958
   12CHTO   H53 4968   6.208   9.121   3.120 -1.6041  0.6457 -0.0399
   12CHTO   O17 4969   6.129   8.935   3.130  0.0835 -0.5177  0.4645
   12CHTO   C32 4970   6.246   8.848   3.136  0.5447 -0.1055 -0.0135
   12CHTO   H60 4971   6.329   8.886   3.076  1.2698 -0.1792  0.9460
   12CHTO   C36 4972   6.205   8.720   3.060  0.3185  0.2311  0.5414
   12CHTO   O25 4973   6.147   8.738   2.931 -0.1289 -0.4837 -0.4074
   12CHTO   H40 4974   6.136   8.648   2.907 -0.0784 -0.8369  0.8729
   12CHTO   O15 4975   5.998   9.128   3.160 -0.2975 -0.2284  0.1339
   12CHTO   C19 4976   5.904   9.151   3.055  0.3336 -0.1718  0.0787
   12CHTO   H47 4977   5.835   9.226   3.098 -0.8785 -2.3361  2.0006
   12CHTO   C20 4978   5.973   9.207   2.928  0.3540  0.6439  0.1155
   12CHTO   H48 4979   6.039   9.133   2.881  1.3012  2.3343 -1.2499
   12CHTO   O19 4980   6.046   9.325   2.968 -0.2536 -0.6808 -0.3188
   12CHTO   H35 4981   6.121   9.300   3.019 -0.1509  0.5262  0.1494
   12CHTO   C21 4982   5.863   9.250   2.833 -0.6758 -0.2092  0.4648
   12CHTO   H49 4983   5.801   9.326   2.880  0.1819 -0.2407  1.6452
   12CHTO    N4 4984   5.905   9.300   2.700 -0.0481  0.4058  0.0479
   12CHTO   H41 4985   5.964   9.390   2.709  1.8981 -0.9309  1.2410
   12CHTO   H42 4986   5.815   9.317   2.644 -0.9979 -1.1095  1.0766
   12CHTO   C22 4987   5.767   9.125   2.800 -0.3427 -0.0263 -0.0591
   12CHTO   H50 4988   5.825   9.050   2.746 -0.2865 -1.3672  1.8244
   12CHTO   O14 4989   5.720   9.063   2.922 -0.0226  1.0203  0.1922
   12CHTO   C23 4990   5.819   9.027   3.020 -0.1006  0.1741 -0.0879
   12CHTO   H51 4991   5.882   8.949   2.975  1.4010  0.3056  1.6939
   12CHTO   C34 4992   5.755   8.963   3.148  0.3222  0.1378  0.8396
   12CHTO   O23 4993   5.850   8.883   3.216 -0.5731  0.5838 -0.1099
   12CHTO   H38 4994   5.830   8.792   3.209 -1.1564  0.6675  0.4229
   12CHTO   O16 4995   5.637   9.150   2.742 -0.4658 -0.1469 -0.2765
   12CHTO   C24 4996   5.592   9.043   2.608 -0.8165 -0.0489  0.3906
   12CHTO   H52 4997   5.624   8.941   2.628 -0.2242  0.3232  1.3788
   12CHTO   C26 4998   5.646   9.099   2.478  0.5180  0.1421 -0.1853
   12CHTO   H54 4999   5.595   9.197   2.460 -0.8856 -0.3347  1.1335
   12CHTO   O20 5000   5.790   9.113   2.479  0.1283  0.4833 -0.1520
   12CHTO   H36 5001   5.829   9.031   2.502  1.8054  1.0038 -1.0651
   12CHTO   C30 5002   5.600   9.018   2.351  0.6791  0.7701  0.0806
   12CHTO   H58 5003   5.655   8.924   2.364  1.4282  0.9071 -1.8300
   12CHTO    N6 5004   5.644   9.075   2.220 -0.0980 -0.3851  0.1818
   12CHTO   H45 5005   5.612   9.022   2.131  0.1301  0.1634 -0.2248
   12CHTO   H46 5006   5.751   9.083   2.220 -0.1305  0.0871 -0.6776
   12CHTO   C33 5007   5.445   8.989   2.351 -0.0202 -0.6502 -0.5566
   12CHTO   H61 5008   5.398   9.079   2.309 -0.4044 -1.1051 -1.0994
   12CHTO   O18 5009   5.397   8.963   2.487  0.4412 -0.2982  0.1064
   12CHTO   C28 5010   5.438   9.042   2.598  0.2424  0.6489  0.5493
   12CHTO   H56 5011   5.408   9.146   2.590  1.7665  1.0118 -0.6004
   12CHTO   C35 5012   5.386   8.974   2.730  0.6722 -0.2652 -0.2271
   12CHTO   O24 5013   5.394   9.028   2.862  0.7583  0.3104 -0.2806
   12CHTO   H39 5014   5.480   9.064   2.872  0.6974 -0.0506  1.8215
   12CHTO    O9 5015   5.403   8.893   2.255  1.0377 -0.6594 -0.1059
   12CHTO   C13 5016   5.462   8.751   2.281 -0.1533 -0.3845 -0.1064
   12CHTO   H26 5017   5.570   8.766   2.299 -0.2888 -1.3667  1.6391
   12CHTO   C11 5018   5.434   8.673   2.145  0.6575  0.4340 -0.0767
   12CHTO   H24 5019   5.489   8.730   2.069 -0.2595 -0.0398 -1.1005
   12CHTO    O8 5020   5.297   8.684   2.113 -0.4703 -0.2176 -0.5283
   12CHTO    H3 5021   5.276   8.756   2.057 -0.9287 -0.7399 -1.0271
   12CHTO    C9 5022   5.487   8.525   2.163  0.3854 -0.3826  0.2856
   12CHTO   H22 5023   5.591   8.530   2.201  0.0178 -1.8999  1.5638
   12CHTO    N2 5024   5.506   8.443   2.038 -0.0190 -0.1620  0.4454
   12CHTO   H10 5025   5.568   8.488   1.963 -0.3753 -0.0413  0.2209
   12CHTO   H11 5026   5.414   8.402   2.000  0.5040  0.1664 -1.1887
   12CHTO    C7 5027   5.409   8.468   2.282  0.1494 -0.0379 -0.0842
   12CHTO   H20 5028   5.453   8.367   2.295 -1.3285 -0.7135 -0.2575
   12CHTO    O4 5029   5.420   8.536   2.407 -0.2442  0.0690 -0.0714
   12CHTO   C14 5030   5.402   8.677   2.404  0.5587 -0.2244 -0.2231
   12CHTO   H27 5031   5.452   8.710   2.498  0.1073  0.3914 -0.1962
   12CHTO   C18 5032   5.250   8.704   2.424 -0.2023 -0.0718  0.2891
   12CHTO   O13 5033   5.202   8.654   2.550 -0.0801 -0.1236  0.0364
   12CHTO    H7 5034   5.214   8.715   2.620  0.7716  0.2124 -0.3894
   12CHTO    O2 5035   5.253   8.456   2.246  0.5397  0.5637 -0.1829
   12CHTO    C1 5036   5.184   8.328   2.239 -0.5217 -0.1726  0.0539
   12CHTO   H14 5037   5.256   8.244   2.239  0.4644  0.6728  0.0018
   12CHTO    C2 5038   5.096   8.314   2.111 -0.1383 -0.5310  0.3920
   12CHTO   H15 5039   5.019   8.391   2.125 -1.2412 -1.2181 -1.6928
   12CHTO    O6 5040   5.179   8.337   2.000  0.3546 -0.4577  0.9078
   12CHTO    H1 5041   5.243   8.405   2.006  1.2871 -1.0353 -2.1358
   12CHTO    C3 5042   5.023   8.173   2.106  0.5760  0.4309 -0.0409
   12CHTO   H16 5043   5.093   8.088   2.106 -0.3592 -0.3427  0.3123
   12CHTO    N1 5044   4.944   8.156   1.980 -0.3121 -0.4148  0.5349
   12CHTO    H8 5045   4.841   8.125   1.989 -0.4470 -0.0865  0.1356
   12CHTO    H9 5046   4.993   8.101   1.901  0.7534  0.3343  0.6660
   12CHTO    C4 5047   4.940   8.158   2.239  0.0708  0.0908 -0.4921
   12CHTO   H17 5048   4.868   8.240   2.240 -1.3392 -1.1261 -0.3981
   12CHTO    O1 5049   5.032   8.169   2.345 -0.0600 -0.2401  0.0999
   12CHTO    C5 5050   5.091   8.300   2.361  0.2276 -0.4734 -0.1360
   12CHTO   H18 5051   5.013   8.377   2.367  1.3237  0.5781  0.7750
   12CHTO   C16 5052   5.171   8.298   2.494  0.4455 -0.3141  0.6645
   12CHTO   O11 5053   5.096   8.251   2.610  0.1636 -0.5426 -0.5799
   12CHTO    H5 5054   5.104   8.158   2.617 -0.7862 -0.8855 -3.3564
   12CHTO    O3 5055   4.878   8.029   2.255 -0.0820 -0.3036  0.1600
   12CHTO    C6 5056   4.737   8.033   2.307 -0.0183 -0.0354 -0.5492
   12CHTO   H19 5057   4.702   8.133   2.333  1.2055  0.0506  0.8636
   12CHTO    C8 5058   4.629   7.993   2.198  0.0484  0.1708  0.4702
   12CHTO   H21 5059   4.662   7.896   2.162 -0.2347 -0.4352  1.8412
   12CHTO    O7 5060   4.637   8.086   2.085 -0.0412 -0.6610  0.4188
   12CHTO    H2 5061   4.696   8.047   2.023 -0.6431  0.0934 -0.6576
   12CHTO   C12 5062   4.487   7.979   2.262  0.1476 -0.4679  0.6214
   12CHTO   H25 5063   4.464   8.084   2.288  0.0020 -0.3925  0.1971
   12CHTO    N3 5064   4.383   7.933   2.165 -0.2271  0.2306  0.3741
   12CHTO   H12 5065   4.290   7.987   2.171  0.9662  2.5560 -1.0557
   12CHTO   H13 5066   4.373   7.826   2.163  0.1305  0.1850  0.7811
   12CHTO   C15 5067   4.494   7.889   2.386 -0.1954  0.3852  0.2708
   12CHTO   H28 5068   4.522   7.791   2.347  0.8660  1.7916 -2.6253
   12CHTO   O10 5069   4.361   7.895   2.476  0.7754  0.2404 -0.1537
   12CHTO    H4 5070   4.384   7.871   2.564  1.9916  1.0883 -0.2154
   12CHTO    O5 5071   4.594   7.939   2.481  0.2024  0.2835  0.6219
   12CHTO   C10 5072   4.734   7.946   2.432  0.7743 -0.0395 -0.2187
   12CHTO   H23 5073   4.765   7.843   2.412  2.9013  0.2953  1.2205
   12CHTO   C17 5074   4.819   7.994   2.552 -0.1417  0.2338 -0.3526
   12CHTO   O12 5075   4.963   7.987   2.530  0.4938 -0.3359  0.0503
   12CHTO    H6 5076   5.000   7.992   2.616 -0.3960 -1.6346  0.5332
   13CHTO  H203 5077   8.042   4.060   0.773 -0.2268  0.3542  0.2047
   13CHTO   O82 5078   7.968   4.109   0.803 -0.0274  0.6450  0.2267
   13CHTO  C123 5079   7.975   4.252   0.808  0.4264  0.0088 -0.0539
   13CHTO  H227 5080   8.047   4.292   0.736 -0.5389  0.0103 -1.0247
   13CHTO   O77 5081   7.842   4.288   0.760  0.4575 -0.1997  0.6507
   13CHTO  C118 5082   7.825   4.433   0.760  0.6406  0.1261  0.3683
   13CHTO  H222 5083   7.906   4.474   0.698 -0.3307  1.8161  0.1890
   13CHTO  C125 5084   7.689   4.460   0.689 -0.0740 -0.6422  0.0057
   13CHTO   O84 5085   7.573   4.425   0.759 -0.2604 -0.6188  0.1496
   13CHTO  H205 5086   7.575   4.472   0.840  3.2871  1.5048 -1.0479
   13CHTO  C114 5087   7.839   4.493   0.905  0.5689 -0.2811  0.6181
   13CHTO  H218 5088   7.754   4.463   0.965  0.6214 -1.6706  0.0163
   13CHTO  C116 5089   7.971   4.454   0.968  0.0234 -0.2714  0.0259
   13CHTO  H220 5090   8.052   4.511   0.917  0.1195 -0.0595  0.4029
   13CHTO   O79 5091   7.976   4.497   1.106 -0.0732  0.2823  0.3432
   13CHTO  H201 5092   7.921   4.440   1.157  1.9541 -1.0787  1.0645
   13CHTO  C120 5093   7.995   4.300   0.953 -0.8882  0.0096 -0.4922
   13CHTO  H224 5094   7.924   4.245   1.018 -1.3207  1.8954  0.6671
   13CHTO   N21 5095   8.136   4.263   0.995  0.3237 -0.6892  0.3528
   13CHTO  H211 5096   8.176   4.332   1.067  0.2836 -0.0939 -0.1905
   13CHTO  H212 5097   8.136   4.164   1.038 -0.8760 -1.0219 -0.4102
   13CHTO   O75 5098   7.829   4.636   0.876  0.3439  0.2322 -0.0832
   13CHTO  C112 5099   7.765   4.707   1.000 -0.4911  1.2978  0.1665
   13CHTO  H216 5100   7.829   4.681   1.085  0.7938  1.4133 -0.7455
   13CHTO   O73 5101   7.634   4.650   1.011 -0.4849 -0.2744 -0.2904
   13CHTO  C113 5102   7.561   4.708   1.114 -0.1910 -0.3591  0.4772
   13CHTO  H217 5103   7.603   4.688   1.214  0.4831  0.7470  0.4218
   13CHTO  C124 5104   7.423   4.633   1.101 -0.8613 -0.4370  0.1662
   13CHTO   O83 5105   7.419   4.493   1.101 -0.2408 -0.2498 -0.6831
   13CHTO  H204 5106   7.493   4.464   1.050  0.9706  2.1518 -0.3348
   13CHTO  C109 5107   7.541   4.865   1.093 -0.3384 -0.3030 -0.1728
   13CHTO  H213 5108   7.494   4.876   0.994 -1.4722 -0.1646  0.3739
   13CHTO  C110 5109   7.680   4.933   1.082  0.4131  0.0088 -0.2598
   13CHTO  H214 5110   7.735   4.932   1.176  0.5869  0.1511 -0.3598
   13CHTO   O78 5111   7.661   5.071   1.058 -0.8432  0.6860  0.4575
   13CHTO  H200 5112   7.632   5.079   0.969 -1.9691 -0.7488  0.6665
   13CHTO  C111 5113   7.765   4.863   0.975  0.1278  0.1307 -0.5633
   13CHTO  H215 5114   7.717   4.888   0.879 -0.3002 -1.9939 -0.9303
   13CHTO   N19 5115   7.903   4.901   0.969  0.1220 -0.1053 -0.5875
   13CHTO  H207 5116   7.951   4.850   0.887 -1.9948 -1.6513 -0.9202
   13CHTO  H208 5117   7.946   4.894   1.067 -2.0586 -0.3182  0.3896
   13CHTO   O74 5118   7.453   4.918   1.193 -0.2077  0.7733  0.0590
   13CHTO  C115 5119   7.305   4.953   1.126  0.1127  0.3091 -0.9679
   13CHTO  H219 5120   7.307   4.962   1.018 -2.6879 -0.1002 -1.0989
   13CHTO   O76 5121   7.207   4.843   1.149 -0.1167 -0.0163  0.0647
   13CHTO  C122 5122   7.072   4.866   1.097 -0.0314 -0.8447 -1.0100
   13CHTO  H226 5123   7.017   4.781   1.136  0.6272 -0.5860  0.5239
   13CHTO  C126 5124   7.070   4.851   0.939  0.2640  0.2103  0.1978
   13CHTO   O85 5125   7.129   4.737   0.896  0.0038 -0.4829  0.3673
   13CHTO  H206 5126   7.081   4.657   0.904 -0.0510 -0.5322 -0.4327
   13CHTO  C121 5127   7.011   5.000   1.155 -0.0500  0.1093  0.3925
   13CHTO  H225 5128   6.914   5.022   1.106 -1.0502  0.7583  2.5789
   13CHTO   O81 5129   6.968   4.986   1.294 -0.3503 -0.1533 -0.0400
   13CHTO  H202 5130   6.909   4.914   1.310  0.0539  0.0586  2.7285
   13CHTO  C119 5131   7.107   5.121   1.142  0.1355  0.1717  0.6382
   13CHTO  H223 5132   7.108   5.134   1.034 -1.4505 -4.1615 -0.0284
   13CHTO  C117 5133   7.253   5.088   1.188  0.2103  0.0238  0.2670
   13CHTO  H221 5134   7.259   5.077   1.296  1.5191 -0.6027  0.1415
   13CHTO   N20 5135   7.345   5.202   1.160 -0.2022 -0.8939 -0.0750
   13CHTO  H209 5136   7.350   5.187   1.053  2.0992  2.3524 -0.4808
   13CHTO  H210 5137   7.301   5.297   1.186  1.6573  0.5167 -1.9168
   13CHTO   O80 5138   7.052   5.258   1.191  0.3753  0.0757 -0.6917
   13CHTO  C103 5139   6.955   5.343   1.102  0.1098  0.1152  0.5519
   13CHTO  H190 5140   6.965   5.449   1.126  2.6596 -0.2680  1.2970
   13CHTO  C101 5141   6.970   5.325   0.942  0.4031  0.3383  0.2230
   13CHTO  H188 5142   6.948   5.222   0.916  1.4939 -0.4834  2.4131
   13CHTO   O68 5143   7.109   5.361   0.905 -0.2426 -0.1398 -0.3268
   13CHTO  H168 5144   7.142   5.430   0.960  0.7734 -0.2660 -0.7742
   13CHTO   C99 5145   6.865   5.415   0.862  0.2615 -0.2065 -0.0161
   13CHTO  H186 5146   6.881   5.522   0.888  1.1355  0.0772 -1.6682
   13CHTO   N17 5147   6.883   5.424   0.713  0.2156  0.2816 -0.1482
   13CHTO  H174 5148   6.981   5.443   0.671 -1.3331 -0.3856 -4.2379
   13CHTO  H175 5149   6.840   5.339   0.664  0.3679  0.1425 -0.0399
   13CHTO   C97 5150   6.725   5.373   0.907  0.0367  0.0223 -0.7128
   13CHTO  H184 5151   6.705   5.271   0.871  2.7469 -0.6286 -0.4077
   13CHTO   O64 5152   6.715   5.383   1.053  0.1343 -0.0205 -0.1133
   13CHTO  C104 5153   6.807   5.308   1.129  0.1869  0.3501 -0.4789
   13CHTO  H191 5154   6.788   5.202   1.115 -1.0268  0.5505 -0.4017
   13CHTO  C108 5155   6.778   5.336   1.278  0.0368  0.3242  0.5806
   13CHTO   O71 5156   6.664   5.261   1.322  0.2721 -0.5719  0.3330
   13CHTO  H171 5157   6.592   5.319   1.335  1.3567  0.0203  4.5959
   13CHTO   O62 5158   6.635   5.474   0.866 -0.4009  0.2363 -0.0468
   13CHTO   C91 5159   6.505   5.418   0.832  0.3336  0.4968  0.0877
   13CHTO  H178 5160   6.529   5.314   0.810 -0.2988  0.4900 -0.6143
   13CHTO   C92 5161   6.457   5.487   0.698 -0.7641  0.3474 -0.2823
   13CHTO  H179 5162   6.457   5.597   0.703 -1.9310  0.3425 -0.0811
   13CHTO   O66 5163   6.557   5.467   0.600 -0.0265 -0.3805 -0.0585
   13CHTO  H166 5164   6.641   5.472   0.642  0.1059 -0.1874 -0.3471
   13CHTO   C93 5165   6.316   5.434   0.645 -0.3975 -0.0899  0.4688
   13CHTO  H180 5166   6.320   5.327   0.620  3.1788 -0.6096  2.8436
   13CHTO   N16 5167   6.273   5.500   0.519 -0.4360 -0.0069 -1.0912
   13CHTO  H172 5168   6.260   5.607   0.531  1.0924 -0.2125  3.0594
   13CHTO  H173 5169   6.178   5.453   0.498 -0.0563 -0.9012 -0.8000
   13CHTO   C94 5170   6.214   5.454   0.758  0.0462  0.0551 -0.7759
   13CHTO  H181 5171   6.202   5.559   0.784 -1.5200  0.1878 -1.9720
   13CHTO   O61 5172   6.261   5.377   0.874  0.0881 -0.0705  0.0885
   13CHTO   C95 5173   6.389   5.423   0.933 -0.1350  0.1811  0.3593
   13CHTO  H182 5174   6.384   5.529   0.958 -0.2079  0.2342  0.1245
   13CHTO  C106 5175   6.415   5.351   1.068  0.5902  0.2005 -0.2906
   13CHTO   O69 5176   6.324   5.393   1.168 -0.1857  0.9827 -0.0204
   13CHTO  H169 5177   6.332   5.346   1.249 -2.3774  0.2583 -0.1972
   13CHTO   O63 5178   6.063   5.388   0.722 -0.5276 -0.2917  0.1338
   13CHTO   C96 5179   5.953   5.423   0.841  0.7463  1.0031  0.5452
   13CHTO  H183 5180   5.948   5.529   0.863 -3.8486  1.0746 -0.3650
   13CHTO   C98 5181   5.974   5.337   0.973  0.2486 -0.0902  0.5467
   13CHTO  H185 5182   6.074   5.347   1.017  1.2177 -0.9464 -1.4363
   13CHTO   O67 5183   5.885   5.389   1.073  0.2150  0.0771 -0.1250
   13CHTO  H167 5184   5.912   5.475   1.099 -1.4699  0.9555 -1.1748
   13CHTO  C102 5185   5.940   5.176   0.963  0.2141  0.2465  0.0688
   13CHTO  H189 5186   5.929   5.141   1.066  0.3038 -2.8941 -0.9319
   13CHTO   N18 5187   6.049   5.095   0.911 -0.2989  0.6939 -0.8340
   13CHTO  H176 5188   6.038   5.073   0.806  1.1328 -4.7157  0.0037
   13CHTO  H177 5189   6.061   5.002   0.964 -2.1357 -0.0528 -1.7258
   13CHTO  C105 5190   5.803   5.164   0.884  0.6280  0.2950 -0.1567
   13CHTO  H192 5191   5.816   5.099   0.798 -0.2260 -1.1544  0.7819
   13CHTO   O65 5192   5.740   5.290   0.857 -0.1712 -0.3435  0.0836
   13CHTO  C100 5193   5.815   5.381   0.770 -0.1373  1.0288  0.0137
   13CHTO  H187 5194   5.846   5.322   0.682  1.4106  0.7057  0.7644
   13CHTO  C107 5195   5.719   5.506   0.736 -0.7473 -0.0257  0.0261
   13CHTO   O70 5196   5.790   5.614   0.668 -0.2480  0.3340 -0.2362
   13CHTO  H170 5197   5.740   5.648   0.596  0.7387 -2.0428 -2.0991
   13CHTO   O57 5198   5.721   5.089   0.998  0.6181 -0.6076  0.4816
   13CHTO   C85 5199   5.589   5.030   0.984 -0.3953  0.1095 -0.4864
   13CHTO  H157 5200   5.577   5.002   0.877  1.3341  2.2035 -1.2620
   13CHTO   C83 5201   5.489   5.142   1.012  0.0822  0.4975 -0.5755
   13CHTO  H155 5202   5.495   5.212   0.929  1.8724  0.6118 -0.3531
   13CHTO   O56 5203   5.515   5.220   1.128  0.1473 -0.5639 -0.1883
   13CHTO  H135 5204   5.447   5.280   1.150  1.2857  1.0162 -0.9187
   13CHTO   C81 5205   5.349   5.079   1.016  0.6195 -0.4068 -0.8278
   13CHTO  H153 5206   5.338   5.032   0.919  1.0098  0.3114 -1.2203
   13CHTO   N14 5207   5.238   5.177   1.016  0.3552 -0.3835  0.3109
   13CHTO  H141 5208   5.218   5.230   1.107 -0.9867  0.0611 -0.2331
   13CHTO  H142 5209   5.147   5.139   0.974 -1.2316  1.2926  2.1087
   13CHTO   C79 5210   5.338   4.971   1.128  0.4294 -0.0525 -0.3865
   13CHTO  H151 5211   5.248   4.911   1.115  1.7344 -2.4224  1.1591
   13CHTO   O52 5212   5.432   4.867   1.101  0.4296  0.1373  0.3074
   13CHTO   C86 5213   5.574   4.911   1.078 -0.1218 -0.3047  0.2951
   13CHTO  H158 5214   5.613   4.941   1.177 -0.0667  0.9377 -0.0947
   13CHTO   C90 5215   5.651   4.787   1.028  0.4367  0.4693 -0.3985
   13CHTO   O60 5216   5.614   4.758   0.899  0.3822  0.3191  0.6261
   13CHTO  H138 5217   5.651   4.676   0.872 -0.4228 -0.1188  0.8106
   13CHTO   O50 5218   5.340   5.016   1.261 -0.1225  0.3360 -0.7156
   13CHTO   C73 5219   5.286   4.956   1.380  0.2306 -0.6295  0.0452
   13CHTO  H145 5220   5.285   4.846   1.375  0.3365 -0.6635  0.7256
   13CHTO   C74 5221   5.140   5.010   1.408  0.1748  0.0954  0.1035
   13CHTO  H146 5222   5.084   4.981   1.317  0.3790  0.4785 -0.1478
   13CHTO   O54 5223   5.067   4.954   1.519  0.1254  0.2346  0.4244
   13CHTO  H133 5224   5.136   4.945   1.582 -0.9494  3.6020  2.2109
   13CHTO   C75 5225   5.151   5.167   1.422 -0.3269  0.6917 -0.0303
   13CHTO  H147 5226   5.204   5.205   1.334 -0.6445  0.0744 -0.4923
   13CHTO   N13 5227   5.019   5.243   1.439  0.3072 -0.4570 -0.4037
   13CHTO  H139 5228   4.945   5.179   1.485 -0.2654  0.1670 -0.4595
   13CHTO  H140 5229   4.992   5.270   1.338  0.0011 -0.6339 -0.3698
   13CHTO   C76 5230   5.264   5.198   1.530  0.5454 -0.1484 -0.4015
   13CHTO  H148 5231   5.231   5.168   1.629  0.4676 -2.2418 -1.0242
   13CHTO   O49 5232   5.390   5.130   1.498  0.0624  0.6640  0.0809
   13CHTO   C77 5233   5.379   4.993   1.496  0.4084  0.5224 -0.3125
   13CHTO  H149 5234   5.337   4.970   1.594 -1.2289 -3.2902 -1.8073
   13CHTO   C88 5235   5.524   4.942   1.485 -0.0905  0.8687  0.7905
   13CHTO   O58 5236   5.608   4.966   1.600 -0.3831 -0.4580  0.5643
   13CHTO  H136 5237   5.688   4.918   1.590 -0.3892 -0.4165  0.3331
   13CHTO   O51 5238   5.311   5.363   1.509 -0.0488  0.2439 -0.4577
   13CHTO   C78 5239   5.449   5.399   1.604  0.4551  0.1098 -1.0462
   13CHTO  H150 5240   5.493   5.307   1.647 -0.0718  1.3893  2.3414
   13CHTO   C80 5241   5.409   5.492   1.716 -0.0732 -0.6303  0.7051
   13CHTO  H152 5242   5.368   5.583   1.667 -2.2913 -2.5467 -1.1089
   13CHTO   O55 5243   5.304   5.427   1.787 -0.0418 -0.4508 -0.4614
   13CHTO  H134 5244   5.219   5.439   1.750  0.5462 -0.6716 -1.9463
   13CHTO   C84 5245   5.520   5.519   1.813  0.3546 -0.4060 -0.2516
   13CHTO  H156 5246   5.553   5.428   1.865  1.0292  0.2709  0.5199
   13CHTO   N15 5247   5.479   5.609   1.927  0.3787  0.2142 -0.0365
   13CHTO  H143 5248   5.559   5.628   1.994  0.2603 -3.3680  1.2172
   13CHTO  H144 5249   5.439   5.703   1.895 -0.7158 -0.2304 -0.0045
   13CHTO   C87 5250   5.641   5.572   1.728 -0.5553  0.6294  0.3152
   13CHTO  H159 5251   5.627   5.677   1.704 -0.7414  0.7401  0.9033
   13CHTO   O53 5252   5.670   5.492   1.580  0.0623 -0.5550  0.5772
   13CHTO   C82 5253   5.550   5.463   1.513  0.5514 -0.3468  0.6324
   13CHTO  H154 5254   5.506   5.555   1.475  2.4586  0.4797  0.3665
   13CHTO   C89 5255   5.591   5.377   1.388  0.3315 -0.0496  0.4117
   13CHTO   O59 5256   5.671   5.438   1.287 -0.2923  0.0727 -0.4972
   13CHTO  H137 5257   5.669   5.379   1.214 -0.1282 -0.3042 -0.2015
   13CHTO   O45 5258   5.765   5.559   1.825  0.6495  0.5847  0.7601
   13CHTO   C67 5259   5.845   5.449   1.809 -0.0647 -0.3015 -0.0788
   13CHTO  H124 5260   5.789   5.369   1.759  0.3987 -1.1952  0.8090
   13CHTO   C65 5261   5.981   5.476   1.733 -0.3113 -0.6101 -0.2004
   13CHTO  H122 5262   5.970   5.531   1.640 -0.4958 -0.3977 -0.0535
   13CHTO   O44 5263   6.055   5.352   1.720  0.5981 -0.0281 -0.2335
   13CHTO  H102 5264   6.020   5.291   1.658 -0.2656 -0.2703  0.4778
   13CHTO   C63 5265   6.066   5.579   1.828  0.1275  0.5909  0.4880
   13CHTO  H120 5266   6.003   5.662   1.857 -0.6919  0.2247 -0.2310
   13CHTO   N11 5267   6.176   5.660   1.763  0.1458 -0.6622 -0.0585
   13CHTO  H108 5268   6.257   5.665   1.833 -0.9101 -1.1079  1.2156
   13CHTO  H109 5269   6.222   5.603   1.685 -2.5454 -0.4229 -1.8862
   13CHTO   C61 5270   6.097   5.511   1.963 -0.4537 -0.3130  0.6415
   13CHTO  H118 5271   6.145   5.585   2.028  1.9623 -2.4106  1.2870
   13CHTO   O40 5272   5.967   5.482   2.026 -0.1694  0.1402  0.4403
   13CHTO   C68 5273   5.867   5.400   1.965 -0.1383  0.1924  0.7817
   13CHTO  H125 5274   5.769   5.409   2.018 -2.2257  0.7545 -3.0131
   13CHTO   C72 5275   5.908   5.255   1.975 -0.8283 -0.4934  0.1930
   13CHTO   O48 5276   5.807   5.163   1.936  0.2052 -0.2414 -0.5971
   13CHTO  H105 5277   5.840   5.077   1.952 -2.3201 -0.9301  1.2394
   13CHTO   O38 5278   6.179   5.393   1.960  0.0322 -0.2199  0.4073
   13CHTO   C55 5279   6.261   5.348   2.068 -0.3525 -0.0832  0.0471
   13CHTO  H112 5280   6.276   5.241   2.045  0.9323  0.2903 -0.9270
   13CHTO   C56 5281   6.209   5.370   2.212  0.1272 -0.8201  0.2389
   13CHTO  H113 5282   6.187   5.477   2.227  0.1867 -0.4240 -2.2237
   13CHTO   O42 5283   6.086   5.309   2.247  0.3314 -0.3542  0.0054
   13CHTO  H100 5284   6.022   5.315   2.178 -1.1423  1.0820  1.4560
   13CHTO   C57 5285   6.326   5.332   2.321  0.2590  0.2179 -0.0528
   13CHTO  H114 5286   6.350   5.227   2.304  2.4885  0.4403  1.6412
   13CHTO   N10 5287   6.291   5.357   2.463  0.0624 -0.6027  0.2973
   13CHTO  H106 5288   6.349   5.286   2.520  0.7373  0.6657  1.2210
   13CHTO  H107 5289   6.184   5.339   2.471  0.0465 -1.7698 -2.1703
   13CHTO   C58 5290   6.452   5.404   2.284  0.0173  0.1536  0.5780
   13CHTO  H115 5291   6.433   5.514   2.285  0.1764  0.1741  2.2407
   13CHTO   O37 5292   6.493   5.372   2.148  0.2963  0.1866  0.8636
   13CHTO   C59 5293   6.401   5.414   2.043 -1.1088  0.4505 -0.3592
   13CHTO  H116 5294   6.398   5.523   2.043 -1.0678  0.5079  3.2211
   13CHTO   C70 5295   6.464   5.374   1.912 -0.7761  0.2566 -0.4290
   13CHTO   O46 5296   6.407   5.428   1.795 -0.2479  0.9098 -0.1437
   13CHTO  H103 5297   6.399   5.362   1.729  2.2029 -0.2018  0.5975
   13CHTO   O39 5298   6.573   5.370   2.396  0.0475 -0.3307 -0.2325
   13CHTO   C60 5299   6.679   5.465   2.408  0.0479  0.0963  0.4003
   13CHTO  H117 5300   6.710   5.484   2.306 -0.7464 -0.7032  0.0004
   13CHTO   C62 5301   6.632   5.594   2.474  0.7133  0.3394 -0.5526
   13CHTO  H119 5302   6.547   5.640   2.420  0.3746 -2.0592 -2.0964
   13CHTO   O43 5303   6.591   5.557   2.610 -0.2393 -0.2413  0.1227
   13CHTO  H101 5304   6.607   5.631   2.665  0.2222  0.1455 -0.5188
   13CHTO   C66 5305   6.757   5.697   2.469  0.0766  1.3095 -0.9091
   13CHTO  H123 5306   6.785   5.719   2.366  0.7359  2.1843 -0.5528
   13CHTO   N12 5307   6.715   5.826   2.518  0.6626  0.0241  0.3113
   13CHTO  H110 5308   6.780   5.899   2.472 -0.6995  1.0800  0.0432
   13CHTO  H111 5309   6.735   5.839   2.623 -1.1418  0.3815  0.6146
   13CHTO   C69 5310   6.882   5.637   2.545 -0.0271  0.0308  0.5738
   13CHTO  H126 5311   6.844   5.618   2.647  1.5006  0.7115  1.2912
   13CHTO   O41 5312   6.918   5.499   2.486 -0.2106  0.2794  0.2384
   13CHTO   C64 5313   6.800   5.401   2.484  0.2605  0.2237 -0.4248
   13CHTO  H121 5314   6.763   5.391   2.588 -0.5821 -0.0095 -0.7459
   13CHTO   C71 5315   6.836   5.257   2.424  0.1129  0.4763  0.5376
   13CHTO   O47 5316   6.909   5.286   2.300  0.2338 -0.3363 -0.4049
   13CHTO  H104 5317   6.989   5.239   2.309  0.3048 -0.2753 -0.7175
   13CHTO   O34 5318   6.998   5.727   2.546  0.1179 -0.4444  0.1032
   13CHTO   C49 5319   7.110   5.755   2.430  0.6650  0.4720 -0.6392
   13CHTO   H91 5320   7.114   5.667   2.366 -3.5697 -1.3633  1.4556
   13CHTO   C47 5321   7.242   5.791   2.498  0.0045  0.0385 -0.4009
   13CHTO   H89 5322   7.310   5.803   2.411 -0.1550  1.1175 -0.3890
   13CHTO   O33 5323   7.279   5.676   2.576  0.0493  0.2448 -0.7606
   13CHTO   H70 5324   7.243   5.675   2.662 -0.5670  1.1139 -0.9972
   13CHTO   C45 5325   7.239   5.926   2.586  0.5252 -1.1881  0.4574
   13CHTO   H87 5326   7.219   5.896   2.690  1.5279  2.3434  1.7608
   13CHTO    N8 5327   7.370   5.991   2.586 -0.7692 -0.0726 -0.5183
   13CHTO   H75 5328   7.370   6.091   2.626  2.3332 -0.1562 -0.1872
   13CHTO   H76 5329   7.429   5.932   2.654 -1.5179 -0.2241 -0.0034
   13CHTO   C43 5330   7.108   6.008   2.551  1.1067 -0.3850  1.1436
   13CHTO   H85 5331   7.034   5.947   2.603  0.2623 -1.5701 -1.3620
   13CHTO   O29 5332   7.082   6.015   2.411 -0.5654  0.4853 -0.5679
   13CHTO   C50 5333   7.073   5.885   2.349 -0.4714  0.5338  0.5965
   13CHTO   H92 5334   6.970   5.872   2.311  0.3333 -0.8057 -1.2165
   13CHTO   C54 5335   7.162   5.896   2.221  0.4578  0.3281 -0.4428
   13CHTO   O36 5336   7.105   5.989   2.126  0.1628 -0.1199 -0.1496
   13CHTO   H72 5337   7.176   6.044   2.101  0.2509 -1.7407 -3.7583
   13CHTO   O27 5338   7.106   6.136   2.612  0.6739 -0.1356  0.2752
   13CHTO   C37 5339   7.062   6.271   2.632  0.2671  0.5537  0.4885
   13CHTO   H79 5340   7.077   6.285   2.740  2.0449 -1.0340  0.4818
   13CHTO   C38 5341   7.159   6.361   2.557 -0.4667 -0.1019 -0.2866
   13CHTO   H80 5342   7.162   6.333   2.451 -1.2065  1.3599 -0.7067
   13CHTO   O31 5343   7.292   6.342   2.617  0.1199  0.1037  0.0255
   13CHTO   H68 5344   7.337   6.277   2.567 -0.8487 -0.7675  0.2783
   13CHTO   C39 5345   7.112   6.507   2.557 -0.3260 -0.5181 -0.4547
   13CHTO   H81 5346   7.129   6.535   2.661 -2.1728  0.0956 -0.2952
   13CHTO    N7 5347   7.191   6.607   2.475  0.1012  0.4792 -0.3270
   13CHTO   H73 5348   7.288   6.613   2.522  0.9100 -0.8411 -1.7807
   13CHTO   H74 5349   7.186   6.595   2.368  1.7747 -0.9735 -0.2724
   13CHTO   C40 5350   6.958   6.512   2.510 -0.4854  0.3911  0.0125
   13CHTO   H82 5351   6.946   6.486   2.405  0.4646 -2.0661  0.4897
   13CHTO   O26 5352   6.878   6.430   2.597  0.2923 -0.2035 -0.2723
   13CHTO   C41 5353   6.906   6.290   2.592 -0.6012 -0.2100  0.3723
   13CHTO   H83 5354   6.895   6.253   2.490  1.3858 -1.8946  0.7244
   13CHTO   C52 5355   6.797   6.223   2.686 -0.4553 -0.7249 -0.5317
   13CHTO   O35 5356   6.825   6.086   2.694 -0.2631  0.0637  0.6554
   13CHTO   H71 5357   6.773   6.037   2.755  0.8871  0.1111  1.7129
   13CHTO   O28 5358   6.889   6.637   2.508 -0.0387 -0.8284 -0.1940
   13CHTO   C42 5359   6.825   6.707   2.394 -0.0783  0.4700  0.3136
   13CHTO   H84 5360   6.797   6.629   2.323  1.8806  0.4210 -0.4300
   13CHTO   C44 5361   6.924   6.800   2.310 -0.1710 -0.1708 -0.1680
   13CHTO   H86 5362   6.985   6.851   2.385  0.1074  1.1554 -1.2789
   13CHTO   O32 5363   7.017   6.712   2.245  0.0895 -0.0233  0.1745
   13CHTO   H69 5364   7.103   6.745   2.262 -0.4563  1.5395 -0.0211
   13CHTO   C48 5365   6.844   6.887   2.214 -0.3261 -0.5730 -0.3855
   13CHTO   H90 5366   6.798   6.813   2.148 -3.1108  1.2598 -0.6195
   13CHTO    N9 5367   6.929   6.989   2.140  0.0813  0.1321 -0.2384
   13CHTO   H77 5368   7.033   6.968   2.163 -0.2414 -3.8845 -1.9027
   13CHTO   H78 5369   6.922   6.963   2.035  0.0247 -2.4606  0.3663
   13CHTO   C51 5370   6.720   6.955   2.285 -0.1919 -0.0803  0.8005
   13CHTO   H93 5371   6.750   7.021   2.366 -2.0161  2.7830 -0.7787
   13CHTO   O30 5372   6.641   6.846   2.333  0.0234 -0.2513 -0.5513
   13CHTO   C46 5373   6.699   6.785   2.436  0.3308  0.2736  0.0149
   13CHTO   H88 5374   6.729   6.857   2.512 -1.1685  0.3576  0.5469
   13CHTO   C53 5375   6.600   6.688   2.504 -0.4609 -0.2700  0.4589
   13CHTO   O72 5376   6.481   6.758   2.553 -0.4036  0.3864 -0.2753
   13CHTO  H199 5377   6.447   6.804   2.479  1.6166 -0.9385 -2.1042
   13CHTO   O22 5378   6.635   7.022   2.195 -0.1937  0.0137 -0.3208
   13CHTO   C31 5379   6.519   7.106   2.237 -0.2280  0.1702 -0.0171
   13CHTO   H59 5380   6.446   7.110   2.153 -0.7035 -0.8829  0.3310
   13CHTO   C29 5381   6.443   7.058   2.361 -0.4302 -0.4235 -0.0798
   13CHTO   H57 5382   6.523   7.031   2.432  3.7116  2.2515 -3.5045
   13CHTO   O21 5383   6.380   6.930   2.332  0.3993  0.1826  0.3460
   13CHTO   H37 5384   6.440   6.858   2.319 -0.0110  0.0377 -0.8659
   13CHTO   C27 5385   6.346   7.160   2.433 -0.0933  0.5579  0.0363
   13CHTO   H55 5386   6.255   7.174   2.373 -0.2733  2.4990  0.6926
   13CHTO    N5 5387   6.310   7.117   2.564  0.5905 -0.0001 -0.3181
   13CHTO   H43 5388   6.397   7.120   2.627 -0.4026 -0.9340  1.1326
   13CHTO   H44 5389   6.218   7.157   2.603  0.5977 -0.6242  0.3430
   13CHTO   C25 5390   6.409   7.305   2.438  0.4684 -0.3486  0.2013
   13CHTO   H53 5391   6.485   7.316   2.516  0.8088 -0.0013 -0.1746
   13CHTO   O17 5392   6.458   7.346   2.312  0.3789 -0.5605 -0.6906
   13CHTO   C32 5393   6.566   7.257   2.268 -0.1725  0.0679 -0.2605
   13CHTO   H60 5394   6.645   7.248   2.343 -1.3848  1.6969  1.2454
   13CHTO   C36 5395   6.627   7.319   2.143 -0.0267 -0.4072  0.7696
   13CHTO   O25 5396   6.677   7.455   2.153  0.2697 -0.4148  0.2051
   13CHTO   H40 5397   6.766   7.448   2.123  0.4644  1.6037  0.1993
   13CHTO   O15 5398   6.294   7.415   2.488  0.0562  0.5397 -0.5728
   13CHTO   C19 5399   6.174   7.492   2.451  0.8656 -0.2915 -0.8723
   13CHTO   H47 5400   6.191   7.589   2.502 -1.0985  0.2101 -1.1240
   13CHTO   C20 5401   6.158   7.521   2.298  0.7951  0.5565 -0.5548
   13CHTO   H48 5402   6.148   7.428   2.240  0.5219  0.2132  0.0452
   13CHTO   O19 5403   6.282   7.582   2.266 -0.2427 -0.5118  0.3002
   13CHTO   H35 5404   6.349   7.524   2.297  0.2053 -0.3936 -0.4218
   13CHTO   C21 5405   6.027   7.604   2.259  0.5267 -0.7537 -0.5881
   13CHTO   H49 5406   6.039   7.697   2.315  3.3708  0.2109 -2.6540
   13CHTO    N4 5407   6.012   7.647   2.115  0.8819 -0.2488  0.1052
   13CHTO   H41 5408   5.999   7.752   2.096 -1.6746  0.0548  2.9243
   13CHTO   H42 5409   5.934   7.593   2.063  0.6993 -0.2349  0.3575
   13CHTO   C22 5410   5.906   7.534   2.327 -1.0165  0.0446  0.0101
   13CHTO   H50 5411   5.897   7.431   2.293  0.7151  0.2651 -1.1866
   13CHTO   O14 5412   5.937   7.534   2.465  0.4585 -0.1918  0.0294
   13CHTO   C23 5413   6.044   7.439   2.505 -0.1288 -0.2907  0.3948
   13CHTO   H51 5414   6.016   7.345   2.457 -0.8308  0.0086  0.2157
   13CHTO   C34 5415   6.041   7.431   2.656 -0.6836  0.1250 -1.0143
   13CHTO   O23 5416   5.953   7.324   2.689  0.2318 -0.9586  0.4274
   13CHTO   H38 5417   5.956   7.304   2.780  1.0716  0.8346  0.8217
   13CHTO   O16 5418   5.784   7.604   2.303  0.0620  0.1786  0.5350
   13CHTO   C24 5419   5.645   7.532   2.333 -0.0826 -0.8591 -0.0500
   13CHTO   H52 5420   5.645   7.476   2.427  1.3072  0.1575  0.5739
   13CHTO   C26 5421   5.597   7.444   2.216  0.1267 -0.2795 -0.5391
   13CHTO   H54 5422   5.603   7.507   2.124  0.4307  0.4656 -0.0156
   13CHTO   O20 5423   5.689   7.335   2.201 -0.1593 -0.4449  0.2562
   13CHTO   H36 5424   5.658   7.264   2.149 -1.0846 -0.1602  0.4145
   13CHTO   C30 5425   5.446   7.400   2.230 -0.3129  0.0576  0.0294
   13CHTO   H58 5426   5.432   7.313   2.297  1.1191 -1.9377 -2.1860
   13CHTO    N6 5427   5.402   7.344   2.097  0.2346  0.4514 -0.6677
   13CHTO   H45 5428   5.371   7.243   2.116 -0.2086  0.7795  0.4156
   13CHTO   H46 5429   5.481   7.347   2.024  0.8012  0.0486 -0.0706
   13CHTO   C33 5430   5.361   7.524   2.264 -0.6186  0.4648  0.5003
   13CHTO   H61 5431   5.366   7.589   2.176  1.5538  0.4452  0.5888
   13CHTO   O18 5432   5.419   7.586   2.383 -0.1893  0.4946  0.7054
   13CHTO   C28 5433   5.543   7.647   2.355 -0.0811 -0.8953  0.1453
   13CHTO   H56 5434   5.532   7.713   2.269  0.2010  1.6798  2.0503
   13CHTO   C35 5435   5.587   7.740   2.476 -0.5769  0.0754 -0.9458
   13CHTO   O24 5436   5.481   7.831   2.514 -0.2008  0.5230 -0.5147
   13CHTO   H39 5437   5.506   7.886   2.585  3.7291  1.5769 -2.5701
   13CHTO    O9 5438   5.222   7.494   2.286 -0.1725 -0.9342  0.0152
   13CHTO   C13 5439   5.197   7.396   2.425  0.1292  0.5626  0.4271
   13CHTO   H26 5440   5.284   7.398   2.493  0.0308  1.2320  0.5323
   13CHTO   C11 5441   5.160   7.258   2.385 -0.1531  0.1013 -1.1480
   13CHTO   H24 5442   5.240   7.221   2.319  0.1749  1.7122 -1.6771
   13CHTO    O8 5443   5.031   7.256   2.317  0.0512  0.0689 -0.3195
   13CHTO    H3 5444   5.040   7.295   2.233  0.8075 -0.1241 -0.3321
   13CHTO    C9 5445   5.156   7.174   2.520 -0.0235 -0.1818 -0.4066
   13CHTO   H22 5446   5.257   7.178   2.562 -0.8477  1.0505  1.5028
   13CHTO    N2 5447   5.157   7.027   2.492  0.0360  0.0604 -0.5044
   13CHTO   H10 5448   5.056   6.998   2.470 -0.0747 -1.1107  1.4182
   13CHTO   H11 5449   5.197   6.965   2.571 -2.8899 -0.4012  0.6628
   13CHTO    C7 5450   5.046   7.238   2.619 -0.5167 -0.2804  0.3914
   13CHTO   H20 5451   5.097   7.269   2.713 -1.1060  3.5464 -0.4844
   13CHTO    O4 5452   4.989   7.359   2.564 -0.0210 -0.0990  0.4829
   13CHTO   C14 5453   5.081   7.458   2.513 -0.5303  0.6715 -0.4185
   13CHTO   H27 5454   5.139   7.508   2.594 -0.6666 -0.8112  0.6002
   13CHTO   C18 5455   4.994   7.566   2.441 -0.6383  0.0677 -0.0959
   13CHTO   O13 5456   4.947   7.530   2.317 -0.5188 -0.8068  0.3391
   13CHTO    H7 5457   4.923   7.440   2.313 -3.5746 -0.1539  2.2267
   13CHTO    O2 5458   4.936   7.132   2.649  0.1852  0.1943 -0.3706
   13CHTO    C1 5459   4.916   7.103   2.788  0.1090  0.7384 -0.7235
   13CHTO   H14 5460   4.971   7.175   2.853  0.2789  1.4882 -1.6929
   13CHTO    C2 5461   4.969   6.954   2.834  0.8836  0.0801  0.2627
   13CHTO   H15 5462   4.925   6.884   2.761  1.5068  0.9805 -0.9881
   13CHTO    O6 5463   5.108   6.968   2.818 -0.0312  0.1801  0.0647
   13CHTO    H1 5464   5.143   6.902   2.761  0.3003  0.8263 -0.4953
   13CHTO    C3 5465   4.937   6.928   2.987  0.0213  0.6283  0.0867
   13CHTO   H16 5466   4.991   6.994   3.056  0.4209  2.1488 -1.6496
   13CHTO    N1 5467   4.967   6.784   3.022 -0.1909  0.1400  0.0181
   13CHTO    H8 5468   4.885   6.716   3.002  1.0247 -1.5526  0.7021
   13CHTO    H9 5469   4.995   6.757   3.122 -0.6716 -0.8230 -0.0923
   13CHTO    C4 5470   4.785   6.962   3.010 -0.1502  0.1481  0.1986
   13CHTO   H17 5471   4.721   6.897   2.950 -0.9381  0.5136  0.6459
   13CHTO    O1 5472   4.759   7.094   2.967 -0.1294  0.4330  0.1683
   13CHTO    C5 5473   4.772   7.124   2.830 -0.5462  0.4325  0.8240
   13CHTO   H18 5474   4.715   7.058   2.765  1.8422  0.0149 -0.8880
   13CHTO   C16 5475   4.734   7.268   2.799 -0.2039 -0.6391 -0.0365
   13CHTO   O11 5476   4.598   7.284   2.829  0.0512  0.0155  0.4209
   13CHTO    H5 5477   4.554   7.325   2.757  1.5501 -1.9016 -1.6784
   13CHTO    O3 5478   4.756   6.959   3.151 -0.8944  0.4780  0.1008
   13CHTO    C6 5479   4.623   6.934   3.194 -0.0433  0.2653 -0.5082
   13CHTO   H19 5480   4.547   6.946   3.116 -1.1661  2.1313  0.8152
   13CHTO    C8 5481   4.607   6.791   3.255 -0.0592  0.6539 -1.1513
   13CHTO   H21 5482   4.684   6.772   3.330 -1.3770  0.4077  0.1769
   13CHTO    O7 5483   4.634   6.695   3.151  0.0428  0.2185  0.5723
   13CHTO    H2 5484   4.563   6.682   3.090  0.4673  0.7212 -0.0300
   13CHTO   C12 5485   4.463   6.773   3.322 -0.0300  0.1647  0.0725
   13CHTO   H25 5486   4.391   6.770   3.237  0.6355  0.7185 -0.5225
   13CHTO    N3 5487   4.449   6.641   3.395  0.0878 -0.5360  0.2603
   13CHTO   H12 5488   4.535   6.580   3.374  1.4057  0.7120  1.9475
   13CHTO   H13 5489   4.434   6.662   3.499 -1.7113  1.9453 -0.4548
   13CHTO   C15 5490   4.427   6.898   3.414  0.2989 -0.0849  0.8694
   13CHTO   H28 5491   4.478   6.900   3.510  0.1536  0.4279  0.9392
   13CHTO   O10 5492   4.260   6.910   3.435 -0.1258 -0.5390 -0.4440
   13CHTO    H4 5493   4.253   6.966   3.510  1.3912  0.8774 -1.3257
   13CHTO    O5 5494   4.456   7.032   3.359  0.6203 -0.6216 -0.4361
   13CHTO   C10 5495   4.591   7.037   3.304 -0.0028 -0.8580  0.0993
   13CHTO   H23 5496   4.657   7.028   3.390 -0.1976  0.3097  0.3802
   13CHTO   C17 5497   4.607   7.181   3.252 -0.4579  0.3892 -0.0800
   13CHTO   O12 5498   4.529   7.205   3.137 -0.1683  0.4901 -0.5631
   13CHTO    H6 5499   4.440   7.184   3.157  0.4728 -1.0281  0.7961
   14CHTO  H203 5500   6.365   5.055   1.724 -0.6778 -1.7919 -0.9481
   14CHTO   O82 5501   6.292   5.103   1.692  0.0318 -0.1173 -0.1220
   14CHTO  C123 5502   6.176   5.045   1.741 -0.0250 -0.5962 -0.7786
   14CHTO  H227 5503   6.128   5.123   1.803 -0.1367 -0.2922 -1.2474
   14CHTO   O77 5504   6.102   5.011   1.618 -0.5397 -0.3952  0.6123
   14CHTO  C118 5505   5.969   4.958   1.633  0.1967 -0.6405 -0.2232
   14CHTO  H222 5506   5.901   5.035   1.673  1.0079 -0.1088  0.1537
   14CHTO  C125 5507   5.914   4.924   1.485 -0.0492 -0.0989  0.3774
   14CHTO   O84 5508   5.883   5.038   1.403  0.1276  0.0435  0.5403
   14CHTO  H205 5509   5.903   5.120   1.444 -4.2533  0.2673  2.5335
   14CHTO  C114 5510   5.978   4.828   1.709 -0.2049 -0.0826 -0.0549
   14CHTO  H218 5511   6.048   4.765   1.655 -1.2162 -2.8360  1.7659
   14CHTO  C116 5512   6.047   4.844   1.846  0.1488 -0.0861  0.4614
   14CHTO  H220 5513   5.975   4.907   1.903 -1.6350  1.0883 -2.9373
   14CHTO   O79 5514   6.055   4.712   1.899 -0.2270  0.5198  0.0449
   14CHTO  H201 5515   6.075   4.723   1.990 -0.4232 -0.2064  0.1796
   14CHTO  C120 5516   6.189   4.913   1.822  0.5653  0.7672  0.1139
   14CHTO  H224 5517   6.241   4.842   1.754  1.4593  0.6050  0.9526
   14CHTO   N21 5518   6.269   4.935   1.947  0.5441  0.4905 -0.3778
   14CHTO  H211 5519   6.328   5.025   1.936 -2.2648  2.2195 -1.7845
   14CHTO  H212 5520   6.335   4.852   1.969 -0.3156  0.1951  1.0914
   14CHTO   O75 5521   5.848   4.769   1.709  0.4178  0.1153  0.4048
   14CHTO  C112 5522   5.820   4.623   1.656  0.3589 -0.3010 -0.0057
   14CHTO  H216 5523   5.915   4.570   1.672  0.8345  0.2387 -1.0694
   14CHTO   O73 5524   5.788   4.632   1.516  0.4133 -0.4572  0.0170
   14CHTO  C113 5525   5.760   4.510   1.451  0.2855  0.1917 -0.6657
   14CHTO  H217 5526   5.843   4.440   1.473  0.4357  0.4885 -0.2892
   14CHTO  C124 5527   5.764   4.544   1.297 -0.0502  0.5820 -0.1497
   14CHTO   O83 5528   5.901   4.558   1.260  0.0612  0.1289 -0.1420
   14CHTO  H204 5529   5.935   4.644   1.276  0.1173  0.1658 -0.4565
   14CHTO  C109 5530   5.629   4.453   1.511 -0.0428 -0.2076 -0.4394
   14CHTO  H213 5531   5.553   4.530   1.490  0.4783  1.0244  1.9279
   14CHTO  C110 5532   5.649   4.430   1.665 -0.1306 -0.3404  0.3600
   14CHTO  H214 5533   5.714   4.343   1.674  0.7998  0.2436 -0.6051
   14CHTO   O78 5534   5.533   4.378   1.729  0.7158  0.3186 -0.7429
   14CHTO  H200 5535   5.484   4.435   1.784 -0.7082 -2.2520  0.7184
   14CHTO  C111 5536   5.704   4.550   1.739 -0.5708 -0.2827 -0.3110
   14CHTO  H215 5537   5.623   4.623   1.756 -1.5882 -2.1992  3.4708
   14CHTO   N19 5538   5.762   4.518   1.876  0.1358 -0.2729 -0.0006
   14CHTO  H207 5539   5.831   4.435   1.875 -1.2496 -1.4400 -2.0605
   14CHTO  H208 5540   5.801   4.607   1.924  2.0197 -1.7005  1.1805
   14CHTO   O74 5541   5.596   4.323   1.447 -0.3126 -0.4148 -0.1097
   14CHTO  C115 5542   5.493   4.317   1.308 -0.4045 -0.1562 -0.3586
   14CHTO  H219 5543   5.495   4.412   1.254 -1.2728 -0.5156 -1.0350
   14CHTO   O76 5544   5.537   4.218   1.211  0.0300 -0.5398  0.3911
   14CHTO  C122 5545   5.474   4.220   1.083  0.6724  0.2579 -0.0096
   14CHTO  H226 5546   5.503   4.130   1.028  0.3277 -1.1165  1.9659
   14CHTO  C126 5547   5.532   4.344   0.994  0.0122  0.5338  0.3942
   14CHTO   O85 5548   5.483   4.346   0.852  0.7357 -0.0781  0.0553
   14CHTO  H206 5549   5.391   4.329   0.844  1.0358 -1.6768 -0.1364
   14CHTO  C121 5550   5.317   4.234   1.091  0.4463 -0.4627  0.8034
   14CHTO  H225 5551   5.292   4.278   0.992  0.0968  1.1374  1.5742
   14CHTO   O81 5552   5.254   4.110   1.082  0.2215  0.6325 -0.2750
   14CHTO  H202 5553   5.283   4.049   1.147 -2.4522 -1.0257 -0.5609
   14CHTO  C119 5554   5.265   4.321   1.204 -0.3729  0.0324 -0.4512
   14CHTO  H223 5555   5.304   4.418   1.172  0.3508 -0.6320 -1.6097
   14CHTO  C117 5556   5.342   4.287   1.342 -0.6289 -0.7267 -0.9666
   14CHTO  H221 5557   5.341   4.187   1.383 -0.9732  0.9544  3.4335
   14CHTO   N20 5558   5.292   4.375   1.453 -0.0011 -0.0905 -0.6082
   14CHTO  H209 5559   5.298   4.477   1.419  0.4958 -0.1358 -0.6633
   14CHTO  H210 5560   5.348   4.351   1.542  0.8533  1.0955 -0.8205
   14CHTO   O80 5561   5.107   4.355   1.209 -0.0219 -0.1873  0.5239
   14CHTO  C103 5562   5.043   4.453   1.093 -0.1738  0.5826 -0.1421
   14CHTO  H190 5563   5.118   4.475   1.017 -1.1038  0.4975 -1.1069
   14CHTO  C101 5564   4.918   4.390   1.028  0.2201  0.2570 -0.1671
   14CHTO  H188 5565   4.852   4.352   1.106 -0.8717 -0.3165 -1.3522
   14CHTO   O68 5566   4.964   4.246   0.944 -0.8388  0.0762  0.0181
   14CHTO  H168 5567   5.049   4.251   0.905 -2.2532  2.1647 -2.9660
   14CHTO   C99 5568   4.833   4.488   0.939  0.0993  0.0418  0.9624
   14CHTO  H186 5569   4.894   4.531   0.856  1.8029  0.8462  2.5964
   14CHTO   N17 5570   4.719   4.419   0.876  0.2426  0.6852  0.3293
   14CHTO  H174 5571   4.755   4.332   0.825  0.7995  0.7960  0.5256
   14CHTO  H175 5572   4.683   4.492   0.805  0.6233 -0.6072 -1.2074
   14CHTO   C97 5573   4.793   4.606   1.020  0.5151  0.5312  0.5849
   14CHTO  H184 5574   4.729   4.568   1.101 -0.1159  0.4235  0.0346
   14CHTO   O64 5575   4.914   4.664   1.070  0.0516 -0.2948  0.4445
   14CHTO  C104 5576   4.994   4.585   1.156 -0.6397 -0.0052 -0.0039
   14CHTO  H191 5577   4.940   4.564   1.249  0.9710 -0.3828  0.8718
   14CHTO  C108 5578   5.108   4.673   1.203 -0.4453  0.8282 -0.4583
   14CHTO   O71 5579   5.134   4.663   1.342  0.0272  0.1586 -0.0225
   14CHTO  H171 5580   5.206   4.714   1.374 -0.3247 -0.0232  1.0805
   14CHTO   O62 5581   4.714   4.701   0.956 -0.8870  0.1388  0.2636
   14CHTO   C91 5582   4.627   4.794   1.020 -0.3002  0.0232  0.2958
   14CHTO  H178 5583   4.565   4.735   1.088 -1.3915 -0.7115 -1.3244
   14CHTO   C92 5584   4.517   4.860   0.918 -0.2094  0.0853 -0.2602
   14CHTO  H179 5585   4.483   4.777   0.853  1.2962 -1.0344  0.3375
   14CHTO   O66 5586   4.405   4.913   0.985 -0.2390  0.0624  0.0241
   14CHTO  H166 5587   4.430   4.977   1.049 -1.7617  2.2136 -1.4682
   14CHTO   C93 5588   4.582   4.978   0.824 -0.6171  0.1394  0.2729
   14CHTO  H180 5589   4.502   5.045   0.791 -1.7585 -0.9651  0.7511
   14CHTO   N16 5590   4.651   4.938   0.696  0.2478  0.6160  0.5301
   14CHTO  H172 5591   4.640   4.831   0.683  0.8165  0.7101 -0.8023
   14CHTO  H173 5592   4.750   4.978   0.686 -0.9063  3.2653 -0.7088
   14CHTO   C94 5593   4.668   5.064   0.919 -0.6910 -0.4987  1.0549
   14CHTO  H181 5594   4.772   5.070   0.886 -1.2918  0.8545 -0.6735
   14CHTO   O61 5595   4.650   5.038   1.056  0.3751  0.3258  0.3139
   14CHTO   C95 5596   4.706   4.910   1.099  0.0649 -0.2438 -0.0960
   14CHTO  H182 5597   4.812   4.913   1.073 -0.0630 -0.2079 -0.6209
   14CHTO  C106 5598   4.681   4.900   1.257 -0.0069 -0.1103  0.1746
   14CHTO   O69 5599   4.757   4.993   1.337 -0.6208  0.3612  0.0018
   14CHTO  H169 5600   4.842   4.961   1.362 -0.3395  0.2094 -1.0906
   14CHTO   O63 5601   4.614   5.205   0.904 -0.6083  0.3020 -0.1050
   14CHTO   C96 5602   4.691   5.335   0.957  0.0309 -0.0008 -0.5066
   14CHTO  H183 5603   4.623   5.419   0.945 -1.8919 -1.8110 -2.7273
   14CHTO   C98 5604   4.813   5.369   0.872  0.0839 -0.3542  0.0809
   14CHTO  H185 5605   4.876   5.280   0.856  2.1760  1.1649 -0.2781
   14CHTO   O67 5606   4.762   5.403   0.740  0.6475  0.3458 -0.8363
   14CHTO  H167 5607   4.696   5.470   0.740 -0.0747 -0.3110  1.4675
   14CHTO  C102 5608   4.897   5.489   0.928  0.3202 -0.4331 -0.3379
   14CHTO  H189 5609   4.829   5.575   0.927 -0.1724 -0.8244 -0.7622
   14CHTO   N18 5610   5.014   5.528   0.854 -0.4178  0.7566 -0.4126
   14CHTO  H176 5611   5.094   5.456   0.868 -0.8049  0.8872  3.0749
   14CHTO  H177 5612   4.992   5.538   0.749 -2.5770  1.2030  0.0603
   14CHTO  C105 5613   4.915   5.455   1.082  0.1263  0.0637 -0.2882
   14CHTO  H192 5614   4.981   5.369   1.095  0.5865  0.1868 -1.7326
   14CHTO   O65 5615   4.793   5.450   1.152  0.3434 -0.3968  0.2480
   14CHTO  C100 5616   4.713   5.337   1.115  0.3611 -0.0303  0.6691
   14CHTO  H187 5617   4.758   5.247   1.161  2.0073  0.1528 -0.5284
   14CHTO  C107 5618   4.566   5.338   1.171 -0.3587 -0.2630 -0.4159
   14CHTO   O70 5619   4.570   5.351   1.313  0.6497  0.2921  0.6147
   14CHTO  H170 5620   4.503   5.298   1.352 -0.3577 -0.4779 -2.0827
   14CHTO   O57 5621   5.018   5.589   1.143  0.8856 -0.2146  0.0388
   14CHTO   C85 5622   5.055   5.584   1.276 -0.2427  0.4582 -0.2473
   14CHTO  H157 5623   5.037   5.476   1.291  0.2003  0.5776  1.2441
   14CHTO   C83 5624   4.956   5.661   1.364  0.1901 -1.0937  0.0595
   14CHTO  H155 5625   4.855   5.622   1.353 -0.6597  1.3977 -1.4488
   14CHTO   O56 5626   4.940   5.798   1.320 -0.2845 -0.4640 -0.2841
   14CHTO  H135 5627   4.855   5.837   1.312 -0.4862 -1.1048 -1.3764
   14CHTO   C81 5628   5.007   5.646   1.510  0.4212 -0.2117  0.2971
   14CHTO  H153 5629   5.014   5.539   1.534  1.4886 -0.4696 -1.1153
   14CHTO   N14 5630   4.910   5.704   1.613  0.1450  0.3064 -0.2543
   14CHTO  H141 5631   4.921   5.810   1.615 -1.2658  0.4667 -0.1064
   14CHTO  H142 5632   4.806   5.689   1.591 -0.3239  1.0598  1.3332
   14CHTO   C79 5633   5.157   5.700   1.525 -0.1854 -0.2147  0.5711
   14CHTO  H151 5634   5.186   5.682   1.629 -2.8267 -1.0602  1.2107
   14CHTO   O52 5635   5.243   5.619   1.442 -0.4277  0.3466  0.0831
   14CHTO   C86 5636   5.201   5.627   1.306 -0.0873 -0.1028 -0.1023
   14CHTO  H158 5637   5.222   5.734   1.283  2.8839 -0.8812 -1.2099
   14CHTO   C90 5638   5.305   5.545   1.234 -0.2971  0.2309 -0.2041
   14CHTO   O60 5639   5.301   5.581   1.093 -0.0517 -0.6617 -0.2561
   14CHTO  H138 5640   5.295   5.507   1.036 -0.5438  0.9834 -2.3961
   14CHTO   O50 5641   5.160   5.842   1.494  0.3695 -0.2064 -0.2804
   14CHTO   C73 5642   5.185   5.980   1.525  0.7455 -0.2675  0.0841
   14CHTO  H145 5643   5.145   6.005   1.624  0.4979 -0.6565  0.0800
   14CHTO   C74 5644   5.116   6.056   1.413 -0.3764  0.2205 -0.0795
   14CHTO  H146 5645   5.008   6.036   1.417 -1.0158  3.4597  0.5199
   14CHTO   O54 5646   5.131   6.191   1.446 -0.1185 -0.1107 -0.4489
   14CHTO  H133 5647   5.050   6.235   1.431  0.1185  0.1072 -1.1032
   14CHTO   C75 5648   5.176   6.012   1.271 -0.6430  0.3439  0.1450
   14CHTO  H147 5649   5.154   5.905   1.259  1.5064 -0.0484 -0.5326
   14CHTO   N13 5650   5.100   6.068   1.157 -0.4481 -0.7236  0.1955
   14CHTO  H139 5651   4.995   6.053   1.172 -0.3916 -1.6276 -0.3306
   14CHTO  H140 5652   5.121   6.174   1.154 -1.9237 -0.4575 -1.2597
   14CHTO   C76 5653   5.337   6.029   1.267  0.0536 -0.3576 -0.3122
   14CHTO  H148 5654   5.367   6.134   1.263  1.1236 -0.6256  0.3744
   14CHTO   O49 5655   5.401   5.976   1.387 -0.4989  0.1862 -0.2046
   14CHTO   C77 5656   5.339   6.013   1.515  1.0703 -0.1752 -0.1092
   14CHTO  H149 5657   5.356   6.120   1.528  1.4810 -0.2300 -0.1673
   14CHTO   C88 5658   5.410   5.951   1.642 -0.1711 -0.2002 -0.1966
   14CHTO   O58 5659   5.431   5.823   1.629  0.1087  0.1346  0.4012
   14CHTO  H136 5660   5.461   5.781   1.707 -0.7016 -0.9470  0.1363
   14CHTO   O51 5661   5.399   5.952   1.143 -0.0483  0.1087 -0.1454
   14CHTO   C78 5662   5.544   5.981   1.110  0.1676 -0.1371  0.9474
   14CHTO  H150 5663   5.606   5.996   1.200  2.5916  2.2704 -1.0410
   14CHTO   C80 5664   5.552   6.109   1.020  0.8172  0.6851  0.3651
   14CHTO  H152 5665   5.461   6.111   0.956 -0.5191  0.7999  2.2158
   14CHTO   O55 5666   5.534   6.225   1.112  0.2999  0.7733 -0.8465
   14CHTO  H134 5667   5.615   6.263   1.140 -0.1744  0.6253  0.8049
   14CHTO   C84 5668   5.695   6.130   0.945 -0.5187  0.2448 -0.0209
   14CHTO  H156 5669   5.762   6.178   1.016  0.0903 -2.1601  1.0844
   14CHTO   N15 5670   5.695   6.226   0.828 -0.1052  0.0643 -0.0044
   14CHTO  H143 5671   5.676   6.323   0.869 -0.1538 -0.0718  0.3046
   14CHTO  H144 5672   5.785   6.228   0.770 -0.3538 -1.8401 -0.4889
   14CHTO   C87 5673   5.763   5.993   0.909  0.4657 -0.3770  0.7234
   14CHTO  H159 5674   5.711   5.955   0.821 -1.2400  0.9667  1.1220
   14CHTO   O53 5675   5.743   5.896   1.020 -0.5319 -0.1863  0.1169
   14CHTO   C82 5676   5.610   5.860   1.036  0.0982 -0.0386 -0.1883
   14CHTO  H154 5677   5.564   5.839   0.940  1.3307  0.9403 -1.0107
   14CHTO   C89 5678   5.606   5.728   1.113 -0.0679 -0.2135  0.3850
   14CHTO   O59 5679   5.649   5.732   1.253 -0.0515  0.0939  0.0856
   14CHTO  H137 5680   5.619   5.812   1.292  2.4794  1.6235 -1.0002
   14CHTO   O45 5681   5.927   6.023   0.864 -0.2272  0.9922  0.0408
   14CHTO   C67 5682   6.012   5.905   0.845  0.3433  0.1777 -0.3128
   14CHTO  H124 5683   5.963   5.808   0.853 -0.7548  0.5323 -2.3255
   14CHTO   C65 5684   6.075   5.918   0.704 -0.4951 -0.3896 -0.5684
   14CHTO  H122 5685   5.987   5.938   0.641 -0.8254  1.2713  0.3955
   14CHTO   O44 5686   6.145   5.798   0.662 -0.1037  0.0862  0.0627
   14CHTO  H102 5687   6.091   5.734   0.620  1.5071 -0.4357 -1.2151
   14CHTO   C63 5688   6.163   6.046   0.694  0.5976 -0.3772  0.0799
   14CHTO  H120 5689   6.102   6.133   0.720 -1.2715 -0.8177 -2.6659
   14CHTO   N11 5690   6.210   6.090   0.559  0.4561 -0.0399 -1.0575
   14CHTO  H108 5691   6.138   6.070   0.483  0.6289  0.7215 -1.4320
   14CHTO  H109 5692   6.296   6.031   0.536  0.6742 -0.6228  1.1425
   14CHTO   C61 5693   6.270   6.049   0.807 -0.4783 -0.7681  0.2307
   14CHTO  H118 5694   6.318   6.148   0.813 -2.9359  0.5211 -0.8686
   14CHTO   O40 5695   6.219   6.014   0.943 -0.1780  0.4599 -0.1320
   14CHTO   C68 5696   6.111   5.905   0.961 -0.7786  0.3246 -0.6549
   14CHTO  H125 5697   6.063   5.934   1.057 -2.8995  0.9804 -1.8795
   14CHTO   C72 5698   6.188   5.771   0.985  0.0631  0.2919 -0.0979
   14CHTO   O48 5699   6.095   5.676   1.026 -0.0778  0.3193  0.3265
   14CHTO  H105 5700   6.091   5.604   0.965 -0.9532  1.1314 -0.5942
   14CHTO   O38 5701   6.371   5.950   0.794  0.0033 -0.5841  0.2828
   14CHTO   C55 5702   6.506   5.989   0.782 -0.6054 -0.1264 -0.4302
   14CHTO  H112 5703   6.517   6.096   0.758  1.0759 -0.0022  0.8138
   14CHTO   C56 5704   6.549   5.897   0.664 -0.7566 -0.1196 -0.4141
   14CHTO  H113 5705   6.491   5.804   0.670 -0.2997 -0.4450 -1.0133
   14CHTO   O42 5706   6.500   5.962   0.546  0.4355 -0.2170  0.3322
   14CHTO  H100 5707   6.512   5.911   0.469  0.6322  1.8603 -1.0366
   14CHTO   C57 5708   6.705   5.863   0.642  0.5914 -0.5537 -0.3434
   14CHTO  H114 5709   6.742   5.952   0.590  0.3579 -0.5212 -0.4559
   14CHTO   N10 5710   6.730   5.755   0.545 -0.2405  0.2888 -0.2206
   14CHTO  H106 5711   6.727   5.789   0.443  0.7666 -1.0932 -0.7347
   14CHTO  H107 5712   6.659   5.674   0.545 -0.7535  0.7065  2.2007
   14CHTO   C58 5713   6.770   5.860   0.781 -0.0652 -0.3450 -0.0240
   14CHTO  H115 5714   6.755   5.760   0.828  0.9267  0.0832  1.2156
   14CHTO   O37 5715   6.730   5.966   0.868 -0.1295  0.0512  1.2597
   14CHTO   C59 5716   6.594   5.950   0.908 -0.1962  0.2163  0.4837
   14CHTO  H116 5717   6.577   5.847   0.940  2.8109 -0.5471 -0.2320
   14CHTO   C70 5718   6.563   6.041   1.028  0.0689  0.7424 -0.1280
   14CHTO   O46 5719   6.569   6.180   1.019 -0.1980 -0.3998 -0.3597
   14CHTO  H103 5720   6.552   6.223   1.101  1.2634 -2.2431  0.9630
   14CHTO   O39 5721   6.943   5.887   0.786 -0.4210  0.5705  0.5092
   14CHTO   C60 5722   7.026   5.781   0.767  0.0034  0.4747  0.4653
   14CHTO  H117 5723   6.960   5.694   0.759 -0.4355  0.9551 -1.4536
   14CHTO   C62 5724   7.104   5.793   0.636 -0.4627 -0.3813  0.0586
   14CHTO  H119 5725   7.032   5.806   0.552 -0.5500  4.1599  0.7046
   14CHTO   O43 5726   7.192   5.904   0.646 -0.4856 -0.6538  0.6772
   14CHTO  H101 5727   7.155   5.988   0.624  3.4902  1.4015  1.2862
   14CHTO   C66 5728   7.190   5.663   0.600  0.2844  0.6095 -0.9610
   14CHTO  H123 5729   7.125   5.576   0.596  0.1232  0.7669 -1.8161
   14CHTO   N12 5730   7.248   5.678   0.467 -0.3236  0.0036 -0.3567
   14CHTO  H110 5731   7.278   5.582   0.428  3.1687 -0.3518  2.8639
   14CHTO  H111 5732   7.176   5.715   0.395  1.9700  1.2514 -2.0713
   14CHTO   C69 5733   7.292   5.640   0.712 -0.3863  0.4379 -0.1299
   14CHTO  H126 5734   7.365   5.723   0.716  1.1643 -0.9738  2.7743
   14CHTO   O41 5735   7.211   5.625   0.860 -0.3716 -0.0477 -0.5730
   14CHTO   C64 5736   7.124   5.752   0.886  0.0831  0.6761 -0.2128
   14CHTO  H121 5737   7.188   5.840   0.907 -0.5762  1.0306  0.3408
   14CHTO   C71 5738   7.052   5.747   1.025  0.2384  0.1186  0.3700
   14CHTO   O47 5739   6.975   5.869   1.044 -0.6414  0.1211  0.0810
   14CHTO  H104 5740   7.002   5.934   0.982  2.5186 -0.6231  0.6138
   14CHTO   O34 5741   7.367   5.503   0.678 -0.3172  0.2028 -0.0112
   14CHTO   C49 5742   7.525   5.475   0.670 -0.2316 -0.8270  0.2108
   14CHTO   H91 5743   7.531   5.430   0.571 -1.7274  0.4401 -0.4795
   14CHTO   C47 5744   7.588   5.388   0.779  0.4917  0.0418  0.3351
   14CHTO   H89 5745   7.682   5.347   0.736 -1.2603 -0.0114 -3.6623
   14CHTO   O33 5746   7.508   5.276   0.810  0.6576  0.2037  0.3849
   14CHTO   H70 5747   7.508   5.205   0.749 -2.3877 -0.2533  0.8327
   14CHTO   C45 5748   7.605   5.474   0.921  0.0387 -0.7528 -0.1384
   14CHTO   H87 5749   7.522   5.434   0.981 -1.5715  0.8838 -1.2218
   14CHTO    N8 5750   7.733   5.438   0.984 -0.2430  0.1187  0.1593
   14CHTO   H75 5751   7.741   5.331   0.995  0.3683 -0.0632 -1.7783
   14CHTO   H76 5752   7.815   5.484   0.930 -0.2087  0.6058  0.6235
   14CHTO   C43 5753   7.573   5.639   0.897 -0.1318  0.3568  0.4592
   14CHTO   H85 5754   7.465   5.639   0.885 -0.0391  0.7295 -0.3244
   14CHTO   O29 5755   7.634   5.677   0.779 -0.2094  0.2093  0.5797
   14CHTO   C50 5756   7.604   5.610   0.654  0.4755 -0.5369 -0.2088
   14CHTO   H92 5757   7.547   5.688   0.601 -2.5514 -2.4312  0.0981
   14CHTO   C54 5758   7.732   5.595   0.574  0.1655 -0.1131 -0.1705
   14CHTO   O36 5759   7.721   5.639   0.435  0.5166  0.0366  0.1737
   14CHTO   H72 5760   7.801   5.684   0.415  0.0717  2.3432  3.1661
   14CHTO   O27 5761   7.620   5.723   1.004  0.0044 -0.1677 -0.1169
   14CHTO   C37 5762   7.567   5.846   1.049  0.7973 -0.7504 -0.0032
   14CHTO   H79 5763   7.657   5.908   1.066  1.4084 -1.6228 -0.0183
   14CHTO   C38 5764   7.481   5.924   0.950 -0.1830 -0.2724  0.1725
   14CHTO   H80 5765   7.416   5.851   0.898  1.0793 -1.0493 -0.3251
   14CHTO   O31 5766   7.562   5.975   0.844  0.8216 -0.2038 -0.2881
   14CHTO   H68 5767   7.592   5.903   0.791  1.4279 -1.1434  1.3010
   14CHTO   C39 5768   7.399   6.048   1.016  0.2271 -0.0397 -0.4370
   14CHTO   H81 5769   7.473   6.123   1.043 -1.1085  0.4503  1.9400
   14CHTO    N7 5770   7.308   6.101   0.906 -0.2150  0.0651  0.5761
   14CHTO   H73 5771   7.369   6.114   0.818  0.9027  0.7505  1.4349
   14CHTO   H74 5772   7.257   6.189   0.941 -2.4738 -0.9345 -0.0958
   14CHTO   C40 5773   7.333   6.011   1.152 -0.3047 -0.4066  0.1752
   14CHTO   H82 5774   7.248   5.944   1.135 -0.4323 -0.1891 -0.0484
   14CHTO   O26 5775   7.432   5.951   1.238  0.2515 -0.3739  0.2027
   14CHTO   C41 5776   7.492   5.826   1.184 -0.3657 -0.4238 -0.2804
   14CHTO   H83 5777   7.404   5.762   1.167  0.1420 -0.9183 -1.0719
   14CHTO   C52 5778   7.579   5.753   1.296  0.2115  0.0153 -0.4719
   14CHTO   O35 5779   7.688   5.833   1.334 -0.3314 -0.2161  0.5545
   14CHTO   H71 5780   7.741   5.792   1.399 -0.4873  1.7474  1.9731
   14CHTO   O28 5781   7.292   6.134   1.225  0.5424 -0.6487  0.4828
   14CHTO   C42 5782   7.168   6.140   1.310 -0.4401 -0.3383 -0.1262
   14CHTO   H84 5783   7.199   6.218   1.379 -0.0836 -0.0944 -0.5585
   14CHTO   C44 5784   7.139   6.010   1.396  0.2183 -0.2492 -0.1299
   14CHTO   H86 5785   7.113   5.928   1.329 -0.9461  1.0782 -1.3164
   14CHTO   O32 5786   7.260   5.980   1.470 -0.2535  0.1529  0.3450
   14CHTO   H69 5787   7.254   5.915   1.538 -0.9073  0.9723  1.0661
   14CHTO   C48 5788   7.014   6.033   1.496  0.7280 -0.0996  0.3777
   14CHTO   H90 5789   7.054   6.114   1.557  1.1940  0.8731 -1.1980
   14CHTO    N9 5790   6.990   5.912   1.583 -0.0095  0.4304  0.4825
   14CHTO   H77 5791   6.989   5.946   1.685 -0.3258  2.3932 -0.1468
   14CHTO   H78 5792   7.073   5.843   1.578 -1.3740 -1.1895 -0.9898
   14CHTO   C51 5793   6.899   6.070   1.392  0.0129  0.5204 -0.3047
   14CHTO   H93 5794   6.893   5.993   1.314  1.1709 -0.1534  0.2459
   14CHTO   O30 5795   6.928   6.198   1.338 -0.2205 -0.6207 -0.6910
   14CHTO   C46 5796   7.037   6.190   1.239  0.2214  0.1588 -0.3564
   14CHTO   H88 5797   7.011   6.117   1.162  0.1467  0.6033 -0.7531
   14CHTO   C53 5798   7.055   6.324   1.167  0.1884  0.8558  0.8279
   14CHTO   O72 5799   7.135   6.313   1.049  0.0851  0.2221  0.0887
   14CHTO  H199 5800   7.226   6.316   1.072  0.0398 -3.9256  1.2650
   14CHTO   O22 5801   6.771   6.095   1.452  0.3236  0.0467  0.3162
   14CHTO   C31 5802   6.645   6.077   1.378  0.1204  0.0407 -0.0270
   14CHTO   H59 5803   6.671   6.061   1.271  0.4828  0.2000  0.0376
   14CHTO   C29 5804   6.557   5.958   1.414 -0.4443 -0.8658  0.1913
   14CHTO   H57 5805   6.547   5.953   1.524  0.4188 -0.6703  0.2842
   14CHTO   O21 5806   6.637   5.847   1.386 -0.2859 -0.1482  0.2055
   14CHTO   H37 5807   6.625   5.767   1.435  0.2609 -0.7090 -0.5596
   14CHTO   C27 5808   6.413   5.956   1.351  0.4865  0.4054 -0.2423
   14CHTO   H55 5809   6.421   5.935   1.244  0.8768 -1.8024  0.1865
   14CHTO    N5 5810   6.320   5.856   1.410  0.5364 -0.1540  0.2033
   14CHTO   H43 5811   6.263   5.817   1.327  1.7073 -1.2315 -0.1084
   14CHTO   H44 5812   6.368   5.785   1.475  2.0349  0.1954 -0.4915
   14CHTO   C25 5813   6.354   6.096   1.348 -0.0133  0.0274  0.6444
   14CHTO   H53 5814   6.323   6.130   1.448 -2.3527  1.1167 -0.4115
   14CHTO   O17 5815   6.447   6.191   1.302  0.2740 -0.0649  0.1791
   14CHTO   C32 5816   6.563   6.208   1.379  0.2283  0.5393  0.1583
   14CHTO   H60 5817   6.523   6.214   1.480 -1.1369 -1.8364 -0.2012
   14CHTO   C36 5818   6.646   6.334   1.340  0.1328 -0.1730  1.2979
   14CHTO   O25 5819   6.568   6.445   1.301  0.4654 -0.6606 -0.2410
   14CHTO   H40 5820   6.611   6.520   1.339 -2.4232  0.7600  0.3504
   14CHTO   O15 5821   6.235   6.102   1.243 -0.3993  0.2528 -0.1348
   14CHTO   C19 5822   6.097   6.163   1.259 -0.1883  0.0262 -0.2256
   14CHTO   H47 5823   6.057   6.141   1.159  0.3908 -0.5600 -0.3382
   14CHTO   C20 5824   6.005   6.100   1.369 -0.2263 -0.2114  0.3536
   14CHTO   H48 5825   6.046   6.109   1.470 -3.0472 -0.4187  1.5599
   14CHTO   O19 5826   6.000   5.964   1.332 -0.1954 -0.4635  0.0998
   14CHTO   H35 5827   6.084   5.921   1.337 -0.0872 -0.5676 -2.2404
   14CHTO   C21 5828   5.859   6.168   1.353  0.5179 -0.1898  0.1958
   14CHTO   H49 5829   5.811   6.133   1.262  0.9779  1.8275 -0.8631
   14CHTO    N4 5830   5.773   6.117   1.465  0.0403 -0.7439 -0.2592
   14CHTO   H41 5831   5.693   6.186   1.488  0.4733 -0.5024  0.5588
   14CHTO   H42 5832   5.729   6.023   1.436 -1.5810  0.0172 -0.3506
   14CHTO   C22 5833   5.873   6.323   1.347 -0.2480 -0.3147 -0.2425
   14CHTO   H50 5834   5.899   6.361   1.446 -2.1717 -2.4614  1.1346
   14CHTO   O14 5835   5.974   6.359   1.253 -0.3129 -0.3583  0.2914
   14CHTO   C23 5836   6.102   6.313   1.274  0.5077  1.0423 -0.5068
   14CHTO   H51 5837   6.136   6.340   1.375 -1.2304 -1.5702  0.8231
   14CHTO   C34 5838   6.199   6.381   1.180 -0.6488 -0.5254  0.2905
   14CHTO   O23 5839   6.222   6.521   1.207 -0.4632  0.6762  0.4222
   14CHTO   H38 5840   6.291   6.535   1.270  0.4217  0.6498 -0.5287
   14CHTO   O16 5841   5.749   6.376   1.303  0.2497  0.5286 -0.5370
   14CHTO   C24 5842   5.710   6.556   1.336 -0.0865  0.6316  0.2983
   14CHTO   H52 5843   5.670   6.602   1.246  0.5985 -0.3002 -0.4873
   14CHTO   C26 5844   5.830   6.634   1.394  0.0842  0.5609 -0.0682
   14CHTO   H54 5845   5.853   6.583   1.490  0.2525  0.7350 -0.0140
   14CHTO   O20 5846   5.948   6.628   1.309  0.0951  0.8710 -0.7891
   14CHTO   H36 5847   5.924   6.669   1.229 -2.2310  0.2982 -0.4360
   14CHTO   C30 5848   5.783   6.778   1.423  1.0441  0.1635 -0.0463
   14CHTO   H58 5849   5.752   6.825   1.328  1.1532 -1.1044 -0.7216
   14CHTO    N6 5850   5.891   6.861   1.479 -0.4122 -0.0020 -0.0860
   14CHTO   H45 5851   5.985   6.809   1.461 -0.8094  0.4224 -3.6935
   14CHTO   H46 5852   5.890   6.958   1.433 -0.3325 -0.2058 -0.5153
   14CHTO   C33 5853   5.653   6.784   1.515  0.0981 -0.2451  0.0856
   14CHTO   H61 5854   5.678   6.762   1.620 -0.4082  1.7564  0.6367
   14CHTO   O18 5855   5.555   6.695   1.469  0.2878 -0.3973 -0.0022
   14CHTO   C28 5856   5.594   6.556   1.442  0.0070 -0.2905 -0.3496
   14CHTO   H56 5857   5.632   6.510   1.533 -1.1208  2.1307  1.4048
   14CHTO   C35 5858   5.459   6.484   1.422  0.6476  0.6511 -0.1306
   14CHTO   O24 5859   5.448   6.345   1.433 -0.1369 -0.7342  0.9596
   14CHTO   H39 5860   5.356   6.326   1.434 -0.7955  2.3045  1.7142
   14CHTO    O9 5861   5.605   6.920   1.522 -0.3994 -0.2748  0.4638
   14CHTO   C13 5862   5.452   6.941   1.615  0.2439  0.2913  0.1535
   14CHTO   H26 5863   5.431   6.854   1.681  1.2421 -1.0531 -1.2397
   14CHTO   C11 5864   5.336   6.961   1.510  0.8084 -0.8119  0.3935
   14CHTO   H24 5865   5.314   6.868   1.456 -0.3496  0.4752 -1.3954
   14CHTO    O8 5866   5.379   7.052   1.413 -0.9170 -0.2570  0.0306
   14CHTO    H3 5867   5.427   7.123   1.451 -0.8790 -0.9194  1.2604
   14CHTO    C9 5868   5.202   7.002   1.584  0.5103 -0.8251  0.2323
   14CHTO   H22 5869   5.176   6.912   1.642 -0.6660  0.6945  2.0772
   14CHTO    N2 5870   5.091   7.018   1.492 -0.1981  0.3450  0.0622
   14CHTO   H10 5871   5.067   7.123   1.484 -2.4877 -0.1180  0.3595
   14CHTO   H11 5872   5.117   6.986   1.392 -2.3867  0.7942 -0.6978
   14CHTO    C7 5873   5.226   7.120   1.684  0.3226 -0.2876  0.2305
   14CHTO   H20 5874   5.202   7.072   1.781  1.4573  1.5314  1.4524
   14CHTO    O4 5875   5.357   7.172   1.675  0.1518  0.0635  0.4212
   14CHTO   C14 5876   5.458   7.075   1.714 -0.7505  0.8248  0.1408
   14CHTO   H27 5877   5.434   7.047   1.819 -0.7172  1.7554  0.3964
   14CHTO   C18 5878   5.596   7.138   1.721 -0.4459  0.5522  0.2101
   14CHTO   O13 5879   5.615   7.239   1.819 -0.1898 -0.3325 -0.1600
   14CHTO    H7 5880   5.703   7.244   1.850  0.1940 -0.7020 -1.1654
   14CHTO    O2 5881   5.116   7.250   1.654  0.1690 -0.0224 -0.1695
   14CHTO    C1 5882   5.152   7.395   1.668  0.5549  0.4800  0.5546
   14CHTO   H14 5883   5.058   7.449   1.644  0.1993  0.2526  1.4344
   14CHTO    C2 5884   5.266   7.450   1.573 -0.6774  0.1223 -0.0612
   14CHTO   H15 5885   5.351   7.392   1.612 -1.0897  0.9688  2.2252
   14CHTO    O6 5886   5.251   7.415   1.434 -0.0101 -0.3721 -0.2660
   14CHTO    H1 5887   5.299   7.340   1.404 -1.2264 -1.6029  0.8141
   14CHTO    C3 5888   5.289   7.614   1.598 -0.0083  0.0866  0.7063
   14CHTO   H16 5889   5.203   7.678   1.574  0.5013 -0.1959 -2.0003
   14CHTO    N1 5890   5.403   7.668   1.505 -0.5697 -0.2605  0.7040
   14CHTO    H8 5891   5.405   7.630   1.404 -2.1043  2.8383 -0.5420
   14CHTO    H9 5892   5.496   7.665   1.559  1.1112 -1.1075 -2.1662
   14CHTO    C4 5893   5.314   7.626   1.750 -0.0845  0.7700 -0.5646
   14CHTO   H17 5894   5.409   7.578   1.775  0.0626  2.2785  1.9724
   14CHTO    O1 5895   5.202   7.571   1.817 -0.2568 -0.0466  0.3205
   14CHTO    C5 5896   5.180   7.432   1.818 -0.4805  0.3457  0.7628
   14CHTO   H18 5897   5.265   7.375   1.856  0.1868  1.9103  1.6540
   14CHTO   C16 5898   5.062   7.416   1.906 -0.2189 -0.0573 -0.1515
   14CHTO   O11 5899   5.097   7.446   2.038  0.1480  0.1272 -0.5187
   14CHTO    H5 5900   5.043   7.514   2.073  1.8678 -0.2121  2.9820
   14CHTO    O3 5901   5.330   7.768   1.792  0.2350 -0.3438  0.0205
   14CHTO    C6 5902   5.397   7.783   1.924  1.1302  0.2934 -0.3118
   14CHTO   H19 5903   5.397   7.688   1.979  0.7683 -0.1710 -1.1002
   14CHTO    C8 5904   5.541   7.840   1.907 -0.7691  0.5972 -0.6771
   14CHTO   H21 5905   5.536   7.914   1.827  0.1792 -1.0587 -2.3114
   14CHTO    O7 5906   5.626   7.732   1.865  0.0163 -0.2426 -0.0239
   14CHTO    H2 5907   5.709   7.759   1.831 -0.2366  0.7868  0.1416
   14CHTO   C12 5908   5.591   7.906   2.045  0.1580  0.3108  0.9591
   14CHTO   H25 5909   5.604   7.825   2.120 -1.7072  0.1263  1.0972
   14CHTO    N3 5910   5.719   7.986   2.027 -0.0802 -0.5472  0.6644
   14CHTO   H12 5911   5.763   7.982   1.928 -0.6242  0.4531  0.3729
   14CHTO   H13 5912   5.784   7.931   2.092  3.3504  1.8494 -0.6179
   14CHTO   C15 5913   5.478   7.999   2.096 -0.2108 -0.1352 -0.2815
   14CHTO   H28 5914   5.469   8.073   2.016 -1.1189 -0.3401 -0.3729
   14CHTO   O10 5915   5.507   8.056   2.249 -0.1849  0.4144 -0.1207
   14CHTO    H4 5916   5.597   8.076   2.263  0.5487 -2.7953  0.2027
   14CHTO    O5 5917   5.356   7.936   2.122  0.1002  0.2533 -0.4614
   14CHTO   C10 5918   5.306   7.882   2.004 -0.3523  0.5153  0.4336
   14CHTO   H23 5919   5.290   7.967   1.938  2.0316  0.0454 -0.7986
   14CHTO   C17 5920   5.159   7.822   2.031  0.0956 -0.3715 -0.3545
   14CHTO   O12 5921   5.146   7.756   2.154 -0.3332 -0.1007  0.8402
   14CHTO    H6 5922   5.099   7.810   2.216 -1.3941 -0.9572  0.7796
   15CHTO  H203 5923   6.249   4.908   1.416 -2.0120  0.0945 -1.7357
   15CHTO   O82 5924   6.307   4.951   1.357 -0.3303 -0.0414 -0.2238
   15CHTO  C123 5925   6.371   4.847   1.282  0.5206  0.1387  0.0980
   15CHTO  H227 5926   6.413   4.776   1.354 -0.5894  0.1055  0.7235
   15CHTO   O77 5927   6.261   4.791   1.214  0.5641  0.1822  0.0484
   15CHTO  C118 5928   6.293   4.677   1.129 -0.2370  0.2775  0.1498
   15CHTO  H222 5929   6.334   4.591   1.183  0.8162  1.5804  1.4806
   15CHTO  C125 5930   6.150   4.633   1.062  0.4800 -0.1578 -0.3109
   15CHTO   O84 5931   6.084   4.739   0.988  0.0174 -0.3453 -0.2141
   15CHTO  H205 5932   6.068   4.809   1.048 -1.0241  0.1395 -1.0472
   15CHTO  C114 5933   6.384   4.730   1.015 -0.0509 -0.4911  0.4634
   15CHTO  H218 5934   6.333   4.813   0.966  2.1207  0.6653  0.0998
   15CHTO  C116 5935   6.518   4.792   1.082 -0.1010  0.1169 -0.0379
   15CHTO  H220 5936   6.568   4.720   1.150  0.1935  1.2200  0.9222
   15CHTO   O79 5937   6.605   4.841   0.986 -0.1713 -0.4789  0.4878
   15CHTO  H201 5938   6.692   4.850   1.019  0.0975  0.6576 -0.5253
   15CHTO  C120 5939   6.476   4.903   1.186 -0.0536 -0.0057  0.3969
   15CHTO  H224 5940   6.442   4.993   1.130 -1.6101 -1.4960 -1.1089
   15CHTO   N21 5941   6.598   4.961   1.255  0.3097  0.2596 -0.3988
   15CHTO  H211 5942   6.637   5.046   1.202 -0.3237 -0.3372 -1.8521
   15CHTO  H212 5943   6.593   4.980   1.361 -0.3488 -3.9631  0.4314
   15CHTO   O75 5944   6.397   4.623   0.919  0.1446  0.0802 -0.6101
   15CHTO  C112 5945   6.512   4.509   0.947  0.4288  0.0958 -0.1320
   15CHTO  H216 5946   6.542   4.515   1.053  0.8497  1.5130 -0.3250
   15CHTO   O73 5947   6.626   4.541   0.858 -0.0153 -0.5517  0.0939
   15CHTO  C113 5948   6.732   4.450   0.858 -0.0670 -0.4608  0.0523
   15CHTO  H217 5949   6.759   4.442   0.965  2.2724  2.7055 -0.2360
   15CHTO  C124 5950   6.845   4.503   0.776  0.0115 -0.1088 -0.0977
   15CHTO   O83 5951   6.808   4.512   0.636 -0.6003 -0.5443 -0.4359
   15CHTO  H204 5952   6.879   4.488   0.581  0.0381  1.2300 -0.4133
   15CHTO  C109 5953   6.675   4.317   0.795 -0.0416 -0.0416 -0.7260
   15CHTO  H213 5954   6.627   4.341   0.699 -2.5202 -1.5337  0.0813
   15CHTO  C110 5955   6.571   4.263   0.890  0.6432 -0.9549 -0.0940
   15CHTO  H214 5956   6.623   4.237   0.982 -1.5739 -0.7750  1.2596
   15CHTO   O78 5957   6.514   4.138   0.837  0.0991 -0.1739  1.0328
   15CHTO  H200 5958   6.464   4.165   0.763 -0.3979 -0.3069  1.3184
   15CHTO  C111 5959   6.454   4.365   0.909  0.3279  0.5845  0.2602
   15CHTO  H215 5960   6.406   4.378   0.811  1.6995 -0.5464 -0.5745
   15CHTO   N19 5961   6.345   4.329   1.006 -0.7995  0.2546  0.1620
   15CHTO  H207 5962   6.381   4.273   1.092 -1.1027  0.6653  0.5565
   15CHTO  H208 5963   6.274   4.269   0.951 -2.0471  1.4006  0.5003
   15CHTO   O74 5964   6.771   4.220   0.772  0.5233  0.3913 -0.3166
   15CHTO  C115 5965   6.738   4.149   0.613 -0.0980  0.3244  0.1910
   15CHTO  H219 5966   6.636   4.113   0.600  0.5813 -1.1643 -1.2080
   15CHTO   O76 5967   6.762   4.253   0.501  0.2512 -0.0722 -0.1852
   15CHTO  C122 5968   6.733   4.204   0.372 -0.2204  0.4250 -0.2963
   15CHTO  H226 5969   6.778   4.281   0.309 -1.2909 -0.4101 -2.1367
   15CHTO  C126 5970   6.580   4.216   0.343  0.4590 -0.2572  0.0946
   15CHTO   O85 5971   6.523   4.343   0.354 -0.3098 -0.0927  0.4016
   15CHTO  H206 5972   6.439   4.349   0.395 -0.4974  3.4939 -0.3553
   15CHTO  C121 5973   6.796   4.065   0.330 -0.5323 -0.1463  0.6911
   15CHTO  H225 5974   6.728   4.026   0.252 -1.6963  1.7708  0.7016
   15CHTO   O81 5975   6.933   4.078   0.276  0.1305  0.0069  0.0070
   15CHTO  H202 5976   6.932   4.122   0.194  0.6182 -1.4457 -0.7881
   15CHTO  C119 5977   6.789   3.966   0.442 -0.6624  0.3484 -0.5270
   15CHTO  H223 5978   6.681   3.954   0.455 -0.6284  0.0837 -0.4956
   15CHTO  C117 5979   6.839   4.028   0.579 -0.4329  0.4640 -0.2794
   15CHTO  H221 5980   6.944   4.059   0.575  0.0030 -1.2392 -3.5336
   15CHTO   N20 5981   6.835   3.933   0.692  0.5678  0.1303  0.3545
   15CHTO  H209 5982   6.933   3.939   0.736  1.1722 -1.8030 -0.6782
   15CHTO  H210 5983   6.828   3.832   0.655  1.5261  1.5743 -4.0165
   15CHTO   O80 5984   6.835   3.836   0.408 -0.2079 -0.5298  0.3439
   15CHTO  C103 5985   6.734   3.714   0.432 -0.2365 -0.6321 -0.0046
   15CHTO  H190 5986   6.722   3.706   0.540 -0.8058  1.9392  0.1459
   15CHTO  C101 5987   6.591   3.710   0.372  0.7689 -0.0200 -0.3664
   15CHTO  H188 5988   6.600   3.745   0.269  0.7084 -2.2940 -1.1704
   15CHTO   O68 5989   6.506   3.818   0.447  0.1585  0.2610 -0.0564
   15CHTO  H168 5990   6.544   3.903   0.436 -0.0026  0.4922  1.1159
   15CHTO   C99 5991   6.527   3.563   0.377  0.1856 -0.1741 -0.1421
   15CHTO  H186 5992   6.513   3.530   0.482  1.8963 -1.3201 -0.2508
   15CHTO   N17 5993   6.391   3.545   0.313 -0.2624 -0.2200  0.0846
   15CHTO  H174 5994   6.334   3.471   0.369  1.0611 -0.8194  0.6489
   15CHTO  H175 5995   6.341   3.640   0.305  0.2726  0.1934  1.5337
   15CHTO   C97 5996   6.623   3.459   0.316 -0.4022  0.4625  0.5564
   15CHTO  H184 5997   6.629   3.481   0.208 -2.6409  1.2176  0.5550
   15CHTO   O64 5998   6.753   3.464   0.380  0.6466  0.9053  0.4310
   15CHTO  C104 5999   6.814   3.592   0.388  0.0706  0.0423  0.1661
   15CHTO  H191 6000   6.856   3.607   0.289 -0.0127 -0.1941  0.0943
   15CHTO  C108 6001   6.933   3.564   0.481  0.3510 -0.5167 -0.0411
   15CHTO   O71 6002   7.012   3.441   0.451 -0.3863  0.3019  0.4876
   15CHTO  H171 6003   7.083   3.425   0.509  1.4892  1.2963 -1.4591
   15CHTO   O62 6004   6.585   3.319   0.341 -0.3789  0.3389  0.2915
   15CHTO   C91 6005   6.644   3.224   0.251  0.3147 -0.0130  0.2503
   15CHTO  H178 6006   6.729   3.271   0.202 -0.5102  1.6458  0.3941
   15CHTO   C92 6007   6.541   3.203   0.133 -0.0260 -0.9698 -0.6143
   15CHTO  H179 6008   6.497   3.297   0.097 -1.3396 -0.3747  2.4195
   15CHTO   O66 6009   6.615   3.149   0.024 -0.5140  0.1374  0.2977
   15CHTO  H166 6010   6.638   3.061   0.043  1.0465  0.9013  2.0938
   15CHTO   C93 6011   6.425   3.104   0.170  0.0991  0.8589 -0.1978
   15CHTO  H180 6012   6.394   3.057   0.075 -1.2444 -0.8283  1.0412
   15CHTO   N16 6013   6.301   3.165   0.219 -0.2352  0.4310 -0.3104
   15CHTO  H172 6014   6.318   3.204   0.318  2.6613  1.4871 -1.1565
   15CHTO  H173 6015   6.223   3.090   0.210  1.6290 -1.6553  0.3556
   15CHTO   C94 6016   6.473   2.988   0.263 -0.1259  0.9870  0.6476
   15CHTO  H181 6017   6.447   3.008   0.367  0.1742  0.5670  0.8027
   15CHTO   O61 6018   6.617   2.970   0.264  0.0630 -0.6096 -0.1823
   15CHTO   C95 6019   6.682   3.086   0.323  0.2575  0.0101 -1.0232
   15CHTO  H182 6020   6.661   3.092   0.430 -0.4911  0.4743 -1.1956
   15CHTO  C106 6021   6.831   3.058   0.296  0.2294  0.1701 -0.2344
   15CHTO   O69 6022   6.921   3.166   0.327  0.2127  0.0477 -0.6869
   15CHTO  H169 6023   7.010   3.149   0.304 -0.4869 -2.2816 -1.8525
   15CHTO   O63 6024   6.414   2.859   0.228  0.1527 -0.0732  0.1584
   15CHTO   C96 6025   6.423   2.737   0.326 -0.1005  0.6038 -0.4907
   15CHTO  H183 6026   6.433   2.785   0.423  2.3757  2.4420 -1.6168
   15CHTO   C98 6027   6.555   2.654   0.304 -0.6385  0.5461 -0.8580
   15CHTO  H185 6028   6.587   2.667   0.199  2.1023  0.1074 -0.1209
   15CHTO   O67 6029   6.669   2.716   0.378 -0.1216 -0.3934  0.0700
   15CHTO  H167 6030   6.686   2.799   0.340 -1.6055  0.1902  0.6503
   15CHTO  C102 6031   6.554   2.500   0.335  0.8755 -1.0000  0.1554
   15CHTO  H189 6032   6.573   2.498   0.443 -1.6485  2.0674  0.7097
   15CHTO   N18 6033   6.659   2.415   0.269 -0.5750  0.1304 -0.4569
   15CHTO  H176 6034   6.733   2.387   0.342 -0.1037 -0.9829 -1.3501
   15CHTO  H177 6035   6.699   2.474   0.188  0.9274 -0.9177 -0.4910
   15CHTO  C105 6036   6.418   2.437   0.318 -0.1145 -0.1170  0.5330
   15CHTO  H192 6037   6.390   2.431   0.212 -0.6245 -0.3406  0.6767
   15CHTO   O65 6038   6.304   2.517   0.367  0.0609 -0.1844 -0.0044
   15CHTO  C100 6039   6.296   2.655   0.311 -0.3222  0.9168 -0.2562
   15CHTO  H187 6040   6.272   2.655   0.204  1.1042  2.0938 -0.5902
   15CHTO  C107 6041   6.183   2.730   0.389  0.1615  0.3834 -0.1694
   15CHTO   O70 6042   6.057   2.667   0.378  0.8390 -0.0603 -0.0700
   15CHTO  H170 6043   5.997   2.733   0.408 -0.3351 -1.6673  1.1850
   15CHTO   O57 6044   6.413   2.289   0.386 -0.1097  0.1389  0.0241
   15CHTO   C85 6045   6.379   2.276   0.520 -0.1221 -0.3664  0.4229
   15CHTO  H157 6046   6.387   2.377   0.566  0.9950 -0.0907 -0.3695
   15CHTO   C83 6047   6.489   2.185   0.585  0.8764  0.5343  0.5572
   15CHTO  H155 6048   6.579   2.246   0.588  1.5248 -0.3135 -1.1727
   15CHTO   O56 6049   6.510   2.073   0.500 -0.1111  0.0412  0.2211
   15CHTO  H135 6050   6.585   2.027   0.534  0.5889  2.4255  2.0620
   15CHTO   C81 6051   6.452   2.156   0.736  0.1239  0.4964 -0.0002
   15CHTO  H153 6052   6.450   2.253   0.787  2.4487  0.6596 -0.1396
   15CHTO   N14 6053   6.555   2.079   0.800  0.3548  0.2061  0.1307
   15CHTO  H141 6054   6.587   2.102   0.899  0.1537 -0.3923  0.3375
   15CHTO  H142 6055   6.573   1.975   0.780  0.4043  0.4947 -1.3577
   15CHTO   C79 6056   6.308   2.084   0.746  0.5553  0.2296 -0.5479
   15CHTO  H151 6057   6.286   2.076   0.852 -2.0501 -0.6454 -1.1125
   15CHTO   O52 6058   6.213   2.187   0.692 -0.9022  0.0871 -0.0416
   15CHTO   C86 6059   6.242   2.208   0.550  0.2754 -0.7892  0.0843
   15CHTO  H158 6060   6.229   2.111   0.499  0.0442  0.0424 -1.4724
   15CHTO   C90 6061   6.121   2.299   0.499  0.2923  0.0088  0.1978
   15CHTO   O60 6062   5.990   2.243   0.530  0.4361  0.1323  0.3944
   15CHTO  H138 6063   5.964   2.247   0.620 -1.5962  0.8227 -0.2066
   15CHTO   O50 6064   6.302   1.956   0.683  0.1478 -0.3844  0.7699
   15CHTO   C73 6065   6.258   1.814   0.669  0.5773 -0.0969 -0.1632
   15CHTO  H145 6066   6.155   1.806   0.632  1.5630  0.8420 -3.3369
   15CHTO   C74 6067   6.260   1.729   0.803  0.3957 -0.3168 -0.7254
   15CHTO  H146 6068   6.191   1.766   0.880  1.2517  0.9093 -0.5476
   15CHTO   O54 6069   6.196   1.604   0.770  0.1830  0.3802 -0.1884
   15CHTO  H133 6070   6.253   1.542   0.729  0.6809  0.2864  0.6246
   15CHTO   C75 6071   6.410   1.707   0.852 -0.5568 -0.1082  0.3934
   15CHTO  H147 6072   6.458   1.803   0.876  0.6216 -0.1637 -1.6522
   15CHTO   N13 6073   6.407   1.631   0.975 -0.6658  0.8277 -0.1402
   15CHTO  H139 6074   6.509   1.602   0.995 -0.7157 -1.5308 -2.8857
   15CHTO  H140 6075   6.366   1.691   1.055 -0.0618 -0.2604  1.0101
   15CHTO   C76 6076   6.499   1.648   0.733  0.1028  0.0575 -0.7649
   15CHTO  H148 6077   6.456   1.550   0.712 -0.7076  0.8619 -3.0966
   15CHTO   O49 6078   6.487   1.736   0.608 -0.2236  0.3684  0.0791
   15CHTO   C77 6079   6.347   1.743   0.572 -0.3331  0.0698  0.8725
   15CHTO  H149 6080   6.313   1.641   0.552  0.5891 -0.0109 -0.2906
   15CHTO   C88 6081   6.333   1.809   0.430 -0.1438 -0.3176 -0.0330
   15CHTO   O58 6082   6.206   1.776   0.367 -0.0076 -0.4093  0.4115
   15CHTO  H136 6083   6.215   1.768   0.274 -0.5072  0.9799  0.2438
   15CHTO   O51 6084   6.657   1.644   0.767  0.1043 -0.0804 -0.3599
   15CHTO   C78 6085   6.721   1.545   0.681 -0.6140 -0.3673 -0.4202
   15CHTO  H150 6086   6.665   1.527   0.586  0.1636 -3.1255 -0.3950
   15CHTO   C80 6087   6.745   1.405   0.751 -0.0251 -0.6117 -0.2893
   15CHTO  H152 6088   6.819   1.423   0.832  0.2112 -0.0846 -0.6220
   15CHTO   O55 6089   6.612   1.370   0.796 -0.5650  0.1909  0.4911
   15CHTO  H134 6090   6.608   1.303   0.862  0.7230  1.8967  2.3849
   15CHTO   C84 6091   6.804   1.293   0.649  0.6254  0.0964  0.3578
   15CHTO  H156 6092   6.732   1.281   0.569  1.4523  1.0134 -0.5417
   15CHTO   N15 6093   6.822   1.157   0.705  0.1382  0.0243  0.3136
   15CHTO  H143 6094   6.902   1.162   0.775  0.9995 -0.5276 -0.6255
   15CHTO  H144 6095   6.851   1.097   0.622  1.9771  0.5506  0.5517
   15CHTO   C87 6096   6.933   1.345   0.578  0.0336  0.2453  1.2567
   15CHTO  H159 6097   7.020   1.343   0.645  1.8843  0.1120 -1.0782
   15CHTO   O53 6098   6.907   1.506   0.534 -0.3616 -0.4838  0.2314
   15CHTO   C82 6099   6.856   1.596   0.631  0.5425  0.7648 -0.8275
   15CHTO  H154 6100   6.919   1.596   0.720  0.1432  0.2383 -0.5422
   15CHTO   C89 6101   6.848   1.738   0.576 -0.0934  0.3370 -0.0276
   15CHTO   O59 6102   6.981   1.785   0.557  0.5269  0.1518  0.5453
   15CHTO  H137 6103   6.975   1.857   0.498  0.6274  0.6875  1.1763
   15CHTO   O45 6104   6.969   1.250   0.450  0.2667  0.4443 -0.2811
   15CHTO   C67 6105   7.066   1.308   0.363  0.0012  0.2078 -0.5480
   15CHTO  H124 6106   7.069   1.415   0.387  0.6030 -0.7373  3.9221
   15CHTO   C65 6107   7.208   1.252   0.381  0.1829 -0.2040  0.2392
   15CHTO  H122 6108   7.190   1.161   0.438 -2.1286 -0.1214 -0.3190
   15CHTO   O44 6109   7.266   1.346   0.466 -0.9278  0.0480  0.1206
   15CHTO  H102 6110   7.349   1.315   0.498 -1.8781 -1.4237  1.2614
   15CHTO   C63 6111   7.282   1.219   0.244 -0.0145 -0.6339 -0.4896
   15CHTO  H120 6112   7.244   1.124   0.204  2.0292 -1.0872 -1.4069
   15CHTO   N11 6113   7.431   1.193   0.261  0.2090  0.5538  0.2658
   15CHTO  H108 6114   7.491   1.274   0.296 -0.3850  1.6260 -1.1429
   15CHTO  H109 6115   7.466   1.152   0.168 -1.6793 -1.1944  0.2908
   15CHTO   C61 6116   7.253   1.343   0.154 -0.5675 -0.3245  0.4640
   15CHTO  H118 6117   7.308   1.318   0.062 -0.3670  1.9925 -0.0684
   15CHTO   O40 6118   7.116   1.351   0.121  0.2532  0.4011 -0.3702
   15CHTO   C68 6119   7.023   1.305   0.220  1.1643 -0.2747  0.3984
   15CHTO  H125 6120   7.000   1.199   0.195 -1.5359  0.2920  0.3372
   15CHTO   C72 6121   6.888   1.383   0.205 -0.1184  0.5853 -0.7137
   15CHTO   O48 6122   6.825   1.370   0.077  0.3969 -0.4346 -0.0909
   15CHTO  H105 6123   6.751   1.426   0.064  1.6364  1.2022 -0.3734
   15CHTO   O38 6124   7.315   1.468   0.210 -0.0917 -0.1448 -0.3430
   15CHTO   C55 6125   7.315   1.581   0.117 -0.6116  0.4320  0.6035
   15CHTO  H112 6126   7.248   1.563   0.032  1.1603  3.7982 -1.6082
   15CHTO   C56 6127   7.458   1.612   0.068 -0.0131 -0.2489 -0.1414
   15CHTO  H113 6128   7.521   1.635   0.155 -1.0963  1.8437  0.0995
   15CHTO   O42 6129   7.521   1.498   0.008  0.2820  0.0745 -0.4764
   15CHTO  H100 6130   7.609   1.512  -0.022  0.2736  0.3086 -0.3945
   15CHTO   C57 6131   7.458   1.733  -0.033  0.0474 -0.0828 -0.9747
   15CHTO  H114 6132   7.391   1.713  -0.117 -0.0832 -3.7645 -0.0837
   15CHTO   N10 6133   7.590   1.766  -0.087  0.3169  0.2035  0.0695
   15CHTO  H106 6134   7.635   1.843  -0.026  2.4946 -2.1145  1.4898
   15CHTO  H107 6135   7.571   1.808  -0.184  0.5551 -1.3685 -0.6717
   15CHTO   C58 6136   7.401   1.847   0.043  0.1214 -0.0562 -0.1007
   15CHTO  H115 6137   7.473   1.869   0.125  1.1207  1.1412 -1.2722
   15CHTO   O37 6138   7.268   1.817   0.092 -0.6775  0.3042  0.0383
   15CHTO   C59 6139   7.260   1.711   0.187 -0.3409  0.8288 -0.6499
   15CHTO  H116 6140   7.317   1.736   0.276 -0.0929 -0.5522 -0.3988
   15CHTO   C70 6141   7.109   1.676   0.222  0.1684 -0.2253 -0.1193
   15CHTO   O46 6142   7.042   1.790   0.278 -0.0040 -0.1063 -0.0787
   15CHTO  H103 6143   7.035   1.864   0.221  1.6518 -0.4088 -0.7197
   15CHTO   O39 6144   7.371   1.986  -0.041  0.1800  0.1101 -0.1158
   15CHTO   C60 6145   7.364   2.102   0.039  0.0763 -0.8133 -0.3197
   15CHTO  H117 6146   7.314   2.086   0.135 -1.7967 -0.2096 -1.1733
   15CHTO   C62 6147   7.514   2.166   0.060 -0.3905 -0.4342 -0.6266
   15CHTO  H119 6148   7.576   2.089   0.110  0.3043  0.5798  0.1110
   15CHTO   O43 6149   7.566   2.191  -0.072 -0.2259 -0.0583 -0.2082
   15CHTO  H101 6150   7.648   2.234  -0.059 -0.9625  1.1143  0.6432
   15CHTO   C66 6151   7.516   2.293   0.153  1.1685  0.2992  0.0464
   15CHTO  H123 6152   7.466   2.262   0.244 -0.6243  0.8764 -0.7293
   15CHTO   N12 6153   7.648   2.358   0.189 -0.0000  0.1808 -0.7334
   15CHTO  H110 6154   7.643   2.421   0.277 -1.7594  0.8876 -1.3305
   15CHTO  H111 6155   7.731   2.289   0.179  1.1688  1.3308  0.7540
   15CHTO   C69 6156   7.428   2.397   0.068  0.2260  0.3626  0.5155
   15CHTO  H126 6157   7.486   2.425  -0.023  2.6212 -2.9532  0.9394
   15CHTO   O41 6158   7.279   2.326   0.029 -0.5416  0.2866 -0.4335
   15CHTO   C64 6159   7.278   2.206  -0.038 -0.3209  0.2385  0.5017
   15CHTO  H121 6160   7.319   2.216  -0.141 -1.0835 -0.9919  0.0697
   15CHTO   C71 6161   7.131   2.166  -0.058  0.0067 -1.7956 -0.5183
   15CHTO   O47 6162   7.072   2.121   0.062 -0.0189 -0.6383 -0.1024
   15CHTO  H104 6163   6.983   2.149   0.054  0.6485  2.0142  1.0807
   15CHTO   O34 6164   7.401   2.539   0.158 -0.0464  0.1284 -0.3660
   15CHTO   C49 6165   7.353   2.672   0.103 -0.0316 -0.0466 -0.6152
   15CHTO   H91 6166   7.439   2.737   0.114 -0.1672  0.0919 -0.3542
   15CHTO   C47 6167   7.232   2.716   0.189 -0.3417 -0.0189  0.3454
   15CHTO   H89 6168   7.201   2.819   0.161 -1.4310  0.2509  2.4207
   15CHTO   O33 6169   7.268   2.713   0.329 -0.4167 -0.2571 -0.9204
   15CHTO   H70 6170   7.196   2.754   0.374 -1.2468 -0.5077 -1.9962
   15CHTO   C45 6171   7.111   2.618   0.147 -0.7408 -0.5845 -0.3148
   15CHTO   H87 6172   7.144   2.514   0.161 -0.7202 -0.6738 -1.0374
   15CHTO    N8 6173   6.992   2.640   0.233  0.3637 -0.3978 -0.4442
   15CHTO   H75 6174   7.003   2.609   0.336 -1.3644  1.7498  0.4358
   15CHTO   H76 6175   6.962   2.744   0.231 -0.3956 -0.6142 -0.6760
   15CHTO   C43 6176   7.073   2.627  -0.005  0.0946 -0.4282  0.5587
   15CHTO   H85 6177   7.001   2.548  -0.022  2.5385 -2.3673 -1.0928
   15CHTO   O29 6178   7.189   2.616  -0.090  0.3548  0.1671 -0.1369
   15CHTO   C50 6179   7.316   2.668  -0.048 -0.0770  0.3260  0.4253
   15CHTO   H92 6180   7.389   2.601  -0.096  0.6052  1.3429  0.0572
   15CHTO   C54 6181   7.337   2.802  -0.121 -0.1003  0.2058 -0.4501
   15CHTO   O36 6182   7.469   2.856  -0.100  0.3101  0.3917  0.1355
   15CHTO   H72 6183   7.538   2.797  -0.122 -0.9078 -0.6294 -1.0438
   15CHTO   O27 6184   7.008   2.749  -0.050 -0.2823 -0.1822  0.0022
   15CHTO   C37 6185   6.906   2.771  -0.151 -0.3759 -0.2428  0.5661
   15CHTO   H79 6186   6.895   2.681  -0.213  0.4586  1.2515 -1.8143
   15CHTO   C38 6187   6.763   2.805  -0.084  0.4980 -0.4612  0.5604
   15CHTO   H80 6188   6.772   2.896  -0.023 -0.0181  0.3653 -0.5989
   15CHTO   O31 6189   6.723   2.705   0.010  0.4043 -0.0406  0.1153
   15CHTO   H68 6190   6.766   2.714   0.093 -0.5031  0.3775  0.5504
   15CHTO   C39 6191   6.658   2.825  -0.200  0.2004  0.1190 -0.0439
   15CHTO   H81 6192   6.648   2.725  -0.242  0.1394  0.3548 -0.5945
   15CHTO    N7 6193   6.524   2.868  -0.150  0.0431  0.2958 -0.0231
   15CHTO   H73 6194   6.517   2.861  -0.042  0.5332  1.5114  0.0951
   15CHTO   H74 6195   6.443   2.811  -0.193 -1.0539  0.3586  1.8668
   15CHTO   C40 6196   6.704   2.927  -0.313 -0.3774  0.5584  0.5703
   15CHTO   H82 6197   6.697   3.025  -0.266  0.5920  1.3350 -0.8695
   15CHTO   O26 6198   6.842   2.903  -0.351  0.4309 -0.1008  0.1749
   15CHTO   C41 6199   6.943   2.890  -0.243 -0.0437  0.8724  0.4591
   15CHTO   H83 6200   6.954   2.988  -0.194 -0.0846  0.6643  0.8840
   15CHTO   C52 6201   7.082   2.871  -0.314  0.4427  0.4405 -0.2174
   15CHTO   O35 6202   7.120   2.952  -0.425  0.3889  0.0191 -0.1385
   15CHTO   H71 6203   7.180   2.891  -0.465  1.2258  1.3996 -1.0355
   15CHTO   O28 6204   6.615   2.925  -0.428 -0.1299  0.3623 -0.1336
   15CHTO   C42 6205   6.600   3.020  -0.532 -0.4253  0.2102  0.2319
   15CHTO   H84 6206   6.544   2.976  -0.614 -1.3709  0.4931  0.7238
   15CHTO   C44 6207   6.743   3.055  -0.600 -0.0910 -0.4228 -0.6268
   15CHTO   H86 6208   6.807   3.080  -0.515  3.0820 -2.0949 -2.4139
   15CHTO   O32 6209   6.805   2.940  -0.666 -0.0786 -0.6350 -0.4725
   15CHTO   H69 6210   6.733   2.883  -0.683 -0.4243 -0.1112 -0.7635
   15CHTO   C48 6211   6.748   3.186  -0.700 -0.2941 -0.1946 -0.0247
   15CHTO   H90 6212   6.707   3.153  -0.795  0.8766 -0.7842 -0.3288
   15CHTO    N9 6213   6.890   3.227  -0.725 -0.5262  0.4819  0.1756
   15CHTO   H77 6214   6.941   3.147  -0.777 -0.0974  1.2514 -0.6006
   15CHTO   H78 6215   6.942   3.246  -0.632 -0.0808  0.5770 -0.0901
   15CHTO   C51 6216   6.662   3.299  -0.627  0.1345 -0.3419  0.0090
   15CHTO   H93 6217   6.714   3.314  -0.532  0.5004 -0.0278 -0.2433
   15CHTO   O30 6218   6.527   3.244  -0.606  0.4834 -1.0164 -0.1571
   15CHTO   C46 6219   6.522   3.149  -0.491 -0.3773 -0.0795 -0.1676
   15CHTO   H88 6220   6.565   3.193  -0.401 -0.7805  1.6739 -0.7998
   15CHTO   C53 6221   6.375   3.113  -0.463  0.6608 -0.2477 -0.2780
   15CHTO   O72 6222   6.292   3.226  -0.446  0.3069  0.4229 -0.0071
   15CHTO  H199 6223   6.294   3.280  -0.522 -0.3936 -0.7232 -0.8536
   15CHTO   O22 6224   6.658   3.423  -0.697  0.1995 -0.3842 -0.6288
   15CHTO   C31 6225   6.624   3.551  -0.652 -0.6675 -0.5146  0.0306
   15CHTO   H59 6226   6.672   3.614  -0.730  0.2649  0.1097  1.0764
   15CHTO   C29 6227   6.471   3.590  -0.642 -0.0195 -0.3426  0.0239
   15CHTO   H57 6228   6.434   3.515  -0.570 -1.0250  0.8752  0.7926
   15CHTO   O21 6229   6.418   3.570  -0.771  0.2868 -0.0400 -0.1460
   15CHTO   H37 6230   6.403   3.479  -0.787  1.6354 -0.3399  0.2532
   15CHTO   C27 6231   6.441   3.734  -0.589  0.4605 -0.0466 -0.7438
   15CHTO   H55 6232   6.472   3.814  -0.658  2.6011  1.7849  2.1804
   15CHTO    N5 6233   6.296   3.758  -0.562 -0.3203  0.2018 -0.1871
   15CHTO   H43 6234   6.283   3.833  -0.485 -2.9088 -0.9717  0.5781
   15CHTO   H44 6235   6.258   3.804  -0.652 -0.1602 -2.5336 -1.6795
   15CHTO   C25 6236   6.514   3.754  -0.455 -0.5458 -0.1232  0.2620
   15CHTO   H53 6237   6.476   3.681  -0.382  0.6487 -1.4083 -0.3762
   15CHTO   O17 6238   6.656   3.715  -0.462 -0.4152  0.1342  0.1501
   15CHTO   C32 6239   6.697   3.591  -0.518 -0.2037  0.9173 -0.1446
   15CHTO   H60 6240   6.676   3.512  -0.446  1.0096  0.3975 -0.3395
   15CHTO   C36 6241   6.849   3.596  -0.539  0.4664  0.0700 -0.1875
   15CHTO   O25 6242   6.929   3.625  -0.425  0.2013  0.4869  0.7856
   15CHTO   H40 6243   6.951   3.539  -0.395  2.9509  0.9332  0.1430
   15CHTO   O15 6244   6.501   3.903  -0.403  0.2054 -0.9011  0.6805
   15CHTO   C19 6245   6.556   4.040  -0.391  0.0667  0.0133  0.5609
   15CHTO   H47 6246   6.594   4.052  -0.493 -1.7363 -0.4896 -0.1870
   15CHTO   C20 6247   6.449   4.148  -0.360 -1.7854  0.2478 -0.1345
   15CHTO   H48 6248   6.384   4.114  -0.278 -0.3590 -0.5121  0.6942
   15CHTO   O19 6249   6.378   4.162  -0.481 -0.3029 -0.4918  0.2892
   15CHTO   H35 6250   6.319   4.089  -0.487  0.3910 -0.9756 -0.8771
   15CHTO   C21 6251   6.508   4.290  -0.322 -0.0367  0.0469  0.0932
   15CHTO   H49 6252   6.576   4.326  -0.400  1.9369  1.1896  2.2903
   15CHTO    N4 6253   6.404   4.394  -0.288  0.1623 -0.1262 -0.8405
   15CHTO   H41 6254   6.348   4.374  -0.198 -0.1961  0.6379 -0.8953
   15CHTO   H42 6255   6.339   4.405  -0.373 -0.5843 -0.5443 -0.3251
   15CHTO   C22 6256   6.611   4.272  -0.209 -0.6026  0.2126  0.0835
   15CHTO   H50 6257   6.565   4.227  -0.121 -0.8147  0.6162  0.1798
   15CHTO   O14 6258   6.714   4.189  -0.262 -0.8637  0.2446 -0.2669
   15CHTO   C23 6259   6.681   4.054  -0.297 -0.1133 -0.9562 -0.1813
   15CHTO   H51 6260   6.668   3.996  -0.204  3.0563  0.8872  1.4769
   15CHTO   C34 6261   6.807   3.986  -0.347 -0.3692  0.4545  0.3030
   15CHTO   O23 6262   6.910   3.961  -0.247 -0.1302 -0.1918 -0.4066
   15CHTO   H38 6263   6.963   3.895  -0.289 -0.9187 -1.5742  0.7157
   15CHTO   O16 6264   6.683   4.398  -0.180 -0.3618  0.0706  0.5789
   15CHTO   C24 6265   6.718   4.409  -0.022  0.2354  0.4921 -0.5135
   15CHTO   H52 6266   6.668   4.331   0.036  1.7312  0.3210  0.5740
   15CHTO   C26 6267   6.650   4.538   0.043  0.6410  0.3041  0.5077
   15CHTO   H54 6268   6.658   4.619  -0.032 -1.0313 -1.6530 -1.8781
   15CHTO   O20 6269   6.500   4.521   0.064 -0.3164  0.3179  0.0074
   15CHTO   H36 6270   6.485   4.450   0.124 -1.3025 -0.6873 -1.3856
   15CHTO   C30 6271   6.719   4.581   0.178 -0.0317 -0.1952  0.0258
   15CHTO   H58 6272   6.672   4.521   0.259  0.3601  1.4011  1.4569
   15CHTO    N6 6273   6.683   4.726   0.213 -0.4707 -0.5136  0.2009
   15CHTO   H45 6274   6.757   4.788   0.165  0.4976 -1.3268  0.6245
   15CHTO   H46 6275   6.686   4.747   0.319  1.8265 -1.8971  0.4480
   15CHTO   C33 6276   6.871   4.564   0.171 -0.5888 -0.1814  0.2976
   15CHTO   H61 6277   6.902   4.621   0.083 -2.8892 -2.7590 -2.2660
   15CHTO   O18 6278   6.901   4.425   0.146 -0.5875 -0.0865 -0.2768
   15CHTO   C28 6279   6.868   4.394   0.011  0.1293 -0.1870 -1.0150
   15CHTO   H56 6280   6.925   4.466  -0.048  1.0134 -0.4548 -0.4969
   15CHTO   C35 6281   6.928   4.258  -0.016 -0.3969 -0.0402  0.1068
   15CHTO   O24 6282   6.836   4.160   0.033  0.5429 -0.0096  0.1778
   15CHTO   H39 6283   6.832   4.166   0.126 -0.4215  0.3574  0.1196
   15CHTO    O9 6284   6.950   4.612   0.282 -0.4517 -0.3706  0.0757
   15CHTO   C13 6285   7.104   4.644   0.291 -0.0444 -0.3977  0.2812
   15CHTO   H26 6286   7.125   4.744   0.335 -3.5647  0.6392 -0.2504
   15CHTO   C11 6287   7.181   4.622   0.163  0.0861 -0.2091  0.0148
   15CHTO   H24 6288   7.162   4.700   0.088  3.2287 -1.8342 -2.6188
   15CHTO    O8 6289   7.172   4.483   0.117  0.6302 -0.2027  0.3057
   15CHTO    H3 6290   7.207   4.426   0.183  3.2296  0.5027 -0.3920
   15CHTO    C9 6291   7.334   4.655   0.192 -0.5480  0.7863 -0.1580
   15CHTO   H22 6292   7.338   4.760   0.223 -1.4340  0.6393  0.4704
   15CHTO    N2 6293   7.428   4.657   0.079 -0.0661  0.2947 -0.3449
   15CHTO   H10 6294   7.518   4.710   0.107 -0.3385  1.4099 -1.5217
   15CHTO   H11 6295   7.462   4.559   0.050 -1.7209 -0.7583  1.1693
   15CHTO    C7 6296   7.393   4.558   0.304  0.2124  0.0805 -0.7545
   15CHTO   H20 6297   7.477   4.612   0.353  0.2280 -0.3802 -0.2774
   15CHTO    O4 6298   7.306   4.537   0.417 -0.2600 -1.1361 -0.1659
   15CHTO   C14 6299   7.161   4.553   0.408 -0.5419 -0.0971  0.1108
   15CHTO   H27 6300   7.128   4.604   0.501  0.9439  3.2464 -1.0814
   15CHTO   C18 6301   7.100   4.411   0.412  0.3516  0.1068 -0.1889
   15CHTO   O13 6302   7.154   4.349   0.530  0.2645 -0.2507  0.4325
   15CHTO    H7 6303   7.168   4.258   0.511  1.7967  0.1718 -0.5257
   15CHTO    O2 6304   7.444   4.421   0.251  0.0324  0.3264  0.0211
   15CHTO    C1 6305   7.549   4.369   0.338 -0.3713 -0.2598 -0.8261
   15CHTO   H14 6306   7.541   4.413   0.439  0.3125  2.5952 -1.9775
   15CHTO    C2 6307   7.684   4.407   0.284  0.5312  0.3783  1.0527
   15CHTO   H15 6308   7.677   4.387   0.176 -0.3594  0.9712  0.9960
   15CHTO    O6 6309   7.711   4.551   0.303 -0.3416  0.8530  0.1845
   15CHTO    H1 6310   7.726   4.591   0.219  0.8848 -0.3161 -0.1659
   15CHTO    C3 6311   7.812   4.322   0.338  0.6246 -0.1793 -0.6604
   15CHTO   H16 6312   7.838   4.362   0.437  1.4158  1.2790 -1.4268
   15CHTO    N1 6313   7.932   4.340   0.249 -0.0953  0.5146  0.2056
   15CHTO    H8 6314   7.923   4.407   0.164  0.5667 -1.8304 -1.7707
   15CHTO    H9 6315   7.961   4.249   0.199  1.7993  0.5743  1.1493
   15CHTO    C4 6316   7.772   4.171   0.352  0.5303 -0.4999 -0.2602
   15CHTO   H17 6317   7.763   4.125   0.253  0.0899 -3.2060  0.9947
   15CHTO    O1 6318   7.650   4.156   0.425 -0.2527 -0.3304  0.3745
   15CHTO    C5 6319   7.534   4.213   0.356 -0.0852  0.5604  0.5346
   15CHTO   H18 6320   7.529   4.167   0.257 -0.0409  2.0280 -0.1538
   15CHTO   C16 6321   7.409   4.172   0.431  0.6505  0.2757  0.3610
   15CHTO   O11 6322   7.415   4.185   0.574  0.3069 -0.2144  0.1784
   15CHTO    H5 6323   7.344   4.228   0.617 -1.0767 -0.2715 -1.9674
   15CHTO    O3 6324   7.869   4.096   0.425 -0.0936  0.6529 -0.1582
   15CHTO    C6 6325   7.870   3.951   0.389  0.2900  0.9432  0.3021
   15CHTO   H19 6326   7.783   3.927   0.329  1.2209 -0.5654 -0.4733
   15CHTO    C8 6327   7.998   3.909   0.311  0.2207  0.6132  0.0974
   15CHTO   H21 6328   8.082   3.922   0.379  0.2054  1.5839 -0.0668
   15CHTO    O7 6329   8.020   3.995   0.198  0.0399 -0.4576 -0.3768
   15CHTO    H2 6330   8.108   4.028   0.196 -0.6107  1.3580  0.1630
   15CHTO   C12 6331   7.993   3.758   0.278  0.6941  0.2400 -0.5786
   15CHTO   H25 6332   7.907   3.763   0.207 -0.5843  1.4598  1.0172
   15CHTO    N3 6333   8.116   3.709   0.212  0.5028  0.2331 -0.1017
   15CHTO   H12 6334   8.115   3.772   0.125 -0.4037  1.5780  0.8517
   15CHTO   H13 6335   8.109   3.602   0.198  2.1129 -0.3377  2.9676
   15CHTO   C15 6336   7.961   3.663   0.401  0.6688 -0.3590  0.2958
   15CHTO   H28 6337   8.042   3.660   0.474  0.1433 -1.1449  0.8412
   15CHTO   O10 6338   7.918   3.535   0.361 -0.2887 -0.3840 -0.2802
   15CHTO    H4 6339   7.864   3.496   0.428 -0.6076  0.3147 -0.1335
   15CHTO    O5 6340   7.850   3.714   0.475 -0.3803 -0.5304 -0.7575
   15CHTO   C10 6341   7.860   3.854   0.513  0.3878 -0.5923 -0.3677
   15CHTO   H23 6342   7.954   3.865   0.568 -1.4897  0.9617  2.6409
   15CHTO   C17 6343   7.736   3.864   0.603 -0.4205  0.0722  0.0778
   15CHTO   O12 6344   7.700   3.991   0.660  0.5115 -0.1511 -0.0863
   15CHTO    H6 6345   7.661   4.050   0.599 -0.5970  1.9885  2.5780
   16CHTO  H203 6346   5.457   4.307  -0.142  0.1766  0.7465  0.2368
   16CHTO   O82 6347   5.537   4.315  -0.190 -0.0181 -0.0141 -0.2261
   16CHTO  C123 6348   5.656   4.287  -0.113  0.4703 -0.4276 -0.5105
   16CHTO  H227 6349   5.649   4.335  -0.014 -1.9345 -0.7170 -0.5203
   16CHTO   O77 6350   5.659   4.144  -0.088  0.1671 -0.6746 -0.2572
   16CHTO  C118 6351   5.771   4.106  -0.007  0.3103 -0.1778 -0.8203
   16CHTO  H222 6352   5.764   4.163   0.087 -0.8282 -0.1164 -0.9375
   16CHTO  C125 6353   5.761   3.952   0.032  0.0268  0.1492  0.4043
   16CHTO   O84 6354   5.643   3.927   0.102  0.0303  0.7260  0.3690
   16CHTO  H205 6355   5.650   3.846   0.148  0.4407  0.9393  0.6817
   16CHTO  C114 6356   5.905   4.140  -0.080  0.3388 -0.0812  0.1791
   16CHTO  H218 6357   5.914   4.081  -0.171  0.7645 -0.0331  0.1856
   16CHTO  C116 6358   5.920   4.293  -0.110  0.0870  0.4236  0.0960
   16CHTO  H220 6359   5.940   4.354  -0.019  0.2054  1.9549 -0.9434
   16CHTO   O79 6360   6.035   4.310  -0.191  0.2005  0.4312  0.0620
   16CHTO  H201 6361   6.115   4.319  -0.143 -0.5376  1.4640  1.1142
   16CHTO  C120 6362   5.785   4.326  -0.188 -0.0981 -0.0140 -0.1268
   16CHTO  H224 6363   5.792   4.262  -0.278 -0.3097 -0.6081  0.2798
   16CHTO   N21 6364   5.792   4.470  -0.226 -0.0026 -0.5021 -0.3109
   16CHTO  H211 6365   5.742   4.482  -0.321 -1.7289  0.8427  0.7536
   16CHTO  H212 6366   5.895   4.502  -0.228 -0.9797  2.8260 -1.1582
   16CHTO   O75 6367   5.999   4.099   0.019 -0.5611 -0.0301  0.2032
   16CHTO  C112 6368   6.141   4.033  -0.046  0.0983 -0.9857 -0.2975
   16CHTO  H216 6369   6.151   4.081  -0.145 -0.6153 -1.9197 -0.8333
   16CHTO   O73 6370   6.134   3.892  -0.063  0.5975  0.6314  0.6062
   16CHTO  C113 6371   6.247   3.829  -0.130 -0.3402 -0.1023 -0.1540
   16CHTO  H217 6372   6.274   3.878  -0.226  1.4731 -1.7390 -0.5106
   16CHTO  C124 6373   6.212   3.683  -0.151 -0.0510 -0.0221  0.0825
   16CHTO   O83 6374   6.111   3.655  -0.243 -0.3409 -0.1658 -0.1208
   16CHTO  H204 6375   6.029   3.681  -0.204 -0.9748 -0.6472 -1.1044
   16CHTO  C109 6376   6.376   3.843  -0.043  0.1810  0.5068 -0.1657
   16CHTO  H213 6377   6.357   3.782   0.046 -1.8799 -0.5831 -1.3138
   16CHTO  C110 6378   6.393   3.995  -0.002  0.4406 -0.0888 -0.3498
   16CHTO  H214 6379   6.432   4.058  -0.082  1.0228  1.1183  0.8510
   16CHTO   O78 6380   6.489   3.997   0.114  0.4311 -0.1085 -0.4038
   16CHTO  H200 6381   6.450   4.014   0.198  1.8871 -3.4182  1.0462
   16CHTO  C111 6382   6.263   4.070   0.048 -0.1331  0.0547 -0.2399
   16CHTO  H215 6383   6.233   4.040   0.150 -0.1574 -0.5709 -0.4311
   16CHTO   N19 6384   6.281   4.220   0.054  0.3880  0.0415 -0.4764
   16CHTO  H207 6385   6.182   4.264   0.051  0.7824  0.9591 -0.1976
   16CHTO  H208 6386   6.352   4.251  -0.021  0.3909 -0.6184 -0.7511
   16CHTO   O74 6387   6.490   3.788  -0.110  0.2693  0.5104  0.8548
   16CHTO  C115 6388   6.574   3.701  -0.033  0.0784  0.5711  0.2840
   16CHTO  H219 6389   6.567   3.720   0.075 -2.8960  0.0525  0.2271
   16CHTO   O76 6390   6.523   3.549  -0.053  0.2235  0.3683  0.1686
   16CHTO  C122 6391   6.579   3.492  -0.165 -0.4570 -0.2840  0.2791
   16CHTO  H226 6392   6.562   3.564  -0.245 -2.5954  0.7322  1.6090
   16CHTO  C126 6393   6.488   3.361  -0.201  0.4578  0.7327  0.4947
   16CHTO   O85 6394   6.353   3.398  -0.206 -0.0487 -0.4055 -0.7889
   16CHTO  H206 6395   6.310   3.323  -0.169  2.9375 -1.1353  1.4168
   16CHTO  C121 6396   6.727   3.454  -0.124  0.4175 -0.1165 -0.1369
   16CHTO  H225 6397   6.716   3.366  -0.058  0.1177 -0.2122 -0.3161
   16CHTO   O81 6398   6.795   3.414  -0.248  0.0928 -0.4502  0.2435
   16CHTO  H202 6399   6.782   3.324  -0.273  2.3168 -0.2673 -1.6633
   16CHTO  C119 6400   6.801   3.575  -0.045 -0.1877  0.2134  0.4041
   16CHTO  H223 6401   6.772   3.554   0.058 -1.1605  2.7422  0.6842
   16CHTO  C117 6402   6.725   3.717  -0.075 -0.3141 -0.0991 -0.0695
   16CHTO  H221 6403   6.728   3.761  -0.174 -0.7554  1.9196  0.7796
   16CHTO   N20 6404   6.789   3.820   0.021  0.7883  0.1853 -0.1358
   16CHTO  H209 6405   6.797   3.912  -0.035 -0.0509  0.7773  0.7076
   16CHTO  H210 6406   6.879   3.797   0.076 -0.7044  0.5809  2.5508
   16CHTO   O80 6407   6.966   3.585  -0.037 -0.1109  0.0232 -0.1342
   16CHTO  C103 6408   7.048   3.484   0.064 -0.4024  0.9417  0.8430
   16CHTO  H190 6409   6.977   3.459   0.143  1.0747  2.5630  2.7422
   16CHTO  C101 6410   7.097   3.348  -0.010 -0.5626  0.3120 -0.1987
   16CHTO  H188 6411   7.158   3.367  -0.098  0.7908 -3.4127 -0.1517
   16CHTO   O68 6412   6.972   3.280  -0.071 -0.7117 -0.0535 -0.1256
   16CHTO  H168 6413   6.953   3.338  -0.142 -0.8515 -0.1482 -0.1631
   16CHTO   C99 6414   7.171   3.262   0.098  0.1678  0.2384 -0.0867
   16CHTO  H186 6415   7.094   3.230   0.171 -0.0398 -1.7256 -1.1304
   16CHTO   N17 6416   7.225   3.132   0.043  0.0179 -0.0906 -0.4019
   16CHTO  H174 6417   7.246   3.055   0.116 -2.0276  0.4501  0.7770
   16CHTO  H175 6418   7.315   3.154  -0.013  0.4779 -0.7500  0.0683
   16CHTO   C97 6419   7.275   3.341   0.182 -0.3060 -0.0603  0.8799
   16CHTO  H184 6420   7.361   3.362   0.116  0.3744 -2.6607  0.8691
   16CHTO   O64 6421   7.214   3.459   0.234 -0.0767 -0.4868 -0.0999
   16CHTO  C104 6422   7.163   3.555   0.135 -0.1314 -0.5415  0.2797
   16CHTO  H191 6423   7.235   3.587   0.060 -3.4497  1.1293 -2.3100
   16CHTO  C108 6424   7.115   3.683   0.205  0.6738  0.3307 -0.4183
   16CHTO   O71 6425   7.225   3.769   0.238 -0.3327 -0.5988 -0.1282
   16CHTO  H171 6426   7.250   3.796   0.152 -1.1900 -1.3438 -0.6227
   16CHTO   O62 6427   7.322   3.261   0.294 -0.9153 -0.0932 -0.2917
   16CHTO   C91 6428   7.427   3.312   0.381  0.6753  0.9806  0.1357
   16CHTO  H178 6429   7.495   3.367   0.316  0.1452  0.2176 -1.0776
   16CHTO   C92 6430   7.518   3.201   0.434 -0.0440 -0.4078  0.0615
   16CHTO  H179 6431   7.556   3.151   0.343 -0.6814  0.6999 -0.8215
   16CHTO   O66 6432   7.622   3.261   0.505 -0.0028  0.6834 -0.3340
   16CHTO  H166 6433   7.691   3.308   0.462 -0.2651  2.1715  0.8025
   16CHTO   C93 6434   7.459   3.108   0.538  0.1723  0.0611  0.8007
   16CHTO  H180 6435   7.533   3.072   0.611 -0.1641  0.2532  1.2339
   16CHTO   N16 6436   7.409   2.980   0.475 -0.1320  0.3830 -0.1554
   16CHTO  H172 6437   7.390   2.977   0.368  0.8637 -1.4720 -0.3056
   16CHTO  H173 6438   7.464   2.893   0.506  0.0903  0.5939  0.0407
   16CHTO   C94 6439   7.337   3.176   0.616  0.1789 -0.4219  0.3666
   16CHTO  H181 6440   7.243   3.162   0.563  0.6766  3.2308 -1.6178
   16CHTO   O61 6441   7.358   3.321   0.626  0.4644 -0.2864 -0.3591
   16CHTO   C95 6442   7.360   3.394   0.503 -0.2982 -0.0785 -0.1829
   16CHTO  H182 6443   7.259   3.423   0.477 -0.3070  0.0457 -0.0052
   16CHTO  C106 6444   7.429   3.523   0.538  0.0887  0.1066 -0.2957
   16CHTO   O69 6445   7.480   3.589   0.421  0.3815 -0.2179  0.4856
   16CHTO  H169 6446   7.568   3.564   0.400 -0.3899 -2.4901 -0.2190
   16CHTO   O63 6447   7.326   3.129   0.780  0.4978  0.1313  1.0280
   16CHTO   C96 6448   7.173   3.067   0.827 -1.1584 -0.0498 -0.2269
   16CHTO  H183 6449   7.190   3.020   0.924  0.3506 -0.0600 -0.4866
   16CHTO   C98 6450   7.112   2.952   0.735 -0.1634  0.4099  0.1970
   16CHTO  H185 6451   7.132   2.978   0.630  3.9184  0.1235  0.8050
   16CHTO   O67 6452   7.188   2.833   0.755 -0.2503  0.0103  0.6173
   16CHTO  H167 6453   7.142   2.752   0.748 -0.9558  0.4026  0.6539
   16CHTO  C102 6454   6.952   2.932   0.778 -0.1842  0.1272  0.2630
   16CHTO  H189 6455   6.949   2.909   0.885 -1.8776  1.2233  0.4660
   16CHTO   N18 6456   6.875   2.824   0.713  0.4814 -0.5916 -0.1222
   16CHTO  H176 6457   6.933   2.780   0.633  1.1331  0.1804 -0.0799
   16CHTO  H177 6458   6.779   2.858   0.680  2.0028  2.5386 -1.4822
   16CHTO  C105 6459   6.881   3.071   0.780  0.1979 -0.3035  0.2698
   16CHTO  H192 6460   6.896   3.112   0.680 -1.8996 -1.2170 -0.4436
   16CHTO   O65 6461   6.948   3.158   0.873 -0.5169 -0.3753  0.5148
   16CHTO  C100 6462   7.080   3.191   0.832 -0.6342  0.0534 -0.2253
   16CHTO  H187 6463   7.077   3.236   0.731  1.3946 -0.8978 -0.7341
   16CHTO  C107 6464   7.135   3.294   0.930 -0.5285 -0.3548 -0.5040
   16CHTO   O70 6465   7.078   3.420   0.900  0.3753 -0.4853 -0.2329
   16CHTO  H170 6466   7.122   3.487   0.948  2.8317 -1.4334 -1.0863
   16CHTO   O57 6467   6.722   3.055   0.815 -1.0058  0.0778 -0.2617
   16CHTO   C85 6468   6.647   3.148   0.743  0.2040  0.4194 -0.3069
   16CHTO  H157 6469   6.697   3.162   0.645 -1.2796  1.5388 -0.9321
   16CHTO   C83 6470   6.646   3.294   0.811 -0.1108 -0.3219 -0.1591
   16CHTO  H155 6471   6.748   3.324   0.832  0.4129 -1.7708 -0.5068
   16CHTO   O56 6472   6.581   3.287   0.940 -0.1440 -0.3746  0.0278
   16CHTO  H135 6473   6.495   3.251   0.930 -0.3634 -0.3185  1.6518
   16CHTO   C81 6474   6.580   3.389   0.712  1.4121 -0.4264  0.6071
   16CHTO  H153 6475   6.639   3.392   0.620  3.1473 -0.4273  1.7080
   16CHTO   N14 6476   6.592   3.527   0.755  0.9757 -0.2489  0.0579
   16CHTO  H141 6477   6.518   3.543   0.831  0.3974 -1.9699 -0.1154
   16CHTO  H142 6478   6.581   3.598   0.676 -0.4017 -0.4596  0.0511
   16CHTO   C79 6479   6.436   3.341   0.673  0.5780  0.2822 -0.0328
   16CHTO  H151 6480   6.404   3.396   0.584  2.0723  0.9437 -0.1735
   16CHTO   O52 6481   6.432   3.198   0.631 -0.5170 -0.3016 -0.4619
   16CHTO   C86 6482   6.500   3.109   0.722  0.0484  0.1968  0.5445
   16CHTO  H158 6483   6.438   3.121   0.813  2.2461 -0.4567  2.1598
   16CHTO   C90 6484   6.482   2.970   0.666  0.0095  0.1379  0.0592
   16CHTO   O60 6485   6.360   2.914   0.718 -0.1987 -0.5934  0.5478
   16CHTO  H138 6486   6.340   2.826   0.693 -1.3687 -0.3130  0.4808
   16CHTO   O50 6487   6.340   3.354   0.775  0.2220 -0.2923 -0.2222
   16CHTO   C73 6488   6.203   3.304   0.797  0.6111 -0.4553 -0.2169
   16CHTO  H145 6489   6.193   3.195   0.793  0.8229 -0.6685  3.1650
   16CHTO   C74 6490   6.114   3.371   0.690  0.1903 -0.5842  0.2818
   16CHTO  H146 6491   6.150   3.349   0.589  0.7525  0.9357  0.1404
   16CHTO   O54 6492   5.984   3.310   0.697  0.0366  0.1583 -0.0566
   16CHTO  H133 6493   5.936   3.344   0.770 -0.4358 -1.1974  0.2976
   16CHTO   C75 6494   6.115   3.530   0.718  0.1338  0.4094  0.0963
   16CHTO  H147 6495   6.214   3.571   0.695  0.7243 -0.9871  0.0496
   16CHTO   N13 6496   6.030   3.606   0.628 -0.2102 -0.2989 -0.5766
   16CHTO  H139 6497   5.952   3.549   0.580 -0.3899 -0.9316  0.4574
   16CHTO  H140 6498   6.090   3.653   0.552 -0.4175  0.5790 -0.2056
   16CHTO   C76 6499   6.086   3.564   0.868 -0.1481 -0.5021 -0.3486
   16CHTO  H148 6500   5.986   3.526   0.890  0.1288 -1.2641 -0.3991
   16CHTO   O49 6501   6.171   3.488   0.960 -0.5307 -0.3967 -0.2725
   16CHTO   C77 6502   6.159   3.346   0.938  0.4135 -0.3406  0.1619
   16CHTO  H149 6503   6.055   3.316   0.950  0.8991 -3.3829 -2.5472
   16CHTO   C88 6504   6.239   3.266   1.047 -0.7951  0.0056  0.1423
   16CHTO   O58 6505   6.221   3.120   1.036 -0.0636 -0.0744 -0.1459
   16CHTO  H136 6506   6.302   3.072   1.027  0.4630  0.9980 -1.1918
   16CHTO   O51 6507   6.109   3.726   0.893 -0.1642 -0.2971 -0.2928
   16CHTO   C78 6508   6.075   3.765   1.030 -0.2875 -0.7483 -0.3709
   16CHTO  H150 6509   6.079   3.681   1.103  2.5179 -0.7503 -0.4933
   16CHTO   C80 6510   5.939   3.836   1.047  0.1922  0.5056 -0.3088
   16CHTO  H152 6511   5.939   3.928   0.984  0.1264  1.5319  1.1623
   16CHTO   O55 6512   5.833   3.756   0.997 -0.2828  0.2236 -0.3462
   16CHTO  H134 6513   5.834   3.675   1.045 -1.0400 -1.1587 -2.5894
   16CHTO   C84 6514   5.906   3.885   1.194  0.6335 -0.5163 -0.5542
   16CHTO  H156 6515   5.909   3.800   1.263  0.2056  1.4256  1.9521
   16CHTO   N15 6516   5.767   3.953   1.202 -0.3853  0.2518  0.0931
   16CHTO  H143 6517   5.751   4.039   1.141 -1.9527 -0.5151 -0.5849
   16CHTO  H144 6518   5.694   3.878   1.182 -0.1321 -0.1597  0.6946
   16CHTO   C87 6519   6.019   3.980   1.229  0.0848  1.8983 -0.6181
   16CHTO  H159 6520   6.001   4.066   1.163  0.5746  0.7079 -2.3428
   16CHTO   O53 6521   6.161   3.910   1.205 -0.1702  0.3290  0.1468
   16CHTO   C82 6522   6.184   3.862   1.072 -0.3089 -0.2807 -0.1328
   16CHTO  H154 6523   6.190   3.946   1.003  0.7964  0.7836  1.2254
   16CHTO   C89 6524   6.318   3.790   1.070 -0.3354 -0.4516 -1.1359
   16CHTO   O59 6525   6.421   3.886   1.062  0.1672 -0.4467  0.0399
   16CHTO  H137 6526   6.408   3.940   0.987  1.1181 -1.5312 -0.9276
   16CHTO   O45 6527   6.010   4.040   1.387 -0.2194 -0.5034  0.0285
   16CHTO   C67 6528   6.131   4.124   1.413 -0.3979 -0.1528 -0.2357
   16CHTO  H124 6529   6.210   4.087   1.347  0.6535  2.1703 -0.3087
   16CHTO   C65 6530   6.100   4.271   1.383 -0.0101  0.0581  0.0343
   16CHTO  H122 6531   5.995   4.294   1.403  0.1249 -0.6479  1.6476
   16CHTO   O44 6532   6.114   4.304   1.247  0.0981 -0.7699  0.8385
   16CHTO  H102 6533   6.186   4.362   1.236 -0.7149 -0.0869 -1.1833
   16CHTO   C63 6534   6.166   4.368   1.490  0.3752  0.7372 -0.1918
   16CHTO  H120 6535   6.112   4.362   1.584  1.2577 -0.8050  0.2392
   16CHTO   N11 6536   6.164   4.512   1.454 -0.1603 -0.1791 -0.3379
   16CHTO  H108 6537   6.089   4.553   1.390 -0.9918  1.9656  1.9347
   16CHTO  H109 6538   6.260   4.560   1.449 -1.5527  2.6571 -0.8324
   16CHTO   C61 6539   6.309   4.309   1.516 -0.3837 -0.2613 -0.4613
   16CHTO  H118 6540   6.368   4.381   1.576 -2.0093  1.3330 -0.7388
   16CHTO   O40 6541   6.306   4.187   1.596 -0.0663 -0.8710 -0.0928
   16CHTO   C68 6542   6.190   4.099   1.551 -0.0932  0.3410  0.3775
   16CHTO  H125 6543   6.108   4.124   1.621 -0.2012 -0.0594  0.3966
   16CHTO   C72 6544   6.216   3.946   1.565  0.7269 -0.0658 -0.3064
   16CHTO   O48 6545   6.146   3.830   1.516 -0.0030 -0.0938 -0.5598
   16CHTO  H105 6546   6.053   3.840   1.514 -0.1054 -1.0427 -1.0922
   16CHTO   O38 6547   6.385   4.285   1.395  0.0908 -0.1302  0.0032
   16CHTO   C55 6548   6.531   4.286   1.399 -0.1849 -0.2423  0.1436
   16CHTO  H112 6549   6.563   4.269   1.502 -1.3553  2.1392  0.9525
   16CHTO   C56 6550   6.589   4.423   1.341  0.1066 -0.6049 -0.0156
   16CHTO  H113 6551   6.538   4.453   1.248 -1.2440 -1.3240  0.4696
   16CHTO   O42 6552   6.551   4.532   1.430 -0.1024  0.4108  0.0480
   16CHTO  H100 6553   6.595   4.610   1.401 -0.5239 -0.0804 -2.0155
   16CHTO   C57 6554   6.741   4.428   1.322  0.1220  0.2092  0.2349
   16CHTO  H114 6555   6.784   4.422   1.422 -1.1805  0.0049  0.8001
   16CHTO   N10 6556   6.793   4.553   1.267  0.3228  0.1594 -0.5853
   16CHTO  H106 6557   6.714   4.605   1.214  0.9928  0.8842 -0.8885
   16CHTO  H107 6558   6.879   4.537   1.205 -0.3510  1.9684 -2.0342
   16CHTO   C58 6559   6.786   4.302   1.244  0.0835 -0.2158  0.0235
   16CHTO  H115 6560   6.770   4.317   1.135  1.9538 -0.6273 -0.3174
   16CHTO   O37 6561   6.737   4.181   1.302 -0.0649 -0.2659  0.1008
   16CHTO   C59 6562   6.589   4.171   1.304  0.2379 -0.1174 -0.2065
   16CHTO  H116 6563   6.547   4.172   1.204 -1.1529 -3.6841  0.2542
   16CHTO   C70 6564   6.569   4.032   1.350 -0.4484  0.5501  0.1397
   16CHTO   O46 6565   6.609   3.997   1.484 -0.8343  0.0280  0.4134
   16CHTO  H103 6566   6.565   3.925   1.525 -1.8190  0.0604 -0.5676
   16CHTO   O39 6567   6.951   4.276   1.272 -0.0710  0.1659  0.3700
   16CHTO   C60 6568   7.006   4.215   1.153  0.2961  0.2271 -0.7274
   16CHTO  H117 6569   6.926   4.162   1.100  1.0423 -2.3806  0.6219
   16CHTO   C62 6570   7.067   4.334   1.064  0.0635 -0.4928  0.3221
   16CHTO  H119 6571   6.982   4.395   1.024  0.5473  0.3665  0.5870
   16CHTO   O43 6572   7.141   4.414   1.156  0.1195 -0.8015  0.2290
   16CHTO  H101 6573   7.138   4.503   1.125  0.1433 -1.2617 -1.1354
   16CHTO   C66 6574   7.143   4.278   0.944 -0.2135  0.3928  0.6138
   16CHTO  H123 6575   7.076   4.216   0.884  0.5034 -0.1554  0.3754
   16CHTO   N12 6576   7.189   4.386   0.856  0.3070 -0.3884  0.3453
   16CHTO  H110 6577   7.185   4.359   0.751  0.1613 -0.3974  0.3534
   16CHTO  H111 6578   7.289   4.392   0.895  0.4555 -0.1332 -0.0716
   16CHTO   C69 6579   7.261   4.185   0.995  0.1074 -0.4550 -0.5183
   16CHTO  H126 6580   7.328   4.239   1.065 -0.3218  0.0220 -0.4718
   16CHTO   O41 6581   7.189   4.076   1.074 -0.0320  0.5059 -0.2096
   16CHTO   C64 6582   7.115   4.113   1.191  0.1118  0.2516 -0.0883
   16CHTO  H121 6583   7.178   4.164   1.266  0.3580  1.2017 -0.9211
   16CHTO   C71 6584   7.059   3.986   1.254 -0.1206  0.1204 -0.4823
   16CHTO   O47 6585   6.996   3.890   1.170  0.1935 -0.1048 -0.2095
   16CHTO  H104 6586   7.039   3.807   1.167 -0.5602 -0.5362  0.4891
   16CHTO   O34 6587   7.338   4.125   0.891 -0.0606  0.1146 -0.2279
   16CHTO   C49 6588   7.447   4.006   0.889  0.1421 -0.0110  0.3597
   16CHTO   H91 6589   7.528   4.054   0.834 -1.5455  0.9524 -1.3756
   16CHTO   C47 6590   7.383   3.899   0.804 -0.1046  0.5869 -0.7609
   16CHTO   H89 6591   7.466   3.829   0.781  0.0240  0.5372 -0.1566
   16CHTO   O33 6592   7.342   3.954   0.681  0.3946 -0.3430 -0.2646
   16CHTO   H70 6593   7.405   3.991   0.624 -0.2263  0.9064 -0.1473
   16CHTO   C45 6594   7.271   3.817   0.880  0.1616 -0.2660 -1.2684
   16CHTO   H87 6595   7.200   3.894   0.914 -0.7196 -1.3246 -0.6692
   16CHTO    N8 6596   7.199   3.716   0.802 -0.2213  0.0670  0.1125
   16CHTO   H75 6597   7.112   3.696   0.863 -1.9069  2.6537 -1.3161
   16CHTO   H76 6598   7.150   3.755   0.714  0.6211 -0.7877 -0.7372
   16CHTO   C43 6599   7.336   3.749   1.012  0.0192 -0.5029 -0.2196
   16CHTO   H85 6600   7.258   3.702   1.072  1.3490  0.6517  2.5022
   16CHTO   O29 6601   7.403   3.850   1.087  0.7736  0.0699  0.5709
   16CHTO   C50 6602   7.482   3.955   1.028 -0.1627  0.3340 -0.3543
   16CHTO   H92 6603   7.484   4.042   1.095  0.9645  0.4138 -0.4789
   16CHTO   C54 6604   7.629   3.910   1.029 -0.4787 -0.0022 -0.1652
   16CHTO   O36 6605   7.663   3.819   1.136 -0.1198 -0.3238 -0.6799
   16CHTO   H72 6606   7.612   3.742   1.150 -1.6970  0.9432  0.7928
   16CHTO   O27 6607   7.431   3.648   0.978  0.2881 -0.5305 -0.2175
   16CHTO   C37 6608   7.511   3.548   1.048  0.4122 -0.0089  0.5905
   16CHTO   H79 6609   7.602   3.588   1.096  1.3068  0.6595 -1.5939
   16CHTO   C38 6610   7.425   3.505   1.165  0.0817  0.8604  0.5917
   16CHTO   H80 6611   7.325   3.479   1.127  0.4306  0.8348 -0.2964
   16CHTO   O31 6612   7.432   3.611   1.262 -0.4864  0.3753  0.7249
   16CHTO   H68 6613   7.413   3.587   1.350  1.2786 -0.1464  0.9760
   16CHTO   C39 6614   7.491   3.371   1.232  0.0820  0.0239  0.0804
   16CHTO   H81 6615   7.582   3.407   1.278 -0.0686  2.0997 -1.1897
   16CHTO    N7 6616   7.400   3.316   1.337  1.0160 -0.4608  0.2922
   16CHTO   H73 6617   7.371   3.392   1.408  0.6927 -2.3342  2.2273
   16CHTO   H74 6618   7.309   3.277   1.292  1.4191 -0.8113 -0.2204
   16CHTO   C40 6619   7.524   3.265   1.121  0.1272 -0.0567  0.0710
   16CHTO   H82 6620   7.429   3.244   1.072 -0.2779  0.8759  0.4440
   16CHTO   O26 6621   7.614   3.324   1.030  0.0255 -0.5303 -0.6259
   16CHTO   C41 6622   7.558   3.433   0.951 -0.5381  0.9311  0.2312
   16CHTO   H83 6623   7.473   3.397   0.892  0.8462  0.1825 -1.3543
   16CHTO   C52 6624   7.657   3.485   0.847 -0.1739  1.2065 -0.5454
   16CHTO   O35 6625   7.702   3.379   0.749 -0.2107 -0.0979  0.5978
   16CHTO   H71 6626   7.701   3.421   0.665 -0.7947 -0.0908  0.6118
   16CHTO   O28 6627   7.603   3.157   1.183  0.4706  0.5248  0.1130
   16CHTO   C42 6628   7.597   3.015   1.133 -0.5678  0.2127  0.2268
   16CHTO   H84 6629   7.700   2.982   1.142  0.4437  3.5477  1.7639
   16CHTO   C44 6630   7.558   2.988   0.982  0.6364  0.7298 -1.0612
   16CHTO   H86 6631   7.452   3.011   0.968 -0.1498 -1.0616  1.4508
   16CHTO   O32 6632   7.652   3.066   0.903 -0.6180  0.1163  0.0401
   16CHTO   H69 6633   7.630   3.059   0.812 -0.9757  2.0155 -0.0333
   16CHTO   C48 6634   7.578   2.833   0.953  0.9849  0.0718  0.1324
   16CHTO   H90 6635   7.682   2.817   0.979  1.0533  0.7309  0.2599
   16CHTO    N9 6636   7.560   2.802   0.805 -0.3103 -0.0458 -0.9282
   16CHTO   H77 6637   7.577   2.696   0.803  0.1774  0.0392 -3.4771
   16CHTO   H78 6638   7.456   2.811   0.777  0.3393 -0.2144 -3.5437
   16CHTO   C51 6639   7.478   2.753   1.046  0.1488 -0.1498  0.0064
   16CHTO   H93 6640   7.375   2.781   1.023  1.0607  2.3895 -1.1083
   16CHTO   O30 6641   7.508   2.776   1.181  0.2712  1.0509  0.2755
   16CHTO   C46 6642   7.515   2.924   1.227  0.0855  0.0193  0.0307
   16CHTO   H88 6643   7.414   2.962   1.235 -0.7563 -2.1384  0.1365
   16CHTO   C53 6644   7.575   2.926   1.369  0.0433  0.1642  0.0603
   16CHTO   O72 6645   7.691   2.846   1.365 -0.1169  0.0772 -0.3212
   16CHTO  H199 6646   7.767   2.884   1.405 -0.6044 -1.6899  2.4452
   16CHTO   O22 6647   7.490   2.608   1.034 -0.0468 -0.2953 -0.0483
   16CHTO   C31 6648   7.385   2.518   1.094 -0.2176  0.5502  0.2613
   16CHTO   H59 6649   7.338   2.579   1.174  0.5533 -0.8005  1.7878
   16CHTO   C29 6650   7.277   2.486   0.986 -0.5384 -0.2869 -0.1065
   16CHTO   H57 6651   7.325   2.455   0.892  2.1540  0.4380  0.9709
   16CHTO   O21 6652   7.209   2.610   0.958 -0.0984  0.5418 -0.5178
   16CHTO   H37 6653   7.144   2.585   0.896  0.4500 -1.4792 -0.3021
   16CHTO   C27 6654   7.174   2.381   1.026  0.1608 -0.2475 -0.3505
   16CHTO   H55 6655   7.114   2.411   1.113 -0.9997 -1.4293 -0.7188
   16CHTO    N5 6656   7.079   2.350   0.911 -0.3861 -0.3571  0.4459
   16CHTO   H43 6657   7.015   2.435   0.894  1.2605  1.2316  1.8574
   16CHTO   H44 6658   7.137   2.312   0.828  1.6341  0.0743  1.6194
   16CHTO   C25 6659   7.255   2.257   1.069 -0.2948 -0.2971 -0.3992
   16CHTO   H53 6660   7.318   2.222   0.986 -1.8004 -0.1937 -1.6116
   16CHTO   O17 6661   7.336   2.298   1.182  0.4127 -0.4511 -0.1829
   16CHTO   C32 6662   7.438   2.389   1.166  0.2587  0.8572 -0.1014
   16CHTO   H60 6663   7.506   2.342   1.094 -0.5058 -0.2856 -0.0941
   16CHTO   C36 6664   7.488   2.419   1.308  0.5524  0.8263  0.7974
   16CHTO   O25 6665   7.629   2.454   1.317  0.6359 -0.8799  0.1580
   16CHTO   H40 6666   7.644   2.540   1.284  0.3932 -1.6400 -2.0517
   16CHTO   O15 6667   7.167   2.129   1.112  0.2350  0.2172  0.3995
   16CHTO   C19 6668   7.057   2.085   1.189 -0.0576 -0.2645  0.4531
   16CHTO   H47 6669   7.082   1.982   1.220 -0.1227 -0.1896  0.7605
   16CHTO   C20 6670   7.037   2.154   1.328 -0.0923 -0.6117  0.4613
   16CHTO   H48 6671   7.030   2.263   1.313  2.4613 -0.3947  0.7103
   16CHTO   O19 6672   7.164   2.125   1.397 -0.1716 -0.8847  0.3514
   16CHTO   H35 6673   7.194   2.211   1.418  1.0630 -1.2930  0.3129
   16CHTO   C21 6674   6.904   2.100   1.400  0.3342  0.2831  0.3408
   16CHTO   H49 6675   6.916   1.994   1.425 -1.9804 -0.3335 -0.9289
   16CHTO    N4 6676   6.882   2.172   1.523 -0.5128  0.3809 -0.3092
   16CHTO   H41 6677   6.817   2.117   1.590 -0.9568  1.3485  0.0618
   16CHTO   H42 6678   6.842   2.271   1.506  0.5943  0.5056 -2.3662
   16CHTO   C22 6679   6.790   2.117   1.297  0.5673 -0.7272  0.2389
   16CHTO   H50 6680   6.774   2.220   1.267  1.7828 -0.7618 -0.5295
   16CHTO   O14 6681   6.824   2.029   1.189 -0.0578  0.6155 -0.2935
   16CHTO   C23 6682   6.929   2.073   1.104 -0.7046  0.0917 -0.4586
   16CHTO   H51 6683   6.903   2.168   1.054 -0.7680  0.1980 -0.2249
   16CHTO   C34 6684   6.953   1.974   0.990 -0.0508 -0.4143  0.3509
   16CHTO   O23 6685   6.833   1.945   0.921  0.6112  0.1281  0.2723
   16CHTO   H38 6686   6.785   1.869   0.948 -0.7522  1.2307  1.0180
   16CHTO   O16 6687   6.661   2.069   1.330 -0.5649  0.0925 -0.3582
   16CHTO   C24 6688   6.546   2.062   1.226 -1.4844  0.6264 -0.2660
   16CHTO   H52 6689   6.586   2.049   1.126  0.1749  1.0199  0.3198
   16CHTO   C26 6690   6.449   2.182   1.226  0.5269 -0.2327  0.1960
   16CHTO   H54 6691   6.437   2.217   1.330 -0.7378  0.1962 -0.0850
   16CHTO   O20 6692   6.511   2.297   1.168  0.0048  0.0349 -0.4040
   16CHTO   H36 6693   6.454   2.369   1.186  0.4169  1.0824 -3.0576
   16CHTO   C30 6694   6.328   2.146   1.139  0.2857  0.5588  0.0225
   16CHTO   H58 6695   6.364   2.135   1.036 -1.2888 -0.3104 -0.4575
   16CHTO    N6 6696   6.226   2.255   1.144  0.3733 -0.6666  0.0606
   16CHTO   H45 6697   6.250   2.333   1.073 -0.6812 -0.8469 -0.5036
   16CHTO   H46 6698   6.134   2.212   1.108  0.7708 -1.7160  0.2851
   16CHTO   C33 6699   6.266   2.005   1.181  0.0930  0.1484 -0.1757
   16CHTO   H61 6700   6.238   2.015   1.287  0.5622 -0.1618 -0.0227
   16CHTO   O18 6701   6.367   1.904   1.167 -0.0521  0.1483 -0.7459
   16CHTO   C28 6702   6.474   1.928   1.258  0.1685  0.5468  0.8034
   16CHTO   H56 6703   6.439   1.925   1.362 -0.6160 -0.5012  0.5089
   16CHTO   C35 6704   6.570   1.808   1.235 -1.2115 -0.1941  0.0720
   16CHTO   O24 6705   6.520   1.676   1.278  0.1326  0.0466 -0.8825
   16CHTO   H39 6706   6.585   1.618   1.244  0.0645 -0.3170 -0.3949
   16CHTO    O9 6707   6.143   1.971   1.107 -0.2238  0.3339  0.1567
   16CHTO   C13 6708   6.080   1.837   1.178  0.1066  0.5994 -0.1700
   16CHTO   H26 6709   6.167   1.771   1.196 -0.3110 -0.2295 -1.1731
   16CHTO   C11 6710   5.971   1.762   1.088 -0.4764 -0.0611  1.3124
   16CHTO   H24 6711   6.026   1.738   0.996  0.7630  0.0687  2.0060
   16CHTO    O8 6712   5.882   1.869   1.040  0.0134  0.0036 -0.5168
   16CHTO    H3 6713   5.843   1.915   1.112 -0.4763 -1.3617  0.1106
   16CHTO    C9 6714   5.920   1.632   1.153 -0.0429 -0.2432 -0.0433
   16CHTO   H22 6715   6.012   1.574   1.168 -2.7267 -3.9809  2.7293
   16CHTO    N2 6716   5.840   1.545   1.065 -0.5555 -0.4193 -0.8398
   16CHTO   H10 6717   5.873   1.540   0.962  1.0253 -0.2778 -0.3435
   16CHTO   H11 6718   5.825   1.443   1.099 -1.4839 -0.1181 -0.3156
   16CHTO    C7 6719   5.851   1.670   1.286 -0.5260 -0.0410  0.3932
   16CHTO   H20 6720   5.843   1.571   1.336  0.5072 -0.7150 -0.7814
   16CHTO    O4 6721   5.930   1.757   1.367 -0.1006  0.2063 -0.4898
   16CHTO   C14 6722   6.013   1.865   1.318  0.4974  0.0670  1.0412
   16CHTO   H27 6723   6.095   1.880   1.392 -0.2548  3.1373  1.3244
   16CHTO   C18 6724   5.933   1.998   1.315  0.5342  0.4346  0.0817
   16CHTO   O13 6725   5.932   2.038   1.456 -0.2860  0.2000 -0.5465
   16CHTO    H7 6726   5.847   2.062   1.489 -0.8799 -0.9162 -1.2314
   16CHTO    O2 6727   5.703   1.727   1.260  0.9513  0.0122 -0.0995
   16CHTO    C1 6728   5.604   1.707   1.365  0.2429  0.6802  0.6936
   16CHTO   H14 6729   5.516   1.770   1.338  0.8494  2.5267  2.8601
   16CHTO    C2 6730   5.653   1.751   1.513 -0.7695  0.2586 -0.0003
   16CHTO   H15 6731   5.752   1.708   1.533  0.6297  2.5811 -1.6639
   16CHTO    O6 6732   5.650   1.895   1.506  0.1607 -0.2430 -0.2639
   16CHTO    H1 6733   5.724   1.942   1.472  1.0424 -0.5218  1.1805
   16CHTO    C3 6734   5.543   1.709   1.630 -0.4416  0.8241  0.4484
   16CHTO   H16 6735   5.456   1.775   1.615 -1.1982 -0.3717 -0.4502
   16CHTO    N1 6736   5.594   1.732   1.764  1.0238 -0.4584  0.6822
   16CHTO    H8 6737   5.507   1.724   1.828 -1.0052  1.7887 -1.6712
   16CHTO    H9 6738   5.670   1.667   1.805  1.3055 -0.4078  0.2366
   16CHTO    C4 6739   5.498   1.558   1.608 -0.4560  0.2454  0.0439
   16CHTO   H17 6740   5.578   1.495   1.646  0.1028  1.6438  1.2310
   16CHTO    O1 6741   5.463   1.532   1.471  0.3071  0.6389 -0.0590
   16CHTO    C5 6742   5.560   1.554   1.369 -0.2003 -0.0373 -0.2583
   16CHTO   H18 6743   5.652   1.502   1.395 -1.7588 -1.4752  2.6860
   16CHTO   C16 6744   5.493   1.506   1.235  0.2768  0.3155 -0.0328
   16CHTO   O11 6745   5.378   1.589   1.191  0.1875 -0.1390  0.5094
   16CHTO    H5 6746   5.343   1.542   1.117 -1.1886 -1.1747  1.7947
   16CHTO    O3 6747   5.379   1.526   1.677  0.4772 -0.1843 -0.2631
   16CHTO    C6 6748   5.376   1.387   1.725 -0.1401  0.6026  0.5439
   16CHTO   H19 6749   5.446   1.324   1.670  0.6139  1.8855  0.0232
   16CHTO    C8 6750   5.394   1.387   1.876 -0.2888 -0.9308 -0.1059
   16CHTO   H21 6751   5.334   1.470   1.914  0.5206 -0.8300  0.9607
   16CHTO    O7 6752   5.539   1.417   1.901 -0.1673 -0.3966  0.4359
   16CHTO    H2 6753   5.557   1.508   1.888 -2.6012  0.0804  0.1821
   16CHTO   C12 6754   5.349   1.251   1.939 -0.4400 -0.3347  0.2903
   16CHTO   H25 6755   5.415   1.172   1.897 -1.8051 -1.9201  1.0490
   16CHTO    N3 6756   5.374   1.251   2.086 -0.6172  0.0924  0.1787
   16CHTO   H12 6757   5.476   1.252   2.121 -0.6064 -0.7762  0.1637
   16CHTO   H13 6758   5.307   1.304   2.153 -1.0886  0.9658 -0.9683
   16CHTO   C15 6759   5.206   1.212   1.896 -0.5486  0.2828 -0.8943
   16CHTO   H28 6760   5.124   1.269   1.940  1.3235  3.3582 -1.3042
   16CHTO   O10 6761   5.166   1.070   1.921  0.0669 -0.5758  0.4127
   16CHTO    H4 6762   5.157   1.060   2.014 -1.9950  1.6434  0.5048
   16CHTO    O5 6763   5.203   1.207   1.754 -0.7394 -0.3095 -0.0127
   16CHTO   C10 6764   5.235   1.332   1.690  0.5498 -0.6413  0.1703
   16CHTO   H23 6765   5.164   1.409   1.721 -0.0329 -2.5111  3.6901
   16CHTO   C17 6766   5.221   1.311   1.531  0.3298  0.4100  0.8268
   16CHTO   O12 6767   5.085   1.291   1.492 -0.5941  0.3704  0.5683
   16CHTO    H6 6768   5.055   1.211   1.532  1.2983 -0.6096  0.0686
   17CHTO  H203 6769   5.482   4.534  -0.457 -1.7858 -1.3881  0.8247
   17CHTO   O82 6770   5.528   4.535  -0.375 -0.3485  0.2345  0.0432
   17CHTO  C123 6771   5.503   4.661  -0.310  0.0070 -0.6396 -0.0699
   17CHTO  H227 6772   5.495   4.648  -0.201  0.1143  3.2779  0.4752
   17CHTO   O77 6773   5.635   4.732  -0.340 -0.5328 -0.0040  0.1543
   17CHTO  C118 6774   5.657   4.846  -0.252 -0.0264 -0.6418 -0.2897
   17CHTO  H222 6775   5.641   4.812  -0.149  3.2386  0.3605  0.6141
   17CHTO  C125 6776   5.807   4.892  -0.261  0.0062  0.2234 -0.0798
   17CHTO   O84 6777   5.897   4.785  -0.235 -0.2287  0.1462 -0.4337
   17CHTO  H205 6778   5.971   4.838  -0.211 -0.8723  1.5667 -1.4860
   17CHTO  C114 6779   5.550   4.946  -0.297 -0.0275  0.2891  0.0090
   17CHTO  H218 6780   5.573   4.974  -0.400 -2.1455 -1.2367 -0.9287
   17CHTO  C116 6781   5.403   4.891  -0.303 -0.3806  0.2775 -0.8223
   17CHTO  H220 6782   5.358   4.884  -0.201 -1.1809  0.3071 -1.1681
   17CHTO   O79 6783   5.321   4.990  -0.365 -0.4486  0.0049  0.0729
   17CHTO  H201 6784   5.229   4.975  -0.376 -0.6604  2.6016 -2.3410
   17CHTO  C120 6785   5.393   4.753  -0.374  0.9057 -0.2882 -0.6443
   17CHTO  H224 6786   5.406   4.770  -0.482 -1.6506  0.9038 -0.7986
   17CHTO   N21 6787   5.256   4.698  -0.361 -0.1206  0.4131  0.7192
   17CHTO  H211 6788   5.191   4.784  -0.360  0.2844  0.7428 -0.2573
   17CHTO  H212 6789   5.240   4.629  -0.279 -1.7253  1.1154  0.9990
   17CHTO   O75 6790   5.553   5.061  -0.208 -0.2440 -0.0867  0.1317
   17CHTO  C112 6791   5.592   5.203  -0.288 -0.1618 -0.6190 -0.3922
   17CHTO  H216 6792   5.561   5.198  -0.394  1.7345  0.4789 -1.0202
   17CHTO   O73 6793   5.733   5.221  -0.278 -0.3785  0.4786 -0.2077
   17CHTO  C113 6794   5.782   5.348  -0.319 -0.2654  0.2242 -0.2851
   17CHTO  H217 6795   5.744   5.343  -0.423 -1.4094 -0.4758  0.1613
   17CHTO  C124 6796   5.939   5.344  -0.319 -0.0721  0.4010  0.0523
   17CHTO   O83 6797   6.001   5.233  -0.386  0.3858 -0.5963  0.4393
   17CHTO  H204 6798   6.039   5.267  -0.465 -3.0791  5.4273  1.0043
   17CHTO  C109 6799   5.723   5.462  -0.234 -0.3297  0.1545 -0.6236
   17CHTO  H213 6800   5.756   5.448  -0.130  0.1662 -2.9918 -1.1590
   17CHTO  C110 6801   5.570   5.456  -0.242  0.1386  0.3354  0.3916
   17CHTO  H214 6802   5.543   5.472  -0.346  1.8907  1.1071  0.0353
   17CHTO   O78 6803   5.507   5.557  -0.163 -0.0911 -0.0114  0.0856
   17CHTO  H200 6804   5.436   5.516  -0.118  0.6066  0.3023  1.4723
   17CHTO  C111 6805   5.524   5.316  -0.200  0.3657 -1.2458  0.1939
   17CHTO  H215 6806   5.551   5.300  -0.095  0.4672  1.0169  0.5277
   17CHTO   N19 6807   5.377   5.306  -0.218 -0.2085  0.0888 -0.7352
   17CHTO  H207 6808   5.327   5.393  -0.178  0.6412  0.8302 -1.2811
   17CHTO  H208 6809   5.337   5.209  -0.194 -1.1179  0.3514 -1.1741
   17CHTO   O74 6810   5.784   5.587  -0.288 -0.2848 -0.4503  0.6509
   17CHTO  C115 6811   5.779   5.718  -0.174  0.1172  0.1499  0.0159
   17CHTO  H219 6812   5.705   5.701  -0.095 -0.7401 -0.1837 -0.8629
   17CHTO   O76 6813   5.908   5.727  -0.099 -0.0119  0.3058  0.0839
   17CHTO  C122 6814   6.015   5.758  -0.191  0.2283  0.2053  0.1489
   17CHTO  H226 6815   6.019   5.698  -0.282  2.9756  0.4744  0.0500
   17CHTO  C126 6816   6.158   5.736  -0.121 -0.2268  0.3298  0.0094
   17CHTO   O85 6817   6.167   5.795   0.007 -0.5083  0.1282 -0.1530
   17CHTO  H206 6818   6.129   5.880   0.007  0.5132  0.5981  0.9479
   17CHTO  C121 6819   5.994   5.917  -0.230 -0.3339  0.9390 -0.2804
   17CHTO  H225 6820   6.056   5.969  -0.155 -0.9467  1.9364 -0.4613
   17CHTO   O81 6821   6.043   5.944  -0.358  0.0990 -0.0827  0.6203
   17CHTO  H202 6822   6.123   5.993  -0.351  0.3531  0.1694 -3.1103
   17CHTO  C119 6823   5.840   5.961  -0.210 -0.0769  0.7544 -0.7742
   17CHTO  H223 6824   5.813   5.976  -0.106 -1.1404 -3.1621 -0.4240
   17CHTO  C117 6825   5.738   5.847  -0.259 -0.3863  0.1171 -0.4670
   17CHTO  H221 6826   5.748   5.817  -0.363 -1.5279  0.1073 -0.5843
   17CHTO   N20 6827   5.594   5.887  -0.243 -0.2179  0.2653  0.2704
   17CHTO  H209 6828   5.547   5.824  -0.170 -1.5458  1.0156  0.0886
   17CHTO  H210 6829   5.543   5.883  -0.338  0.7444  1.6968 -0.3351
   17CHTO   O80 6830   5.826   6.106  -0.264 -0.0910 -0.3291 -0.0284
   17CHTO  C103 6831   5.893   6.221  -0.184  0.7713 -0.6801 -0.7305
   17CHTO  H190 6832   5.916   6.200  -0.079  0.1299 -1.1939 -0.6841
   17CHTO  C101 6833   6.014   6.284  -0.259  0.3512  0.2363 -0.4034
   17CHTO  H188 6834   5.980   6.296  -0.362 -1.9962 -3.2758 -0.1179
   17CHTO   O68 6835   6.118   6.190  -0.258  0.6632  0.6309 -0.6457
   17CHTO  H168 6836   6.185   6.214  -0.320 -0.4217  0.0154 -2.0705
   17CHTO   C99 6837   6.066   6.422  -0.197 -0.5626 -0.5623  0.0757
   17CHTO  H186 6838   6.118   6.403  -0.101 -0.8171  0.2463  0.3827
   17CHTO   N17 6839   6.171   6.499  -0.282  0.1557 -0.2213  0.2895
   17CHTO  H174 6840   6.272   6.461  -0.283 -0.1133 -0.9356  0.0681
   17CHTO  H175 6841   6.171   6.605  -0.262 -0.6925 -0.2337  0.3595
   17CHTO   C97 6842   5.943   6.509  -0.163  0.5945  0.1002  0.6068
   17CHTO  H184 6843   5.912   6.562  -0.254 -0.2391 -1.5206 -0.0720
   17CHTO   O64 6844   5.833   6.435  -0.110 -0.6182 -0.4645 -0.2506
   17CHTO  C104 6845   5.779   6.324  -0.181 -0.5456 -0.1396 -0.0760
   17CHTO  H191 6846   5.747   6.356  -0.281  0.4309 -0.2542 -0.4342
   17CHTO  C108 6847   5.659   6.262  -0.111  0.1124  0.4487 -0.1489
   17CHTO   O71 6848   5.549   6.354  -0.077 -0.5477 -0.1458  0.1116
   17CHTO  H171 6849   5.526   6.337   0.012  0.5551  0.0366  0.4443
   17CHTO   O62 6850   5.979   6.612  -0.067 -0.8979 -0.0831  0.7407
   17CHTO   C91 6851   5.904   6.730  -0.072 -0.4043  0.3369 -0.1003
   17CHTO  H178 6852   5.805   6.718  -0.116 -0.3898  1.5704 -0.4866
   17CHTO   C92 6853   5.977   6.837  -0.169  0.4522  0.3843  0.3175
   17CHTO  H179 6854   6.008   6.786  -0.262 -1.2541  2.3511 -1.3777
   17CHTO   O66 6855   5.867   6.923  -0.212  0.2082 -0.0066  0.2568
   17CHTO  H166 6856   5.804   6.867  -0.254  0.2777  0.0255  0.1133
   17CHTO   C93 6857   6.095   6.922  -0.097  0.4947 -0.1102  0.9816
   17CHTO  H180 6858   6.123   7.001  -0.168 -1.2155 -1.9566 -1.8659
   17CHTO   N16 6859   6.227   6.858  -0.079  0.2267 -0.0103  0.1481
   17CHTO  H172 6860   6.284   6.930  -0.022 -0.6088  1.3702 -0.7080
   17CHTO  H173 6861   6.271   6.863  -0.178 -2.0096  0.4319 -0.8592
   17CHTO   C94 6862   6.036   6.993   0.030  0.3830 -0.2221 -0.2994
   17CHTO  H181 6863   6.106   6.991   0.115 -0.8182  2.5550  0.8057
   17CHTO   O61 6864   5.909   6.943   0.067  0.3833 -0.0489  0.2970
   17CHTO   C95 6865   5.893   6.796   0.067  0.4288 -0.2531  0.2860
   17CHTO  H182 6866   5.972   6.751   0.128  1.0681 -0.4761 -0.7053
   17CHTO  C106 6867   5.756   6.773   0.137 -0.1354  0.1613 -0.2126
   17CHTO   O69 6868   5.734   6.628   0.157  0.1364 -0.2356 -0.0302
   17CHTO  H169 6869   5.705   6.581   0.081 -2.0799  1.2608 -0.1823
   17CHTO   O63 6870   6.028   7.161  -0.013 -0.2367  0.6233  0.2077
   17CHTO   C96 6871   6.039   7.248   0.122 -0.2291  0.3525 -0.0638
   17CHTO  H183 6872   6.030   7.178   0.205  0.5544 -2.3504 -2.1947
   17CHTO   C98 6873   5.922   7.359   0.150 -0.7564 -0.3577  0.1100
   17CHTO  H185 6874   5.919   7.435   0.071 -2.9063  0.9361  1.3873
   17CHTO   O67 6875   5.811   7.275   0.133 -0.4052  0.3050  0.5560
   17CHTO  H167 6876   5.737   7.302   0.083  0.5441  0.1742 -0.9824
   17CHTO  C102 6877   5.947   7.422   0.294  0.6547 -0.0232 -0.2821
   17CHTO  H189 6878   5.938   7.333   0.358 -0.4527  0.9152  0.8610
   17CHTO   N18 6879   5.854   7.517   0.351  0.6206  0.2647 -0.8524
   17CHTO  H176 6880   5.884   7.573   0.438 -1.1396 -0.1504  0.0389
   17CHTO  H177 6881   5.826   7.580   0.268  1.0999  0.3928 -0.9199
   17CHTO  C105 6882   6.092   7.480   0.306  0.0986 -0.1784 -0.5282
   17CHTO  H192 6883   6.098   7.588   0.325  1.3546 -0.0626 -1.5583
   17CHTO   O65 6884   6.179   7.454   0.193  0.2825 -0.0613  0.1504
   17CHTO  C100 6885   6.173   7.331   0.123 -0.3297  0.3412  0.1202
   17CHTO  H187 6886   6.187   7.364   0.020 -2.5350  1.0195  0.0086
   17CHTO  C107 6887   6.294   7.250   0.183  0.6593 -0.2194 -0.4763
   17CHTO   O70 6888   6.349   7.155   0.096 -0.2000  0.8254 -0.5487
   17CHTO  H170 6889   6.382   7.083   0.146  2.9727  1.5339 -1.5136
   17CHTO   O57 6890   6.133   7.394   0.436 -0.1351  0.3131 -0.0428
   17CHTO   C85 6891   6.167   7.454   0.560  0.3999 -0.2865 -0.0782
   17CHTO  H157 6892   6.114   7.552   0.554  2.3086  0.8792  1.4176
   17CHTO   C83 6893   6.324   7.490   0.556 -0.0389  0.9823 -0.3057
   17CHTO  H155 6894   6.334   7.569   0.481  0.3520  0.4666 -0.8014
   17CHTO   O56 6895   6.394   7.370   0.513 -0.3527 -0.1115  0.4981
   17CHTO  H135 6896   6.372   7.356   0.422 -1.6364 -2.9155  1.1991
   17CHTO   C81 6897   6.367   7.552   0.693  0.6385  0.2915  0.1708
   17CHTO  H153 6898   6.310   7.644   0.709  0.1997 -0.3465  2.3885
   17CHTO   N14 6899   6.512   7.589   0.684  0.5292 -1.1218  0.2033
   17CHTO  H141 6900   6.566   7.519   0.623 -0.5355 -1.0895 -0.8039
   17CHTO  H142 6901   6.554   7.588   0.782  1.0592  0.7667  0.0216
   17CHTO   C79 6902   6.326   7.450   0.813 -0.4469 -0.4411  0.2749
   17CHTO  H151 6903   6.352   7.500   0.907 -0.4289  0.7913 -0.3669
   17CHTO   O52 6904   6.182   7.437   0.812 -0.7571  0.3247 -0.6840
   17CHTO   C86 6905   6.126   7.377   0.690  0.0912  1.1181 -0.0669
   17CHTO  H158 6906   6.162   7.272   0.691 -1.4372  0.5839  0.2984
   17CHTO   C90 6907   5.971   7.366   0.685  0.1142 -0.4484  0.8486
   17CHTO   O60 6908   5.897   7.484   0.730  0.3149 -0.0567 -0.3883
   17CHTO  H138 6909   5.852   7.534   0.664  0.8691  3.2162  1.5685
   17CHTO   O50 6910   6.402   7.328   0.798  0.3922 -0.1018  0.0801
   17CHTO   C73 6911   6.438   7.213   0.875  0.4003  0.0401 -0.1239
   17CHTO  H145 6912   6.508   7.230   0.958  2.6349  0.2753 -1.9821
   17CHTO   C74 6913   6.532   7.122   0.783 -0.2481 -0.2193 -0.3114
   17CHTO  H146 6914   6.611   7.192   0.751 -1.5850  0.6459 -1.7840
   17CHTO   O54 6915   6.602   7.008   0.848 -0.1145 -0.8600 -0.0696
   17CHTO  H133 6916   6.690   7.000   0.817 -0.2332  0.8044 -0.8778
   17CHTO   C75 6917   6.444   7.077   0.659 -0.3259 -0.0347  0.1544
   17CHTO  H147 6918   6.404   7.168   0.613 -1.2607 -0.4242  0.1741
   17CHTO   N13 6919   6.522   7.001   0.552 -0.6621 -0.8631  1.2204
   17CHTO  H139 6920   6.562   7.067   0.476 -1.0449  1.2707  2.8161
   17CHTO  H140 6921   6.603   6.956   0.607 -0.3713  0.4668  1.9055
   17CHTO   C76 6922   6.336   6.981   0.721 -0.8473  0.3547 -0.0321
   17CHTO  H148 6923   6.389   6.908   0.781 -0.0602  1.5677  0.7629
   17CHTO   O49 6924   6.258   7.063   0.813  0.3693 -0.8232  0.0494
   17CHTO   C77 6925   6.323   7.127   0.924  0.4300  0.6875  0.4297
   17CHTO  H149 6926   6.363   7.044   0.982  2.0713  1.9144  1.0891
   17CHTO   C88 6927   6.225   7.207   1.013  0.7705  0.1334 -0.3236
   17CHTO   O58 6928   6.294   7.264   1.144 -0.7351  0.6655  0.3856
   17CHTO  H136 6929   6.376   7.301   1.118 -0.5205  0.6428  1.0153
   17CHTO   O51 6930   6.239   6.913   0.611  0.0987 -0.3010 -0.0851
   17CHTO   C78 6931   6.096   6.896   0.678 -0.6893 -0.1748 -0.1341
   17CHTO  H150 6932   6.059   6.985   0.732 -1.8117 -1.5183  1.3829
   17CHTO   C80 6933   6.088   6.767   0.761 -0.1248 -0.0173  0.4566
   17CHTO  H152 6934   6.117   6.682   0.697  1.3203 -0.0142  1.0968
   17CHTO   O55 6935   6.173   6.773   0.875 -0.3147  0.0659  1.0786
   17CHTO  H134 6936   6.196   6.690   0.912  0.6879  0.7905  2.1095
   17CHTO   C84 6937   5.939   6.742   0.806  0.2330 -0.0810 -0.2715
   17CHTO  H156 6938   5.934   6.825   0.877  0.9640 -1.3515  1.2584
   17CHTO   N15 6939   5.922   6.617   0.880  0.9950  0.2203 -0.0569
   17CHTO  H143 6940   5.861   6.550   0.823 -1.1178  2.4549 -0.5234
   17CHTO  H144 6941   5.881   6.621   0.978  0.3408  0.2847 -0.3276
   17CHTO   C87 6942   5.832   6.762   0.696  0.4807 -0.2300  0.1189
   17CHTO  H159 6943   5.828   6.680   0.625 -1.6008  1.0022 -1.2412
   17CHTO   O53 6944   5.865   6.902   0.629 -0.3114 -0.1392  0.2054
   17CHTO   C82 6945   5.993   6.884   0.567 -0.4465  0.3171  0.6717
   17CHTO  H154 6946   6.002   6.785   0.523  2.2482 -0.5436  3.0667
   17CHTO   C89 6947   6.008   6.999   0.456  0.0955  0.7698 -0.0466
   17CHTO   O59 6948   6.103   6.962   0.355 -0.6033 -0.1101  0.3131
   17CHTO  H137 6949   6.182   7.013   0.362 -0.9093  0.6176 -1.3667
   17CHTO   O45 6950   5.683   6.792   0.752 -0.4437 -0.0635 -0.1456
   17CHTO   C67 6951   5.617   6.673   0.808  0.6300 -0.0340 -0.2831
   17CHTO  H124 6952   5.671   6.582   0.783 -0.9809 -1.1589  0.2326
   17CHTO   C65 6953   5.597   6.677   0.962  0.2653 -0.0930 -0.2870
   17CHTO  H122 6954   5.664   6.753   1.003 -0.2457 -1.0220  2.4050
   17CHTO   O44 6955   5.643   6.542   1.004  0.5583 -0.2625 -0.1799
   17CHTO  H102 6956   5.725   6.523   0.964  0.5716 -2.3890  0.7540
   17CHTO   C63 6957   5.452   6.727   1.010 -0.1671  0.1695 -0.1042
   17CHTO  H120 6958   5.427   6.816   0.951 -1.0803  0.8093  1.2403
   17CHTO   N11 6959   5.428   6.769   1.146 -0.2320  0.2221 -0.4525
   17CHTO  H108 6960   5.328   6.802   1.164 -0.5187 -1.2586  0.8181
   17CHTO  H109 6961   5.435   6.682   1.208 -0.8056 -0.5535 -1.4616
   17CHTO   C61 6962   5.356   6.616   0.955  0.1737 -0.8070 -0.3664
   17CHTO  H118 6963   5.256   6.663   0.951 -0.8934 -2.9992 -0.6810
   17CHTO   O40 6964   5.392   6.573   0.821  0.1249 -0.0848  0.7350
   17CHTO   C68 6965   5.479   6.662   0.742  0.1952  0.2680  0.0160
   17CHTO  H125 6966   5.437   6.763   0.728 -1.5484 -0.4338  0.0522
   17CHTO   C72 6967   5.484   6.594   0.597 -0.5791 -0.2953 -0.0408
   17CHTO   O48 6968   5.558   6.674   0.499  0.1852 -0.4439  0.0473
   17CHTO  H105 6969   5.627   6.713   0.549 -1.0713 -0.0243  1.4911
   17CHTO   O38 6970   5.348   6.499   1.035  0.3209 -0.3292  0.8368
   17CHTO   C55 6971   5.221   6.428   1.028 -0.1526  0.6394 -0.3084
   17CHTO  H112 6972   5.237   6.335   1.084 -0.0584  1.1162  0.4634
   17CHTO   C56 6973   5.174   6.396   0.883  1.0399 -0.4895  0.0700
   17CHTO  H113 6974   5.161   6.492   0.831  0.2087 -1.0870 -0.8457
   17CHTO   O42 6975   5.288   6.323   0.825  0.2005  0.3448  0.0563
   17CHTO  H100 6976   5.353   6.377   0.784  0.8818 -0.1704  0.4367
   17CHTO   C57 6977   5.040   6.316   0.883 -0.0523 -0.2865  0.2156
   17CHTO  H114 6978   5.061   6.226   0.941  1.1067  0.6067  1.2046
   17CHTO   N10 6979   4.989   6.269   0.750  0.0157 -0.0062 -0.3630
   17CHTO  H106 6980   4.930   6.180   0.765  0.0375  0.4439  2.7316
   17CHTO  H107 6981   5.071   6.247   0.684  1.7864  1.8575  1.1166
   17CHTO   C58 6982   4.942   6.405   0.956  0.4583  0.4519 -0.3509
   17CHTO  H115 6983   4.949   6.504   0.906  0.8154  0.8434  0.4716
   17CHTO   O37 6984   4.986   6.426   1.094 -0.5923 -0.3014 -0.1284
   17CHTO   C59 6985   5.107   6.501   1.099 -0.5939 -0.3396  0.0782
   17CHTO  H116 6986   5.087   6.602   1.064  0.6791  0.2222  0.9314
   17CHTO   C70 6987   5.139   6.505   1.248  0.0380 -0.3967  0.3755
   17CHTO   O46 6988   5.061   6.603   1.319  0.0896 -0.3674  0.7700
   17CHTO  H103 6989   5.090   6.614   1.408 -0.5668  1.3536  0.8019
   17CHTO   O39 6990   4.801   6.344   0.971  0.0610  0.1202  0.5171
   17CHTO   C60 6991   4.700   6.438   1.010 -0.0848  0.2390 -0.5754
   17CHTO  H117 6992   4.743   6.497   1.092 -1.4630 -0.1751  0.4786
   17CHTO   C62 6993   4.657   6.530   0.888  0.5322 -0.4123  0.6185
   17CHTO  H119 6994   4.753   6.583   0.869  0.1414  0.8955  2.2161
   17CHTO   O43 6995   4.615   6.448   0.785  0.5016  0.6391 -0.6623
   17CHTO  H101 6996   4.690   6.400   0.756 -0.3379 -0.7276 -0.5847
   17CHTO   C66 6997   4.554   6.643   0.931  0.0584  1.2668  0.1374
   17CHTO  H123 6998   4.608   6.706   1.001  0.7257  1.4041 -0.4979
   17CHTO   N12 6999   4.513   6.740   0.831  0.1971  0.4803 -0.3489
   17CHTO  H110 7000   4.564   6.725   0.737  2.5542 -3.0842  1.3902
   17CHTO  H111 7001   4.536   6.839   0.868  0.1124  0.1529  0.5801
   17CHTO   C69 7002   4.426   6.569   0.982  0.6859 -0.5418  0.0209
   17CHTO  H126 7003   4.361   6.527   0.903 -0.2116  3.1781 -1.2865
   17CHTO   O41 7004   4.460   6.468   1.097 -0.0341  0.3327 -0.0982
   17CHTO   C64 7005   4.579   6.365   1.063 -0.0197  0.2515 -0.1593
   17CHTO  H121 7006   4.546   6.296   0.983  0.4212  1.3600 -1.3128
   17CHTO   C71 7007   4.614   6.288   1.202 -0.4032 -0.8006  0.6782
   17CHTO   O47 7008   4.538   6.165   1.217  0.0155 -0.5378 -0.0484
   17CHTO  H104 7009   4.582   6.108   1.278  0.6500 -0.8729 -0.8187
   17CHTO   O34 7010   4.316   6.683   1.041  0.2270 -0.3239  0.7507
   17CHTO   C49 7011   4.170   6.713   0.988 -0.1636 -0.6922  0.0327
   17CHTO   H91 7012   4.180   6.797   0.920 -0.0758 -1.7984 -1.3395
   17CHTO   C47 7013   4.084   6.746   1.108 -0.0690  0.3129 -0.3981
   17CHTO   H89 7014   3.979   6.756   1.075 -0.6883 -1.5813  0.8655
   17CHTO   O33 7015   4.131   6.873   1.167 -0.1518  0.6176 -0.2023
   17CHTO   H70 7016   4.126   6.936   1.098  0.9685 -0.3425 -1.1765
   17CHTO   C45 7017   4.093   6.634   1.218  0.1679  0.2703 -0.1866
   17CHTO   H87 7018   4.191   6.644   1.267 -0.8515  1.8418  1.5693
   17CHTO    N8 7019   3.986   6.644   1.319 -0.4359 -0.3356 -0.5967
   17CHTO   H75 7020   3.995   6.733   1.379 -0.5969 -1.1068  0.5693
   17CHTO   H76 7021   3.893   6.658   1.266  0.4062  0.9039 -1.8024
   17CHTO   C43 7022   4.093   6.492   1.141 -0.5628  1.1559  0.9455
   17CHTO   H85 7023   4.198   6.466   1.135 -0.5584  1.2031  0.8191
   17CHTO   O29 7024   4.033   6.511   1.008 -0.2653 -0.4179  0.1711
   17CHTO   C50 7025   4.103   6.593   0.913  0.1803  0.6007 -0.4629
   17CHTO   H92 7026   4.179   6.538   0.855  2.6003  3.6487 -0.3316
   17CHTO   C54 7027   3.996   6.639   0.808 -0.3485 -0.6280 -0.0392
   17CHTO   O36 7028   4.046   6.745   0.719 -0.7599 -0.1427  0.7768
   17CHTO   H72 7029   4.065   6.706   0.636 -0.1243  1.1628  0.2854
   17CHTO   O27 7030   4.041   6.381   1.217  0.3239  0.3540  0.1812
   17CHTO   C37 7031   4.040   6.240   1.240 -1.0622  0.0983 -0.1931
   17CHTO   H79 7032   3.987   6.216   1.333 -0.3312 -0.6888  0.0359
   17CHTO   C38 7033   3.956   6.168   1.128 -0.5916 -0.2917  0.3046
   17CHTO   H80 7034   4.002   6.194   1.032 -0.8741 -1.1924 -0.0772
   17CHTO   O31 7035   3.824   6.224   1.142 -0.1984 -0.4064  0.3349
   17CHTO   H68 7036   3.769   6.209   1.068 -2.9937  0.2875  2.2025
   17CHTO   C39 7037   3.962   6.011   1.148  0.1727 -0.1146 -0.3406
   17CHTO   H81 7038   3.923   5.988   1.247 -1.0912 -0.2407 -0.8634
   17CHTO    N7 7039   3.875   5.940   1.049  0.0922  0.2860 -0.2403
   17CHTO   H73 7040   3.924   5.931   0.953 -0.9352 -1.1435 -0.6321
   17CHTO   H74 7041   3.853   5.848   1.100  2.7380  0.6165  1.6391
   17CHTO   C40 7042   4.111   5.958   1.147  0.4368 -0.0995  0.0936
   17CHTO   H82 7043   4.146   5.978   1.046 -0.4789  0.1762 -0.1772
   17CHTO   O26 7044   4.188   6.027   1.247  0.3173 -0.1113  0.2277
   17CHTO   C41 7045   4.185   6.172   1.255 -0.0861 -0.0630  0.7775
   17CHTO   H83 7046   4.259   6.210   1.183 -0.5971 -1.2367 -0.4035
   17CHTO   C52 7047   4.239   6.220   1.387  0.0215  0.4332  0.3558
   17CHTO   O35 7048   4.145   6.203   1.509  0.0563 -0.4176  0.1098
   17CHTO   H71 7049   4.187   6.201   1.593 -3.9337 -0.3288  2.2456
   17CHTO   O28 7050   4.123   5.816   1.172  0.4823 -0.1467  1.0062
   17CHTO   C42 7051   4.246   5.754   1.118  0.0098  0.2220 -0.1641
   17CHTO   H84 7052   4.242   5.653   1.160  0.2703  0.2466 -0.0812
   17CHTO   C44 7053   4.387   5.806   1.166 -0.1206  0.2744  0.3125
   17CHTO   H86 7054   4.405   5.907   1.130  2.5220  0.3266  1.6611
   17CHTO   O32 7055   4.383   5.795   1.309 -0.1454  0.0039 -0.4348
   17CHTO   H69 7056   4.410   5.873   1.354 -1.8603  2.1664 -3.0006
   17CHTO   C48 7057   4.506   5.720   1.101  0.1108  0.0825 -0.3729
   17CHTO   H90 7058   4.503   5.614   1.125  1.0166  0.3045  0.7657
   17CHTO    N9 7059   4.647   5.757   1.155 -0.1403  0.3769 -0.8516
   17CHTO   H77 7060   4.622   5.793   1.254  1.3415 -1.0140  0.0671
   17CHTO   H78 7061   4.714   5.672   1.166  2.4771  2.5271  0.4364
   17CHTO   C51 7062   4.498   5.740   0.945 -0.5070  0.3003 -0.1408
   17CHTO   H93 7063   4.485   5.846   0.922 -0.4732  0.3110 -0.1147
   17CHTO   O30 7064   4.381   5.667   0.912 -0.7074  0.1262  0.1021
   17CHTO   C46 7065   4.244   5.737   0.964 -0.2491  0.3620 -0.0639
   17CHTO   H88 7066   4.251   5.838   0.923  2.3284  1.2213  2.3637
   17CHTO   C53 7067   4.123   5.646   0.909  0.6118  0.0975 -0.0846
   17CHTO   O72 7068   4.123   5.682   0.771  0.1713 -0.0691 -0.4394
   17CHTO  H199 7069   4.035   5.702   0.749  0.2979  0.3663 -0.5561
   17CHTO   O22 7070   4.606   5.671   0.873 -0.1387  0.8739  0.0185
   17CHTO   C31 7071   4.642   5.708   0.733 -0.2398  0.2673  0.0739
   17CHTO   H59 7072   4.728   5.645   0.703  0.7061  1.8414 -0.5973
   17CHTO   C29 7073   4.536   5.696   0.620 -0.4333 -0.3145  0.0127
   17CHTO   H57 7074   4.457   5.768   0.645 -0.4205 -0.2760 -0.0573
   17CHTO   O21 7075   4.480   5.568   0.631  0.5055  0.3097  0.6986
   17CHTO   H37 7076   4.435   5.567   0.713 -0.7966  0.6384 -0.0083
   17CHTO   C27 7077   4.596   5.718   0.473 -0.5596 -0.6350  0.3662
   17CHTO   H55 7078   4.679   5.649   0.453 -0.8584 -0.7365 -0.5316
   17CHTO    N5 7079   4.492   5.710   0.368 -0.0238 -0.5081  0.1649
   17CHTO   H43 7080   4.447   5.612   0.368 -0.6150 -0.2386  0.5170
   17CHTO   H44 7081   4.535   5.732   0.272 -1.7619  0.4455 -0.4068
   17CHTO   C25 7082   4.668   5.857   0.470  0.0102 -0.1372  0.5364
   17CHTO   H53 7083   4.597   5.940   0.458 -2.1902 -2.0487  0.0289
   17CHTO   O17 7084   4.750   5.876   0.593  0.2506 -0.7243  0.0986
   17CHTO   C32 7085   4.696   5.854   0.718  0.1702  0.9608 -0.4147
   17CHTO   H60 7086   4.617   5.922   0.750 -1.5646 -1.2829  0.1443
   17CHTO   C36 7087   4.804   5.875   0.825  0.6054 -0.5143 -0.2959
   17CHTO   O25 7088   4.816   6.021   0.846  0.0630 -0.1347  0.0915
   17CHTO   H40 7089   4.858   6.041   0.928  1.2027 -1.2564 -0.2035
   17CHTO   O15 7090   4.762   5.873   0.347  0.2198  0.3192 -0.5224
   17CHTO   C19 7091   4.799   6.008   0.304 -0.5762  0.1758  0.0292
   17CHTO   H47 7092   4.834   5.982   0.203 -0.1141 -1.1851  0.5294
   17CHTO   C20 7093   4.686   6.113   0.286  0.3250  0.3626  0.6441
   17CHTO   H48 7094   4.621   6.122   0.374 -1.1015 -1.0236 -0.2384
   17CHTO   O19 7095   4.604   6.050   0.180  0.2184  0.3692 -0.0007
   17CHTO   H35 7096   4.557   5.979   0.220  0.8369  0.9054  1.7279
   17CHTO   C21 7097   4.735   6.258   0.253 -0.4301 -0.6464 -0.3058
   17CHTO   H49 7098   4.781   6.247   0.155  1.1367 -0.7809  0.4194
   17CHTO    N4 7099   4.620   6.355   0.241  0.0527 -0.1186  0.5123
   17CHTO   H41 7100   4.629   6.439   0.308  0.9429 -0.6362  1.0534
   17CHTO   H42 7101   4.525   6.309   0.265  0.5237 -1.2522  0.2607
   17CHTO   C22 7102   4.844   6.299   0.351 -0.1632 -0.2623 -0.1190
   17CHTO   H50 7103   4.809   6.300   0.454  1.2616 -0.0545  0.3617
   17CHTO   O14 7104   4.954   6.203   0.336  0.4765  0.0243  0.1624
   17CHTO   C23 7105   4.925   6.068   0.377  0.0740 -0.2003 -0.0594
   17CHTO   H51 7106   4.910   6.066   0.485 -1.7570 -0.5082 -0.2977
   17CHTO   C34 7107   5.042   5.980   0.332 -0.5358  0.1527  0.3313
   17CHTO   O23 7108   5.167   6.014   0.406  0.4417 -0.3597 -0.2988
   17CHTO   H38 7109   5.157   5.990   0.496  1.8795 -2.3059 -0.6266
   17CHTO   O16 7110   4.896   6.425   0.305 -0.4295 -0.2028 -0.0201
   17CHTO   C24 7111   4.977   6.507   0.423 -1.0635  0.0629 -0.1668
   17CHTO   H52 7112   4.996   6.443   0.510  0.2370  0.2171 -0.3279
   17CHTO   C26 7113   4.891   6.621   0.469 -0.8999  0.3957 -0.3094
   17CHTO   H54 7114   4.853   6.676   0.381 -0.2126  3.2030  1.0743
   17CHTO   O20 7115   4.779   6.558   0.537  0.0032  0.1683  0.4639
   17CHTO   H36 7116   4.730   6.615   0.592 -1.9630 -0.5043 -0.5350
   17CHTO   C30 7117   4.957   6.730   0.551 -0.2106  0.1670 -0.4014
   17CHTO   H58 7118   4.979   6.691   0.651 -1.0507  0.6532 -0.0205
   17CHTO    N6 7119   4.871   6.849   0.567  0.0161  0.0693  0.6917
   17CHTO   H45 7120   4.877   6.898   0.663 -0.1899  0.5338  0.4690
   17CHTO   H46 7121   4.874   6.930   0.495  0.9464  0.7980  1.5362
   17CHTO   C33 7122   5.100   6.769   0.498  0.1220  0.5113 -0.0716
   17CHTO   H61 7123   5.082   6.814   0.399 -1.7451  0.5899  0.2857
   17CHTO   O18 7124   5.172   6.643   0.475 -0.2783  0.4690  0.1545
   17CHTO   C28 7125   5.114   6.561   0.367 -0.6410 -0.3890  0.1508
   17CHTO   H56 7126   5.100   6.623   0.279 -0.0664  0.4643  0.6440
   17CHTO   C35 7127   5.215   6.435   0.336 -0.0357 -0.3928 -0.2171
   17CHTO   O24 7128   5.348   6.472   0.312  0.0822  0.0122 -0.2530
   17CHTO   H39 7129   5.401   6.394   0.308  0.2283 -0.0258  1.9106
   17CHTO    O9 7130   5.177   6.868   0.572 -0.2968  0.1853 -0.4321
   17CHTO   C13 7131   5.288   6.967   0.457  0.1875  0.3356  0.1944
   17CHTO   H26 7132   5.318   6.905   0.370  0.6060  1.5017 -0.5044
   17CHTO   C11 7133   5.413   7.027   0.534 -0.8614 -0.7434 -0.4145
   17CHTO   H24 7134   5.487   6.950   0.561 -0.7664 -0.6834 -0.5027
   17CHTO    O8 7135   5.369   7.092   0.653  0.3574  0.1782  0.7236
   17CHTO    H3 7136   5.327   7.028   0.707 -0.4383  0.3679  0.3443
   17CHTO    C9 7137   5.496   7.123   0.439 -0.1605  0.1184  0.1635
   17CHTO   H22 7138   5.524   7.063   0.352 -1.1709 -1.1804  0.7206
   17CHTO    N2 7139   5.626   7.172   0.489 -0.1684  0.2213 -0.0337
   17CHTO   H10 7140   5.641   7.118   0.581  0.8559 -1.0615 -0.9432
   17CHTO   H11 7141   5.702   7.155   0.414 -2.2559 -0.2936 -2.1068
   17CHTO    C7 7142   5.399   7.244   0.394  0.1259  0.1951 -0.3944
   17CHTO   H20 7143   5.453   7.283   0.306  0.8194 -1.7839 -0.8667
   17CHTO    O4 7144   5.275   7.192   0.337 -0.2707  0.6780  0.2328
   17CHTO   C14 7145   5.200   7.085   0.395  0.6281  0.0070  0.1768
   17CHTO   H27 7146   5.144   7.052   0.304 -1.6018 -0.0348  1.5213
   17CHTO   C18 7147   5.092   7.145   0.492 -0.2600  0.2209 -0.5467
   17CHTO   O13 7148   5.024   7.246   0.417 -0.0855 -0.1756  0.1855
   17CHTO    H7 7149   5.067   7.328   0.429 -1.5094  1.0620 -2.5035
   17CHTO    O2 7150   5.368   7.343   0.530 -0.1026  0.0834 -0.0342
   17CHTO    C1 7151   5.332   7.478   0.497  0.3890  0.2858  0.1463
   17CHTO   H14 7152   5.256   7.485   0.417  0.6444  0.6283 -0.0678
   17CHTO    C2 7153   5.460   7.564   0.448 -0.2326 -0.3832 -0.1404
   17CHTO   H15 7154   5.533   7.539   0.526 -0.1056 -3.2700 -1.1234
   17CHTO    O6 7155   5.518   7.505   0.331 -0.7392 -0.4303  0.1274
   17CHTO    H1 7156   5.583   7.562   0.297 -0.6025  0.0293  1.1416
   17CHTO    C3 7157   5.424   7.714   0.440  0.4485 -0.5791  0.3766
   17CHTO   H16 7158   5.365   7.733   0.349  0.0883 -3.0013  0.0797
   17CHTO    N1 7159   5.537   7.807   0.436  0.3083 -0.0787 -0.1577
   17CHTO    H8 7160   5.510   7.911   0.426 -1.8926 -0.7851 -1.7687
   17CHTO    H9 7161   5.605   7.783   0.517  0.2683  0.5292  0.0598
   17CHTO    C4 7162   5.336   7.759   0.562 -0.1755  0.0519  0.2599
   17CHTO   H17 7163   5.395   7.757   0.654  1.1151 -0.2709 -0.5617
   17CHTO    O1 7164   5.223   7.671   0.576  0.7087  0.0975 -0.1471
   17CHTO    C5 7165   5.263   7.542   0.623 -0.5372 -0.3620  0.1561
   17CHTO   H18 7166   5.331   7.548   0.709 -1.1632 -2.0172  0.7999
   17CHTO   C16 7167   5.135   7.475   0.670 -0.6422 -0.5363  0.1954
   17CHTO   O11 7168   5.078   7.514   0.796  0.4170  0.8688 -0.1385
   17CHTO    H5 7169   5.019   7.586   0.782  0.5015  0.5881 -2.0684
   17CHTO    O3 7170   5.274   7.888   0.552  0.1476  0.6088  0.0210
   17CHTO    C6 7171   5.247   7.957   0.681  0.2479  0.0545 -0.5607
   17CHTO   H19 7172   5.175   8.038   0.672  1.3891  1.0602 -0.7114
   17CHTO    C8 7173   5.163   7.861   0.782 -0.5302 -1.1530  0.9978
   17CHTO   H21 7174   5.221   7.769   0.793  1.4389 -0.0444  0.2654
   17CHTO    O7 7175   5.028   7.843   0.730  0.8134  0.4326 -0.3317
   17CHTO    H2 7176   4.971   7.794   0.785 -0.1360  0.7141 -1.0476
   17CHTO   C12 7177   5.153   7.931   0.932  0.1213  0.8042 -0.0762
   17CHTO   H25 7178   5.088   8.021   0.921  1.3376  1.5071 -1.7442
   17CHTO    N3 7179   5.091   7.842   1.037  0.2507  0.0457 -0.5862
   17CHTO   H12 7180   5.051   7.896   1.121  0.6204  0.8585 -0.9278
   17CHTO   H13 7181   5.022   7.770   0.996 -0.2909  0.2656 -0.0737
   17CHTO   C15 7182   5.294   7.970   0.976 -0.0342  0.5767 -0.4508
   17CHTO   H28 7183   5.362   7.885   0.971 -0.0978  0.3362  2.1813
   17CHTO   O10 7184   5.309   8.058   1.115 -0.0208  0.3676  0.2610
   17CHTO    H4 7185   5.245   8.023   1.174 -0.2399  1.7766  0.8992
   17CHTO    O5 7186   5.336   8.069   0.883  0.7187 -0.0204  0.6496
   17CHTO   C10 7187   5.371   8.011   0.754 -0.0899  0.3049  0.2763
   17CHTO   H23 7188   5.456   7.947   0.776 -1.5628 -1.3913  1.1471
   17CHTO   C17 7189   5.434   8.113   0.654 -1.1747  0.2346  0.3177
   17CHTO   O12 7190   5.548   8.175   0.718 -0.1005 -0.0956  0.5518
   17CHTO    H6 7191   5.618   8.195   0.659 -1.5845  0.3752 -1.1155
   18CHTO  H203 7192   6.426   7.719   1.742  0.7074 -0.8987 -1.3580
   18CHTO   O82 7193   6.447   7.806   1.714 -0.1168 -0.1265  0.3615
   18CHTO  C123 7194   6.509   7.803   1.584  0.0456 -0.8645  0.4512
   18CHTO  H227 7195   6.611   7.764   1.589  0.4949  0.5395  2.7153
   18CHTO   O77 7196   6.417   7.710   1.514 -0.4808 -0.1984 -0.3242
   18CHTO  C118 7197   6.455   7.680   1.379 -0.0856  0.4923  0.2953
   18CHTO  H222 7198   6.556   7.637   1.383 -0.5820 -0.6459  0.7910
   18CHTO  C125 7199   6.354   7.582   1.316  0.4475  0.0819  0.2522
   18CHTO   O84 7200   6.366   7.456   1.383 -0.3810  0.9255  0.8523
   18CHTO  H205 7201   6.337   7.472   1.471 -1.6916 -2.2676  1.0696
   18CHTO  C114 7202   6.452   7.814   1.294 -0.4544  0.0288  0.1227
   18CHTO  H218 7203   6.357   7.864   1.307  0.4945  1.7801  0.3712
   18CHTO  C116 7204   6.546   7.922   1.360  1.0596 -0.6120  0.3086
   18CHTO  H220 7205   6.653   7.897   1.349  1.3352  0.7692 -0.2725
   18CHTO   O79 7206   6.528   8.052   1.297 -0.0809  0.3846 -0.5906
   18CHTO  H201 7207   6.554   8.044   1.207 -1.5934 -4.3624 -0.7672
   18CHTO  C120 7208   6.506   7.943   1.512 -0.1905  0.0862  0.0524
   18CHTO  H224 7209   6.402   7.982   1.509  1.0433  3.5465  0.1370
   18CHTO   N21 7210   6.598   8.035   1.586 -0.4644 -0.2649  0.1752
   18CHTO  H211 7211   6.614   8.016   1.691 -1.4441  1.0390  0.5655
   18CHTO  H212 7212   6.544   8.128   1.590 -1.3868 -0.8259  0.9977
   18CHTO   O75 7213   6.494   7.770   1.163  0.0499 -0.5543 -0.3398
   18CHTO  C112 7214   6.651   7.743   1.126 -1.1729 -1.0293 -0.2754
   18CHTO  H216 7215   6.713   7.717   1.212 -1.4227 -1.3138 -0.1771
   18CHTO   O73 7216   6.697   7.864   1.063  0.0268  0.0678 -0.4938
   18CHTO  C113 7217   6.836   7.868   1.016  0.0929  1.0027  0.7178
   18CHTO  H217 7218   6.904   7.862   1.103  3.7064 -2.2862 -2.1561
   18CHTO  C124 7219   6.865   7.996   0.943 -0.0565 -0.3331  0.0666
   18CHTO   O83 7220   6.834   8.122   1.006 -0.6791 -0.4255  0.5073
   18CHTO  H204 7221   6.919   8.159   1.018 -1.4647  2.8896 -3.2946
   18CHTO  C109 7222   6.852   7.762   0.915 -0.2065 -0.1050  0.2896
   18CHTO  H213 7223   6.784   7.789   0.833 -0.6033 -0.8846  0.3599
   18CHTO  C110 7224   6.806   7.623   0.976  0.1956 -0.1582 -0.2985
   18CHTO  H214 7225   6.884   7.604   1.050 -2.1723 -2.1322  1.7247
   18CHTO   O78 7226   6.811   7.532   0.869 -0.6502  1.4907  0.0685
   18CHTO  H200 7227   6.769   7.454   0.900  1.7424  0.2748  0.3894
   18CHTO  C111 7228   6.661   7.619   1.036 -0.2366  0.2752  0.1395
   18CHTO  H215 7229   6.596   7.625   0.947  0.9519  1.4864 -0.6687
   18CHTO   N19 7230   6.636   7.486   1.102 -0.0219 -0.9908 -0.2432
   18CHTO  H207 7231   6.529   7.476   1.115 -0.9484  4.0181 -2.9330
   18CHTO  H208 7232   6.670   7.406   1.038 -1.7697 -2.9391  1.1469
   18CHTO   O74 7233   6.993   7.751   0.862  0.4243 -0.1001 -0.3391
   18CHTO  C115 7234   6.987   7.733   0.700 -0.4440  0.3308  0.1333
   18CHTO  H219 7235   6.935   7.642   0.668  0.8448 -0.1977 -0.5337
   18CHTO   O76 7236   6.910   7.862   0.625 -0.3083  0.2160 -0.0872
   18CHTO  C122 7237   7.001   7.974   0.604 -0.0727 -0.5359  0.1060
   18CHTO  H226 7238   7.046   8.010   0.696 -2.1796  0.7944  0.6419
   18CHTO  C126 7239   6.926   8.101   0.538 -0.5838  0.1302 -0.2461
   18CHTO   O85 7240   6.850   8.073   0.429 -0.4181 -0.3132 -0.4430
   18CHTO  H206 7241   6.911   8.047   0.362  0.5575 -2.5401  1.2576
   18CHTO  C121 7242   7.115   7.941   0.506  0.6608  0.0199  0.2584
   18CHTO  H225 7243   7.082   7.962   0.402  0.0409 -0.5237  0.3397
   18CHTO   O81 7244   7.222   8.034   0.526 -0.4529 -0.1227 -0.5779
   18CHTO  H202 7245   7.183   8.119   0.521 -0.7751 -0.1415  1.4120
   18CHTO  C119 7246   7.155   7.784   0.515 -0.3289  0.0505  0.4251
   18CHTO  H223 7247   7.081   7.739   0.449 -1.8869  0.9651  1.5194
   18CHTO  C117 7248   7.143   7.731   0.660  0.9667  0.4885 -0.0410
   18CHTO  H221 7249   7.203   7.780   0.737  0.2997  0.0244  0.7823
   18CHTO   N20 7250   7.177   7.589   0.676  0.5104  0.0542 -0.7073
   18CHTO  H209 7251   7.118   7.511   0.630 -0.5244 -1.4415  2.9102
   18CHTO  H210 7252   7.240   7.560   0.759  0.0572  0.9299 -0.0473
   18CHTO   O80 7253   7.292   7.768   0.435 -0.2372 -0.6369  0.2514
   18CHTO  C103 7254   7.290   7.706   0.265 -0.4924 -0.1627 -0.0958
   18CHTO  H190 7255   7.389   7.709   0.220 -0.5035  1.5943 -0.0403
   18CHTO  C101 7256   7.235   7.551   0.257  0.1458  0.2849 -0.0979
   18CHTO  H188 7257   7.146   7.540   0.320  1.3876  0.7615  1.7668
   18CHTO   O68 7258   7.355   7.456   0.293 -0.4918 -0.2059 -0.0192
   18CHTO  H168 7259   7.426   7.501   0.334  0.2459 -1.1969 -0.1674
   18CHTO   C99 7260   7.207   7.512   0.098 -0.6410 -0.1819  0.1986
   18CHTO  H186 7261   7.297   7.525   0.034 -0.0331  0.7599  1.2210
   18CHTO   N17 7262   7.146   7.372   0.090  0.2260  0.1171  0.1863
   18CHTO  H174 7263   7.217   7.312   0.145 -1.4454  0.0446  2.3804
   18CHTO  H175 7264   7.049   7.377   0.139 -0.0649 -1.2567 -0.2484
   18CHTO   C97 7265   7.108   7.619   0.043  0.8892  0.7504 -0.8485
   18CHTO  H184 7266   7.019   7.617   0.108  1.7087 -0.0554  0.2557
   18CHTO   O64 7267   7.170   7.746   0.045  0.7909 -0.2831 -0.4607
   18CHTO  C104 7268   7.196   7.800   0.175  0.3190  0.2068 -0.0435
   18CHTO  H191 7269   7.100   7.816   0.224 -0.1271  2.0154 -1.4472
   18CHTO  C108 7270   7.253   7.938   0.166  0.6045 -0.1381  0.2172
   18CHTO   O71 7271   7.378   7.944   0.097 -0.1079 -0.1538 -0.0888
   18CHTO  H171 7272   7.439   7.879   0.126 -1.7019 -0.3487  3.0107
   18CHTO   O62 7273   7.060   7.609  -0.087  0.3405 -0.3177  0.1643
   18CHTO   C91 7274   6.925   7.632  -0.113  0.2276 -0.5823 -0.0113
   18CHTO  H178 7275   6.863   7.576  -0.043 -0.8067 -0.4422 -0.8108
   18CHTO   C92 7276   6.901   7.549  -0.247 -0.0436  0.3012  0.3691
   18CHTO  H179 7277   6.979   7.575  -0.321  0.4076  1.6145  1.2939
   18CHTO   O66 7278   6.918   7.404  -0.227 -0.1224 -0.1514  0.4359
   18CHTO  H166 7279   6.940   7.396  -0.136  0.5372  0.7387  0.3668
   18CHTO   C93 7280   6.762   7.568  -0.322  1.4250 -0.0451  0.3764
   18CHTO  H180 7281   6.682   7.517  -0.267 -0.0802  0.3458 -1.4057
   18CHTO   N16 7282   6.745   7.509  -0.459  0.2785 -0.7274 -0.7272
   18CHTO  H172 7283   6.641   7.479  -0.466 -0.5028  1.3034  1.4847
   18CHTO  H173 7284   6.802   7.417  -0.464  0.9872 -0.1975 -2.9162
   18CHTO   C94 7285   6.727   7.720  -0.323  0.3162 -0.2631  0.3139
   18CHTO  H181 7286   6.777   7.776  -0.403 -0.8628  0.6282  0.1864
   18CHTO   O61 7287   6.749   7.789  -0.197  0.6848 -0.1516  0.0992
   18CHTO   C95 7288   6.883   7.781  -0.139  1.0985 -0.4746 -0.4224
   18CHTO  H182 7289   6.955   7.823  -0.209  2.2708 -3.2162 -0.9307
   18CHTO  C106 7290   6.878   7.869  -0.009  0.4544 -0.4050 -0.4963
   18CHTO   O69 7291   6.836   8.002  -0.048  0.0675  0.2307 -0.1758
   18CHTO  H169 7292   6.801   8.057   0.019  0.5723  0.9624 -0.5136
   18CHTO   O63 7293   6.571   7.728  -0.340 -0.8588  1.0296 -0.7485
   18CHTO   C96 7294   6.510   7.828  -0.439 -0.5413  0.4215 -0.0020
   18CHTO  H183 7295   6.402   7.812  -0.434 -0.3122 -0.5191  2.5947
   18CHTO   C98 7296   6.563   7.814  -0.581  0.1908 -0.1533  0.6212
   18CHTO  H185 7297   6.673   7.814  -0.582  0.1884 -0.1653  0.0530
   18CHTO   O67 7298   6.528   7.683  -0.634  0.1641 -0.1721 -0.1338
   18CHTO  H167 7299   6.435   7.676  -0.633 -0.0318  2.1606  0.5604
   18CHTO  C102 7300   6.497   7.930  -0.672 -0.5012 -0.1814  0.0197
   18CHTO  H189 7301   6.389   7.910  -0.669 -1.2747  3.8099  2.3071
   18CHTO   N18 7302   6.533   7.927  -0.819 -0.4298 -0.3119 -0.1125
   18CHTO  H176 7303   6.636   7.946  -0.844 -1.0364  0.4274 -2.2188
   18CHTO  H177 7304   6.508   7.829  -0.856  0.0411 -0.2902 -0.4843
   18CHTO  C105 7305   6.513   8.074  -0.608 -0.1675  0.7864 -0.1799
   18CHTO  H192 7306   6.620   8.095  -0.617  0.3868 -1.7887  0.0328
   18CHTO   O65 7307   6.479   8.066  -0.467 -0.2099  0.5060  0.5428
   18CHTO  C100 7308   6.550   7.973  -0.392  0.3921  1.0961  1.0319
   18CHTO  H187 7309   6.656   7.992  -0.414  0.3399 -0.4301 -0.6666
   18CHTO  C107 7310   6.509   7.997  -0.241 -0.1860  0.3947 -0.4797
   18CHTO   O70 7311   6.554   8.118  -0.200  0.1926  0.2247 -0.3432
   18CHTO  H170 7312   6.561   8.124  -0.107  1.1292 -1.2853 -0.3043
   18CHTO   O57 7313   6.400   8.193  -0.674 -0.6471  0.1281  0.0515
   18CHTO   C85 7314   6.413   8.331  -0.629 -0.2029 -0.0825  0.0783
   18CHTO  H157 7315   6.523   8.340  -0.616 -0.3458  1.4217  0.3675
   18CHTO   C83 7316   6.338   8.355  -0.493 -1.1490 -0.0695 -0.2000
   18CHTO  H155 7317   6.380   8.292  -0.415  0.0234 -0.4390 -1.1081
   18CHTO   O56 7318   6.200   8.308  -0.501  0.1943  0.2163  0.0897
   18CHTO  H135 7319   6.154   8.329  -0.423 -0.9553  1.0761 -0.8043
   18CHTO   C81 7320   6.350   8.503  -0.457 -0.9951 -0.1463  0.3208
   18CHTO  H153 7321   6.454   8.531  -0.442 -1.1915  0.7297  0.1088
   18CHTO   N14 7322   6.293   8.536  -0.330 -0.3707 -0.8101  0.2002
   18CHTO  H141 7323   6.189   8.511  -0.331 -0.8327  1.0648 -0.6736
   18CHTO  H142 7324   6.305   8.639  -0.303  0.7518 -0.9558  0.2835
   18CHTO   C79 7325   6.291   8.599  -0.571  0.4707 -0.2968  0.1796
   18CHTO  H151 7326   6.318   8.701  -0.545 -2.0066  0.1236  1.2303
   18CHTO   O52 7327   6.342   8.570  -0.707 -0.1089 -0.0368  0.5083
   18CHTO   C86 7328   6.354   8.427  -0.746  0.2913  0.3715 -0.5723
   18CHTO  H158 7329   6.249   8.400  -0.768  0.2655 -0.0074  0.0120
   18CHTO   C90 7330   6.433   8.426  -0.882 -0.3306  0.0799  0.6555
   18CHTO   O60 7331   6.569   8.479  -0.882  0.4201  0.3415 -0.3691
   18CHTO  H138 7332   6.627   8.441  -0.819  0.3691  0.5282 -0.2076
   18CHTO   O50 7333   6.148   8.599  -0.574 -0.1959 -0.4550  0.3257
   18CHTO   C73 7334   6.041   8.674  -0.634  0.1349 -0.5392  0.1967
   18CHTO  H145 7335   6.059   8.688  -0.741 -1.4165 -0.9416 -0.1312
   18CHTO   C74 7336   6.035   8.816  -0.561 -0.0193  0.0363 -0.5172
   18CHTO  H146 7337   6.127   8.870  -0.590 -0.2209  1.6196  1.6976
   18CHTO   O54 7338   5.927   8.885  -0.625 -0.0329  0.2401  0.9067
   18CHTO  H133 7339   5.940   8.977  -0.613  1.3554  0.3880 -1.4516
   18CHTO   C75 7340   6.026   8.799  -0.407 -0.8950 -0.1362 -0.2945
   18CHTO  H147 7341   6.122   8.760  -0.370  0.4587  0.8606 -2.6873
   18CHTO   N13 7342   6.025   8.930  -0.339 -0.0003  0.3219  0.3278
   18CHTO  H139 7343   5.948   8.923  -0.263  0.4075  1.1627  0.8260
   18CHTO  H140 7344   6.119   8.957  -0.293  0.4916 -2.2671  0.9315
   18CHTO   C76 7345   5.899   8.697  -0.372 -0.0089 -0.2379  0.2479
   18CHTO  H148 7346   5.803   8.747  -0.381 -0.0650 -0.5710 -1.1531
   18CHTO   O49 7347   5.887   8.585  -0.467 -0.6770 -0.9782 -0.2415
   18CHTO   C77 7348   5.909   8.594  -0.608 -0.0047  0.0712 -0.5125
   18CHTO  H149 7349   5.830   8.646  -0.663 -0.3825  1.4135  1.2488
   18CHTO   C88 7350   5.915   8.452  -0.666  0.1359 -0.0187 -0.4127
   18CHTO   O58 7351   5.944   8.466  -0.812  0.0468  0.4480 -0.6845
   18CHTO  H136 7352   5.912   8.390  -0.858 -2.6272  0.7783  0.5437
   18CHTO   O51 7353   5.919   8.635  -0.230  0.2551 -0.4591  0.3937
   18CHTO   C78 7354   5.802   8.553  -0.155  0.0838  0.0160 -0.2883
   18CHTO  H150 7355   5.755   8.483  -0.228  0.4577  0.6803 -1.1710
   18CHTO   C80 7356   5.700   8.658  -0.102 -0.2032 -0.2451  1.0453
   18CHTO  H152 7357   5.754   8.746  -0.061 -0.8167 -0.4664  2.3417
   18CHTO   O55 7358   5.625   8.714  -0.218 -0.1993 -0.3645 -0.1491
   18CHTO  H134 7359   5.551   8.662  -0.242 -1.9607  1.7042  0.6508
   18CHTO   C84 7360   5.603   8.601   0.014 -0.5311 -0.3630  0.0036
   18CHTO  H156 7361   5.541   8.530  -0.039 -0.4980  0.4503 -1.1319
   18CHTO   N15 7362   5.526   8.704   0.097 -0.0515  0.5451 -0.2195
   18CHTO  H143 7363   5.512   8.675   0.199  1.9954 -1.9598 -0.5784
   18CHTO  H144 7364   5.562   8.804   0.091 -0.4815  0.9671  3.0596
   18CHTO   C87 7365   5.692   8.516   0.103  0.2292 -0.5075 -0.7626
   18CHTO  H159 7366   5.763   8.583   0.152 -0.2887 -1.2457  1.0194
   18CHTO   O53 7367   5.766   8.415   0.032 -0.4120 -0.9153  0.0015
   18CHTO   C82 7368   5.872   8.466  -0.047 -0.1671  0.1787 -0.9232
   18CHTO  H154 7369   5.940   8.536   0.002  0.0400  1.7502 -3.3862
   18CHTO   C89 7370   5.962   8.359  -0.118 -0.7897  0.3199  0.0548
   18CHTO   O59 7371   6.032   8.291  -0.009 -0.2132 -0.5491 -0.8385
   18CHTO  H137 7372   5.972   8.241   0.043  0.0227 -0.0468 -0.0660
   18CHTO   O45 7373   5.608   8.438   0.224  0.3617  0.0950 -0.5628
   18CHTO   C67 7374   5.689   8.448   0.346 -0.8967 -0.4591 -0.0320
   18CHTO  H124 7375   5.791   8.471   0.313 -1.2901 -0.7311 -1.4643
   18CHTO   C65 7376   5.642   8.559   0.437 -0.3011 -0.5466 -0.0593
   18CHTO  H122 7377   5.536   8.561   0.409 -0.9146 -1.5352  2.1222
   18CHTO   O44 7378   5.706   8.682   0.401  0.5539 -0.0834 -0.7597
   18CHTO  H102 7379   5.702   8.700   0.309  0.6928 -0.8095 -0.9086
   18CHTO   C63 7380   5.652   8.525   0.588  0.5001 -0.0905 -0.5914
   18CHTO  H120 7381   5.578   8.447   0.608  0.0571 -0.0687 -2.0747
   18CHTO   N11 7382   5.615   8.624   0.690  0.6722 -0.0445  0.2628
   18CHTO  H108 7383   5.516   8.653   0.664  0.8722 -0.4716 -1.0521
   18CHTO  H109 7384   5.683   8.707   0.683 -1.0746  1.1821 -3.3233
   18CHTO   C61 7385   5.792   8.451   0.610  0.2062 -0.2723  0.8171
   18CHTO  H118 7386   5.804   8.429   0.717  1.7711 -0.8926  0.5232
   18CHTO   O40 7387   5.794   8.329   0.540  0.4269 -0.2030  0.3746
   18CHTO   C68 7388   5.706   8.315   0.424 -0.0872 -0.3850  0.2655
   18CHTO  H125 7389   5.605   8.277   0.453 -0.1973 -1.0067 -0.9029
   18CHTO   C72 7390   5.765   8.210   0.336  0.6203  0.7238 -0.6664
   18CHTO   O48 7391   5.793   8.085   0.390 -0.9372 -0.2435 -0.0246
   18CHTO  H105 7392   5.824   8.024   0.326 -0.0738  2.0024 -1.8082
   18CHTO   O38 7393   5.908   8.519   0.559  0.1213 -0.0052  0.1717
   18CHTO   C55 7394   6.033   8.467   0.615 -0.3420 -0.0024 -0.3638
   18CHTO  H112 7395   6.030   8.363   0.648 -0.8622 -0.1526 -0.8775
   18CHTO   C56 7396   6.082   8.564   0.730 -0.0707 -0.5892 -0.2825
   18CHTO  H113 7397   6.084   8.662   0.681 -1.2878 -0.4751 -0.1041
   18CHTO   O42 7398   5.989   8.567   0.843  0.5706  0.2269  0.2382
   18CHTO  H100 7399   6.006   8.489   0.892  0.7454  1.1479  1.6398
   18CHTO   C57 7400   6.225   8.529   0.781  0.2140  0.3544  0.2915
   18CHTO  H114 7401   6.204   8.436   0.834 -3.1672  1.7043  1.4106
   18CHTO   N10 7402   6.286   8.622   0.878  0.9238 -0.4259  0.3777
   18CHTO  H106 7403   6.320   8.561   0.960 -1.5378  0.9346  2.4602
   18CHTO  H107 7404   6.210   8.690   0.914  0.7977 -0.4526  0.1566
   18CHTO   C58 7405   6.319   8.499   0.658  0.2771 -0.0787 -0.1414
   18CHTO  H115 7406   6.338   8.592   0.600  0.9193 -0.0672  0.0837
   18CHTO   O37 7407   6.260   8.409   0.565  0.1681  0.1118  0.0369
   18CHTO   C59 7408   6.145   8.473   0.506  0.2304 -0.2382 -0.8605
   18CHTO  H116 7409   6.166   8.573   0.470 -3.6597  1.3503  1.0476
   18CHTO   C70 7410   6.109   8.381   0.387 -0.0656 -0.5715  0.1166
   18CHTO   O46 7411   6.039   8.454   0.288  0.5812  0.0349 -0.4228
   18CHTO  H103 7412   5.947   8.461   0.307  0.7606  0.5182  0.3096
   18CHTO   O39 7413   6.461   8.422   0.711  0.5913  0.1027  0.1349
   18CHTO   C60 7414   6.438   8.280   0.746  0.3540 -0.0489 -0.7457
   18CHTO  H117 7415   6.334   8.276   0.778 -0.5932  2.3013 -3.3092
   18CHTO   C62 7416   6.459   8.177   0.635  0.3463 -0.5533 -0.9909
   18CHTO  H119 7417   6.429   8.210   0.533  0.6145 -0.3693 -1.0125
   18CHTO   O43 7418   6.596   8.146   0.616 -1.0542 -0.3775 -0.4002
   18CHTO  H101 7419   6.605   8.059   0.580  0.5128  0.5442 -2.3048
   18CHTO   C66 7420   6.375   8.048   0.660  0.8559  0.8034  0.2977
   18CHTO  H123 7421   6.274   8.075   0.689 -0.2890 -4.0468  1.3780
   18CHTO   N12 7422   6.369   7.958   0.539 -0.1613 -0.3065 -0.0619
   18CHTO  H110 7423   6.377   7.853   0.559 -0.8989 -0.5676 -1.1006
   18CHTO  H111 7424   6.279   7.983   0.484 -0.1571  0.0614  0.0976
   18CHTO   C69 7425   6.427   7.976   0.787  0.1455 -0.2098  0.0465
   18CHTO  H126 7426   6.516   7.917   0.757  0.7607  0.7105  0.0332
   18CHTO   O41 7427   6.471   8.085   0.905  0.0525 -0.6120  0.3737
   18CHTO   C64 7428   6.523   8.231   0.866 -0.1086  0.0457 -0.3450
   18CHTO  H121 7429   6.627   8.235   0.828 -0.0674  1.7431 -0.0748
   18CHTO   C71 7430   6.509   8.332   0.988  0.2000 -0.1922  0.2343
   18CHTO   O47 7431   6.373   8.350   1.024  0.1106  0.1538  0.2493
   18CHTO  H104 7432   6.341   8.431   0.989  2.4916  0.8825 -0.3284
   18CHTO   O34 7433   6.314   7.876   0.826 -0.2353  0.8495  0.1924
   18CHTO   C49 7434   6.215   7.867   0.938  0.2554 -0.2603  0.4987
   18CHTO   H91 7435   6.253   7.789   1.005 -0.6512  0.2162  1.5857
   18CHTO   C47 7436   6.080   7.830   0.871 -0.4515  0.8596  0.1642
   18CHTO   H89 7437   6.011   7.798   0.952 -0.0465  0.7842  0.4782
   18CHTO   O33 7438   6.099   7.717   0.776  0.1830  0.2017  0.4245
   18CHTO   H70 7439   6.132   7.757   0.698  1.1212  0.0998  0.7738
   18CHTO   C45 7440   6.024   7.965   0.787  0.0759 -0.4720  0.1963
   18CHTO   H87 7441   6.093   7.984   0.703 -1.1544 -0.5101 -0.8278
   18CHTO    N8 7442   5.895   7.930   0.728 -0.0372  0.5643  0.0686
   18CHTO   H75 7443   5.891   7.955   0.623 -0.4569  0.2569  0.0135
   18CHTO   H76 7444   5.827   7.992   0.784  1.7296  2.1059  0.5701
   18CHTO   C43 7445   6.041   8.101   0.876  0.3500 -0.2388  0.1127
   18CHTO   H85 7446   6.043   8.183   0.805  1.2509 -1.9241 -1.8564
   18CHTO   O29 7447   6.159   8.099   0.953  0.7387  0.2838 -0.2128
   18CHTO   C50 7448   6.202   7.985   1.028  0.3070 -0.6374 -0.4347
   18CHTO   H92 7449   6.299   8.014   1.070  0.0104 -1.0985  0.5835
   18CHTO   C54 7450   6.123   7.955   1.152 -0.4627 -0.8165 -0.5438
   18CHTO   O36 7451   6.118   8.052   1.260  0.2855  0.8121  0.0764
   18CHTO   H72 7452   6.200   8.095   1.267  0.4577  0.3165  1.3073
   18CHTO   O27 7453   5.941   8.117   0.968  0.3738  0.1528 -0.5131
   18CHTO   C37 7454   5.858   8.186   1.067  0.1305 -0.0199 -1.3651
   18CHTO   H79 7455   5.868   8.130   1.161 -0.2876 -2.0697 -2.4946
   18CHTO   C38 7456   5.914   8.325   1.097 -0.7786 -0.0577  0.0174
   18CHTO   H80 7457   5.923   8.379   1.002  0.1905  2.2895  1.3769
   18CHTO   O31 7458   6.041   8.313   1.158  0.2089 -0.2068  0.1475
   18CHTO   H68 7459   6.107   8.378   1.144  2.1750 -1.8234  1.5760
   18CHTO   C39 7460   5.827   8.414   1.200 -0.9629  0.0427 -0.1359
   18CHTO   H81 7461   5.826   8.351   1.288  1.3059  0.2519  0.0683
   18CHTO    N7 7462   5.882   8.555   1.231  0.0715 -0.1183 -0.3796
   18CHTO   H73 7463   5.812   8.637   1.223  0.1797 -0.1141 -1.3530
   18CHTO   H74 7464   5.926   8.562   1.330 -1.2904 -1.5171  0.3364
   18CHTO   C40 7465   5.684   8.416   1.123 -0.4062  0.4480  0.3883
   18CHTO   H82 7466   5.700   8.462   1.026  1.5148 -0.7457  0.1189
   18CHTO   O26 7467   5.638   8.287   1.112  0.4047 -0.3242 -0.2772
   18CHTO   C41 7468   5.712   8.197   1.022 -0.4219 -0.2652  0.0751
   18CHTO   H83 7469   5.702   8.245   0.924  0.1074  0.3536  0.3220
   18CHTO   C52 7470   5.638   8.069   1.000 -0.6224  0.2797  0.9260
   18CHTO   O35 7471   5.618   7.991   1.115  0.7202  0.3027  0.7214
   18CHTO   H71 7472   5.541   7.943   1.090  1.1853 -0.3134  0.4498
   18CHTO   O28 7473   5.590   8.497   1.202  0.2988  0.2803  0.1182
   18CHTO   C42 7474   5.447   8.512   1.166  0.1498  0.1671  0.6511
   18CHTO   H84 7475   5.414   8.581   1.244  0.0294  1.3628 -0.4358
   18CHTO   C44 7476   5.358   8.384   1.176  0.7451  0.2526 -0.3494
   18CHTO   H86 7477   5.387   8.315   1.097 -0.5161  0.0071 -0.6044
   18CHTO   O32 7478   5.392   8.317   1.300 -0.3614  0.0023  0.4176
   18CHTO   H69 7479   5.315   8.291   1.346 -0.0914 -2.6609 -0.5954
   18CHTO   C48 7480   5.206   8.426   1.150  0.3998  0.0503  0.4497
   18CHTO   H90 7481   5.187   8.506   1.222  1.2076  0.6078  0.0518
   18CHTO    N9 7482   5.116   8.308   1.183  0.1113  0.0951 -0.0866
   18CHTO   H77 7483   5.011   8.313   1.159 -0.4145 -0.8653  1.9040
   18CHTO   H78 7484   5.169   8.217   1.159  2.9826  0.7054  3.4995
   18CHTO   C51 7485   5.205   8.478   0.997  0.0283 -0.7464 -0.3766
   18CHTO   H93 7486   5.252   8.398   0.939  2.7094 -0.3341  1.1673
   18CHTO   O30 7487   5.281   8.599   0.993  0.7480  0.9398  0.1363
   18CHTO   C46 7488   5.424   8.585   1.029  0.8941 -0.3854 -0.0885
   18CHTO   H88 7489   5.466   8.515   0.956  0.3982 -0.2106 -0.5406
   18CHTO   C53 7490   5.482   8.724   1.017 -0.5604 -0.1556 -0.1007
   18CHTO   O72 7491   5.616   8.728   1.057 -0.0107 -0.1229  0.2994
   18CHTO  H199 7492   5.623   8.804   1.111  1.4452 -0.2881  0.3670
   18CHTO   O22 7493   5.069   8.513   0.951  0.0874 -0.4844  0.4052
   18CHTO   C31 7494   5.039   8.508   0.799  0.4539  0.2410  0.5120
   18CHTO   H59 7495   4.931   8.528   0.782  0.7527 -0.6911 -2.6902
   18CHTO   C29 7496   5.114   8.615   0.713  0.4502 -0.1706 -1.2248
   18CHTO   H57 7497   5.222   8.596   0.725  0.7287  1.2729 -1.4178
   18CHTO   O21 7498   5.084   8.745   0.780  0.1320  0.3553 -0.0187
   18CHTO   H37 7499   4.998   8.773   0.755  0.5897  0.3312 -1.6295
   18CHTO   C27 7500   5.084   8.613   0.559  0.0371  0.1914  0.4574
   18CHTO   H55 7501   4.982   8.646   0.535 -0.4182 -2.1236 -0.9349
   18CHTO    N5 7502   5.180   8.688   0.474 -0.4801 -0.1162 -0.0946
   18CHTO   H43 7503   5.126   8.748   0.402 -1.3684 -1.2969 -0.4354
   18CHTO   H44 7504   5.243   8.747   0.538 -3.5738  1.4259  1.6800
   18CHTO   C25 7505   5.081   8.460   0.514  0.1630  0.0052  0.0681
   18CHTO   H53 7506   5.180   8.413   0.520  0.5907  1.0290  1.5700
   18CHTO   O17 7507   5.009   8.371   0.601  0.0229  0.1939  0.7059
   18CHTO   C32 7508   5.062   8.371   0.736  0.1788 -0.2111  1.1730
   18CHTO   H60 7509   5.168   8.344   0.736  0.2560  0.0907  1.5093
   18CHTO   C36 7510   4.997   8.256   0.817  0.5741  0.0351  0.4853
   18CHTO   O25 7511   4.851   8.279   0.832 -0.1248  0.2920  0.3730
   18CHTO   H40 7512   4.811   8.259   0.750  1.8562 -1.5956 -0.1942
   18CHTO   O15 7513   5.030   8.453   0.379  0.3116 -0.2649 -0.0623
   18CHTO   C19 7514   5.066   8.393   0.259  0.0373 -0.3729 -0.7541
   18CHTO   H47 7515   4.972   8.348   0.225  0.2609 -0.6665 -0.9806
   18CHTO   C20 7516   5.106   8.504   0.156  0.0383 -0.4553 -0.1246
   18CHTO   H48 7517   5.190   8.567   0.192  0.2233 -1.1285  0.6350
   18CHTO   O19 7518   4.996   8.599   0.146  0.0208 -0.3010 -0.4052
   18CHTO   H35 7519   5.011   8.657   0.218  0.8845 -2.5945  1.3520
   18CHTO   C21 7520   5.156   8.441   0.016  0.4628 -0.3787 -0.0448
   18CHTO   H49 7521   5.073   8.396  -0.038  0.0132  1.2796 -0.7879
   18CHTO    N4 7522   5.197   8.549  -0.078  0.3012  0.0217 -0.2928
   18CHTO   H41 7523   5.109   8.597  -0.116 -0.4611  0.4325  1.9107
   18CHTO   H42 7524   5.268   8.526  -0.156  0.0655  1.7370 -1.0317
   18CHTO   C22 7525   5.266   8.335   0.039 -0.3441  0.1195 -1.0014
   18CHTO   H50 7526   5.351   8.385   0.083 -1.9952  0.6678  1.6926
   18CHTO   O14 7527   5.205   8.237   0.123  0.3875 -0.4217 -0.0324
   18CHTO   C23 7528   5.177   8.283   0.261  0.1458  0.0635  0.4921
   18CHTO   H51 7529   5.275   8.322   0.292  0.3456  0.1483 -0.2517
   18CHTO   C34 7530   5.149   8.159   0.340 -0.2065  0.2591 -0.3391
   18CHTO   O23 7531   5.248   8.053   0.334  0.6835  0.0134 -0.6760
   18CHTO   H38 7532   5.249   8.003   0.413  1.6184  1.3354  0.1731
   18CHTO   O16 7533   5.300   8.256  -0.079  0.8613 -0.2553 -0.5183
   18CHTO   C24 7534   5.455   8.243  -0.099  0.2441 -0.2826 -0.4661
   18CHTO   H52 7535   5.511   8.303  -0.027 -0.9020  0.8060 -0.4792
   18CHTO   C26 7536   5.496   8.274  -0.244  0.1256 -0.4913 -0.2034
   18CHTO   H54 7537   5.421   8.226  -0.311  0.0915 -0.2387 -0.3466
   18CHTO   O20 7538   5.476   8.410  -0.272 -0.3839 -0.8706 -0.2582
   18CHTO   H36 7539   5.484   8.436  -0.361  0.5902 -1.3572 -0.3196
   18CHTO   C30 7540   5.630   8.220  -0.290 -0.0206 -0.1161  0.4243
   18CHTO   H58 7541   5.702   8.287  -0.240 -0.7971 -0.2004  1.6842
   18CHTO    N6 7542   5.645   8.223  -0.441  0.5815 -0.0490 -0.3579
   18CHTO   H45 7543   5.553   8.186  -0.484  0.5308 -1.0323  0.5920
   18CHTO   H46 7544   5.728   8.166  -0.478  0.3844 -0.2687 -0.4595
   18CHTO   C33 7545   5.666   8.079  -0.237 -0.1101  0.6096  0.5267
   18CHTO   H61 7546   5.610   7.997  -0.284  2.4002 -0.7935 -0.0937
   18CHTO   O18 7547   5.635   8.076  -0.096  0.0260  0.0150  0.4423
   18CHTO   C28 7548   5.490   8.094  -0.075 -0.3122 -0.1069 -0.5428
   18CHTO   H56 7549   5.431   8.028  -0.139 -2.8873 -0.5867  2.2422
   18CHTO   C35 7550   5.450   8.055   0.065  0.1641  0.0844 -0.8840
   18CHTO   O24 7551   5.520   8.122   0.172 -0.1535 -0.1797  0.2022
   18CHTO   H39 7552   5.482   8.105   0.255 -0.6570  4.2397  0.9892
   18CHTO    O9 7553   5.806   8.042  -0.264 -0.3808  0.4102  0.2159
   18CHTO   C13 7554   5.851   7.911  -0.200  0.0820  0.1822 -0.2673
   18CHTO   H26 7555   5.765   7.842  -0.190  0.0109  0.5311  1.8224
   18CHTO   C11 7556   5.916   7.936  -0.052 -0.2846 -0.0791 -0.5141
   18CHTO   H24 7557   5.838   7.987   0.006  0.2277  1.2004 -0.9157
   18CHTO    O8 7558   6.031   8.019  -0.045  0.0928  0.1185 -0.1858
   18CHTO    H3 7559   6.020   8.111  -0.060  1.4170  0.6082  1.6707
   18CHTO    C9 7560   5.945   7.795   0.001  0.5708  0.6049  0.2119
   18CHTO   H22 7561   5.852   7.736  -0.010 -0.2896  1.7746  1.0614
   18CHTO    N2 7562   5.980   7.791   0.147 -0.1424  0.1560 -0.3328
   18CHTO   H10 7563   5.916   7.716   0.191  0.6735 -0.2174  0.2208
   18CHTO   H11 7564   5.969   7.888   0.194  0.3904 -0.2048  0.5380
   18CHTO    C7 7565   6.056   7.727  -0.090  0.1585  0.8408  0.1758
   18CHTO   H20 7566   6.066   7.621  -0.057  0.9973  0.3599 -1.5780
   18CHTO    O4 7567   6.035   7.728  -0.230  0.0143  0.2909 -0.1425
   18CHTO   C14 7568   5.956   7.834  -0.289 -0.3963  0.6128 -0.2580
   18CHTO   H27 7569   5.898   7.793  -0.375 -1.2330  0.6173  0.2962
   18CHTO   C18 7570   6.067   7.919  -0.343  0.1188 -0.5259 -0.1235
   18CHTO   O13 7571   6.021   8.024  -0.431 -0.0670  0.4371 -0.0356
   18CHTO    H7 7572   6.085   8.092  -0.427  1.8498 -1.3674  0.7963
   18CHTO    O2 7573   6.199   7.812  -0.048 -0.1076 -0.4258  0.0756
   18CHTO    C1 7574   6.328   7.752  -0.027 -0.0496  0.5545 -0.3306
   18CHTO   H14 7575   6.390   7.805  -0.102  1.8222 -0.2996  0.5930
   18CHTO    C2 7576   6.337   7.593  -0.063 -0.4316 -0.2422  0.2156
   18CHTO   H15 7577   6.267   7.553   0.013  0.1837 -0.8542  0.4665
   18CHTO    O6 7578   6.303   7.572  -0.197  0.8777  0.0903  0.3846
   18CHTO    H1 7579   6.304   7.478  -0.198 -1.4949  0.0434 -0.8055
   18CHTO    C3 7580   6.488   7.550  -0.040  0.0275  0.0316  0.0624
   18CHTO   H16 7581   6.564   7.616  -0.086 -0.1031  0.2954  0.2304
   18CHTO    N1 7582   6.510   7.407  -0.084  0.6216 -0.1571 -0.2223
   18CHTO    H8 7583   6.615   7.399  -0.106  0.1324 -1.8827 -2.0129
   18CHTO    H9 7584   6.481   7.336  -0.008 -0.5196 -1.3065 -1.7121
   18CHTO    C4 7585   6.517   7.560   0.107 -0.2612  0.2070 -0.0949
   18CHTO   H17 7586   6.456   7.491   0.165  2.6789 -0.0399  2.8092
   18CHTO    O1 7587   6.503   7.698   0.144  0.4532  0.4339 -0.1516
   18CHTO    C5 7588   6.379   7.764   0.122  0.1768  0.1639  0.2475
   18CHTO   H18 7589   6.305   7.727   0.192 -0.0237  4.8512  2.6664
   18CHTO   C16 7590   6.406   7.907   0.159 -0.3629 -0.4982  0.3713
   18CHTO   O11 7591   6.285   7.979   0.180 -0.0947  0.1008  0.0910
   18CHTO    H5 7592   6.248   8.023   0.106 -0.3460  1.1523  0.8240
   18CHTO    O3 7593   6.663   7.538   0.131  0.4740 -0.1388  0.0943
   18CHTO    C6 7594   6.691   7.476   0.258 -0.3155 -0.5240 -0.1569
   18CHTO   H19 7595   6.601   7.478   0.320 -1.1412 -0.3165 -1.3420
   18CHTO    C8 7596   6.741   7.332   0.236 -0.7530  0.7080  0.0622
   18CHTO   H21 7597   6.828   7.339   0.171 -0.4433  2.7576  0.6627
   18CHTO    O7 7598   6.638   7.262   0.165  0.2909 -0.6001 -0.1876
   18CHTO    H2 7599   6.679   7.205   0.103  1.7606  0.3199 -0.1056
   18CHTO   C12 7600   6.773   7.263   0.369  0.3266 -0.4974 -0.5978
   18CHTO   H25 7601   6.675   7.256   0.420 -0.2397  1.3542 -1.4092
   18CHTO    N3 7602   6.824   7.123   0.351  0.0856 -0.3271  0.4832
   18CHTO   H12 7603   6.844   7.088   0.450 -1.1813 -1.4142  0.3671
   18CHTO   H13 7604   6.750   7.077   0.287 -1.9586  2.3253  0.8605
   18CHTO   C15 7605   6.870   7.355   0.455 -0.2793  0.2674 -0.0255
   18CHTO   H28 7606   6.973   7.347   0.420  0.5913 -1.7526  2.8500
   18CHTO   O10 7607   6.858   7.334   0.601  0.3603  0.2199 -0.3749
   18CHTO    H4 7608   6.885   7.248   0.628 -0.2404  0.3472  0.6545
   18CHTO    O5 7609   6.839   7.500   0.457  0.4374  0.0765  0.2951
   18CHTO   C10 7610   6.798   7.561   0.332  0.2684  0.1053  0.4445
   18CHTO   H23 7611   6.888   7.556   0.270  1.0485 -0.3006  1.5995
   18CHTO   C17 7612   6.749   7.709   0.347 -0.7662  0.4549 -1.0162
   18CHTO   O12 7613   6.864   7.797   0.338 -0.4907  0.3964 -0.2536
   18CHTO    H6 7614   6.836   7.872   0.387 -0.8116  1.4171 -1.9573
   19CHTO  H203 7615   6.458   9.629   1.820  0.5461 -0.9084  0.3395
   19CHTO   O82 7616   6.425   9.546   1.848 -0.4099 -0.4245  0.6698
   19CHTO  C123 7617   6.365   9.478   1.741 -0.5310  1.3141  0.5198
   19CHTO  H227 7618   6.397   9.530   1.649 -1.8573  1.1417 -0.0492
   19CHTO   O77 7619   6.432   9.345   1.744  0.2510  0.4688  0.2181
   19CHTO  C118 7620   6.375   9.237   1.669 -0.4454  1.1562  0.1985
   19CHTO  H222 7621   6.373   9.272   1.565  2.2828  1.0229  0.0627
   19CHTO  C125 7622   6.466   9.112   1.686 -0.0162  1.0924 -0.5727
   19CHTO   O84 7623   6.500   9.083   1.818  0.4170 -0.3157 -0.2869
   19CHTO  H205 7624   6.432   9.100   1.879  3.2400 -1.4781  3.3514
   19CHTO  C114 7625   6.230   9.213   1.714 -0.5689 -0.6761 -0.0776
   19CHTO  H218 7626   6.228   9.184   1.820  0.4501  0.3257  0.2227
   19CHTO  C116 7627   6.150   9.341   1.680 -0.4710  0.5116  0.7452
   19CHTO  H220 7628   6.145   9.354   1.570  0.5845 -2.4304  0.3074
   19CHTO   O79 7629   6.008   9.320   1.721  0.0936  0.3511  0.7340
   19CHTO  H201 7630   5.980   9.236   1.691  0.5654  0.8834 -1.2725
   19CHTO  C120 7631   6.213   9.466   1.746 -0.3527 -0.3996  0.4844
   19CHTO  H224 7632   6.176   9.453   1.850 -0.6839 -0.3290  0.3758
   19CHTO   N21 7633   6.154   9.598   1.715 -0.3027  0.4270  0.4924
   19CHTO  H211 7634   6.208   9.647   1.635  0.2494  0.9692  1.1915
   19CHTO  H212 7635   6.047   9.600   1.701 -0.2162  1.3049 -0.0743
   19CHTO   O75 7636   6.185   9.103   1.636 -1.0224  0.0326 -0.5925
   19CHTO  C112 7637   6.088   8.997   1.707  0.2851  0.5700  0.4129
   19CHTO  H216 7638   6.027   9.058   1.776  0.5544  1.6711 -0.3089
   19CHTO   O73 7639   6.182   8.909   1.780 -0.2335 -0.4045 -0.0711
   19CHTO  C113 7640   6.111   8.800   1.842  0.1483 -0.3063  0.4320
   19CHTO  H217 7641   6.025   8.837   1.901 -1.7818 -0.7946 -1.9922
   19CHTO  C124 7642   6.208   8.736   1.944 -0.4676  0.1156  0.0439
   19CHTO   O83 7643   6.256   8.818   2.054 -0.2042  0.2595 -0.7802
   19CHTO  H204 7644   6.347   8.840   2.043 -0.3619  1.9573  1.0077
   19CHTO  C109 7645   6.057   8.710   1.733  0.3730 -1.1243 -0.0333
   19CHTO  H213 7646   6.138   8.687   1.662  0.8877  0.5719 -0.0301
   19CHTO  C110 7647   5.940   8.791   1.660 -0.1989 -0.4949  0.1256
   19CHTO  H214 7648   5.869   8.824   1.735 -0.9949 -1.5980 -0.1249
   19CHTO   O78 7649   5.877   8.705   1.564  0.3802 -0.4650  0.1617
   19CHTO  H200 7650   5.941   8.644   1.532 -0.3576 -0.0803 -2.1292
   19CHTO  C111 7651   5.992   8.927   1.597 -0.0430 -0.4915 -0.6793
   19CHTO  H215 7652   6.050   8.910   1.505 -1.0878  0.5695 -1.5612
   19CHTO   N19 7653   5.882   9.023   1.560  0.3765  0.3254 -0.3743
   19CHTO  H207 7654   5.888   9.036   1.453  0.9320  0.2468 -0.3505
   19CHTO  H208 7655   5.784   8.981   1.579  0.4228 -0.1944 -1.2455
   19CHTO   O74 7656   5.995   8.586   1.791  0.4614  0.2637  0.8231
   19CHTO  C115 7657   6.048   8.458   1.717  0.0254  0.1513 -0.1992
   19CHTO  H219 7658   6.022   8.459   1.611  1.6616 -0.5924 -0.6184
   19CHTO   O76 7659   6.206   8.452   1.720  0.2885 -0.0048 -0.2933
   19CHTO  C122 7660   6.252   8.341   1.648 -0.1822  0.0175  0.2812
   19CHTO  H226 7661   6.359   8.338   1.666 -0.0992 -1.5200 -0.3902
   19CHTO  C126 7662   6.224   8.338   1.494  0.3744 -0.0903 -0.0958
   19CHTO   O85 7663   6.295   8.228   1.431 -0.0682 -0.6390  0.4531
   19CHTO  H206 7664   6.255   8.149   1.462 -1.3673 -1.2573 -2.6056
   19CHTO  C121 7665   6.200   8.203   1.712 -0.7854 -0.5712  0.0137
   19CHTO  H225 7666   6.245   8.133   1.639 -3.1620  0.5339 -2.6400
   19CHTO   O81 7667   6.240   8.188   1.843  0.3370 -0.0151 -0.2632
   19CHTO  H202 7668   6.318   8.139   1.860  0.4069  0.0301 -0.4596
   19CHTO  C119 7669   6.041   8.198   1.704  0.4568 -0.0805  0.8198
   19CHTO  H223 7670   6.007   8.195   1.601  0.3340  0.4418  0.8430
   19CHTO  C117 7671   5.975   8.324   1.770  0.4028  0.2826  0.0771
   19CHTO  H221 7672   5.974   8.323   1.879 -0.9890  0.6922  0.0740
   19CHTO   N20 7673   5.830   8.327   1.735 -0.0110  0.1954 -0.7845
   19CHTO  H209 7674   5.797   8.421   1.778  2.0220  0.5804 -0.0118
   19CHTO  H210 7675   5.825   8.320   1.628  0.4721 -1.8934 -0.6821
   19CHTO   O80 7676   5.987   8.058   1.760 -0.0733 -0.4719 -0.6133
   19CHTO  C103 7677   6.025   7.936   1.698 -0.2611  0.2535  0.4526
   19CHTO  H190 7678   6.093   7.954   1.615 -0.6655 -2.8947 -0.6311
   19CHTO  C101 7679   6.077   7.818   1.785 -0.3394 -0.0276 -0.5697
   19CHTO  H188 7680   6.008   7.794   1.866 -1.2589  0.4046 -1.2075
   19CHTO   O68 7681   6.216   7.854   1.848 -0.3854 -0.0730  0.2416
   19CHTO  H168 7682   6.282   7.893   1.793  0.0254  0.1830  0.9128
   19CHTO   C99 7683   6.092   7.685   1.697 -0.8096 -0.6546 -0.8282
   19CHTO  H186 7684   6.175   7.695   1.624 -0.3375 -0.5393 -0.2804
   19CHTO   N17 7685   6.130   7.560   1.773  0.4348 -0.3067  0.2695
   19CHTO  H174 7686   6.154   7.475   1.711  2.4649  0.3826  0.0940
   19CHTO  H175 7687   6.048   7.523   1.834 -0.7578  0.9914 -0.5202
   19CHTO   C97 7688   5.965   7.660   1.614 -0.4580  0.0813  0.0062
   19CHTO  H184 7689   5.889   7.601   1.667 -0.8069  0.7135  0.2184
   19CHTO   O64 7690   5.909   7.775   1.557  0.2604  0.0495  0.2899
   19CHTO  C104 7691   5.886   7.891   1.636 -0.0238  0.1210  0.5811
   19CHTO  H191 7692   5.823   7.871   1.723 -0.0247 -1.6508  0.2004
   19CHTO  C108 7693   5.811   7.994   1.547 -0.2198  0.3935  1.0744
   19CHTO   O71 7694   5.689   7.934   1.504 -0.5415 -0.1566  0.3813
   19CHTO  H171 7695   5.666   7.968   1.420 -1.9060  1.5470  1.4140
   19CHTO   O62 7696   6.007   7.576   1.501  0.3482  0.0687  0.3859
   19CHTO   C91 7697   5.908   7.524   1.408 -0.0386  0.2702 -0.0160
   19CHTO  H178 7698   5.807   7.537   1.448  0.2853  0.2021  0.8450
   19CHTO   C92 7699   5.931   7.371   1.403  0.1337 -0.4661  0.7178
   19CHTO  H179 7700   6.037   7.348   1.384  0.3434 -0.4508  1.8623
   19CHTO   O66 7701   5.892   7.304   1.528 -0.0742 -0.2918  0.6051
   19CHTO  H166 7702   5.862   7.216   1.511 -2.5944  0.6565  0.0116
   19CHTO   C93 7703   5.837   7.308   1.283 -0.0863 -0.2333  0.4495
   19CHTO  H180 7704   5.737   7.302   1.328  0.2915  1.2524  1.5393
   19CHTO   N16 7705   5.876   7.168   1.267  0.2375  0.0050  0.0959
   19CHTO  H172 7706   5.806   7.114   1.205 -0.2393  1.8556 -1.0062
   19CHTO  H173 7707   5.886   7.120   1.363  0.6936 -0.2259 -0.0659
   19CHTO   C94 7708   5.828   7.391   1.144  0.1469 -0.5131 -0.9267
   19CHTO  H181 7709   5.861   7.331   1.059  2.7074 -0.5457  0.0396
   19CHTO   O61 7710   5.927   7.502   1.154  0.3163 -0.2454 -0.3956
   19CHTO   C95 7711   5.912   7.593   1.264  0.0979  0.2815 -0.2040
   19CHTO  H182 7712   5.997   7.661   1.254  1.1659 -1.1910 -1.4935
   19CHTO  C106 7713   5.784   7.685   1.244 -0.3524 -0.2496  0.0959
   19CHTO   O69 7714   5.797   7.757   1.124  0.2922 -0.0444  0.2353
   19CHTO  H169 7715   5.883   7.786   1.103 -0.6502  1.6303 -1.4489
   19CHTO   O63 7716   5.678   7.438   1.112 -0.0658  0.3624 -0.1032
   19CHTO   C96 7717   5.617   7.351   0.984  0.1194  1.0246  0.1188
   19CHTO  H183 7718   5.703   7.336   0.918  0.2113  1.3388  0.1666
   19CHTO   C98 7719   5.492   7.419   0.897 -0.2233 -0.5146 -0.8093
   19CHTO  H185 7720   5.521   7.517   0.856  3.0005 -0.7923  0.6056
   19CHTO   O67 7721   5.462   7.333   0.783  0.3135  0.0744  0.2587
   19CHTO  H167 7722   5.490   7.370   0.701 -0.4301  0.2910  0.1068
   19CHTO  C102 7723   5.364   7.429   0.987 -0.1156 -0.6257  0.5370
   19CHTO  H189 7724   5.277   7.440   0.920  0.2290 -0.3624  0.1257
   19CHTO   N18 7725   5.356   7.543   1.076  0.2604 -0.4206  0.4766
   19CHTO  H176 7726   5.331   7.624   1.009  1.1152 -0.4644  0.0890
   19CHTO  H177 7727   5.275   7.529   1.146 -0.4933  0.3973 -0.2166
   19CHTO  C105 7728   5.337   7.291   1.053  0.2351  0.4608  0.4419
   19CHTO  H192 7729   5.351   7.297   1.161  2.2513 -2.0220  0.3622
   19CHTO   O65 7730   5.425   7.188   1.011 -0.2402 -0.2821 -0.0757
   19CHTO  C100 7731   5.567   7.210   1.041  0.7234 -0.1253  0.0848
   19CHTO  H187 7732   5.556   7.229   1.148  0.5828 -2.3836  0.4916
   19CHTO  C107 7733   5.646   7.088   0.990  0.2471  0.2570  0.4423
   19CHTO   O70 7734   5.649   7.081   0.846  0.3797  0.1756 -0.1334
   19CHTO  H170 7735   5.650   7.165   0.803  0.7727  0.7881  1.0565
   19CHTO   O57 7736   5.193   7.262   1.017  0.0135  0.1836  0.3621
   19CHTO   C85 7737   5.098   7.171   1.085 -0.2541 -0.3750  0.6650
   19CHTO  H157 7738   5.160   7.138   1.171 -0.9490  1.4830  1.9204
   19CHTO   C83 7739   5.065   7.054   0.991 -0.4297 -0.0008  0.1179
   19CHTO  H155 7740   5.158   7.004   0.964 -0.4755  0.8318 -1.7196
   19CHTO   O56 7741   5.018   7.105   0.866 -0.4382  0.6319 -0.4242
   19CHTO  H135 7742   5.097   7.131   0.823  1.0308 -1.4443  0.9451
   19CHTO   C81 7743   4.976   6.952   1.062  0.0365 -0.2159  0.0276
   19CHTO  H153 7744   5.033   6.911   1.146 -1.2225 -1.0251  0.4979
   19CHTO   N14 7745   4.956   6.834   0.974  0.2091  0.3152 -0.0979
   19CHTO  H141 7746   4.905   6.882   0.894  1.0087  1.1785 -0.1050
   19CHTO  H142 7747   4.892   6.760   1.016  1.5113 -0.4021  0.6454
   19CHTO   C79 7748   4.842   7.024   1.111 -0.4476  0.0377 -0.3769
   19CHTO  H151 7749   4.794   6.952   1.177 -2.0310  0.3903 -1.1216
   19CHTO   O52 7750   4.885   7.137   1.195 -0.7344 -0.0005 -0.0270
   19CHTO   C86 7751   4.969   7.234   1.126  0.5013  0.1550  0.4566
   19CHTO  H158 7752   4.910   7.258   1.036  0.1159 -0.6576  0.4968
   19CHTO   C90 7753   4.985   7.360   1.208  0.5980 -0.4475  0.3942
   19CHTO   O60 7754   4.863   7.417   1.250  0.0554 -0.3426 -0.3386
   19CHTO  H138 7755   4.859   7.502   1.210 -0.8142 -0.8284 -1.3191
   19CHTO   O50 7756   4.755   7.068   1.003 -0.2332 -0.0892 -0.1235
   19CHTO   C73 7757   4.624   7.112   0.955 -0.2715 -0.0627 -0.7322
   19CHTO  H145 7758   4.553   7.028   0.956 -0.6103  0.1951 -2.3040
   19CHTO   C74 7759   4.641   7.152   0.804 -0.7209 -0.6601 -0.1058
   19CHTO  H146 7760   4.685   7.076   0.738  0.5430  1.3100 -1.5536
   19CHTO   O54 7761   4.508   7.164   0.765 -0.0049 -0.0118  0.3132
   19CHTO  H133 7762   4.482   7.244   0.725 -1.6547 -0.8853 -0.4339
   19CHTO   C75 7763   4.722   7.286   0.803  0.3699  0.3799 -1.0954
   19CHTO  H147 7764   4.826   7.261   0.828 -0.6210 -2.7725  0.0346
   19CHTO   N13 7765   4.749   7.336   0.665  0.4303  0.1427 -0.5895
   19CHTO  H139 7766   4.660   7.369   0.615  1.1479  1.0677 -1.2667
   19CHTO  H140 7767   4.798   7.258   0.608 -0.4858 -0.1187 -1.0307
   19CHTO   C76 7768   4.668   7.401   0.896 -0.4746 -0.4827  0.9286
   19CHTO  H148 7769   4.571   7.432   0.858 -0.2419  1.9408  2.1935
   19CHTO   O49 7770   4.646   7.347   1.035 -0.0138  0.2527 -0.2699
   19CHTO   C77 7771   4.565   7.230   1.044  0.1498 -0.3305  0.4915
   19CHTO  H149 7772   4.464   7.254   1.009  0.2525  0.2230  0.5628
   19CHTO   C88 7773   4.554   7.203   1.193  0.1380 -0.4926  0.0529
   19CHTO   O58 7774   4.500   7.090   1.227 -0.0706  0.7229  0.0168
   19CHTO  H136 7775   4.556   7.015   1.230 -0.4320  0.4987  1.7954
   19CHTO   O51 7776   4.763   7.527   0.921 -0.1101  0.0925 -0.2605
   19CHTO   C78 7777   4.665   7.662   0.909  0.0188  0.1447  1.0116
   19CHTO  H150 7778   4.560   7.637   0.886 -0.1812 -0.1051  2.1799
   19CHTO   C80 7779   4.720   7.755   0.801  0.1591  0.0343 -0.1823
   19CHTO  H152 7780   4.827   7.781   0.813 -0.3152  2.3918 -0.8503
   19CHTO   O55 7781   4.708   7.682   0.680 -0.2259  0.3274  0.1136
   19CHTO  H134 7782   4.621   7.662   0.650 -0.0397 -2.3917  1.2178
   19CHTO   C84 7783   4.638   7.889   0.795 -0.1045  0.5283  1.2869
   19CHTO  H156 7784   4.537   7.856   0.770  0.8167 -1.6483  0.2967
   19CHTO   N15 7785   4.687   7.985   0.690  0.4155 -0.3189  0.0659
   19CHTO  H143 7786   4.705   8.080   0.736 -1.5617  0.2047 -0.1921
   19CHTO  H144 7787   4.775   7.952   0.640 -0.5102  0.6694 -2.3095
   19CHTO   C87 7788   4.635   7.955   0.936  0.7848  0.6516  0.5523
   19CHTO  H159 7789   4.733   7.993   0.966  0.1434  1.8971  1.1135
   19CHTO   O53 7790   4.589   7.859   1.030  0.1946 -0.6556  0.1449
   19CHTO   C82 7791   4.665   7.734   1.045  0.2793  0.4731 -0.1651
   19CHTO  H154 7792   4.765   7.753   1.082  0.7118  1.0676 -1.5993
   19CHTO   C89 7793   4.600   7.639   1.156 -0.2766 -0.2663 -0.0035
   19CHTO   O59 7794   4.584   7.710   1.276 -0.1777 -0.6301 -0.1425
   19CHTO  H137 7795   4.495   7.699   1.303 -0.4346 -3.1747 -1.9109
   19CHTO   O45 7796   4.534   8.079   0.948 -0.0326 -0.0957  0.3044
   19CHTO   C67 7797   4.527   8.134   1.087  0.7219 -0.2934 -0.4783
   19CHTO  H124 7798   4.520   8.060   1.166  3.6630  1.8241  1.8819
   19CHTO   C65 7799   4.657   8.220   1.112  0.3519  0.4221  0.5024
   19CHTO  H122 7800   4.689   8.228   1.009 -0.7423  2.0047  0.2706
   19CHTO   O44 7801   4.747   8.131   1.185 -0.5216 -0.1362  0.5048
   19CHTO  H102 7802   4.834   8.150   1.158 -0.0502 -1.8013  0.8057
   19CHTO   C63 7803   4.627   8.362   1.169  0.0791  0.0250  1.1079
   19CHTO  H120 7804   4.580   8.417   1.088 -0.1744 -0.4505  0.9263
   19CHTO   N11 7805   4.745   8.444   1.194 -0.1468  0.0375  0.1269
   19CHTO  H108 7806   4.797   8.453   1.101 -0.6167 -1.3683 -0.2897
   19CHTO  H109 7807   4.800   8.402   1.275 -0.9159  0.2479  0.7628
   19CHTO   C61 7808   4.518   8.359   1.287  0.2785 -0.1049 -0.0821
   19CHTO  H118 7809   4.497   8.466   1.295 -0.2202 -0.0629 -1.8289
   19CHTO   O40 7810   4.399   8.296   1.230  0.0959 -0.1440  0.6652
   19CHTO   C68 7811   4.396   8.222   1.101 -0.9407 -0.2922  0.4376
   19CHTO  H125 7812   4.392   8.293   1.016  2.1858 -0.3131  0.1977
   19CHTO   C72 7813   4.270   8.142   1.091  0.2015 -0.0282  0.0341
   19CHTO   O48 7814   4.264   8.040   1.187 -0.2855  0.3650 -0.0940
   19CHTO  H105 7815   4.273   8.075   1.274 -0.3966  0.8831 -0.2886
   19CHTO   O38 7816   4.563   8.302   1.406 -0.1975  0.3862 -0.4464
   19CHTO   C55 7817   4.458   8.255   1.500 -0.1090 -0.0073  0.0311
   19CHTO  H112 7818   4.375   8.206   1.445 -0.3804 -0.6149  0.9739
   19CHTO   C56 7819   4.402   8.371   1.592  0.0523 -0.0034  0.5272
   19CHTO  H113 7820   4.486   8.417   1.647  2.8008 -1.9751 -1.8638
   19CHTO   O42 7821   4.352   8.488   1.506 -0.1872 -0.2742  0.6031
   19CHTO  H100 7822   4.291   8.474   1.436  1.5611 -0.0052 -1.0523
   19CHTO   C57 7823   4.275   8.311   1.673 -0.1170 -0.5317 -0.3745
   19CHTO  H114 7824   4.204   8.273   1.600 -1.7660 -0.4313  1.1373
   19CHTO   N10 7825   4.206   8.406   1.764  0.1167 -0.1798 -0.1596
   19CHTO  H106 7826   4.211   8.507   1.726 -0.4283  0.2520  0.8810
   19CHTO  H107 7827   4.102   8.381   1.780 -0.1434  1.2879  0.5511
   19CHTO   C58 7828   4.325   8.192   1.762 -0.8537  0.3801  0.3611
   19CHTO  H115 7829   4.392   8.229   1.843 -0.0658  0.3482 -0.2716
   19CHTO   O37 7830   4.402   8.100   1.681 -0.5257 -0.5717  0.0708
   19CHTO   C59 7831   4.513   8.148   1.596  0.2200 -0.6142  0.0825
   19CHTO  H116 7832   4.590   8.189   1.661  0.4059 -0.4588 -0.2334
   19CHTO   C70 7833   4.570   8.039   1.513  0.1252 -0.3261  0.3192
   19CHTO   O46 7834   4.477   7.982   1.427  0.4139 -0.4242 -0.3646
   19CHTO  H103 7835   4.406   7.952   1.480  0.8424 -2.9888 -1.1777
   19CHTO   O39 7836   4.184   8.101   1.829  0.0686  0.0237  0.0544
   19CHTO   C60 7837   4.127   8.007   1.737  0.1818 -0.5475 -0.3763
   19CHTO  H117 7838   4.145   8.048   1.637 -1.4425  0.2224 -0.3661
   19CHTO   C62 7839   4.197   7.857   1.745  0.2993 -0.4871 -0.1389
   19CHTO  H119 7840   4.306   7.869   1.733  0.1550  0.4636 -0.5359
   19CHTO   O43 7841   4.166   7.804   1.872 -0.8154  0.5951  0.2821
   19CHTO  H101 7842   4.242   7.789   1.925 -0.3448  0.4993 -0.4134
   19CHTO   C66 7843   4.138   7.773   1.625  0.8663  0.3695  0.2020
   19CHTO  H123 7844   4.133   7.838   1.538  0.5283  0.0264 -0.0366
   19CHTO   N12 7845   4.212   7.649   1.593  0.6178  0.3441 -0.6729
   19CHTO  H110 7846   4.197   7.617   1.491 -0.2924 -1.4971  0.0229
   19CHTO  H111 7847   4.311   7.637   1.635  0.3765  1.7652  0.3292
   19CHTO   C69 7848   3.988   7.749   1.656 -0.4742  0.4674  0.6137
   19CHTO  H126 7849   3.976   7.695   1.752  2.3910  0.0777  0.7752
   19CHTO   O41 7850   3.910   7.881   1.657  0.2671 -0.3309  0.1459
   19CHTO   C64 7851   3.970   7.993   1.755 -0.4673 -0.2165  0.2588
   19CHTO  H121 7852   3.953   7.963   1.861 -0.5154 -1.7870 -0.1950
   19CHTO   C71 7853   3.886   8.120   1.732  0.2054  0.9353 -0.0927
   19CHTO   O47 7854   3.893   8.219   1.832  0.3608  0.1340 -0.0044
   19CHTO  H104 7855   3.970   8.201   1.883  0.0030 -0.9405  0.1598
   19CHTO   O34 7856   3.920   7.662   1.541 -0.7753 -0.5260 -0.0430
   19CHTO   C49 7857   3.865   7.688   1.380 -0.0624 -0.3016 -0.2256
   19CHTO   H91 7858   3.764   7.726   1.388 -0.0714 -0.1900 -0.8877
   19CHTO   C47 7859   3.860   7.557   1.301 -0.5512  0.5163  0.2425
   19CHTO   H89 7860   3.826   7.572   1.197  0.9802  0.2618 -0.3044
   19CHTO   O33 7861   3.777   7.466   1.369 -0.0965 -0.3975  0.0111
   19CHTO   H70 7862   3.687   7.493   1.374  0.4074  1.0200  2.1570
   19CHTO   C45 7863   4.009   7.509   1.296  0.0576 -0.7674  0.2465
   19CHTO   H87 7864   4.050   7.495   1.397 -0.7148 -2.6670  0.3134
   19CHTO    N8 7865   4.030   7.378   1.229 -0.2805  0.4785 -0.2406
   19CHTO   H75 7866   3.959   7.347   1.154  0.4075  0.0615 -0.7167
   19CHTO   H76 7867   4.045   7.292   1.294  1.1069 -1.3078 -2.8599
   19CHTO   C43 7868   4.097   7.622   1.218 -0.7823  0.4255  0.3986
   19CHTO   H85 7869   4.201   7.590   1.220  0.2160  3.4860 -0.2970
   19CHTO   O29 7870   4.083   7.754   1.274  0.2293  0.4626 -0.2818
   19CHTO   C50 7871   3.955   7.795   1.319  0.4801 -0.6341  0.3286
   19CHTO   H92 7872   3.969   7.875   1.392  2.1938  0.4236 -1.1356
   19CHTO   C54 7873   3.876   7.868   1.216  0.3795  0.3101  0.0270
   19CHTO   O36 7874   3.929   7.997   1.197  0.6052 -0.1146  0.1448
   19CHTO   H72 7875   3.886   8.055   1.138  0.5793  0.6964  0.9377
   19CHTO   O27 7876   4.068   7.632   1.072  0.2661  0.4382  0.4279
   19CHTO   C37 7877   4.099   7.661   0.934 -0.1159  0.5602  0.2785
   19CHTO   H79 7878   4.057   7.578   0.875  0.3392 -0.2851  1.1265
   19CHTO   C38 7879   4.039   7.799   0.887  0.4137 -0.5268 -0.5668
   19CHTO   H80 7880   4.071   7.873   0.962  1.2470 -0.6913 -0.7556
   19CHTO   O31 7881   3.899   7.779   0.899  0.7449 -0.1533  0.5059
   19CHTO   H68 7882   3.868   7.718   0.836 -0.4794  0.3744  0.5803
   19CHTO   C39 7883   4.080   7.846   0.735  0.3244  0.0270  0.6196
   19CHTO   H81 7884   4.033   7.775   0.666  0.1522  0.9817 -0.2505
   19CHTO    N7 7885   4.041   7.982   0.697  0.0925  0.3973 -0.1408
   19CHTO   H73 7886   4.009   7.980   0.594 -2.3796 -2.4904  0.6261
   19CHTO   H74 7887   4.127   8.042   0.724  0.6133 -0.1995 -0.4569
   19CHTO   C40 7888   4.239   7.825   0.717 -0.0235 -0.2570  0.2289
   19CHTO   H82 7889   4.297   7.910   0.752  0.0237 -0.6251  1.0534
   19CHTO   O26 7890   4.281   7.699   0.771 -0.0812  0.4297  0.1168
   19CHTO   C41 7891   4.248   7.671   0.906 -0.4447 -0.0281 -0.4160
   19CHTO   H83 7892   4.289   7.754   0.965 -2.3409  0.2357  0.5850
   19CHTO   C52 7893   4.316   7.540   0.956 -0.3535 -0.1608  0.2653
   19CHTO   O35 7894   4.289   7.417   0.874  0.0464 -0.1572  0.4555
   19CHTO   H71 7895   4.340   7.349   0.914 -0.3027 -0.6137  0.1346
   19CHTO   O28 7896   4.255   7.809   0.576  0.1241  0.2706 -0.4392
   19CHTO   C42 7897   4.384   7.820   0.506 -0.4453 -0.0319  0.3902
   19CHTO   H84 7898   4.452   7.841   0.588  0.5528 -0.0595 -0.4173
   19CHTO   C44 7899   4.399   7.941   0.404 -0.0755 -0.5285 -0.4881
   19CHTO   H86 7900   4.337   7.919   0.316 -1.4664 -0.8384  0.5555
   19CHTO   O32 7901   4.344   8.062   0.471 -0.2536 -0.8417  0.4881
   19CHTO   H69 7902   4.383   8.145   0.452  1.0323 -1.6306 -0.4683
   19CHTO   C48 7903   4.549   7.958   0.352  0.0445  0.1432 -0.0066
   19CHTO   H90 7904   4.614   7.984   0.435  1.5848 -0.1562 -1.0938
   19CHTO    N9 7905   4.566   8.069   0.248  0.0481 -0.2624 -0.5129
   19CHTO   H77 7906   4.511   8.060   0.155  0.7678 -2.6799 -0.7330
   19CHTO   H78 7907   4.667   8.102   0.227  0.3653 -0.5707  0.4920
   19CHTO   C51 7908   4.607   7.825   0.296  0.0292 -0.1566  0.5290
   19CHTO   H93 7909   4.570   7.809   0.195 -0.2876 -0.5632  0.7098
   19CHTO   O30 7910   4.573   7.710   0.385 -0.2854 -0.3038  0.1392
   19CHTO   C46 7911   4.426   7.689   0.437 -0.3414 -0.5131 -0.7725
   19CHTO   H88 7912   4.361   7.671   0.352 -1.5123 -0.7731  0.1661
   19CHTO   C53 7913   4.435   7.564   0.530 -0.5191 -0.1508  0.4304
   19CHTO   O72 7914   4.443   7.440   0.463  0.5560 -0.1969 -0.3829
   19CHTO  H199 7915   4.357   7.420   0.434  0.3540 -0.7864  0.6329
   19CHTO   O22 7916   4.752   7.840   0.301 -0.2996  0.0891  0.2086
   19CHTO   C31 7917   4.856   7.774   0.216 -0.2003 -0.4750  0.4102
   19CHTO   H59 7918   4.807   7.691   0.161 -0.8619  1.4180 -1.8931
   19CHTO   C29 7919   4.916   7.874   0.115  0.2936  0.1486 -0.3578
   19CHTO   H57 7920   4.947   7.970   0.161 -1.6185 -0.2583  1.8806
   19CHTO   O21 7921   4.810   7.900   0.022  0.1290  0.0376 -0.0503
   19CHTO   H37 7922   4.819   7.978  -0.029 -0.1634 -0.5454 -0.9997
   19CHTO   C27 7923   5.045   7.820   0.036 -0.5767  0.3776  0.3100
   19CHTO   H55 7924   5.007   7.737  -0.026  0.0720  1.4810 -1.6069
   19CHTO    N5 7925   5.118   7.921  -0.048  0.8409 -0.2173 -0.5342
   19CHTO   H43 7926   5.225   7.910  -0.030  1.1011 -1.4455 -2.7065
   19CHTO   H44 7927   5.090   7.903  -0.150  2.0560 -1.7490 -0.6161
   19CHTO   C25 7928   5.142   7.756   0.146 -0.1327  0.1110  0.5151
   19CHTO   H53 7929   5.168   7.839   0.213  1.0698  0.5853 -0.5135
   19CHTO   O17 7930   5.076   7.652   0.223 -0.3869  0.2271 -0.5261
   19CHTO   C32 7931   4.970   7.705   0.303 -0.0313 -0.8017 -0.1747
   19CHTO   H60 7932   5.012   7.773   0.377  0.3203  0.6192 -1.6547
   19CHTO   C36 7933   4.912   7.581   0.385  0.1597 -0.3298  0.0992
   19CHTO   O25 7934   4.854   7.486   0.291  0.2096 -0.0023 -0.1008
   19CHTO   H40 7935   4.763   7.465   0.305  0.4629 -1.8964 -1.0435
   19CHTO   O15 7936   5.265   7.686   0.084  0.5476  0.3981  0.1213
   19CHTO   C19 7937   5.338   7.589   0.008  0.0137  0.8280  0.0565
   19CHTO   H47 7938   5.295   7.611  -0.091  0.9208 -1.3753 -0.8499
   19CHTO   C20 7939   5.490   7.604  -0.014  0.0529  0.0002  0.1734
   19CHTO   H48 7940   5.544   7.576   0.077 -1.2839 -2.6079  0.1968
   19CHTO   O19 7941   5.523   7.738  -0.051  0.6179 -1.0271  0.0297
   19CHTO   H35 7942   5.551   7.790   0.022  0.1515 -2.8416  1.5342
   19CHTO   C21 7943   5.548   7.501  -0.124 -0.3783  0.5147  1.0779
   19CHTO   H49 7944   5.508   7.534  -0.220 -0.9757  1.4483  1.6356
   19CHTO    N4 7945   5.699   7.505  -0.132  0.2517  0.3115  0.4892
   19CHTO   H41 7946   5.736   7.531  -0.034  1.3569 -0.9118  0.4207
   19CHTO   H42 7947   5.727   7.580  -0.205 -1.1901 -1.0724 -1.5671
   19CHTO   C22 7948   5.499   7.355  -0.101 -0.7322 -0.1618  0.6231
   19CHTO   H50 7949   5.574   7.308  -0.036  0.5611 -0.4405 -1.0337
   19CHTO   O14 7950   5.369   7.344  -0.034  0.3013 -0.1368  0.0762
   19CHTO   C23 7951   5.306   7.442   0.046  0.4030 -0.2014 -0.1304
   19CHTO   H51 7952   5.332   7.417   0.150  0.1867  2.7481  0.6641
   19CHTO   C34 7953   5.154   7.425   0.045 -0.2097  0.0090 -0.4427
   19CHTO   O23 7954   5.123   7.298   0.107 -0.1228  0.3055 -0.1800
   19CHTO   H38 7955   5.059   7.305   0.175 -0.7600 -2.6348 -0.4369
   19CHTO   O16 7956   5.483   7.285  -0.228 -0.7296 -0.3401 -0.0619
   19CHTO   C24 7957   5.564   7.146  -0.241  0.1566 -0.2667  0.5480
   19CHTO   H52 7958   5.662   7.152  -0.193  1.1589 -0.2766 -1.4353
   19CHTO   C26 7959   5.589   7.129  -0.388 -0.4199  0.0534 -0.4977
   19CHTO   H54 7960   5.496   7.142  -0.447  0.4498  1.1415 -1.6590
   19CHTO   O20 7961   5.691   7.226  -0.440  0.2894  0.4124  0.3168
   19CHTO   H36 7962   5.767   7.186  -0.479 -1.4043 -0.1376 -2.6538
   19CHTO   C30 7963   5.622   6.986  -0.435  0.8738  0.6569  0.5728
   19CHTO   H58 7964   5.716   6.949  -0.392  0.0848 -2.7007 -0.4457
   19CHTO    N6 7965   5.618   6.965  -0.583 -0.2798  0.1410 -0.0725
   19CHTO   H45 7966   5.713   6.956  -0.634 -0.9401 -0.3794 -1.2141
   19CHTO   H46 7967   5.554   7.032  -0.639 -1.4378 -0.1236  0.9217
   19CHTO   C33 7968   5.529   6.886  -0.364  0.2871  0.1995  0.5611
   19CHTO   H61 7969   5.425   6.913  -0.389  0.1357 -0.9128 -0.0526
   19CHTO   O18 7970   5.542   6.900  -0.222  0.3429  0.2153 -0.4175
   19CHTO   C28 7971   5.488   7.023  -0.176  0.9555  0.8753 -0.2127
   19CHTO   H56 7972   5.381   7.032  -0.194  0.9581 -1.0448 -1.3019
   19CHTO   C35 7973   5.490   7.019  -0.024 -0.0432 -0.5731  0.2824
   19CHTO   O24 7974   5.391   6.934   0.036  0.3625 -0.3665  0.5202
   19CHTO   H39 7975   5.391   6.964   0.125  1.2537 -0.2232  0.4819
   19CHTO    O9 7976   5.543   6.749  -0.400 -0.5017 -0.3664  0.1539
   19CHTO   C13 7977   5.410   6.676  -0.420  0.6535 -0.8119  0.6823
   19CHTO   H26 7978   5.381   6.721  -0.518 -0.4685 -2.5684  0.1824
   19CHTO   C11 7979   5.297   6.702  -0.310  0.1138 -0.3284 -0.4996
   19CHTO   H24 7980   5.261   6.804  -0.332 -1.1314 -1.2418 -2.8795
   19CHTO    O8 7981   5.352   6.673  -0.178 -0.2957  0.2335 -0.1536
   19CHTO    H3 7982   5.411   6.740  -0.149 -0.9418 -0.3199  2.5054
   19CHTO    C9 7983   5.178   6.610  -0.345 -0.2243 -0.2100 -0.4957
   19CHTO   H22 7984   5.159   6.628  -0.452 -0.0351  2.3607 -0.1293
   19CHTO    N2 7985   5.052   6.651  -0.274 -0.0455 -0.4912  0.1691
   19CHTO   H10 7986   4.968   6.591  -0.308 -0.4110  0.4285 -0.5696
   19CHTO   H11 7987   5.029   6.756  -0.266 -0.6309 -0.6838  1.1682
   19CHTO    C7 7988   5.225   6.458  -0.336  0.2345 -0.0090  0.0819
   19CHTO   H20 7989   5.182   6.420  -0.431  2.5755  0.9624 -1.4226
   19CHTO    O4 7990   5.367   6.444  -0.349  0.5430  0.3263 -0.3752
   19CHTO   C14 7991   5.423   6.521  -0.456  0.2613  0.1731 -0.1459
   19CHTO   H27 7992   5.372   6.496  -0.551 -1.2477 -1.2179  1.0174
   19CHTO   C18 7993   5.570   6.474  -0.463 -0.8315  0.5400  0.5593
   19CHTO   O13 7994   5.621   6.481  -0.597 -0.4266 -0.4465  0.1506
   19CHTO    H7 7995   5.564   6.518  -0.662  0.0050 -2.5190 -1.4744
   19CHTO    O2 7996   5.182   6.383  -0.221  0.2648 -1.2277  0.6875
   19CHTO    C1 7997   5.105   6.262  -0.246 -0.5355 -0.0688  0.6407
   19CHTO   H14 7998   5.161   6.200  -0.320 -1.2145  1.4162 -1.1535
   19CHTO    C2 7999   4.957   6.275  -0.293  0.5783  0.8091  1.3506
   19CHTO   H15 8000   4.898   6.326  -0.215  0.6952  3.3609 -0.1972
   19CHTO    O6 8001   4.951   6.350  -0.415  0.2413  0.4092  1.1529
   19CHTO    H1 8002   4.874   6.403  -0.424  0.1595 -0.2169 -2.5144
   19CHTO    C3 8003   4.896   6.129  -0.310 -0.0253  0.0588  0.3489
   19CHTO   H16 8004   4.960   6.078  -0.384  2.6140  2.1833  1.1299
   19CHTO    N1 8005   4.745   6.132  -0.349 -0.2319 -0.2731 -0.1795
   19CHTO    H8 8006   4.711   6.032  -0.376 -2.7636  0.6694 -0.6377
   19CHTO    H9 8007   4.682   6.192  -0.285  0.5720  0.1293  0.2301
   19CHTO    C4 8008   4.910   6.046  -0.181  0.3279  0.3481  0.4762
   19CHTO   H17 8009   4.848   6.088  -0.102  1.4671  0.7106  1.1947
   19CHTO    O1 8010   5.048   6.050  -0.136 -0.5928  0.2233  0.0526
   19CHTO    C5 8011   5.099   6.186  -0.109  0.4249  0.1617 -0.4915
   19CHTO   H18 8012   5.028   6.238  -0.044 -0.4101 -1.5636  0.0096
   19CHTO   C16 8013   5.241   6.179  -0.046 -0.0052 -0.2262 -0.1949
   19CHTO   O11 8014   5.229   6.140   0.092  0.5036 -0.1419  0.0931
   19CHTO    H5 8015   5.272   6.058   0.107  4.5044  1.4020 -2.1185
   19CHTO    O3 8016   4.882   5.901  -0.188 -0.7654 -0.4222  0.3849
   19CHTO    C6 8017   4.822   5.834  -0.081  0.0529  0.5819  0.7391
   19CHTO   H19 8018   4.811   5.899   0.005 -0.8189 -0.0413  1.1039
   19CHTO    C8 8019   4.680   5.792  -0.129 -0.4087 -0.0581 -0.1560
   19CHTO   H21 8020   4.686   5.747  -0.228  0.8326 -2.4626  0.9550
   19CHTO    O7 8021   4.612   5.914  -0.133 -0.1680 -0.1938 -0.0743
   19CHTO    H2 8022   4.525   5.893  -0.163 -0.8109 -0.2502  1.7791
   19CHTO   C12 8023   4.605   5.697  -0.023  0.2108  0.5684 -0.5246
   19CHTO   H25 8024   4.580   5.771   0.056 -0.0049  1.2868 -1.2568
   19CHTO    N3 8025   4.478   5.642  -0.080 -0.2451 -0.2450 -0.5747
   19CHTO   H12 8026   4.459   5.664  -0.184  2.2988  0.6775 -0.8998
   19CHTO   H13 8027   4.466   5.537  -0.060  0.5479 -0.6586 -2.1597
   19CHTO   C15 8028   4.708   5.588   0.031  0.2117  0.2280 -0.0455
   19CHTO   H28 8029   4.730   5.511  -0.043 -1.4027  0.4080 -0.7371
   19CHTO   O10 8030   4.649   5.525   0.153 -0.0238 -0.2721  0.2679
   19CHTO    H4 8031   4.697   5.552   0.229 -1.0684 -0.7563  1.1092
   19CHTO    O5 8032   4.833   5.639   0.071  0.5751 -0.0291 -0.3848
   19CHTO   C10 8033   4.900   5.706  -0.033 -0.1100  0.4275 -0.0913
   19CHTO   H23 8034   4.918   5.638  -0.117  1.2203  0.0539  0.4874
   19CHTO   C17 8035   5.041   5.744   0.015 -0.0974  0.2171  0.0844
   19CHTO   O12 8036   5.109   5.623   0.050  0.6783  0.4918  0.0212
   19CHTO    H6 8037   5.094   5.556  -0.014 -0.1901  1.2189 -0.5519
   20CHTO  H203 8038   4.982   0.673   3.976 -1.3688  0.6978 -0.7723
   20CHTO   O82 8039   5.035   0.727   3.921  0.0860  0.3700  0.2622
   20CHTO  C123 8040   5.007   0.863   3.951  0.5379 -0.1573  0.6918
   20CHTO  H227 8041   4.923   0.870   4.020  0.5350  3.2498  0.4027
   20CHTO   O77 8042   5.133   0.916   4.000 -0.1591  0.6697  0.1337
   20CHTO  C118 8043   5.131   1.055   4.041 -0.6138 -0.6803  0.8790
   20CHTO  H222 8044   5.056   1.071   4.119 -4.6457 -1.0219 -2.7670
   20CHTO  C125 8045   5.276   1.101   4.091  0.0601  0.2198 -0.5392
   20CHTO   O84 8046   5.374   1.046   3.997  0.4779 -0.3787 -0.3505
   20CHTO  H205 8047   5.458   1.083   4.013  0.5720 -0.1462 -1.3239
   20CHTO  C114 8048   5.101   1.140   3.911 -0.2317  0.5423  0.3526
   20CHTO  H218 8049   5.184   1.124   3.842 -0.0747 -1.5272  0.9798
   20CHTO  C116 8050   4.957   1.096   3.853  0.2532 -0.5566 -0.1266
   20CHTO  H220 8051   4.889   1.101   3.941  0.6894  0.9092  0.1531
   20CHTO   O79 8052   4.917   1.177   3.743  0.2212 -0.2274 -0.6577
   20CHTO  H201 8053   4.864   1.247   3.776 -0.4681 -1.1702  0.2367
   20CHTO  C120 8054   4.965   0.942   3.820 -0.2101 -0.0996  0.1337
   20CHTO  H224 8055   5.047   0.922   3.749 -1.0169 -0.5655 -0.6848
   20CHTO   N21 8056   4.837   0.893   3.765 -0.6399 -0.0985  0.0940
   20CHTO  H211 8057   4.774   0.966   3.717  0.4867  0.5984 -0.3553
   20CHTO  H212 8058   4.790   0.842   3.847  0.3389 -1.2621 -0.0469
   20CHTO   O75 8059   5.106   1.271   3.954 -1.2038 -0.1208 -0.3326
   20CHTO  C112 8060   5.160   1.358   3.841 -0.3840 -1.2358  0.0177
   20CHTO  H216 8061   5.105   1.348   3.746 -3.1073 -1.1234  1.5261
   20CHTO   O73 8062   5.296   1.327   3.828 -0.1468 -0.3794  0.6697
   20CHTO  C113 8063   5.367   1.394   3.723  0.6567  0.4116  0.0672
   20CHTO  H217 8064   5.326   1.359   3.626 -1.2144  0.5767  0.7919
   20CHTO  C124 8065   5.512   1.339   3.724  0.2483 -0.3932  0.9113
   20CHTO   O83 8066   5.582   1.361   3.850 -0.0504 -0.1578  0.2790
   20CHTO  H204 8067   5.650   1.296   3.854 -0.5801 -0.7276  0.1168
   20CHTO  C109 8068   5.360   1.549   3.732  0.1298  0.2352  0.8812
   20CHTO  H213 8069   5.426   1.577   3.816  3.3579 -3.3501 -0.3128
   20CHTO  C110 8070   5.217   1.600   3.764 -0.9173  0.1651  0.3253
   20CHTO  H214 8071   5.161   1.587   3.671 -0.0746 -1.5032  0.0360
   20CHTO   O78 8072   5.219   1.742   3.780  0.6595  0.1745 -0.2091
   20CHTO  H200 8073   5.287   1.757   3.843  1.1393  4.4656 -1.5928
   20CHTO  C111 8074   5.153   1.516   3.881 -0.0852 -0.7447  0.0456
   20CHTO  H215 8075   5.209   1.529   3.974 -0.4349 -0.5567  0.2275
   20CHTO   N19 8076   5.014   1.561   3.905 -0.0142  0.1509  0.0187
   20CHTO  H207 8077   5.009   1.665   3.935 -2.1548  0.6513 -1.9552
   20CHTO  H208 8078   4.982   1.489   3.979  0.0079  1.2716  1.1356
   20CHTO   O74 8079   5.421   1.596   3.607  0.1247  0.2189  0.4508
   20CHTO  C115 8080   5.503   1.737   3.644  0.5380  0.0728  0.0064
   20CHTO  H219 8081   5.449   1.793   3.721 -0.2182 -0.8562  0.1568
   20CHTO   O76 8082   5.639   1.709   3.701 -0.0738  0.8480 -0.2190
   20CHTO  C122 8083   5.731   1.644   3.605 -0.6023  0.2932 -0.8062
   20CHTO  H226 8084   5.733   1.535   3.607  0.8655  0.3142 -0.9279
   20CHTO  C126 8085   5.872   1.687   3.642 -0.1324 -0.2110 -0.2489
   20CHTO   O85 8086   5.891   1.828   3.646 -0.6406  0.0044  0.0182
   20CHTO  H206 8087   5.957   1.842   3.711  1.4418  0.7024 -2.1836
   20CHTO  C121 8088   5.708   1.689   3.455 -0.3596  0.0244 -0.0810
   20CHTO  H225 8089   5.809   1.707   3.413  0.0640  1.3056  1.3963
   20CHTO   O81 8090   5.642   1.588   3.380  0.6976  0.0815  0.1340
   20CHTO  H202 8091   5.696   1.513   3.371  0.2128 -0.1661 -0.7424
   20CHTO  C119 8092   5.634   1.821   3.438 -0.2279  0.1968 -0.8388
   20CHTO  H223 8093   5.705   1.891   3.483  1.1149 -2.0663  0.7271
   20CHTO  C117 8094   5.496   1.824   3.510  0.2881  0.2175 -0.0434
   20CHTO  H221 8095   5.415   1.774   3.457  0.8186  0.2161 -0.8483
   20CHTO   N20 8096   5.446   1.968   3.530 -0.3716  0.2000  0.0811
   20CHTO  H209 8097   5.455   2.016   3.626  0.5297  0.3857 -0.0912
   20CHTO  H210 8098   5.471   2.032   3.446 -2.2046  1.4985  0.4886
   20CHTO   O80 8099   5.629   1.864   3.284  0.0430  0.1748 -0.7846
   20CHTO  C103 8100   5.695   1.990   3.237 -0.5333  0.3503 -0.7252
   20CHTO  H190 8101   5.682   2.079   3.298 -1.4526 -0.1634 -0.1594
   20CHTO  C101 8102   5.854   1.963   3.207 -0.2927  0.1627 -0.1496
   20CHTO  H188 8103   5.872   1.862   3.169 -1.6724  0.0566 -0.5236
   20CHTO   O68 8104   5.934   1.962   3.347 -0.1019 -0.3521  0.3382
   20CHTO  H168 8105   6.027   1.970   3.338  0.3642 -2.1886  2.8001
   20CHTO   C99 8106   5.916   2.060   3.101 -0.6789  0.4011 -0.1343
   20CHTO  H186 8107   5.932   2.160   3.145 -2.0342  0.1477  1.0143
   20CHTO   N17 8108   6.056   2.033   3.056  0.1922  0.0643 -0.0295
   20CHTO  H174 8109   6.073   2.099   2.971 -2.9634  0.0158 -0.7642
   20CHTO  H175 8110   6.123   2.060   3.136 -1.4238 -0.0720  1.3924
   20CHTO   C97 8111   5.818   2.073   2.982 -0.3747 -0.9838 -0.0898
   20CHTO  H184 8112   5.816   1.983   2.920  2.4216 -1.8476  1.0013
   20CHTO   O64 8113   5.689   2.113   3.024 -0.4608  0.0629 -0.3841
   20CHTO  C104 8114   5.624   2.010   3.099  0.0675 -0.5607  0.7572
   20CHTO  H191 8115   5.631   1.914   3.048  0.4906 -0.2710  0.2655
   20CHTO  C108 8116   5.471   2.041   3.103 -0.2673  0.1024 -0.1135
   20CHTO   O71 8117   5.441   2.156   3.183 -0.4073  0.2178 -0.2631
   20CHTO  H171 8118   5.437   2.132   3.274 -2.4942  1.7566  0.0859
   20CHTO   O62 8119   5.842   2.181   2.895  0.3330 -0.4488 -0.2408
   20CHTO   C91 8120   5.819   2.156   2.756  0.0864 -0.3000 -0.0377
   20CHTO  H178 8121   5.748   2.075   2.740  0.8691 -1.0334  0.1567
   20CHTO   C92 8122   5.955   2.112   2.687  0.6142  0.1738 -0.8039
   20CHTO  H179 8123   6.026   2.184   2.731  0.1970 -0.7152  1.4008
   20CHTO   O66 8124   5.984   1.973   2.736 -0.1054  0.1710 -0.3050
   20CHTO  H166 8125   6.076   1.958   2.721 -0.3969 -1.5268 -0.4567
   20CHTO   C93 8126   5.951   2.118   2.526 -0.6382  0.7085 -0.7380
   20CHTO  H180 8127   5.898   2.029   2.491  0.8277 -0.4203 -0.1654
   20CHTO   N16 8128   6.090   2.103   2.475 -0.2742 -0.1626 -0.3902
   20CHTO  H172 8129   6.165   2.177   2.500  0.3672 -0.8815 -0.1739
   20CHTO  H173 8130   6.129   2.002   2.473 -1.6925 -0.7479  1.1158
   20CHTO   C94 8131   5.884   2.246   2.477 -0.7953  0.0630 -0.3044
   20CHTO  H181 8132   5.937   2.333   2.515  0.2805 -0.6517 -0.1589
   20CHTO   O61 8133   5.761   2.255   2.540  0.1806  0.0889  0.8228
   20CHTO   C95 8134   5.765   2.286   2.675 -0.3669 -0.2462 -0.5358
   20CHTO  H182 8135   5.826   2.376   2.689 -1.0957  0.3764 -1.3382
   20CHTO  C106 8136   5.624   2.343   2.714  0.1411  0.1864  0.4293
   20CHTO   O69 8137   5.619   2.347   2.860  0.6278 -0.2600  0.4617
   20CHTO  H169 8138   5.531   2.337   2.892 -0.0057  2.8660 -0.0914
   20CHTO   O63 8139   5.862   2.243   2.322  0.5852  0.3593  0.2942
   20CHTO   C96 8140   5.872   2.400   2.252 -0.0386 -0.4514 -0.5050
   20CHTO  H183 8141   5.872   2.374   2.146  0.3001 -0.9856 -0.3801
   20CHTO   C98 8142   6.004   2.478   2.287 -0.8904 -0.5599  0.1420
   20CHTO  H185 8143   6.019   2.491   2.395  1.8012  0.6972 -0.3288
   20CHTO   O67 8144   6.116   2.391   2.248 -0.5452 -0.1468 -0.2124
   20CHTO  H167 8145   6.106   2.369   2.157  1.4846  2.5915 -1.1808
   20CHTO  C102 8146   6.008   2.625   2.221 -0.1861 -0.5635  0.3124
   20CHTO  H189 8147   6.024   2.608   2.114 -0.8485 -1.3743  0.3370
   20CHTO   N18 8148   6.113   2.719   2.264  0.2452  0.3229  0.2925
   20CHTO  H176 8149   6.113   2.713   2.372 -1.9646 -2.2067  0.2009
   20CHTO  H177 8150   6.097   2.821   2.234 -1.5071  0.6525  2.2277
   20CHTO  C105 8151   5.867   2.695   2.233 -0.4578 -0.5219  1.0331
   20CHTO  H192 8152   5.859   2.728   2.337 -0.1122 -0.1719  0.9501
   20CHTO   O65 8153   5.762   2.606   2.202 -0.6157  0.1506 -0.2481
   20CHTO  C100 8154   5.746   2.492   2.285 -0.2603 -0.0932  0.8906
   20CHTO  H187 8155   5.744   2.501   2.395  2.5024  0.1151  0.9604
   20CHTO  C107 8156   5.622   2.415   2.247  0.1491  0.3650  0.2791
   20CHTO   O70 8157   5.503   2.474   2.295 -0.0441  0.6137 -0.1405
   20CHTO  H170 8158   5.433   2.491   2.235  0.2777 -0.0323 -0.7015
   20CHTO   O57 8159   5.859   2.807   2.133  0.1076  0.2880  0.0403
   20CHTO   C85 8160   5.751   2.895   2.149  0.3043  0.4807  0.3752
   20CHTO  H157 8161   5.727   2.892   2.258 -1.2968  0.5621  0.0394
   20CHTO   C83 8162   5.625   2.844   2.072  0.3344  0.4448 -0.3162
   20CHTO  H155 8163   5.578   2.770   2.137  1.1659 -0.5434 -0.8264
   20CHTO   O56 8164   5.662   2.763   1.957  0.8842  0.7996 -0.3396
   20CHTO  H135 8165   5.695   2.814   1.885 -1.3272 -0.7012 -2.5139
   20CHTO   C81 8166   5.522   2.956   2.032 -0.8197 -0.5794 -0.8531
   20CHTO  H153 8167   5.495   3.003   2.127 -1.3288  1.2744 -1.8827
   20CHTO   N14 8168   5.398   2.908   1.968  0.4451  0.4471  0.0011
   20CHTO  H141 8169   5.319   2.870   2.029 -0.1239 -1.1803 -1.7149
   20CHTO  H142 8170   5.416   2.846   1.883 -1.9001  1.0525 -0.9673
   20CHTO   C79 8171   5.600   3.067   1.951 -0.5797 -0.4992  0.5305
   20CHTO  H151 8172   5.528   3.144   1.922 -0.7180 -0.8530 -0.0699
   20CHTO   O52 8173   5.694   3.133   2.053  0.1256  0.3015 -0.1022
   20CHTO   C86 8174   5.796   3.044   2.109  0.0492  0.0370  0.6204
   20CHTO  H158 8175   5.871   3.032   2.028  1.9945 -0.4790  2.4626
   20CHTO   C90 8176   5.875   3.109   2.222  0.2430  0.2009 -0.1600
   20CHTO   O60 8177   6.007   3.051   2.239  0.1621  0.8889 -0.3020
   20CHTO  H138 8178   6.010   2.959   2.256  0.7640  0.9772  0.0973
   20CHTO   O50 8179   5.660   3.010   1.840 -0.2406 -0.2241  0.1272
   20CHTO   C73 8180   5.759   3.049   1.748 -0.3072 -0.0226 -0.4313
   20CHTO  H145 8181   5.860   3.043   1.790 -1.1370  1.5819  1.9215
   20CHTO   C74 8182   5.744   3.193   1.690  0.4288 -0.5961  0.0321
   20CHTO  H146 8183   5.749   3.256   1.780  1.1293 -1.6902  0.7582
   20CHTO   O54 8184   5.862   3.208   1.612  0.5744 -0.0838  0.4641
   20CHTO  H133 8185   5.927   3.238   1.673 -0.4498 -2.4217  2.7910
   20CHTO   C75 8186   5.607   3.209   1.613 -0.2593 -0.1626 -0.1727
   20CHTO  H147 8187   5.527   3.200   1.687  0.7811  1.4771  1.1843
   20CHTO   N13 8188   5.603   3.343   1.542  0.1915  0.6971  0.3693
   20CHTO  H139 8189   5.542   3.414   1.595  0.0040  0.4261  0.5152
   20CHTO  H140 8190   5.561   3.316   1.446  0.2898 -1.1179  0.8186
   20CHTO   C76 8191   5.602   3.090   1.511  0.4925 -0.8085  0.2290
   20CHTO  H148 8192   5.679   3.103   1.435 -1.2859  1.6577 -1.2137
   20CHTO   O49 8193   5.621   2.954   1.570 -0.2176 -0.0884 -0.1347
   20CHTO   C77 8194   5.750   2.946   1.635  0.4231  0.4503  0.2461
   20CHTO  H149 8195   5.830   2.961   1.562  0.6787 -2.1241 -0.0545
   20CHTO   C88 8196   5.771   2.798   1.673  0.1248  0.6812 -0.2158
   20CHTO   O58 8197   5.882   2.787   1.736 -0.6686 -0.2600 -0.3317
   20CHTO  H136 8198   5.879   2.698   1.766  0.2094  0.4813  2.0871
   20CHTO   O51 8199   5.468   3.081   1.444  0.6112  0.5887  0.1241
   20CHTO   C78 8200   5.351   2.990   1.518  0.0456 -0.5188 -0.2331
   20CHTO  H150 8201   5.364   2.958   1.624  0.2411 -0.6539 -0.2977
   20CHTO   C80 8202   5.314   2.869   1.443 -0.5155  0.1682 -0.3522
   20CHTO  H152 8203   5.275   2.898   1.343  0.9916 -2.0190 -1.6314
   20CHTO   O55 8204   5.436   2.795   1.433  0.2091 -0.1928  0.6512
   20CHTO  H134 8205   5.416   2.715   1.389 -0.9309  0.5709 -0.2590
   20CHTO   C84 8206   5.203   2.785   1.514 -0.0293  0.0999 -0.3874
   20CHTO  H156 8207   5.241   2.744   1.608  1.8503  0.3064 -1.0300
   20CHTO   N15 8208   5.159   2.659   1.444  0.2125 -0.3254  0.0484
   20CHTO  H143 8209   5.059   2.635   1.475  0.9998 -3.0141  0.6328
   20CHTO  H144 8210   5.160   2.663   1.338 -0.1770  0.6570  0.0789
   20CHTO   C87 8211   5.076   2.879   1.543 -0.6586  0.8610 -0.7196
   20CHTO  H159 8212   5.023   2.889   1.448  1.2866  1.2517 -1.7981
   20CHTO   O53 8213   5.116   2.996   1.611 -0.1275  0.3127  0.5129
   20CHTO   C82 8214   5.217   3.071   1.533  0.3755 -0.3409 -0.6962
   20CHTO  H154 8215   5.179   3.092   1.432  0.5275  2.5736 -0.2045
   20CHTO   C89 8216   5.244   3.207   1.595  0.3927  0.3568  0.5502
   20CHTO   O59 8217   5.119   3.279   1.597 -0.2658  0.2881 -0.2328
   20CHTO  H137 8218   5.129   3.345   1.662  0.3378  1.2041 -1.2314
   20CHTO   O45 8219   4.955   2.816   1.630 -0.3561  0.4248 -0.3201
   20CHTO   C67 8220   4.980   2.784   1.766 -0.1017 -1.2397  0.4182
   20CHTO  H124 8221   5.081   2.744   1.772  0.6910  0.7313  0.6891
   20CHTO   C65 8222   4.960   2.899   1.876 -0.2458  0.7110  1.0953
   20CHTO  H122 8223   5.010   2.988   1.838  0.3233 -0.6158 -1.3690
   20CHTO   O44 8224   5.014   2.866   1.998  0.3105  0.5755 -0.5496
   20CHTO  H102 8225   4.975   2.922   2.062  1.3336  0.5859  0.0846
   20CHTO   C63 8226   4.809   2.934   1.879 -0.1597 -0.0116 -0.1295
   20CHTO  H120 8227   4.770   2.936   1.778 -0.0047  0.3084 -0.1820
   20CHTO   N11 8228   4.767   3.066   1.929  0.0495  0.5116  0.2037
   20CHTO  H108 8229   4.783   3.086   2.033 -0.3981  1.3987  0.1107
   20CHTO  H109 8230   4.810   3.145   1.870  1.5483  0.9811  1.8753
   20CHTO   C61 8231   4.746   2.805   1.960 -0.1637 -0.8614 -0.3799
   20CHTO  H118 8232   4.637   2.801   1.946 -0.4017  2.6662 -0.1326
   20CHTO   O40 8233   4.797   2.676   1.915  0.1022  0.4133  0.4303
   20CHTO   C68 8234   4.880   2.662   1.794 -0.3825 -0.3605  0.4328
   20CHTO  H125 8235   4.815   2.660   1.704 -1.3893  2.0637  1.0591
   20CHTO   C72 8236   4.951   2.522   1.804 -0.5230 -0.6890 -0.6203
   20CHTO   O48 8237   5.036   2.489   1.691 -0.0746  0.0182 -0.5251
   20CHTO  H105 8238   4.986   2.452   1.620 -0.5795  1.1364 -0.7631
   20CHTO   O38 8239   4.760   2.820   2.106  0.4702  0.1020  0.1205
   20CHTO   C55 8240   4.702   2.725   2.190 -0.1769 -0.2251 -0.0685
   20CHTO  H112 8241   4.679   2.631   2.137  3.8640  0.3458 -3.1386
   20CHTO   C56 8242   4.581   2.785   2.255  0.0180  0.1033  0.0314
   20CHTO  H113 8243   4.597   2.888   2.291 -0.7021  0.0638  0.4701
   20CHTO   O42 8244   4.490   2.811   2.147 -0.4269  0.2499  0.4550
   20CHTO  H100 8245   4.410   2.853   2.171 -0.0942  0.9217  0.3852
   20CHTO   C57 8246   4.522   2.695   2.369 -0.2030  0.2771  0.4257
   20CHTO  H114 8247   4.472   2.609   2.325  0.2273  0.0348  0.4069
   20CHTO   N10 8248   4.415   2.766   2.445  0.0054  0.5492 -0.3836
   20CHTO  H106 8249   4.413   2.734   2.549 -0.6572  1.0883 -0.2279
   20CHTO  H107 8250   4.327   2.730   2.394  0.8314 -2.7541  0.4025
   20CHTO   C58 8251   4.636   2.645   2.458 -0.4479  0.2638  0.0299
   20CHTO  H115 8252   4.673   2.731   2.517  0.5354 -1.9921  2.8060
   20CHTO   O37 8253   4.745   2.594   2.384  0.0731 -0.4612 -0.1457
   20CHTO   C59 8254   4.804   2.693   2.298 -0.3190  0.1316  0.1660
   20CHTO  H116 8255   4.849   2.779   2.349 -1.6006  1.9298 -1.6269
   20CHTO   C70 8256   4.917   2.613   2.231  0.2641 -0.0907 -0.3033
   20CHTO   O46 8257   5.026   2.597   2.325  0.3127  0.5388  0.0072
   20CHTO  H103 8258   5.010   2.518   2.372 -0.0173  1.1443  0.9207
   20CHTO   O39 8259   4.585   2.516   2.562 -0.5475 -0.1472  0.3219
   20CHTO   C60 8260   4.693   2.471   2.643 -0.0017  0.4657  0.1836
   20CHTO  H117 8261   4.787   2.510   2.605 -1.0637  2.9676  0.0534
   20CHTO   C62 8262   4.667   2.513   2.783 -0.3183 -0.6331  0.2950
   20CHTO  H119 8263   4.671   2.624   2.784 -0.8269 -0.6244  1.9804
   20CHTO   O43 8264   4.538   2.459   2.826 -0.4586 -0.3207 -0.0451
   20CHTO  H101 8265   4.511   2.497   2.907  1.1728 -3.1810  1.9112
   20CHTO   C66 8266   4.780   2.468   2.868 -0.1842 -0.0314  0.3865
   20CHTO  H123 8267   4.872   2.514   2.831 -2.2030  1.3996 -3.1208
   20CHTO   N12 8268   4.767   2.505   3.010 -0.0655  0.1838 -0.5098
   20CHTO  H110 8269   4.757   2.612   3.008 -0.3382  0.2184  1.5769
   20CHTO  H111 8270   4.679   2.454   3.048  0.6390 -0.2819  0.5321
   20CHTO   C69 8271   4.807   2.312   2.862  0.3021 -0.2993 -0.4997
   20CHTO  H126 8272   4.735   2.253   2.923 -0.1037 -0.2745 -0.9543
   20CHTO   O41 8273   4.802   2.268   2.711  0.2202  0.0591 -0.0641
   20CHTO   C64 8274   4.694   2.316   2.629 -0.6206  0.9783 -0.2445
   20CHTO  H121 8275   4.601   2.276   2.673  0.6788 -0.4835  1.2326
   20CHTO   C71 8276   4.707   2.263   2.488  0.3914  0.1166  0.1792
   20CHTO   O47 8277   4.651   2.144   2.466  0.0482 -0.0695  0.1849
   20CHTO  H104 8278   4.565   2.157   2.431  0.0939  0.2369  0.1890
   20CHTO   O34 8279   4.957   2.286   2.930  0.6033  0.0106  0.1273
   20CHTO   C49 8280   5.102   2.205   2.884  0.2907 -0.0438 -0.1039
   20CHTO   H91 8281   5.150   2.167   2.974 -1.0356  1.9253  1.4738
   20CHTO   C47 8282   5.200   2.299   2.814  0.1011 -0.0364  0.3235
   20CHTO   H89 8283   5.297   2.252   2.787 -0.6108 -1.3684  0.0409
   20CHTO   O33 8284   5.232   2.411   2.903 -0.4065 -0.4114  0.1922
   20CHTO   H70 8285   5.321   2.431   2.881  0.0979  0.3687  2.7827
   20CHTO   C45 8286   5.127   2.352   2.672 -0.4033 -0.2442 -0.2831
   20CHTO   H87 8287   5.029   2.390   2.703  0.5830  1.6140  0.6267
   20CHTO    N8 8288   5.199   2.460   2.610 -0.6668  0.4510 -0.2477
   20CHTO   H75 8289   5.147   2.554   2.620  0.4986  1.1331 -0.5253
   20CHTO   H76 8290   5.235   2.439   2.510  0.0315 -0.8780  0.2761
   20CHTO   C43 8291   5.088   2.220   2.580  0.5047 -0.5468 -0.2383
   20CHTO   H85 8292   5.025   2.256   2.498  0.0562 -2.8701 -0.9517
   20CHTO   O29 8293   5.028   2.119   2.653 -0.0373  0.2918  0.0097
   20CHTO   C50 8294   5.071   2.090   2.791 -0.7777 -0.0154 -0.5403
   20CHTO   H92 8295   4.986   2.034   2.834  0.5375 -0.5852  1.3582
   20CHTO   C54 8296   5.186   1.987   2.789 -0.0544  0.5603  0.2513
   20CHTO   O36 8297   5.160   1.852   2.744 -0.4929  0.0309 -0.0039
   20CHTO   H72 8298   5.146   1.856   2.651 -0.8857 -2.5293 -0.1044
   20CHTO   O27 8299   5.203   2.165   2.513  0.3416 -0.1871  0.3361
   20CHTO   C37 8300   5.254   2.114   2.396  0.0840  0.7967  0.0052
   20CHTO   H79 8301   5.199   2.021   2.374 -0.6409  1.0989  0.5253
   20CHTO   C38 8302   5.230   2.208   2.274 -0.0640 -0.4406 -0.6447
   20CHTO   H80 8303   5.261   2.311   2.295  0.6349 -0.3845 -1.8991
   20CHTO   O31 8304   5.087   2.214   2.250  0.0539 -0.2075 -0.2456
   20CHTO   H68 8305   5.059   2.143   2.196  0.6640 -1.0582  0.5462
   20CHTO   C39 8306   5.296   2.147   2.151 -0.4721 -0.3429  0.1454
   20CHTO   H81 8307   5.244   2.052   2.137  1.1993 -1.6110  2.1396
   20CHTO    N7 8308   5.279   2.226   2.024  0.7067 -0.0888 -0.1545
   20CHTO   H73 8309   5.173   2.237   2.004  1.0815  0.3972 -1.9626
   20CHTO   H74 8310   5.329   2.320   2.042 -1.7019  1.2312 -0.1867
   20CHTO   C40 8311   5.451   2.105   2.175 -0.2624  0.2826 -0.5985
   20CHTO   H82 8312   5.525   2.185   2.176  0.3719 -0.2404 -2.2859
   20CHTO   O26 8313   5.461   2.021   2.288  0.0535 -0.0230 -0.0259
   20CHTO   C41 8314   5.412   2.084   2.401 -1.0420  0.4325  0.1953
   20CHTO   H83 8315   5.471   2.176   2.413 -1.4594  0.7392 -0.0985
   20CHTO   C52 8316   5.451   1.998   2.515 -0.2459 -0.0667 -0.5056
   20CHTO   O35 8317   5.603   2.009   2.536  0.1125 -0.2632  0.3939
   20CHTO   H71 8318   5.623   1.944   2.600  2.1853 -2.5511 -2.4652
   20CHTO   O28 8319   5.505   2.027   2.065 -0.2059 -0.0632  0.0967
   20CHTO   C42 8320   5.655   2.009   2.046 -0.5132 -0.8161  0.4127
   20CHTO   H84 8321   5.661   1.939   1.963  0.7011 -0.2154 -0.0227
   20CHTO   C44 8322   5.725   1.938   2.169  0.0367  0.1940  0.7456
   20CHTO   H86 8323   5.724   2.014   2.248 -0.5710  2.8925 -1.7855
   20CHTO   O32 8324   5.645   1.824   2.215  0.2610 -0.4200 -0.4371
   20CHTO   H69 8325   5.563   1.846   2.254  0.1000 -0.1353 -0.9336
   20CHTO   C48 8326   5.873   1.893   2.148  0.9377  0.5914 -0.1690
   20CHTO   H90 8327   5.867   1.821   2.067 -0.4945 -0.4652  0.8503
   20CHTO    N9 8328   5.940   1.820   2.260 -0.0954  1.0118  0.2975
   20CHTO   H77 8329   6.024   1.758   2.234  0.5497  1.5540  1.0865
   20CHTO   H78 8330   5.861   1.761   2.306  0.4874  1.2092  1.5662
   20CHTO   C51 8331   5.961   2.018   2.092 -0.7351  1.0494 -0.0161
   20CHTO   H93 8332   5.996   2.082   2.174  1.2289  0.4344 -0.3441
   20CHTO   O30 8333   5.902   2.099   1.987  0.3000  0.1738  0.0831
   20CHTO   C46 8334   5.740   2.136   1.999  0.2473 -0.3061  0.4283
   20CHTO   H88 8335   5.729   2.220   2.067 -0.7161 -0.9942  1.1286
   20CHTO   C53 8336   5.697   2.166   1.850 -0.1987  0.0861 -0.0456
   20CHTO   O72 8337   5.560   2.197   1.864 -0.3933  0.3439  0.4186
   20CHTO  H199 8338   5.563   2.290   1.848  1.9271  0.5117  1.5342
   20CHTO   O22 8339   6.075   1.963   2.021  0.4145  0.3312 -0.0666
   20CHTO   C31 8340   6.225   1.952   2.054  0.2165 -0.0870  0.3932
   20CHTO   H59 8341   6.277   1.967   1.956  0.8417 -1.3956  0.5070
   20CHTO   C29 8342   6.283   2.064   2.148  0.5592  0.2502 -0.4127
   20CHTO   H57 8343   6.216   2.051   2.234 -1.3191  2.3443 -1.5047
   20CHTO   O21 8344   6.254   2.189   2.088 -0.1341 -0.1775 -0.1132
   20CHTO   H37 8345   6.250   2.260   2.151 -4.1632 -1.6661  1.5131
   20CHTO   C27 8346   6.428   2.050   2.187 -0.0202  0.1905  0.0924
   20CHTO   H55 8347   6.497   2.067   2.103  0.9996  2.0258  1.2751
   20CHTO    N5 8348   6.466   2.144   2.297 -0.2042 -0.4134 -0.4288
   20CHTO   H43 8349   6.451   2.244   2.257  0.4807  0.6413  1.8493
   20CHTO   H44 8350   6.401   2.131   2.383  2.0549 -1.3594  1.1779
   20CHTO   C25 8351   6.459   1.905   2.228  0.5793 -0.4835 -0.6708
   20CHTO   H53 8352   6.392   1.879   2.312  0.8443 -1.2522 -0.6942
   20CHTO   O17 8353   6.418   1.818   2.123  0.2128  0.1627 -0.3245
   20CHTO   C32 8354   6.273   1.818   2.107  0.3633 -0.0820  0.3419
   20CHTO   H60 8355   6.228   1.803   2.205  1.6330  0.6217  1.0488
   20CHTO   C36 8356   6.235   1.704   2.004 -0.2539  0.4282  0.9285
   20CHTO   O25 8357   6.277   1.575   2.050 -0.5464 -0.1349  0.1578
   20CHTO   H40 8358   6.283   1.561   2.143 -2.1599 -0.1651  0.2568
   20CHTO   O15 8359   6.617   1.881   2.253 -0.1888 -0.1660 -0.4880
   20CHTO   C19 8360   6.713   1.812   2.172  0.2666 -0.3263  0.0478
   20CHTO   H47 8361   6.663   1.810   2.074  0.9067  1.5506 -0.3377
   20CHTO   C20 8362   6.854   1.887   2.163  0.5207 -0.0608  0.1220
   20CHTO   H48 8363   6.909   1.874   2.258 -2.0907  1.5316  1.8827
   20CHTO   O19 8364   6.824   2.024   2.120  0.3073 -0.6075  0.0336
   20CHTO   H35 8365   6.826   2.032   2.027 -2.2640 -0.0746 -0.0126
   20CHTO   C21 8366   6.944   1.806   2.056  0.4461 -0.1444 -0.3942
   20CHTO   H49 8367   6.906   1.818   1.955  0.3889  0.5892 -0.2908
   20CHTO    N4 8368   7.087   1.854   2.045  0.2253  0.3913  0.6687
   20CHTO   H41 8369   7.154   1.792   1.987 -0.0420 -0.9405  1.7612
   20CHTO   H42 8370   7.126   1.870   2.145  1.1783  0.1527  0.3412
   20CHTO   C22 8371   6.951   1.655   2.091 -0.9541 -0.2034 -0.3366
   20CHTO   H50 8372   7.016   1.647   2.178 -2.0917  0.1696  0.5784
   20CHTO   O14 8373   6.824   1.600   2.110  0.8754  0.4161 -0.2363
   20CHTO   C23 8374   6.738   1.661   2.207  0.7013  0.8228 -0.3954
   20CHTO   H51 8375   6.793   1.648   2.301  1.0107  0.1834 -0.6635
   20CHTO   C34 8376   6.610   1.576   2.217 -0.1201 -0.3520  0.4109
   20CHTO   O23 8377   6.639   1.438   2.248 -0.3367 -0.1240 -0.0065
   20CHTO   H38 8378   6.677   1.435   2.334 -2.5020  1.5150  1.0291
   20CHTO   O16 8379   6.992   1.581   1.980 -0.3684  0.4059 -0.0132
   20CHTO   C24 8380   7.060   1.440   2.007  0.7428  0.0729 -0.6017
   20CHTO   H52 8381   7.036   1.402   2.106  0.8362  1.1836 -0.1470
   20CHTO   C26 8382   7.217   1.454   1.988  0.0442 -0.1415 -0.3019
   20CHTO   H54 8383   7.236   1.460   1.878 -1.2344 -3.1553 -0.7514
   20CHTO   O20 8384   7.268   1.572   2.047  0.4310  0.1408  0.9431
   20CHTO   H36 8385   7.241   1.583   2.136 -0.8365 -0.3097  0.6328
   20CHTO   C30 8386   7.274   1.319   2.047  0.1974 -0.3440  0.6801
   20CHTO   H58 8387   7.270   1.321   2.157  3.0558 -0.1757  0.8347
   20CHTO    N6 8388   7.421   1.310   2.023 -0.1622 -0.0668 -0.1172
   20CHTO   H45 8389   7.439   1.314   1.916 -3.2613 -0.7362 -0.7133
   20CHTO   H46 8390   7.472   1.388   2.078 -2.7890  0.7511  1.2368
   20CHTO   C33 8391   7.196   1.191   2.000  0.4242  0.0247  0.0024
   20CHTO   H61 8392   7.263   1.110   1.968 -0.1080  0.3566 -2.0233
   20CHTO   O18 8393   7.105   1.225   1.890 -0.4440  0.1355 -0.1852
   20CHTO   C28 8394   7.015   1.335   1.904  0.5168  0.0395  0.1309
   20CHTO   H56 8395   6.990   1.381   1.809  0.9429 -1.0907 -0.5385
   20CHTO   C35 8396   6.878   1.280   1.943 -0.6293  0.3912 -0.0222
   20CHTO   O24 8397   6.800   1.231   1.830 -0.1459  0.6559 -0.0427
   20CHTO   H39 8398   6.836   1.154   1.790 -0.4160 -0.7831  2.4102
   20CHTO    O9 8399   7.125   1.142   2.109  0.8162 -0.3394  0.0300
   20CHTO   C13 8400   7.105   0.985   2.122 -0.0069  0.2151 -0.0663
   20CHTO   H26 8401   7.209   0.949   2.139  0.7564  1.5992 -1.5897
   20CHTO   C11 8402   7.041   0.917   1.994  0.1307  0.7249  0.2445
   20CHTO   H24 8403   7.117   0.927   1.915  2.0180  0.2401  1.9483
   20CHTO    O8 8404   6.914   0.966   1.955 -0.3799  0.4959 -0.0241
   20CHTO    H3 8405   6.858   0.902   1.916 -0.0600  0.0939  0.1737
   20CHTO    C9 8406   7.040   0.769   2.027  0.2288  0.3185  0.5022
   20CHTO   H22 8407   7.141   0.738   2.055 -0.1541 -0.4314  1.0872
   20CHTO    N2 8408   7.006   0.680   1.911  0.3079  0.8316  0.3923
   20CHTO   H10 8409   6.915   0.705   1.858  1.1767  1.9763 -0.6049
   20CHTO   H11 8410   7.010   0.576   1.938 -1.3667 -0.0748 -2.6206
   20CHTO    C7 8411   6.942   0.733   2.150 -0.0378  0.4903 -0.2557
   20CHTO   H20 8412   6.962   0.625   2.169 -0.4112  0.1792 -1.5631
   20CHTO    O4 8413   6.966   0.807   2.269  0.4116  0.1910 -0.3816
   20CHTO   C14 8414   7.010   0.954   2.249  0.4195  0.4387  0.0310
   20CHTO   H27 8415   7.068   0.979   2.340  1.7863  1.5688 -1.1315
   20CHTO   C18 8416   6.878   1.031   2.258  0.5186 -1.2581 -0.8576
   20CHTO   O13 8417   6.847   1.067   2.394 -0.2412 -0.4364  0.0349
   20CHTO    H7 8418   6.801   0.999   2.439  1.0889 -1.7164 -0.5244
   20CHTO    O2 8419   6.786   0.749   2.120  0.0858 -0.4096  0.8411
   20CHTO    C1 8420   6.693   0.693   2.210 -0.2935 -0.2807  0.2249
   20CHTO   H14 8421   6.717   0.744   2.306  1.2772  0.8361 -0.7391
   20CHTO    C2 8422   6.703   0.536   2.229 -0.3247  0.5600 -0.3522
   20CHTO   H15 8423   6.731   0.496   2.130 -0.2016  0.6680 -0.3606
   20CHTO    O6 8424   6.808   0.509   2.322  0.3036  0.1953  0.2062
   20CHTO    H1 8425   6.789   0.556   2.401  3.2735  2.6381 -0.4250
   20CHTO    C3 8426   6.566   0.472   2.301 -0.0667  0.2207 -0.1597
   20CHTO   H16 8427   6.571   0.500   2.407  1.2197 -1.2983  0.2028
   20CHTO    N1 8428   6.567   0.321   2.305  0.3305 -0.3032  0.6421
   20CHTO    H8 8429   6.476   0.271   2.335  0.6923 -1.2259  0.2195
   20CHTO    H9 8430   6.588   0.281   2.207 -1.8288 -0.1625  0.1031
   20CHTO    C4 8431   6.433   0.535   2.242 -0.6923  0.0986  0.1116
   20CHTO   H17 8432   6.420   0.503   2.138 -0.2385  2.8727 -0.8402
   20CHTO    O1 8433   6.441   0.680   2.247  0.2172 -0.2167 -0.3206
   20CHTO    C5 8434   6.548   0.734   2.165 -0.5173  0.2157  0.4039
   20CHTO   H18 8435   6.537   0.705   2.061 -0.2562  0.6697  0.2507
   20CHTO   C16 8436   6.532   0.886   2.182  0.2579  0.5919  0.4794
   20CHTO   O11 8437   6.573   0.953   2.055  0.6211  0.6780  0.3401
   20CHTO    H5 8438   6.493   0.969   2.009 -0.0309 -1.2693  0.7723
   20CHTO    O3 8439   6.314   0.494   2.317  0.3075  0.1544  0.1656
   20CHTO    C6 8440   6.189   0.571   2.294  0.1861  0.2415 -0.2278
   20CHTO   H19 8441   6.201   0.676   2.268 -1.3576  0.6289  0.5765
   20CHTO    C8 8442   6.104   0.509   2.176 -0.0779 -0.4900  0.2776
   20CHTO   H21 8443   6.111   0.400   2.186 -0.9035 -0.3912  2.2547
   20CHTO    O7 8444   6.177   0.537   2.060 -0.3086 -0.1339  1.0028
   20CHTO    H2 8445   6.172   0.627   2.034  0.4828 -0.4593 -0.3053
   20CHTO   C12 8446   5.954   0.559   2.172 -0.2432  0.2829 -0.8095
   20CHTO   H25 8447   5.967   0.664   2.136  1.4550 -0.4246 -2.3233
   20CHTO    N3 8448   5.872   0.480   2.077 -0.5850  0.8425 -0.1074
   20CHTO   H12 8449   5.911   0.388   2.036 -0.2324  1.3907 -1.0134
   20CHTO   H13 8450   5.784   0.456   2.134 -0.5801  0.2965 -0.3252
   20CHTO   C15 8451   5.894   0.572   2.321  0.1591  0.0758 -0.4672
   20CHTO   H28 8452   5.874   0.476   2.368 -1.5475  1.3512  1.5041
   20CHTO   O10 8453   5.749   0.655   2.324 -0.6392  0.4825 -0.5575
   20CHTO    H4 8454   5.739   0.699   2.407 -1.2801  1.2603 -1.0399
   20CHTO    O5 8455   5.984   0.651   2.405  0.5262  0.1323  0.1281
   20CHTO   C10 8456   6.107   0.570   2.424 -0.6534 -0.3519 -0.1300
   20CHTO   H23 8457   6.083   0.466   2.446  0.3073 -0.2890  1.2446
   20CHTO   C17 8458   6.174   0.641   2.538  0.1117 -0.6985 -1.2631
   20CHTO   O12 8459   6.289   0.562   2.571 -0.2083 -0.5050 -0.3302
   20CHTO    H6 8460   6.354   0.586   2.509  0.0537  0.0702  0.1596
   21GLOH   H03 8461   9.229   2.502   2.012 -1.8002 -0.2305 -1.2929
   21GLOH    O1 8462   9.305   2.514   1.952 -0.4073 -0.9160  0.3244
   21GLOH    C1 8463   9.330   2.662   1.949 -0.5088 -0.3015  0.0179
   21GLOH   H02 8464   9.257   2.712   2.013 -0.0474 -0.5119  0.7126
   21GLOH   H08 8465   9.313   2.694   1.846 -0.1982 -0.3402 -0.0454
   21GLOH    C2 8466   9.470   2.692   1.992  0.2408  0.3743  0.1767
   21GLOH   H04 8467   9.532   2.652   1.911  1.8565  0.7684  1.1942
   21GLOH    O2 8468   9.489   2.832   2.001 -0.1310  0.9206  0.0641
   21GLOH   H05 8469   9.575   2.849   2.045  0.7871 -0.1575 -1.2812
   21GLOH    C3 8470   9.505   2.622   2.125  0.2521  1.0505  0.0137
   21GLOH   H06 8471   9.493   2.515   2.107 -2.6017  1.3840 -0.3445
   21GLOH   H07 8472   9.444   2.640   2.214  0.1466 -3.4165  0.9719
   21GLOH    O3 8473   9.640   2.641   2.165 -0.7844  0.6135 -0.7183
   21GLOH   H01 8474   9.704   2.600   2.104 -0.7430  0.7647 -0.7762
   22GLOH   H03 8475   9.478   1.459   2.408 -0.3825 -1.4602  2.7814
   22GLOH    O1 8476   9.573   1.454   2.429  0.4351 -0.4276 -0.4288
   22GLOH    C1 8477   9.611   1.564   2.515  0.0352 -0.2381  0.3645
   22GLOH   H02 8478   9.687   1.520   2.580 -0.6646 -0.6189  0.9232
   22GLOH   H08 8479   9.527   1.600   2.574 -1.4764 -0.1269 -1.8108
   22GLOH    C2 8480   9.685   1.678   2.448  0.1279 -0.1605 -0.0275
   22GLOH   H04 8481   9.753   1.639   2.371  0.4206  2.1530 -1.0023
   22GLOH    O2 8482   9.577   1.741   2.383  0.1166 -0.7292  0.5951
   22GLOH   H05 8483   9.552   1.685   2.307  1.2836 -0.5412  0.0544
   22GLOH    C3 8484   9.745   1.780   2.543 -0.4453 -0.0992  0.0764
   22GLOH   H06 8485   9.669   1.802   2.618  0.9343  1.7004  0.9795
   22GLOH   H07 8486   9.778   1.872   2.495  0.1652 -1.0591 -1.3853
   22GLOH    O3 8487   9.849   1.713   2.615 -0.6370  0.4900  0.2596
   22GLOH   H01 8488   9.907   1.788   2.640 -0.4403  0.4070  0.0485
   23GLOH   H03 8489   0.328   6.186   0.541  0.7594 -0.0637 -0.9295
   23GLOH    O1 8490   0.376   6.127   0.602  0.2378  0.2257 -0.2367
   23GLOH    C1 8491   0.507   6.180   0.611  0.0628  0.1398 -0.2220
   23GLOH   H02 8492   0.557   6.136   0.697 -0.1483  0.3948  0.0332
   23GLOH   H08 8493   0.493   6.284   0.640 -1.1617  0.5395 -2.1695
   23GLOH    C2 8494   0.591   6.161   0.477 -0.7226 -0.1012  0.2846
   23GLOH   H04 8495   0.592   6.051   0.463 -2.5785 -0.1215  0.1437
   23GLOH    O2 8496   0.528   6.231   0.368 -0.3728  0.0790 -0.1604
   23GLOH   H05 8497   0.510   6.325   0.384 -3.4181 -0.4639 -0.2231
   23GLOH    C3 8498   0.733   6.197   0.500  0.2356  0.2199 -0.0317
   23GLOH   H06 8499   0.735   6.286   0.564 -0.8536  0.9463 -0.9886
   23GLOH   H07 8500   0.779   6.226   0.406 -2.3169  0.1084 -1.3680
   23GLOH    O3 8501   0.802   6.087   0.571  0.3554 -0.3299 -0.0658
   23GLOH   H01 8502   0.760   6.005   0.539 -1.2776  0.4327  0.0403
   24GLOH   H03 8503   8.846   8.992   2.172 -0.1866  0.3077 -1.1657
   24GLOH    O1 8504   8.754   9.020   2.186 -0.3525 -0.5121 -0.5830
   24GLOH    C1 8505   8.690   8.913   2.253 -0.7186 -0.0750 -0.6133
   24GLOH   H02 8506   8.745   8.819   2.258 -1.5496 -0.5832 -0.9828
   24GLOH   H08 8507   8.599   8.884   2.201  0.0692 -0.6724 -1.7004
   24GLOH    C2 8508   8.656   8.958   2.397 -0.2065  0.3816 -0.3562
   24GLOH   H04 8509   8.570   9.024   2.383  0.1530  1.1155  0.8314
   24GLOH    O2 8510   8.613   8.847   2.480 -0.4510 -0.8372 -0.0557
   24GLOH   H05 8511   8.689   8.798   2.515  0.3613  1.4358  1.4613
   24GLOH    C3 8512   8.772   9.040   2.465  0.2293  0.2233 -0.7728
   24GLOH   H06 8513   8.868   8.999   2.433 -0.0268 -0.3845 -0.7527
   24GLOH   H07 8514   8.764   9.042   2.574  1.0415 -1.5162 -0.6695
   24GLOH    O3 8515   8.772   9.171   2.397  0.2086 -0.3478  0.3202
   24GLOH   H01 8516   8.763   9.158   2.301 -0.6474  0.4381  0.2846
   25GLOH   H03 8517   4.008   8.855   0.625 -1.9176 -1.5233  2.1745
   25GLOH    O1 8518   4.079   8.787   0.627 -0.3180  0.0761  0.8563
   25GLOH    C1 8519   4.195   8.824   0.715  0.4241  0.1462  0.4252
   25GLOH   H02 8520   4.214   8.932   0.718  0.8081  0.1027 -0.3349
   25GLOH   H08 8521   4.286   8.781   0.675  1.4527  0.4780  2.3490
   25GLOH    C2 8522   4.191   8.779   0.863 -0.3539  0.0858 -0.0331
   25GLOH   H04 8523   4.183   8.670   0.850  3.2776 -0.3878  1.1850
   25GLOH    O2 8524   4.314   8.819   0.935 -0.2109  1.1909  0.2093
   25GLOH   H05 8525   4.304   8.813   1.031 -2.4061  2.8033  0.1351
   25GLOH    C3 8526   4.064   8.828   0.930 -0.3585 -0.0852  0.0763
   25GLOH   H06 8527   4.066   8.780   1.028  1.6850 -0.8044 -0.2874
   25GLOH   H07 8528   3.972   8.788   0.888 -1.8445  0.1415  2.9752
   25GLOH    O3 8529   4.054   8.969   0.944 -0.0383 -0.0419  0.3269
   25GLOH   H01 8530   4.028   8.983   1.037 -2.5592  0.9206 -0.4703
   26GLOH   H03 8531  -0.072   7.116   0.769  0.6351  0.9497  1.2342
   26GLOH    O1 8532  -0.016   7.036   0.759 -0.4533  0.3388 -0.3083
   26GLOH    C1 8533   0.096   7.064   0.674  0.2541  0.2543 -1.1446
   26GLOH   H02 8534   0.161   6.977   0.682  1.1088  1.0390  0.6126
   26GLOH   H08 8535   0.138   7.162   0.698 -0.0267  0.1385 -0.1588
   26GLOH    C2 8536   0.048   7.067   0.529 -0.3789 -0.5807 -0.6885
   26GLOH   H04 8537   0.000   6.972   0.499 -1.4354  0.3912 -2.1811
   26GLOH    O2 8538  -0.030   7.179   0.506  0.6053  0.3935  0.4425
   26GLOH   H05 8539  -0.092   7.186   0.581  1.0880 -0.6446  0.9497
   26GLOH    C3 8540   0.167   7.084   0.433 -0.2810 -0.2617  0.4877
   26GLOH   H06 8541   0.237   7.162   0.464 -0.0916  0.4613 -1.6949
   26GLOH   H07 8542   0.134   7.120   0.336  0.5925  0.3575  0.4063
   26GLOH    O3 8543   0.233   6.962   0.424  0.2731 -0.9492  0.1675
   26GLOH   H01 8544   0.160   6.904   0.393  0.7089 -1.6004  0.3396
   27GLOH   H03 8545   1.954   7.357   2.765 -1.6448  0.3747  0.0320
   27GLOH    O1 8546   1.977   7.262   2.765 -0.2890  0.6835 -0.7708
   27GLOH    C1 8547   1.874   7.192   2.843 -0.5280  0.6810 -0.0479
   27GLOH   H02 8548   1.774   7.228   2.821 -1.5745 -1.2730  1.3153
   27GLOH   H08 8549   1.883   7.213   2.950 -0.2960  0.3132  0.0082
   27GLOH    C2 8550   1.895   7.036   2.819 -0.5342 -0.6552  0.1150
   27GLOH   H04 8551   1.999   7.017   2.848  0.1759  0.2347 -1.7949
   27GLOH    O2 8552   1.802   6.962   2.895  0.2806 -0.0966 -0.0598
   27GLOH   H05 8553   1.782   6.989   2.986  1.7632 -2.5247  1.0364
   27GLOH    C3 8554   1.889   7.003   2.670  0.7731  0.0323  0.3930
   27GLOH   H06 8555   1.785   7.011   2.641  1.1036  2.6814 -0.1150
   27GLOH   H07 8556   1.925   6.900   2.658 -0.6819 -0.5086  0.5497
   27GLOH    O3 8557   1.975   7.086   2.593  0.1234  0.3613  0.4004
   27GLOH   H01 8558   1.989   7.166   2.646  1.6164  0.4775 -0.1301
   28GLOH   H03 8559   9.790   5.078   2.454  0.1440 -2.0785 -0.0032
   28GLOH    O1 8560   9.780   5.077   2.551 -0.2976  0.3977  0.0304
   28GLOH    C1 8561   9.685   5.176   2.586  0.0518  0.1945 -0.4045
   28GLOH   H02 8562   9.706   5.271   2.537  0.3399 -0.2281 -1.1159
   28GLOH   H08 8563   9.694   5.205   2.691 -3.4785  1.2324 -0.3245
   28GLOH    C2 8564   9.538   5.137   2.552  0.0215 -0.2512 -0.4851
   28GLOH   H04 8565   9.474   5.220   2.584 -0.4459 -1.0560  0.7414
   28GLOH    O2 8566   9.527   5.120   2.413 -0.9412  0.5096 -0.0879
   28GLOH   H05 8567   9.457   5.177   2.376 -1.0807 -1.4213 -2.9327
   28GLOH    C3 8568   9.488   5.014   2.634  0.7318 -0.5344 -0.4431
   28GLOH   H06 8569   9.571   4.944   2.644  2.8223  2.2666  2.3112
   28GLOH   H07 8570   9.408   4.970   2.573 -1.8478  1.2378  1.5423
   28GLOH    O3 8571   9.430   5.044   2.762 -0.3649 -0.3698 -0.0874
   28GLOH   H01 8572   9.408   4.957   2.799 -0.4503 -1.1991 -2.0187
   29GLOH   H03 8573   4.111   4.126   1.638  0.8134 -1.6706  2.0685
   29GLOH    O1 8574   4.189   4.179   1.664 -0.0165  0.5430  0.2271
   29GLOH    C1 8575   4.148   4.238   1.787 -0.1746  0.5662  0.1568
   29GLOH   H02 8576   4.040   4.251   1.785 -0.1684  0.9821  1.9542
   29GLOH   H08 8577   4.203   4.331   1.802 -0.0634  0.5376 -0.0644
   29GLOH    C2 8578   4.171   4.138   1.904  0.8067  1.1346 -1.0975
   29GLOH   H04 8579   4.275   4.101   1.907  0.2713 -0.2618  1.7019
   29GLOH    O2 8580   4.144   4.214   2.021 -0.1960  0.0164 -0.1241
   29GLOH   H05 8581   4.169   4.161   2.099  0.8158 -2.4219 -2.0450
   29GLOH    C3 8582   4.076   4.014   1.891  0.4260  0.4359  0.1041
   29GLOH   H06 8583   4.098   3.961   1.798 -0.0533 -0.1474  0.3151
   29GLOH   H07 8584   3.973   4.050   1.884  0.4720  0.5513  0.0234
   29GLOH    O3 8585   4.081   3.915   1.998  0.7224  0.0752  0.9743
   29GLOH   H01 8586   4.139   3.844   1.967  0.2904 -0.4730  1.4174
   30GLOH   H03 8587   3.603   8.332   2.036  1.8982  1.6770 -0.2082
   30GLOH    O1 8588   3.625   8.325   2.131 -0.5323  0.6552  0.3034
   30GLOH    C1 8589   3.508   8.326   2.208  0.4461  0.0961  0.1146
   30GLOH   H02 8590   3.460   8.229   2.201  0.3128  0.2758 -1.8729
   30GLOH   H08 8591   3.432   8.397   2.176  0.1688 -0.0093  0.5483
   30GLOH    C2 8592   3.541   8.355   2.348  0.8894 -0.3036 -0.3919
   30GLOH   H04 8593   3.608   8.442   2.352  0.2371  0.2091 -0.5724
   30GLOH    O2 8594   3.421   8.389   2.421 -0.1687  0.0019 -0.0883
   30GLOH   H05 8595   3.384   8.468   2.377 -0.0437 -0.6255 -1.3448
   30GLOH    C3 8596   3.606   8.236   2.421 -0.4414  0.1827 -0.9908
   30GLOH   H06 8597   3.641   8.267   2.519  2.0954 -0.9652 -1.4813
   30GLOH   H07 8598   3.700   8.219   2.367 -0.5518 -0.4688 -0.9864
   30GLOH    O3 8599   3.525   8.122   2.439  0.6944 -0.1133  0.6865
   30GLOH   H01 8600   3.432   8.146   2.422  1.0105  0.2194 -0.6198
   31GLOH   H03 8601   0.401   4.172  -0.038  2.8363  1.6667 -2.7558
   31GLOH    O1 8602   0.448   4.214   0.036 -0.0430  0.0691  0.1188
   31GLOH    C1 8603   0.434   4.153   0.168 -0.0637  0.1705 -0.1856
   31GLOH   H02 8604   0.466   4.050   0.149  0.2175  0.9452 -4.4927
   31GLOH   H08 8605   0.331   4.151   0.203 -0.1009 -0.9175 -0.3561
   31GLOH    C2 8606   0.542   4.217   0.264  0.3020  0.2164 -0.0505
   31GLOH   H04 8607   0.514   4.323   0.272  2.0255  0.6280  0.8674
   31GLOH    O2 8608   0.528   4.158   0.398 -0.5744 -0.0290 -0.2593
   31GLOH   H05 8609   0.487   4.070   0.401 -1.5089  0.3849 -0.6712
   31GLOH    C3 8610   0.685   4.199   0.210 -0.3321 -0.0753  0.7698
   31GLOH   H06 8611   0.762   4.245   0.271 -0.1307  1.0101 -0.2686
   31GLOH   H07 8612   0.685   4.246   0.111 -1.0443 -0.5101  0.5642
   31GLOH    O3 8613   0.707   4.056   0.199 -0.0039 -0.0374 -0.4895
   31GLOH   H01 8614   0.728   4.019   0.287 -1.1693  0.3075 -0.0530
   32GLOH   H03 8615   8.228   2.923  -0.121 -2.4984 -0.0577 -1.4609
   32GLOH    O1 8616   8.204   2.884  -0.035  0.3185  0.6664 -0.2738
   32GLOH    C1 8617   8.057   2.890  -0.027 -0.0543 -0.2852  0.1771
   32GLOH   H02 8618   8.019   2.865   0.072 -1.7355  1.2235 -0.0605
   32GLOH   H08 8619   8.017   2.812  -0.092  0.5542  0.1486 -0.7343
   32GLOH    C2 8620   7.999   3.024  -0.054  0.0830 -0.1588 -0.3163
   32GLOH   H04 8621   8.062   3.085  -0.120 -0.5969  1.8550  0.8619
   32GLOH    O2 8622   7.867   3.011  -0.100 -0.2880  0.2023  0.2432
   32GLOH   H05 8623   7.821   2.949  -0.041  1.0304  0.9783  2.1374
   32GLOH    C3 8624   7.995   3.111   0.068 -0.2115 -0.2081 -0.0380
   32GLOH   H06 8625   7.968   3.214   0.042 -2.9844 -1.0718 -0.7509
   32GLOH   H07 8626   8.100   3.113   0.098  0.7835 -4.8589 -2.7292
   32GLOH    O3 8627   7.917   3.061   0.178  0.5529  0.3925  0.4501
   32GLOH   H01 8628   7.835   3.019   0.146  0.2800  1.2883 -0.0423
   33GLOH   H03 8629   0.190   0.503   2.946 -2.3031  0.4333  2.5669
   33GLOH    O1 8630   0.271   0.471   2.989 -0.9024  0.4911  0.0963
   33GLOH    C1 8631   0.336   0.393   2.891 -0.0063 -0.1548 -0.3672
   33GLOH   H02 8632   0.295   0.293   2.897 -0.7249  0.2027  0.8490
   33GLOH   H08 8633   0.443   0.384   2.911  0.7817  1.7404 -3.4317
   33GLOH    C2 8634   0.326   0.452   2.748  0.5438  0.1764 -0.2682
   33GLOH   H04 8635   0.357   0.557   2.758  2.6800 -0.4655 -0.1151
   33GLOH    O2 8636   0.413   0.386   2.655 -0.3225 -0.1100 -0.0859
   33GLOH   H05 8637   0.473   0.444   2.605  0.5318 -2.1907 -1.5776
   33GLOH    C3 8638   0.178   0.445   2.698  0.0366 -0.6572  0.2228
   33GLOH   H06 8639   0.147   0.341   2.696 -1.2208 -0.3291  1.2920
   33GLOH   H07 8640   0.165   0.493   2.601 -0.5054 -1.3619 -0.0549
   33GLOH    O3 8641   0.091   0.515   2.791 -0.2857  0.1779 -0.2215
   33GLOH   H01 8642   0.000   0.510   2.757 -0.8570 -1.8786  1.4637
   34GLOH   H03 8643   4.517   0.086   0.915  0.1234 -0.4244 -3.1429
   34GLOH    O1 8644   4.441   0.145   0.899 -0.0454  0.3845  0.0935
   34GLOH    C1 8645   4.358   0.079   0.803  0.1932 -0.5190 -0.2324
   34GLOH   H02 8646   4.408   0.049   0.711  1.8892  0.3656  0.3880
   34GLOH   H08 8647   4.281   0.150   0.774  1.2014  1.3969  1.6758
   34GLOH    C2 8648   4.305  -0.049   0.864  0.2626  0.0572  0.0196
   34GLOH   H04 8649   4.242  -0.085   0.781  0.2885 -1.3391  0.5890
   34GLOH    O2 8650   4.406  -0.140   0.895  0.0696 -0.3062 -0.3361
   34GLOH   H05 8651   4.368  -0.224   0.867  1.2213  0.0906 -3.2194
   34GLOH    C3 8652   4.210  -0.024   0.984 -0.4563  0.5208  0.2544
   34GLOH   H06 8653   4.262   0.033   1.061 -1.4697 -0.2097  1.5017
   34GLOH   H07 8654   4.171  -0.117   1.026  2.3763 -1.3521 -1.0746
   34GLOH    O3 8655   4.098   0.059   0.952 -0.4937  0.3191 -0.4847
   34GLOH   H01 8656   4.064   0.036   0.863  3.9881 -1.3854 -1.8778
   35GLOH   H03 8657   8.068   1.313   0.979 -0.9093  1.9816 -0.7967
   35GLOH    O1 8658   8.151   1.340   1.021 -0.7747  0.1912  0.1340
   35GLOH    C1 8659   8.180   1.471   0.975  0.0670  0.4034 -0.2596
   35GLOH   H02 8660   8.099   1.540   0.998 -0.0138 -0.3343  1.7467
   35GLOH   H08 8661   8.193   1.478   0.867  1.1912  0.1052 -0.1496
   35GLOH    C2 8662   8.305   1.526   1.047  0.1174  0.0777  0.8612
   35GLOH   H04 8663   8.395   1.474   1.012  1.3867  2.6964  0.1005
   35GLOH    O2 8664   8.316   1.666   1.017  0.3351  0.2881  0.1732
   35GLOH   H05 8665   8.251   1.727   1.056  0.0849  1.3194 -1.7669
   35GLOH    C3 8666   8.297   1.513   1.201 -0.4897 -0.3970 -0.0284
   35GLOH   H06 8667   8.375   1.571   1.250  0.2638 -1.7972  0.4583
   35GLOH   H07 8668   8.310   1.407   1.225 -0.4843 -0.3303  0.2660
   35GLOH    O3 8669   8.168   1.545   1.258 -0.0689 -0.6509  0.1540
   35GLOH   H01 8670   8.099   1.484   1.225 -1.5595  1.5448 -0.8683
   36GLOH   H03 8671   9.167   0.090   0.492 -0.8850  0.5489 -0.1261
   36GLOH    O1 8672   9.153   0.093   0.396 -0.4055  0.2469 -0.2087
   36GLOH    C1 8673   9.190   0.219   0.337  0.0489  0.3145  0.2205
   36GLOH   H02 8674   9.201   0.206   0.229 -0.2146 -1.4156  0.3908
   36GLOH   H08 8675   9.288   0.249   0.375 -0.0148 -1.7026  2.0377
   36GLOH    C2 8676   9.088   0.328   0.366 -0.1819 -0.2916 -0.0717
   36GLOH   H04 8677   9.103   0.342   0.474  0.5042  0.9200 -0.3187
   36GLOH    O2 8678   9.130   0.441   0.286 -0.6494 -0.0409 -0.0248
   36GLOH   H05 8679   9.177   0.499   0.348  0.0567 -0.8396  0.1836
   36GLOH    C3 8680   8.944   0.284   0.338  0.1277  0.2006  0.4414
   36GLOH   H06 8681   8.876   0.360   0.376 -1.7050 -1.0488 -0.2936
   36GLOH   H07 8682   8.922   0.191   0.390  1.0978  0.6256  1.6228
   36GLOH    O3 8683   8.921   0.262   0.201  0.7000 -0.3030 -0.2846
   36GLOH   H01 8684   8.938   0.347   0.156 -0.5634 -1.5149 -3.1926
   37GLOH   H03 8685   8.850   4.675   2.126  1.4495 -0.4689  1.1649
   37GLOH    O1 8686   8.820   4.727   2.203  0.0590  0.3733  0.0661
   37GLOH    C1 8687   8.885   4.851   2.173 -0.6290  0.6266 -0.0119
   37GLOH   H02 8688   8.892   4.861   2.065 -0.8099  0.3808 -0.0482
   37GLOH   H08 8689   8.986   4.854   2.213 -0.2908  2.8183 -0.9973
   37GLOH    C2 8690   8.803   4.963   2.243  0.3253 -0.2996 -0.6518
   37GLOH   H04 8691   8.816   4.937   2.349  0.6144 -1.2158 -0.9079
   37GLOH    O2 8692   8.854   5.093   2.225 -0.2121  0.0387  0.3662
   37GLOH   H05 8693   8.839   5.130   2.136 -0.9904  2.0265  1.3000
   37GLOH    C3 8694   8.651   4.970   2.200  0.0546  0.4299  0.3460
   37GLOH   H06 8695   8.602   5.015   2.286 -0.6330 -1.6460  1.0795
   37GLOH   H07 8696   8.600   4.874   2.193  0.6683  0.1147  0.1083
   37GLOH    O3 8697   8.624   5.048   2.085  0.2175 -0.3458  0.9642
   37GLOH   H01 8698   8.650   4.998   2.006  1.3819  0.1680  1.0112
   38GLOH   H03 8699   8.713   5.296   2.295 -2.7231 -1.6273 -1.6216
   38GLOH    O1 8700   8.660   5.320   2.373  0.0074  0.3709 -0.2798
   38GLOH    C1 8701   8.680   5.461   2.400 -0.6295  0.0796  1.3185
   38GLOH   H02 8702   8.586   5.506   2.434 -0.4805  2.1300 -0.8429
   38GLOH   H08 8703   8.699   5.519   2.310 -1.0003  0.2705  1.3613
   38GLOH    C2 8704   8.781   5.486   2.519 -0.0781  0.8526  0.0845
   38GLOH   H04 8705   8.858   5.407   2.514 -2.5407 -1.6540  0.5548
   38GLOH    O2 8706   8.839   5.624   2.516  0.1932  0.2352 -0.1300
   38GLOH   H05 8707   8.936   5.623   2.519  0.2824 -0.9080 -2.1186
   38GLOH    C3 8708   8.715   5.450   2.656  0.7967 -1.5437 -0.4205
   38GLOH   H06 8709   8.660   5.358   2.636  0.5865 -1.9057  1.7100
   38GLOH   H07 8710   8.631   5.520   2.664  2.3654  0.6927 -2.6504
   38GLOH    O3 8711   8.786   5.445   2.780  0.2072  0.0566 -0.0645
   38GLOH   H01 8712   8.768   5.532   2.818 -1.2037 -0.0448 -0.5078
   39GLOH   H03 8713   1.107   4.832   0.331 -0.2608 -0.3365 -0.2003
   39GLOH    O1 8714   1.050   4.874   0.265 -0.1731  0.0777 -0.0091
   39GLOH    C1 8715   1.131   4.977   0.204  0.2109 -0.3689  0.0269
   39GLOH   H02 8716   1.118   4.976   0.096 -0.2817 -0.3464  0.0855
   39GLOH   H08 8717   1.238   4.961   0.219  0.0975  1.8830  4.0334
   39GLOH    C2 8718   1.128   5.125   0.249  0.0151  0.2488  0.4186
   39GLOH   H04 8719   1.218   5.171   0.204  0.9101 -2.5172 -0.6910
   39GLOH    O2 8720   1.010   5.193   0.193 -0.1839 -0.1948  0.2593
   39GLOH   H05 8721   1.048   5.234   0.113 -0.3324 -2.0854 -0.8136
   39GLOH    C3 8722   1.123   5.135   0.402 -0.0060 -0.3160  0.1165
   39GLOH   H06 8723   1.184   5.053   0.443  0.0126 -0.6078 -0.4972
   39GLOH   H07 8724   1.020   5.121   0.433 -0.0757 -1.4815 -0.6182
   39GLOH    O3 8725   1.175   5.260   0.454  0.2353 -0.7536  0.1255
   39GLOH   H01 8726   1.171   5.324   0.380 -1.5108  0.0932  0.9227
   40GLOH   H03 8727   1.488   0.754  -0.071  3.2553 -0.6512  1.8035
   40GLOH    O1 8728   1.469   0.820  -0.001 -0.2068  0.0916  0.2955
   40GLOH    C1 8729   1.548   0.806   0.120  0.3856  0.1295  1.0386
   40GLOH   H02 8730   1.609   0.717   0.115  1.5945  1.0941 -2.5791
   40GLOH   H08 8731   1.482   0.796   0.207  0.5311  0.1003  1.1462
   40GLOH    C2 8732   1.654   0.917   0.135 -0.7551 -0.0897  0.3809
   40GLOH   H04 8733   1.737   0.881   0.198  2.2549  1.8931 -2.2546
   40GLOH    O2 8734   1.727   0.950   0.012  0.1254 -0.5072  1.4429
   40GLOH   H05 8735   1.668   1.007  -0.041  1.1737 -0.9708 -0.2587
   40GLOH    C3 8736   1.593   1.046   0.194  0.9178 -0.2045 -0.0186
   40GLOH   H06 8737   1.525   1.095   0.124 -0.2772  0.3790  1.5259
   40GLOH   H07 8738   1.680   1.108   0.215  0.8632  0.4938 -1.7253
   40GLOH    O3 8739   1.522   1.027   0.317  0.2156 -0.2148 -0.2069
   40GLOH   H01 8740   1.577   1.080   0.377 -1.9958  0.5250  1.2273
   41GLOH   H03 8741   2.234   8.520   0.904  2.1215  0.4715 -0.6348
   41GLOH    O1 8742   2.209   8.488   0.815  0.1806  0.3357 -0.0706
   41GLOH    C1 8743   2.134   8.368   0.844 -0.0150  1.3280  0.4619
   41GLOH   H02 8744   2.201   8.284   0.863 -0.0118  1.0894 -0.5694
   41GLOH   H08 8745   2.086   8.340   0.751  2.3718 -0.1479 -0.3692
   41GLOH    C2 8746   2.030   8.389   0.958 -0.4750 -1.3533 -0.0068
   41GLOH   H04 8747   1.985   8.487   0.940 -1.5306 -1.8308  0.0265
   41GLOH    O2 8748   1.928   8.289   0.945 -0.4412  0.0521  0.3538
   41GLOH   H05 8749   1.966   8.202   0.968 -1.3921 -0.9334 -1.6285
   41GLOH    C3 8750   2.101   8.397   1.092 -0.3976 -0.0438 -0.5127
   41GLOH   H06 8751   2.117   8.292   1.119 -0.9011  0.1582  0.6003
   41GLOH   H07 8752   2.025   8.429   1.163  0.3226 -1.4675  0.9645
   41GLOH    O3 8753   2.204   8.490   1.098  0.0704 -0.7268 -0.0501
   41GLOH   H01 8754   2.172   8.576   1.132  3.0646  0.3347  0.2965
   42GLOH   H03 8755   3.986   4.084   0.869  1.2403 -0.0303  2.8658
   42GLOH    O1 8756   3.915   4.125   0.921 -0.5494  0.1989  0.3230
   42GLOH    C1 8757   3.893   4.044   1.039 -0.3311 -0.0106  0.0095
   42GLOH   H02 8758   3.916   4.098   1.131 -1.8235 -0.3219  0.5806
   42GLOH   H08 8759   3.950   3.952   1.032 -1.8049 -1.0819  1.7950
   42GLOH    C2 8760   3.744   4.005   1.046 -0.5326  0.8113 -0.1119
   42GLOH   H04 8761   3.742   3.938   1.133 -0.2626  1.8913  0.7429
   42GLOH    O2 8762   3.656   4.113   1.074  0.9645 -0.2826 -0.1764
   42GLOH   H05 8763   3.574   4.076   1.112  0.4975 -0.5436 -1.3898
   42GLOH    C3 8764   3.703   3.930   0.921  0.1012 -0.0832  0.0372
   42GLOH   H06 8765   3.694   3.985   0.827 -2.6400 -0.6604 -0.0702
   42GLOH   H07 8766   3.601   3.897   0.939  0.8565 -1.6558  1.5653
   42GLOH    O3 8767   3.793   3.825   0.897 -0.1615 -0.5769  0.3761
   42GLOH   H01 8768   3.886   3.850   0.882  0.7707 -1.8991  3.6223
   43GLOH   H03 8769   2.655   6.016   2.679  0.4302 -1.5158  0.5576
   43GLOH    O1 8770   2.701   5.982   2.600 -0.0228  0.0009 -0.3967
   43GLOH    C1 8771   2.608   5.974   2.490  0.0517  0.0105  0.4234
   43GLOH   H02 8772   2.597   6.078   2.460  0.5876  0.1903  0.8409
   43GLOH   H08 8773   2.512   5.941   2.529 -0.8889  1.6895 -0.4244
   43GLOH    C2 8774   2.663   5.882   2.378  0.5280  0.2196  0.6815
   43GLOH   H04 8775   2.695   5.785   2.419  2.5247  0.9618  0.8907
   43GLOH    O2 8776   2.553   5.867   2.280 -0.1102 -0.5037 -0.5415
   43GLOH   H05 8777   2.548   5.772   2.261 -2.5603 -1.0927  2.6112
   43GLOH    C3 8778   2.782   5.948   2.311  0.0046  0.0709 -0.1461
   43GLOH   H06 8779   2.851   5.968   2.393  0.1727  2.4949 -0.8527
   43GLOH   H07 8780   2.752   6.042   2.265  0.2927  0.0230 -0.4304
   43GLOH    O3 8781   2.848   5.870   2.211 -0.6865  0.1410 -0.5716
   43GLOH   H01 8782   2.814   5.897   2.124  1.8834 -0.7414 -1.8872
   44GLOH   H03 8783   4.865   3.591   2.518 -1.5870  3.4132  2.4502
   44GLOH    O1 8784   4.944   3.584   2.574 -0.0286  0.3698  0.0606
   44GLOH    C1 8785   5.052   3.658   2.505  0.2963  0.0663 -0.2665
   44GLOH   H02 8786   5.069   3.610   2.409  3.6217 -4.1757  2.2876
   44GLOH   H08 8787   5.144   3.652   2.563 -0.2412 -4.3658  0.3272
   44GLOH    C2 8788   5.016   3.808   2.488  0.0491  0.7585 -0.2941
   44GLOH   H04 8789   5.107   3.870   2.488  1.2271 -0.9177 -1.1487
   44GLOH    O2 8790   4.930   3.823   2.367 -0.4331  0.0571 -0.4044
   44GLOH   H05 8791   4.886   3.908   2.351 -2.5619 -1.1563 -1.2343
   44GLOH    C3 8792   4.938   3.851   2.617 -0.3287  0.0162 -0.1726
   44GLOH   H06 8793   4.836   3.815   2.609 -0.6355  0.9345 -0.4291
   44GLOH   H07 8794   4.947   3.959   2.613  2.5928 -0.1133  1.4523
   44GLOH    O3 8795   5.004   3.813   2.747  0.1855 -0.1048 -0.3906
   44GLOH   H01 8796   4.976   3.869   2.821  0.2191 -3.3938  2.2037
   45GLOH   H03 8797   3.976   4.221   0.588 -1.3097 -0.7478 -0.9325
   45GLOH    O1 8798   4.020   4.198   0.505  0.5446 -0.0418 -0.1683
   45GLOH    C1 8799   3.927   4.127   0.417  0.2832  0.0613  0.1514
   45GLOH   H02 8800   3.947   4.021   0.429  0.4595 -0.0709 -1.2966
   45GLOH   H08 8801   3.945   4.141   0.310  0.6445 -0.5049  0.1377
   45GLOH    C2 8802   3.774   4.150   0.428 -0.1955 -0.2468  1.0148
   45GLOH   H04 8803   3.754   4.251   0.389  0.8258 -0.3709  0.1511
   45GLOH    O2 8804   3.709   4.052   0.342  0.3104  0.4512 -0.0952
   45GLOH   H05 8805   3.719   3.967   0.388 -0.3459 -0.4812 -1.6412
   45GLOH    C3 8806   3.729   4.134   0.566 -0.1290 -0.9049 -0.0208
   45GLOH   H06 8807   3.756   4.036   0.604  1.2450 -1.1984 -1.6934
   45GLOH   H07 8808   3.621   4.150   0.559  0.0223  0.4438  0.5992
   45GLOH    O3 8809   3.785   4.245   0.633  0.6896  0.2241  0.1903
   45GLOH   H01 8810   3.749   4.248   0.723 -1.7666 -1.1644 -0.6994
   46GLOH   H03 8811   0.812   9.911   0.599  0.5922 -0.4825  0.4861
   46GLOH    O1 8812   0.878   9.915   0.670  0.5190  0.0083  0.5282
   46GLOH    C1 8813   0.830   9.841   0.781 -0.3106  0.1971  0.5153
   46GLOH   H02 8814   0.831   9.732   0.771  0.0386  0.2434 -0.0055
   46GLOH   H08 8815   0.728   9.872   0.801 -0.2005  0.0145  1.3736
   46GLOH    C2 8816   0.905   9.867   0.914  0.3946  0.6555 -0.6502
   46GLOH   H04 8817   0.868   9.954   0.969 -0.0644  0.4613 -0.6516
   46GLOH    O2 8818   0.874   9.758   1.003  0.2171  0.2877  0.0006
   46GLOH   H05 8819   0.877   9.789   1.095 -1.2630 -1.2449  0.5782
   46GLOH    C3 8820   1.057   9.890   0.898  0.0829 -0.1329 -0.3444
   46GLOH   H06 8821   1.070   9.993   0.865 -0.6761 -0.0609 -0.4176
   46GLOH   H07 8822   1.096   9.823   0.821 -2.7559 -1.3760 -0.7573
   46GLOH    O3 8823   1.121   9.879   1.026 -0.2787 -0.3919  0.5258
   46GLOH   H01 8824   1.084   9.945   1.087  1.3373 -1.1320  2.4042
   47GLOH   H03 8825   2.357   7.856   1.106 -2.1214  1.3215  3.5268
   47GLOH    O1 8826   2.396   7.775   1.145  0.0177  0.5508  0.0779
   47GLOH    C1 8827   2.530   7.797   1.177 -0.6864 -0.4735  0.4930
   47GLOH   H02 8828   2.545   7.901   1.204  2.4046 -0.3867 -1.2746
   47GLOH   H08 8829   2.596   7.784   1.091  1.8084 -0.9101  2.4159
   47GLOH    C2 8830   2.582   7.704   1.295 -0.0432 -0.1400  0.2152
   47GLOH   H04 8831   2.554   7.602   1.264 -0.7115  0.4759 -1.2587
   47GLOH    O2 8832   2.720   7.696   1.325 -0.2326  0.4808 -0.1882
   47GLOH   H05 8833   2.751   7.605   1.307 -1.1444  0.2469 -0.5874
   47GLOH    C3 8834   2.501   7.736   1.424 -0.1565 -0.0115 -0.5011
   47GLOH   H06 8835   2.394   7.730   1.405 -0.8163  4.4387  1.2462
   47GLOH   H07 8836   2.521   7.841   1.446 -0.9382  0.4363 -1.8647
   47GLOH    O3 8837   2.530   7.663   1.543 -0.1370 -0.3826 -0.1576
   47GLOH   H01 8838   2.547   7.567   1.533  0.2417 -0.3213 -0.1066
   48GLOH   H03 8839   2.797   6.782   2.451 -1.2844 -1.8220 -0.3453
   48GLOH    O1 8840   2.806   6.796   2.355  0.5746  0.0942  0.0758
   48GLOH    C1 8841   2.675   6.840   2.304  0.3574  0.1151  0.2129
   48GLOH   H02 8842   2.643   6.930   2.356 -0.1753 -0.3129  0.6289
   48GLOH   H08 8843   2.598   6.763   2.315 -1.7453  1.9681 -1.1871
   48GLOH    C2 8844   2.684   6.868   2.148 -0.3270 -0.1759 -0.2007
   48GLOH   H04 8845   2.726   6.775   2.106  0.1329  0.0300 -0.1984
   48GLOH    O2 8846   2.563   6.903   2.077  0.1899  0.2606 -0.2533
   48GLOH   H05 8847   2.553   6.872   1.986 -2.6009 -1.0722  0.4621
   48GLOH    C3 8848   2.784   6.977   2.114 -0.1225  0.3564  0.2834
   48GLOH   H06 8849   2.870   6.949   2.176 -0.5468  0.3846  0.8870
   48GLOH   H07 8850   2.748   7.074   2.147 -1.4656  0.4444 -1.4001
   48GLOH    O3 8851   2.823   6.991   1.976  0.0652  0.3715  0.3938
   48GLOH   H01 8852   2.849   6.901   1.949 -0.2588  0.0400  1.1855
   49GLOH   H03 8853   3.638   6.025   2.617 -0.7948 -0.1403  1.8551
   49GLOH    O1 8854   3.556   5.979   2.592 -0.3723  0.1585 -0.1458
   49GLOH    C1 8855   3.524   6.006   2.451 -0.0639  0.4226 -0.4475
   49GLOH   H02 8856   3.428   5.959   2.426  0.4257 -0.7440 -0.1807
   49GLOH   H08 8857   3.589   5.952   2.382 -1.2172 -1.3597 -0.2043
   49GLOH    C2 8858   3.512   6.158   2.428  0.5456 -0.3277  0.0171
   49GLOH   H04 8859   3.608   6.211   2.434  0.4301 -0.0513 -0.5025
   49GLOH    O2 8860   3.451   6.190   2.301 -0.2643 -0.2030 -0.2001
   49GLOH   H05 8861   3.459   6.285   2.282 -1.4199 -0.1955 -0.6972
   49GLOH    C3 8862   3.425   6.230   2.534  0.2575 -0.0796 -0.2332
   49GLOH   H06 8863   3.427   6.336   2.508  1.2774 -0.5481 -2.1619
   49GLOH   H07 8864   3.473   6.217   2.631 -0.2663  0.8745  0.1738
   49GLOH    O3 8865   3.293   6.182   2.534  0.0684 -0.1096 -0.4391
   49GLOH   H01 8866   3.267   6.183   2.440 -1.6702 -0.3078  0.0124
   50GLOH   H03 8867   3.763   2.901   1.454  0.3071  1.3266  0.4704
   50GLOH    O1 8868   3.690   2.888   1.392  0.5987  0.0222  0.3935
   50GLOH    C1 8869   3.694   2.758   1.320  0.2219 -0.0660 -0.3688
   50GLOH   H02 8870   3.791   2.744   1.272  1.2513 -0.5742  1.7825
   50GLOH   H08 8871   3.627   2.758   1.234  0.4004 -1.4426 -0.5171
   50GLOH    C2 8872   3.661   2.635   1.410 -0.5760  0.2597 -0.0158
   50GLOH   H04 8873   3.688   2.547   1.351  1.1389  0.5274  0.3326
   50GLOH    O2 8874   3.741   2.644   1.537 -0.5775  0.0900 -0.1558
   50GLOH   H05 8875   3.701   2.710   1.596 -0.8234 -0.7934  0.6640
   50GLOH    C3 8876   3.511   2.637   1.442  0.0994 -0.3068 -0.6996
   50GLOH   H06 8877   3.495   2.731   1.495  0.7245 -0.0450 -0.9749
   50GLOH   H07 8878   3.480   2.557   1.509 -2.6726  0.4619 -0.9920
   50GLOH    O3 8879   3.430   2.628   1.323  0.3762  0.1559 -0.3512
   50GLOH   H01 8880   3.469   2.560   1.265  1.4308  2.3145 -2.2656
   51GLOH   H03 8881   9.747   5.861   0.540  0.9056 -4.1755  0.1951
   51GLOH    O1 8882   9.668   5.841   0.488 -0.2053  0.2540 -0.0008
   51GLOH    C1 8883   9.609   5.949   0.416  0.3653 -1.0457 -0.0053
   51GLOH   H02 8884   9.652   6.045   0.444  2.6605 -2.0194 -0.0802
   51GLOH   H08 8885   9.505   5.960   0.448  0.9779 -1.0305  2.0736
   51GLOH    C2 8886   9.603   5.931   0.264 -0.2597  0.4998 -0.2088
   51GLOH   H04 8887   9.562   5.830   0.246 -1.3053  0.7656  0.6811
   51GLOH    O2 8888   9.521   6.032   0.198  0.4158 -0.0410 -0.7393
   51GLOH   H05 8889   9.576   6.111   0.212 -0.3259 -0.1718  3.8014
   51GLOH    C3 8890   9.742   5.940   0.202 -0.0244 -0.4924  1.0212
   51GLOH   H06 8891   9.785   6.039   0.218 -1.5708  0.2337  0.8056
   51GLOH   H07 8892   9.728   5.936   0.094 -1.5283 -0.5495  1.2104
   51GLOH    O3 8893   9.837   5.837   0.244 -0.3902  0.5586  0.1674
   51GLOH   H01 8894   9.803   5.756   0.202 -1.5176  1.3095 -0.3878
   52GLOH   H03 8895   4.078   8.641   2.585 -0.0963  0.3340 -0.9046
   52GLOH    O1 8896   4.159   8.685   2.553  0.5667 -0.1692  0.0630
   52GLOH    C1 8897   4.231   8.722   2.668  0.2699 -0.0445 -0.3541
   52GLOH   H02 8898   4.230   8.645   2.745 -0.7704  2.1911  1.9476
   52GLOH   H08 8899   4.182   8.804   2.720 -0.5744 -0.1134 -1.0335
   52GLOH    C2 8900   4.378   8.753   2.635 -0.7328 -0.2101  0.2758
   52GLOH   H04 8901   4.383   8.825   2.553 -0.0042 -0.0337  0.4678
   52GLOH    O2 8902   4.463   8.816   2.739 -0.6334  0.1597  0.0080
   52GLOH   H05 8903   4.526   8.875   2.694  2.0429 -2.1874  0.5369
   52GLOH    C3 8904   4.450   8.626   2.588  0.3507 -0.0949  0.0192
   52GLOH   H06 8905   4.439   8.549   2.664 -1.0045 -0.1405 -0.2053
   52GLOH   H07 8906   4.554   8.655   2.571  0.5702 -1.4081 -0.9307
   52GLOH    O3 8907   4.388   8.576   2.469  0.4505  0.2160  0.1516
   52GLOH   H01 8908   4.320   8.642   2.447  2.0476  0.9186 -2.8872
   53GLOH   H03 8909   8.514   4.536   0.530 -1.0662  0.2634  0.5250
   53GLOH    O1 8910   8.439   4.506   0.476 -0.4145 -0.1794 -0.1428
   53GLOH    C1 8911   8.434   4.585   0.357 -0.2289  0.8458 -0.1645
   53GLOH   H02 8912   8.420   4.691   0.380 -1.1488  1.1027 -1.7769
   53GLOH   H08 8913   8.343   4.562   0.301  0.2308 -1.3167 -0.0691
   53GLOH    C2 8914   8.544   4.561   0.256  0.7183 -0.0755 -0.1408
   53GLOH   H04 8915   8.638   4.595   0.300  0.8712  1.0376 -1.2911
   53GLOH    O2 8916   8.561   4.419   0.230 -1.0254  0.1707 -0.4573
   53GLOH   H05 8917   8.617   4.380   0.299 -0.2748  2.8399  0.4646
   53GLOH    C3 8918   8.502   4.646   0.128  0.1079  1.2049 -0.0935
   53GLOH   H06 8919   8.400   4.627   0.096  0.4908 -2.8747  0.9210
   53GLOH   H07 8920   8.567   4.630   0.042 -0.6500 -0.0704 -0.4293
   53GLOH    O3 8921   8.498   4.781   0.164  0.5483  0.3647 -0.6969
   53GLOH   H01 8922   8.463   4.841   0.096  0.6014  1.1073 -0.0706
   54GLOH   H03 8923   3.727   1.367   2.500  0.3763  0.4260  1.4035
   54GLOH    O1 8924   3.648   1.353   2.556 -0.4786 -0.5393 -0.0099
   54GLOH    C1 8925   3.618   1.216   2.579  0.3037  0.6900 -0.2424
   54GLOH   H02 8926   3.533   1.195   2.644 -0.3372  3.3209 -0.1768
   54GLOH   H08 8927   3.701   1.166   2.629  0.0728 -0.6607 -1.1682
   54GLOH    C2 8928   3.578   1.142   2.445  0.4343 -0.4023 -0.7488
   54GLOH   H04 8929   3.648   1.177   2.369  1.2334 -1.4528 -0.5091
   54GLOH    O2 8930   3.576   0.997   2.463 -0.6294  0.2497  0.2361
   54GLOH   H05 8931   3.636   0.959   2.396 -0.6850 -2.0178  1.4377
   54GLOH    C3 8932   3.436   1.189   2.405 -0.3897 -0.0318  0.6143
   54GLOH   H06 8933   3.359   1.162   2.478  0.4366 -1.1346  1.0932
   54GLOH   H07 8934   3.410   1.126   2.320  0.6467  0.6402 -0.2093
   54GLOH    O3 8935   3.435   1.325   2.364  0.2576  0.0326  0.6530
   54GLOH   H01 8936   3.344   1.355   2.347  0.6943  1.0550  0.0793
   55GLOH   H03 8937   4.281   0.279   1.408 -1.3541  0.0688 -2.0439
   55GLOH    O1 8938   4.314   0.192   1.380 -0.1991 -0.2765  0.2337
   55GLOH    C1 8939   4.336   0.103   1.498 -0.2834 -0.4797  0.0581
   55GLOH   H02 8940   4.384   0.011   1.466  0.8265 -0.1364  0.7120
   55GLOH   H08 8941   4.237   0.079   1.537 -0.6413 -2.0978 -1.7487
   55GLOH    C2 8942   4.422   0.155   1.615  0.6884 -0.8109 -0.4109
   55GLOH   H04 8943   4.524   0.174   1.578 -0.2124 -0.8699 -2.9962
   55GLOH    O2 8944   4.353   0.272   1.671 -0.4412 -0.0767 -0.7340
   55GLOH   H05 8945   4.404   0.350   1.646  0.1470  0.1628  1.2119
   55GLOH    C3 8946   4.433   0.049   1.721 -0.2232  0.0297  0.5285
   55GLOH   H06 8947   4.338   0.039   1.773 -0.2699 -1.4650  0.1727
   55GLOH   H07 8948   4.489   0.089   1.806 -5.2087  0.5980  3.7614
   55GLOH    O3 8949   4.495  -0.070   1.685 -0.5281  0.1325 -0.3875
   55GLOH   H01 8950   4.550  -0.069   1.605 -2.2952 -0.5445 -1.6231
   56GLOH   H03 8951   8.479   3.753   0.307 -2.2933  0.1034 -0.3744
   56GLOH    O1 8952   8.506   3.715   0.221  0.0828  0.9292 -0.0466
   56GLOH    C1 8953   8.648   3.728   0.216 -0.3743  0.2877 -0.0918
   56GLOH   H02 8954   8.673   3.832   0.193  0.5251 -0.3916 -2.3521
   56GLOH   H08 8955   8.685   3.664   0.136 -1.6498 -0.7397  0.1402
   56GLOH    C2 8956   8.708   3.690   0.355 -0.4536 -0.3734  0.5253
   56GLOH   H04 8957   8.814   3.717   0.348 -0.3667 -0.9710 -0.6773
   56GLOH    O2 8958   8.641   3.757   0.462 -0.3132 -0.9616 -0.3765
   56GLOH   H05 8959   8.642   3.851   0.440 -3.0012 -0.8782 -0.2128
   56GLOH    C3 8960   8.711   3.537   0.378 -0.6036 -0.4607 -0.4667
   56GLOH   H06 8961   8.613   3.504   0.343 -0.0238 -0.7637 -1.8319
   56GLOH   H07 8962   8.721   3.513   0.484 -1.3972  0.3388 -0.2022
   56GLOH    O3 8963   8.815   3.482   0.295  0.2121 -0.6603  0.6428
   56GLOH   H01 8964   8.774   3.417   0.236  1.6503 -0.6077 -0.4436
   57GLOH   H03 8965   9.045   2.660   0.245 -2.5461 -3.4120  0.3729
   57GLOH    O1 8966   9.072   2.652   0.338 -0.4936  0.0826  0.1676
   57GLOH    C1 8967   9.100   2.779   0.399 -0.0132 -0.3384 -0.4241
   57GLOH   H02 8968   9.165   2.774   0.487  1.1146  0.6411 -1.1794
   57GLOH   H08 8969   9.005   2.823   0.426 -0.3564 -0.8676 -0.7574
   57GLOH    C2 8970   9.180   2.864   0.294  0.2814  0.6665 -0.8049
   57GLOH   H04 8971   9.261   2.801   0.255 -1.1966 -2.6323  1.1885
   57GLOH    O2 8972   9.090   2.914   0.190  0.0487 -0.0126 -0.0150
   57GLOH   H05 8973   9.085   2.843   0.123  3.9366  0.6712 -1.1854
   57GLOH    C3 8974   9.230   2.991   0.373 -0.4077 -0.3399 -0.2457
   57GLOH   H06 8975   9.151   3.010   0.446 -1.5240  1.4880 -1.8634
   57GLOH   H07 8976   9.224   3.071   0.299 -1.8527 -0.2667 -0.0735
   57GLOH    O3 8977   9.360   2.967   0.431 -0.3882  0.5306  0.0070
   57GLOH   H01 8978   9.427   2.958   0.360  1.0909  0.5024  1.3661
   58GLOH   H03 8979   8.661   5.888   0.905  1.2110  0.0509  1.6707
   58GLOH    O1 8980   8.608   5.918   0.981 -0.6628 -0.4381  0.5904
   58GLOH    C1 8981   8.693   5.943   1.094  0.0828 -0.2890 -0.6255
   58GLOH   H02 8982   8.700   6.052   1.099  1.0185 -0.4107  1.0534
   58GLOH   H08 8983   8.794   5.905   1.086  0.1849  0.0540 -0.9987
   58GLOH    C2 8984   8.642   5.900   1.227 -0.0707  0.4458 -0.4415
   58GLOH   H04 8985   8.623   5.792   1.221 -3.1606  0.9308 -0.5131
   58GLOH    O2 8986   8.750   5.920   1.321 -0.1891  0.0575  0.1409
   58GLOH   H05 8987   8.720   5.962   1.403 -0.2507 -0.4951  0.4039
   58GLOH    C3 8988   8.510   5.961   1.270 -0.2356 -0.8313 -0.1277
   58GLOH   H06 8989   8.525   6.068   1.262 -0.2532 -0.6539  2.0455
   58GLOH   H07 8990   8.484   5.939   1.373  0.9180  0.6490  0.4990
   58GLOH    O3 8991   8.403   5.930   1.183 -0.8709 -0.1316 -1.0488
   58GLOH   H01 8992   8.448   5.888   1.107  0.6558  0.8441 -0.7023
   59GLOH   H03 8993   4.469   0.521   2.310  0.4199  0.5228  1.2065
   59GLOH    O1 8994   4.520   0.570   2.243  0.4445 -0.1281  0.7402
   59GLOH    C1 8995   4.648   0.620   2.287 -0.2744 -0.2794  0.2634
   59GLOH   H02 8996   4.720   0.568   2.223 -2.1354 -2.5656 -0.0518
   59GLOH   H08 8997   4.658   0.598   2.393  0.9923  0.9874  0.4157
   59GLOH    C2 8998   4.680   0.767   2.274 -0.0274 -0.8168  0.3746
   59GLOH   H04 8999   4.649   0.798   2.173 -2.6130  1.0995  1.7247
   59GLOH    O2 9000   4.593   0.833   2.363  0.4028  0.0384  0.1508
   59GLOH   H05 9001   4.614   0.928   2.372 -0.4597  0.3476 -1.0761
   59GLOH    C3 9002   4.834   0.784   2.279  0.3737  0.5138  0.0867
   59GLOH   H06 9003   4.883   0.726   2.201 -1.1885  0.1811 -0.6528
   59GLOH   H07 9004   4.861   0.741   2.375 -2.0488  2.1440  1.5548
   59GLOH    O3 9005   4.853   0.927   2.261 -0.0393  0.0824 -0.0848
   59GLOH   H01 9006   4.881   0.931   2.168 -2.0397 -2.8322 -0.9040
   60GLOH   H03 9007   2.190   5.572   1.425  3.5102  0.4852  0.0876
   60GLOH    O1 9008   2.203   5.499   1.489  0.1054 -0.1295  0.1550
   60GLOH    C1 9009   2.307   5.544   1.581 -0.4535  0.1190  0.3339
   60GLOH   H02 9010   2.278   5.531   1.686 -0.3634  0.1310  0.3604
   60GLOH   H08 9011   2.313   5.653   1.573  0.0520  0.1909  1.5336
   60GLOH    C2 9012   2.448   5.476   1.551 -0.1615  0.2256  0.3079
   60GLOH   H04 9013   2.514   5.501   1.635  2.9428 -0.9507 -1.6811
   60GLOH    O2 9014   2.441   5.331   1.534 -0.6522  0.1190  0.7704
   60GLOH   H05 9015   2.350   5.299   1.526 -0.1457 -0.9831 -0.7808
   60GLOH    C3 9016   2.511   5.540   1.420 -0.5947  0.2006 -0.1440
   60GLOH   H06 9017   2.448   5.521   1.333 -0.3217 -1.5830  0.0237
   60GLOH   H07 9018   2.603   5.484   1.402 -1.0498 -0.0903 -1.6597
   60GLOH    O3 9019   2.537   5.680   1.437 -0.2006 -0.1883 -0.2564
   60GLOH   H01 9020   2.505   5.724   1.357  0.5048 -1.2773 -1.1547
   61GLOH   H03 9021   2.161   3.618   1.269 -1.8990  0.5515 -1.1582
   61GLOH    O1 9022   2.104   3.634   1.346 -0.1535  0.8368  0.1112
   61GLOH    C1 9023   1.975   3.645   1.288  1.1629 -0.3896  0.1624
   61GLOH   H02 9024   1.970   3.714   1.205  2.1185  0.1175  0.5221
   61GLOH   H08 9025   1.904   3.687   1.359 -0.8621 -2.4824 -0.5718
   61GLOH    C2 9026   1.921   3.508   1.250 -0.7564  0.5452  0.7194
   61GLOH   H04 9027   1.961   3.439   1.325  0.3567  2.1553  1.6354
   61GLOH    O2 9028   1.774   3.501   1.226  0.5354 -0.2700 -0.2414
   61GLOH   H05 9029   1.729   3.486   1.311  0.2842  3.4289  0.3863
   61GLOH    C3 9030   1.973   3.469   1.110 -0.4510 -0.1041  0.2308
   61GLOH   H06 9031   1.937   3.529   1.026  0.2638  0.4568  0.3239
   61GLOH   H07 9032   1.948   3.366   1.085 -1.9911  0.3902 -0.3831
   61GLOH    O3 9033   2.112   3.485   1.082  0.1000 -0.2992  0.1107
   61GLOH   H01 9034   2.131   3.430   1.004 -1.0953 -0.6248  0.0419
   62GLOH   H03 9035  -0.041   5.219   1.152 -0.5909 -2.6270 -0.5679
   62GLOH    O1 9036  -0.042   5.212   1.055  0.2325 -0.0226 -0.8092
   62GLOH    C1 9037  -0.067   5.343   1.008  0.3084  0.3950  0.5011
   62GLOH   H02 9038  -0.093   5.415   1.086 -0.2173  1.4110 -0.5818
   62GLOH   H08 9039  -0.150   5.356   0.938  2.5034 -2.5518 -2.8457
   62GLOH    C2 9040   0.065   5.402   0.948  0.6056  0.0836  0.2702
   62GLOH   H04 9041   0.039   5.500   0.905 -0.5359 -0.5981 -0.6314
   62GLOH    O2 9042   0.165   5.422   1.057 -0.3989 -0.1574  0.1157
   62GLOH   H05 9043   0.130   5.486   1.121  0.3133  0.0728  0.2775
   62GLOH    C3 9044   0.123   5.325   0.830 -0.5775 -0.0410  0.0237
   62GLOH   H06 9045   0.114   5.217   0.841  0.7144 -0.2200 -0.5420
   62GLOH   H07 9046   0.229   5.348   0.823 -1.1933  2.6796 -0.9661
   62GLOH    O3 9047   0.069   5.362   0.705 -0.1522 -0.1320  0.3326
   62GLOH   H01 9048   0.132   5.335   0.635  0.2216 -1.1714  1.0464
   63GLOH   H03 9049  -0.176   9.419   1.263 -0.1938  1.5654 -0.8742
   63GLOH    O1 9050  -0.079   9.411   1.265 -0.3412 -0.0927  0.0505
   63GLOH    C1 9051  -0.030   9.504   1.358  0.1154 -0.2105 -0.5759
   63GLOH   H02 9052   0.050   9.462   1.419  2.1765 -0.0548 -3.0676
   63GLOH   H08 9053  -0.114   9.533   1.422  0.3655 -0.4286 -0.1473
   63GLOH    C2 9054   0.020   9.638   1.301 -0.2928 -0.5758 -0.0837
   63GLOH   H04 9055  -0.071   9.692   1.271 -0.0101  0.0166  0.1173
   63GLOH    O2 9056   0.084   9.711   1.408 -0.4822 -0.0609 -0.2333
   63GLOH   H05 9057   0.067   9.662   1.491 -1.2225 -1.7771 -1.3765
   63GLOH    C3 9058   0.112   9.615   1.181  0.9263  0.7279  0.6816
   63GLOH   H06 9059   0.194   9.558   1.226 -0.6242 -0.3818  2.1248
   63GLOH   H07 9060   0.164   9.700   1.137  0.4919  1.3182  1.3150
   63GLOH    O3 9061   0.049   9.538   1.080 -0.2378  0.1187 -0.7580
   63GLOH   H01 9062   0.003   9.467   1.128  0.4779 -0.4266 -0.8591
   64GLOH   H03 9063   1.162   0.592   2.574 -0.2119  1.3982 -0.7218
   64GLOH    O1 9064   1.065   0.587   2.579 -0.0979 -0.4071  0.1427
   64GLOH    C1 9065   1.015   0.670   2.692 -0.0434  0.6700  0.8727
   64GLOH   H02 9066   1.017   0.778   2.677 -0.6834  0.6492  0.6444
   64GLOH   H08 9067   1.068   0.651   2.785 -1.4351 -1.0680  1.3207
   64GLOH    C2 9068   0.867   0.642   2.713 -0.7615  0.2176 -0.1262
   64GLOH   H04 9069   0.832   0.722   2.781 -2.1118  0.3022 -0.8963
   64GLOH    O2 9070   0.788   0.655   2.591 -0.1106  0.2832 -0.2297
   64GLOH   H05 9071   0.791   0.752   2.585  0.8546  0.2211 -0.9706
   64GLOH    C3 9072   0.833   0.502   2.770 -0.4034 -0.4147 -0.2457
   64GLOH   H06 9073   0.863   0.429   2.695 -0.1608 -0.3183 -0.2439
   64GLOH   H07 9074   0.725   0.499   2.782 -0.1344  0.1023  2.9842
   64GLOH    O3 9075   0.903   0.464   2.891 -0.1441  0.0015 -0.5141
   64GLOH   H01 9076   0.911   0.543   2.949 -0.6914 -0.6585  0.4784
   65GLOH   H03 9077   9.004   0.019   2.508 -0.8315 -0.0072 -0.1611
   65GLOH    O1 9078   9.035   0.084   2.442  0.3836 -0.3543  0.0567
   65GLOH    C1 9079   8.992   0.211   2.492 -0.2361 -0.1477 -0.4652
   65GLOH   H02 9080   8.982   0.204   2.600  1.4386 -0.0650 -0.3046
   65GLOH   H08 9081   8.896   0.240   2.448  0.4056  0.8880 -1.1996
   65GLOH    C2 9082   9.090   0.329   2.458 -0.3146  0.7192 -0.6035
   65GLOH   H04 9083   9.044   0.427   2.481 -0.4629  0.4076  0.4635
   65GLOH    O2 9084   9.224   0.313   2.512  0.1063  0.9204  0.1583
   65GLOH   H05 9085   9.218   0.311   2.609 -1.0179 -1.5346  0.0702
   65GLOH    C3 9086   9.106   0.333   2.303 -1.0344 -0.1693 -0.2788
   65GLOH   H06 9087   9.163   0.246   2.270 -0.1077  0.0948  0.6413
   65GLOH   H07 9088   9.172   0.419   2.295  0.4671 -1.4290 -1.9478
   65GLOH    O3 9089   8.984   0.336   2.233 -0.0196  0.3370  0.3310
   65GLOH   H01 9090   8.948   0.426   2.242  0.0707  0.3110  0.9304
   66GLOH   H03 9091   4.842   1.846   0.909 -0.0217 -3.3523  2.1131
   66GLOH    O1 9092   4.764   1.826   0.855  0.0403  0.4111  0.4799
   66GLOH    C1 9093   4.658   1.909   0.905  0.2714  0.0620 -0.4804
   66GLOH   H02 9094   4.699   2.007   0.931 -1.3355  0.1388  2.0132
   66GLOH   H08 9095   4.606   1.873   0.994 -0.8136 -0.3365 -1.2599
   66GLOH    C2 9096   4.539   1.931   0.808 -0.5608 -0.4360 -0.2526
   66GLOH   H04 9097   4.466   1.991   0.864  1.3444 -0.6627  2.5511
   66GLOH    O2 9098   4.580   1.996   0.683 -0.4532  0.5468  0.1854
   66GLOH   H05 9099   4.668   2.023   0.715  0.3882 -0.7998 -0.9304
   66GLOH    C3 9100   4.466   1.799   0.776 -0.8852 -0.0421  0.1435
   66GLOH   H06 9101   4.520   1.755   0.693  2.1862 -2.2122  3.1410
   66GLOH   H07 9102   4.370   1.826   0.732 -0.4096  1.4243 -0.0312
   66GLOH    O3 9103   4.437   1.712   0.888  0.2656  0.1512  0.6699
   66GLOH   H01 9104   4.418   1.762   0.969  2.6086  1.4482  0.4430
   67GLOH   H03 9105   4.312   9.473   0.472 -2.5225 -0.2372 -1.3387
   67GLOH    O1 9106   4.285   9.535   0.541  0.0731  0.2393 -0.7063
   67GLOH    C1 9107   4.165   9.609   0.498  0.1035 -0.2572  0.7582
   67GLOH   H02 9108   4.089   9.586   0.573 -3.2445 -0.1262 -2.4440
   67GLOH   H08 9109   4.131   9.568   0.403  1.3712 -1.1062  0.6660
   67GLOH    C2 9110   4.179   9.762   0.481 -1.4380 -0.1539  0.3055
   67GLOH   H04 9111   4.238   9.804   0.564 -1.6232 -0.1950  0.4551
   67GLOH    O2 9112   4.250   9.793   0.361 -0.1942 -0.1576 -0.5106
   67GLOH   H05 9113   4.344   9.795   0.389 -0.5002  0.3672  0.5037
   67GLOH    C3 9114   4.043   9.831   0.482  0.5441 -0.4868  0.0375
   67GLOH   H06 9115   3.977   9.780   0.551 -2.1922  2.6077 -0.1536
   67GLOH   H07 9116   4.003   9.817   0.382  0.8857  0.5302 -0.2516
   67GLOH    O3 9117   4.047   9.971   0.502 -0.0724 -0.3524  0.3581
   67GLOH   H01 9118   4.095  10.021   0.433  0.9160  0.2554  1.4823
   68GLOH   H03 9119   1.806   2.433   1.011 -1.5120 -0.3009  1.0432
   68GLOH    O1 9120   1.854   2.350   1.030 -0.0843  0.2873  0.1374
   68GLOH    C1 9121   2.000   2.372   1.003  0.8243 -0.2747 -0.5226
   68GLOH   H02 9122   2.028   2.372   0.897  1.2662  1.8128 -0.4399
   68GLOH   H08 9123   2.054   2.292   1.053 -0.1313 -0.1369  0.7543
   68GLOH    C2 9124   2.049   2.500   1.073  0.4866  0.6186  0.6069
   68GLOH   H04 9125   2.031   2.491   1.181 -1.8824  0.3158  0.1997
   68GLOH    O2 9126   2.190   2.526   1.056  0.1458  0.2405  0.3816
   68GLOH   H05 9127   2.212   2.619   1.072 -0.1842  0.2333  0.9006
   68GLOH    C3 9128   1.963   2.622   1.039  0.0915  0.3457 -0.4531
   68GLOH   H06 9129   1.969   2.637   0.931  1.4585 -0.8188 -0.5540
   68GLOH   H07 9130   2.013   2.707   1.086 -0.8883  0.2611  0.7606
   68GLOH    O3 9131   1.822   2.611   1.085 -0.0818  0.4904  0.0014
   68GLOH   H01 9132   1.751   2.620   1.019  0.0951 -0.2724 -0.3008
   69GLOH   H03 9133   3.852   6.064   2.754  2.1241 -0.0582 -2.4988
   69GLOH    O1 9134   3.785   6.112   2.701  0.2416  0.2244  0.0614
   69GLOH    C1 9135   3.729   6.223   2.768  0.1858 -0.7391 -0.2739
   69GLOH   H02 9136   3.635   6.195   2.815 -0.7341  0.6894 -1.2512
   69GLOH   H08 9137   3.703   6.299   2.695  1.6030  0.9693  0.9427
   69GLOH    C2 9138   3.822   6.284   2.879  0.3185 -0.1816 -0.1084
   69GLOH   H04 9139   3.917   6.315   2.832 -0.2115  0.2732 -0.8811
   69GLOH    O2 9140   3.754   6.397   2.940 -0.1666 -0.2708  0.5254
   69GLOH   H05 9141   3.668   6.371   2.978 -1.9118  0.1960 -2.9401
   69GLOH    C3 9142   3.870   6.178   2.980 -0.2534 -0.7631 -0.5134
   69GLOH   H06 9143   3.783   6.134   3.028 -0.5628  1.1078  0.6788
   69GLOH   H07 9144   3.933   6.233   3.050 -1.8867  2.3399 -1.4014
   69GLOH    O3 9145   3.954   6.075   2.913 -0.0325  0.8172  0.0895
   69GLOH   H01 9146   3.925   5.985   2.939  2.2269 -0.5476 -1.9344
   70GLOH   H03 9147   3.753   5.156   0.248  0.7092 -0.0559  0.0020
   70GLOH    O1 9148   3.689   5.086   0.272  0.2381  0.4612  0.2678
   70GLOH    C1 9149   3.749   4.964   0.229 -0.8743  0.3768  0.6517
   70GLOH   H02 9150   3.820   4.982   0.148  1.6016 -2.3029  2.1376
   70GLOH   H08 9151   3.678   4.888   0.196 -0.7005  0.9690 -1.1712
   70GLOH    C2 9152   3.833   4.910   0.342  0.0795 -0.3768  0.0260
   70GLOH   H04 9153   3.780   4.901   0.438  0.9200 -0.6653  0.4786
   70GLOH    O2 9154   3.889   4.780   0.306  0.3745  0.7088  0.3332
   70GLOH   H05 9155   3.820   4.717   0.336  2.2285 -1.4730  0.1242
   70GLOH    C3 9156   3.951   5.006   0.371 -0.6564  0.1090  0.0454
   70GLOH   H06 9157   3.909   5.106   0.383 -1.5409  0.0198 -2.0540
   70GLOH   H07 9158   4.012   5.015   0.281 -2.1359  1.0435 -0.8734
   70GLOH    O3 9159   4.039   4.977   0.479  0.7526  0.4689 -0.2842
   70GLOH   H01 9160   4.098   5.053   0.498 -1.7487  2.4315 -0.0511
   71GLOH   H03 9161   8.165   1.099   0.531  0.6651 -1.0386 -0.1254
   71GLOH    O1 9162   8.151   1.099   0.627  0.3078  0.5505 -0.1601
   71GLOH    C1 9163   8.225   1.200   0.698 -0.3093  0.1349  0.3775
   71GLOH   H02 9164   8.158   1.250   0.768  1.7010 -1.9305  3.9083
   71GLOH   H08 9165   8.250   1.284   0.632  1.4338  1.6436  2.8976
   71GLOH    C2 9166   8.351   1.164   0.779  0.1736  0.3671  0.4590
   71GLOH   H04 9167   8.428   1.127   0.709  1.2249  2.9696  0.1999
   71GLOH    O2 9168   8.398   1.278   0.846 -0.5777 -0.1032  0.0538
   71GLOH   H05 9169   8.347   1.299   0.926  0.2554  1.7158  0.1317
   71GLOH    C3 9170   8.336   1.041   0.869  0.0407  0.4583 -0.0238
   71GLOH   H06 9171   8.322   0.950   0.810 -2.2332 -0.8523  2.4615
   71GLOH   H07 9172   8.251   1.063   0.932 -1.5599 -1.4127 -1.4722
   71GLOH    O3 9173   8.449   1.026   0.947 -0.3347  0.7104  0.8169
   71GLOH   H01 9174   8.428   1.075   1.028 -2.3652  0.5163  0.4380
   72GLOH   H03 9175   2.270   8.849   2.948 -0.5775 -0.9201  2.0672
   72GLOH    O1 9176   2.214   8.797   2.888  0.0065  0.5185  0.2281
   72GLOH    C1 9177   2.297   8.766   2.780 -0.4592 -0.5261  0.7173
   72GLOH   H02 9178   2.393   8.721   2.808  1.0926  2.5421  0.5190
   72GLOH   H08 9179   2.331   8.856   2.729  1.0243 -1.7449 -0.5216
   72GLOH    C2 9180   2.223   8.674   2.680 -0.2631  0.0247  0.2456
   72GLOH   H04 9181   2.191   8.585   2.737  2.3222 -0.2578  1.3725
   72GLOH    O2 9182   2.106   8.731   2.610 -0.2494  0.0199  0.7663
   72GLOH   H05 9183   2.071   8.660   2.554 -0.5195  0.8480 -0.1145
   72GLOH    C3 9184   2.333   8.627   2.584 -0.0682 -0.0221  0.1133
   72GLOH   H06 9185   2.428   8.617   2.635  0.2947  1.4891 -0.2512
   72GLOH   H07 9186   2.349   8.711   2.516 -1.1458 -0.3168 -0.5188
   72GLOH    O3 9187   2.301   8.512   2.499 -0.4546 -0.3329 -0.3207
   72GLOH   H01 9188   2.373   8.493   2.436  0.8503 -2.4878  1.7331
   73GLOH   H03 9189   0.321   8.029   0.057  0.3569  2.2996 -1.2845
   73GLOH    O1 9190   0.363   8.079   0.129  0.9483 -0.0754  0.0939
   73GLOH    C1 9191   0.298   8.199   0.160  0.0057  0.7139  0.3401
   73GLOH   H02 9192   0.190   8.185   0.170 -0.2163  1.1677 -1.2386
   73GLOH   H08 9193   0.325   8.276   0.087 -2.0658 -2.0323 -3.4989
   73GLOH    C2 9194   0.338   8.248   0.299 -0.0013 -0.2924 -0.0231
   73GLOH   H04 9195   0.440   8.222   0.328  1.3660  2.5152 -2.0198
   73GLOH    O2 9196   0.326   8.395   0.301 -0.2340  0.1744 -0.3443
   73GLOH   H05 9197   0.389   8.423   0.232  0.5160 -0.9520 -0.1338
   73GLOH    C3 9198   0.246   8.199   0.412  0.5622  0.0364  1.1246
   73GLOH   H06 9199   0.150   8.250   0.413  1.7104  2.2546  0.2973
   73GLOH   H07 9200   0.286   8.237   0.506  2.9078 -3.2110  1.5637
   73GLOH    O3 9201   0.226   8.057   0.431 -0.0016 -0.1903  0.2177
   73GLOH   H01 9202   0.152   8.034   0.372  1.7064 -0.8500 -1.7340
   74GLOH   H03 9203   2.444   4.695   0.222 -0.8827  1.0372 -1.0643
   74GLOH    O1 9204   2.523   4.752   0.229 -0.3543  0.1630  0.3442
   74GLOH    C1 9205   2.570   4.769   0.097 -0.1850 -0.0932 -0.1386
   74GLOH   H02 9206   2.510   4.706   0.031  0.5461 -1.4434  0.4567
   74GLOH   H08 9207   2.670   4.724   0.093 -0.3387 -0.3072 -2.0369
   74GLOH    C2 9208   2.559   4.910   0.041 -0.9248 -0.4677  0.7179
   74GLOH   H04 9209   2.581   4.898  -0.066  1.4306  0.3078  1.0659
   74GLOH    O2 9210   2.432   4.964   0.055  0.4508 -0.2674 -0.4234
   74GLOH   H05 9211   2.410   4.969   0.150 -0.5931 -1.4277 -0.5945
   74GLOH    C3 9212   2.664   4.998   0.104  0.5181 -0.4565  0.2980
   74GLOH   H06 9213   2.755   4.939   0.088  0.4082 -0.3458 -0.7554
   74GLOH   H07 9214   2.648   4.995   0.212  0.6517 -1.9144  0.2897
   74GLOH    O3 9215   2.681   5.132   0.050  0.1957 -0.1410  0.2880
   74GLOH   H01 9216   2.728   5.127  -0.035  2.8114 -1.9464  1.7673
   75GLOH   H03 9217   4.921   9.243   0.270 -0.3792 -0.0433 -0.6786
   75GLOH    O1 9218   4.952   9.326   0.229  0.1444 -0.0583 -0.3084
   75GLOH    C1 9219   4.864   9.433   0.274  0.0475  0.6933  0.0831
   75GLOH   H02 9220   4.897   9.525   0.226  0.5616  1.3504  1.6740
   75GLOH   H08 9221   4.864   9.458   0.380 -3.3434  2.7431 -0.3420
   75GLOH    C2 9222   4.717   9.416   0.236 -0.2385 -0.5538 -0.2617
   75GLOH   H04 9223   4.681   9.331   0.296  1.3876 -1.1490 -0.1007
   75GLOH    O2 9224   4.635   9.533   0.270 -0.3924 -0.0068  0.1771
   75GLOH   H05 9225   4.580   9.555   0.193  2.2115 -0.9363 -2.0082
   75GLOH    C3 9226   4.703   9.374   0.087 -0.0870 -0.7081  0.0732
   75GLOH   H06 9227   4.762   9.287   0.059 -1.1083 -2.0061  1.8321
   75GLOH   H07 9228   4.741   9.458   0.029 -0.3161 -0.2688  0.5537
   75GLOH    O3 9229   4.566   9.359   0.032  0.1705 -0.6898  0.2878
   75GLOH   H01 9230   4.539   9.450   0.009  1.5886  0.4811  3.0319
   76GLOH   H03 9231   3.296   1.628   2.873 -1.8259 -0.9296  2.9035
   76GLOH    O1 9232   3.349   1.547   2.873 -0.1959  0.0466 -0.6350
   76GLOH    C1 9233   3.483   1.585   2.906  0.4098  0.3890  0.7838
   76GLOH   H02 9234   3.551   1.509   2.867  0.0423  0.0202  0.8633
   76GLOH   H08 9235   3.488   1.588   3.015  1.2194 -0.5457  0.7819
   76GLOH    C2 9236   3.529   1.726   2.866  0.5061 -0.6585 -0.1503
   76GLOH   H04 9237   3.639   1.728   2.868  0.4678  1.9722  1.7376
   76GLOH    O2 9238   3.488   1.760   2.726 -0.8703  0.7805 -0.4134
   76GLOH   H05 9239   3.493   1.675   2.679  1.6346  0.6265  0.0343
   76GLOH    C3 9240   3.485   1.835   2.960 -0.1534 -0.2334 -0.4011
   76GLOH   H06 9241   3.378   1.828   2.979 -0.7031  0.7705 -2.9360
   76GLOH   H07 9242   3.501   1.936   2.921 -1.0410  0.7547  1.6762
   76GLOH    O3 9243   3.549   1.814   3.089 -0.0612  0.0049 -0.0845
   76GLOH   H01 9244   3.500   1.868   3.153 -0.7255 -0.8774  0.1631
   77GLOH   H03 9245   7.992   7.882   2.280 -0.4900  0.5535 -0.4645
   77GLOH    O1 9246   7.951   7.853   2.364 -0.0790  0.0827 -0.4295
   77GLOH    C1 9247   7.852   7.752   2.329  0.2353 -0.2889  0.8038
   77GLOH   H02 9248   7.802   7.780   2.236 -2.2293 -2.4674  1.4158
   77GLOH   H08 9249   7.777   7.751   2.408  0.9775  0.2073  1.5259
   77GLOH    C2 9250   7.917   7.618   2.322  0.6490 -0.2900  0.3648
   77GLOH   H04 9251   7.934   7.577   2.422 -0.1104  0.7364  0.9252
   77GLOH    O2 9252   7.818   7.531   2.268 -0.0868  0.3882  0.5624
   77GLOH   H05 9253   7.855   7.441   2.279  2.5051  1.1231 -1.5394
   77GLOH    C3 9254   8.054   7.611   2.254 -0.8706  0.2426  0.0177
   77GLOH   H06 9255   8.120   7.684   2.302  0.6533  1.0731 -3.1938
   77GLOH   H07 9256   8.041   7.640   2.150  1.2708 -0.9908 -0.6297
   77GLOH    O3 9257   8.112   7.475   2.265  0.0979 -0.0350  0.1331
   77GLOH   H01 9258   8.144   7.455   2.355  3.0277 -3.3350 -1.5533
   78GLOH   H03 9259   0.618   7.952   1.824  0.9502 -0.9049  0.2688
   78GLOH    O1 9260   0.646   7.972   1.733 -0.0744 -0.3499  0.0610
   78GLOH    C1 9261   0.579   8.086   1.680  0.0719 -0.2839  0.2748
   78GLOH   H02 9262   0.480   8.095   1.724  1.2378  1.0362  2.7263
   78GLOH   H08 9263   0.561   8.080   1.573  1.7659 -0.1495 -0.0330
   78GLOH    C2 9264   0.636   8.224   1.706  0.0008 -0.3415 -1.1556
   78GLOH   H04 9265   0.557   8.299   1.690 -0.0808 -0.0560  0.4670
   78GLOH    O2 9266   0.680   8.234   1.846  0.2624  0.1127  0.2828
   78GLOH   H05 9267   0.775   8.213   1.847  0.4104  0.2789 -3.3101
   78GLOH    C3 9268   0.757   8.250   1.609  1.1195 -0.1781  0.0250
   78GLOH   H06 9269   0.723   8.232   1.508 -1.6791  0.3055  0.8512
   78GLOH   H07 9270   0.828   8.168   1.627  2.2017  0.5708 -0.8191
   78GLOH    O3 9271   0.818   8.382   1.608  0.2161 -0.1020 -0.0371
   78GLOH   H01 9272   0.795   8.416   1.520  1.2415  0.8215  0.0453
   79GLOH   H03 9273   4.475   1.598   2.636  0.3893  1.8969  0.3092
   79GLOH    O1 9274   4.568   1.575   2.619  0.0099  0.1948  0.4563
   79GLOH    C1 9275   4.630   1.470   2.696 -0.0141 -0.3237  0.1847
   79GLOH   H02 9276   4.591   1.478   2.798  3.1383  0.5517  1.3576
   79GLOH   H08 9277   4.738   1.481   2.701 -0.0270 -0.4526  0.8095
   79GLOH    C2 9278   4.595   1.338   2.622 -0.0317  0.0304 -0.7436
   79GLOH   H04 9279   4.493   1.350   2.582 -0.7337  0.0311  1.0267
   79GLOH    O2 9280   4.680   1.322   2.505 -0.3883  0.0581  0.0256
   79GLOH   H05 9281   4.658   1.401   2.453 -2.9197 -0.6770 -0.0924
   79GLOH    C3 9282   4.605   1.218   2.722 -0.1800  0.5348  0.7867
   79GLOH   H06 9283   4.706   1.198   2.757  0.6229  1.0355 -1.1344
   79GLOH   H07 9284   4.572   1.130   2.666 -0.5561  1.8078 -1.0433
   79GLOH    O3 9285   4.504   1.232   2.827 -0.0915  0.2221 -0.4267
   79GLOH   H01 9286   4.548   1.224   2.913 -1.3152 -4.0412 -0.0525
   80GLOH   H03 9287   9.927   5.452   0.723  0.8214  0.3403 -0.2508
   80GLOH    O1 9288   9.851   5.511   0.707  0.5581  0.1650  0.3784
   80GLOH    C1 9289   9.849   5.574   0.584 -0.2225 -0.2119  0.3828
   80GLOH   H02 9290   9.768   5.646   0.583 -1.1882 -1.2975 -2.1681
   80GLOH   H08 9291   9.831   5.502   0.504  0.2348 -0.2876  0.3416
   80GLOH    C2 9292   9.980   5.648   0.549 -0.5076  0.1751 -0.7734
   80GLOH   H04 9293  10.065   5.581   0.570  0.2900  1.3657 -0.1821
   80GLOH    O2 9294   9.988   5.678   0.412 -0.0304 -0.3432 -0.1468
   80GLOH   H05 9295   9.948   5.764   0.391  2.4486  0.2432 -2.8502
   80GLOH    C3 9296   9.996   5.770   0.645  0.6095 -0.5576 -0.2845
   80GLOH   H06 9297  10.079   5.837   0.623 -0.7580  1.0383 -0.6508
   80GLOH   H07 9298  10.005   5.724   0.743 -0.5524  1.2553  0.6981
   80GLOH    O3 9299   9.885   5.858   0.640 -0.4190 -0.2441 -0.0889
   80GLOH   H01 9300   9.903   5.934   0.699 -1.3207 -0.7367  0.8446
   81GLOH   H03 9301   3.065   2.189   2.417 -2.5857 -2.6066 -0.4121
   81GLOH    O1 9302   3.141   2.132   2.394 -0.3162  0.0565  0.1701
   81GLOH    C1 9303   3.246   2.156   2.493 -0.1371  0.1910  0.0858
   81GLOH   H02 9304   3.203   2.152   2.592 -3.2896 -1.0094 -1.2890
   81GLOH   H08 9305   3.274   2.260   2.478 -0.8993  0.1230 -2.0157
   81GLOH    C2 9306   3.376   2.065   2.482  0.0207 -1.0405 -0.3132
   81GLOH   H04 9307   3.357   1.968   2.435 -0.5583 -1.1701  0.1878
   81GLOH    O2 9308   3.462   2.150   2.401  0.1289  0.4046  0.0334
   81GLOH   H05 9309   3.414   2.172   2.319 -1.0156  0.0677  0.6102
   81GLOH    C3 9310   3.450   2.050   2.623  0.3426  0.2240  0.6351
   81GLOH   H06 9311   3.469   2.149   2.666  0.5221  0.6084 -0.3255
   81GLOH   H07 9312   3.541   1.998   2.597  0.3137  0.5333 -0.0785
   81GLOH    O3 9313   3.372   1.977   2.711 -0.7099  0.5143 -0.2512
   81GLOH   H01 9314   3.408   1.887   2.717 -1.6212  0.1574  0.0864
   82GLOH   H03 9315   1.491   7.875   2.358 -1.1877  0.5023  1.5636
   82GLOH    O1 9316   1.533   7.962   2.375 -0.3242  0.4575 -0.2008
   82GLOH    C1 9317   1.497   7.995   2.510  0.5703  0.1407  0.2101
   82GLOH   H02 9318   1.539   8.094   2.526  1.9364 -0.0673 -1.9856
   82GLOH   H08 9319   1.544   7.927   2.581 -0.7201  1.2307  2.1720
   82GLOH    C2 9320   1.345   8.001   2.527 -0.0266 -0.0931 -0.0820
   82GLOH   H04 9321   1.308   7.903   2.493  0.2429 -0.7370  1.4335
   82GLOH    O2 9322   1.313   8.036   2.664 -0.3377 -0.4868 -0.3694
   82GLOH   H05 9323   1.324   7.960   2.723 -0.3309 -0.2580 -0.0793
   82GLOH    C3 9324   1.298   8.120   2.440 -0.3774  0.1013  0.0830
   82GLOH   H06 9325   1.329   8.203   2.502  0.2642 -0.5089  0.5875
   82GLOH   H07 9326   1.190   8.137   2.435 -0.1170  1.3809 -1.6596
   82GLOH    O3 9327   1.360   8.124   2.312  0.4967  0.0527 -0.4659
   82GLOH   H01 9328   1.446   8.080   2.322  0.4284 -0.3486 -1.6339
   83GLOH   H03 9329   1.354   9.864   2.204 -0.7121  1.0969 -0.1984
   83GLOH    O1 9330   1.447   9.887   2.186 -0.1237 -0.3728  0.8977
   83GLOH    C1 9331   1.504   9.774   2.109  0.2569  0.4306 -0.6428
   83GLOH   H02 9332   1.608   9.802   2.093 -0.2294  1.7404 -1.6090
   83GLOH   H08 9333   1.467   9.758   2.008  0.7935 -0.2928 -0.7341
   83GLOH    C2 9334   1.496   9.635   2.178  0.3185 -0.3521  0.2352
   83GLOH   H04 9335   1.395   9.614   2.216 -0.9644  1.9085 -1.7647
   83GLOH    O2 9336   1.534   9.537   2.086  0.4868 -0.0613  0.1177
   83GLOH   H05 9337   1.493   9.570   2.004  0.7625 -1.2017 -0.4864
   83GLOH    C3 9338   1.588   9.643   2.301  0.3295 -0.7129  0.0732
   83GLOH   H06 9339   1.692   9.655   2.271 -0.0766  1.2216 -0.6519
   83GLOH   H07 9340   1.574   9.552   2.359 -1.7725  0.9232  2.2133
   83GLOH    O3 9341   1.554   9.753   2.385 -0.5015 -0.5658  0.3668
   83GLOH   H01 9342   1.503   9.811   2.325 -0.5577 -2.3188 -1.3171
   84GLOH   H03 9343   8.392   4.329   0.483  1.5140 -1.8179 -2.7259
   84GLOH    O1 9344   8.371   4.245   0.527  0.2153 -0.1062  0.0127
   84GLOH    C1 9345   8.406   4.243   0.669 -0.1510  0.1564 -0.0473
   84GLOH   H02 9346   8.321   4.269   0.732 -1.0142 -2.0825 -0.2410
   84GLOH   H08 9347   8.491   4.309   0.687 -1.8405  2.3484  0.1592
   84GLOH    C2 9348   8.450   4.098   0.711  0.4013 -0.6881  0.7168
   84GLOH   H04 9349   8.529   4.069   0.640 -0.9172  0.6374 -1.3258
   84GLOH    O2 9350   8.509   4.082   0.844  0.2130  0.1036  0.4226
   84GLOH   H05 9351   8.571   4.153   0.870  0.7679  0.1165 -0.9042
   84GLOH    C3 9352   8.327   4.002   0.705 -0.9661  0.0771  0.6119
   84GLOH   H06 9353   8.267   4.023   0.793 -0.7097  0.2258  0.7490
   84GLOH   H07 9354   8.370   3.903   0.718  0.7834  0.2856 -2.7995
   84GLOH    O3 9355   8.261   4.013   0.578 -0.1216 -0.0573 -0.4281
   84GLOH   H01 9356   8.278   4.104   0.548  0.0367  0.4184  1.0367
   85GLOH   H03 9357   3.873   5.597   1.862 -1.2449 -0.1104  0.1072
   85GLOH    O1 9358   3.842   5.688   1.844 -0.4080  0.2497  0.4787
   85GLOH    C1 9359   3.699   5.690   1.865 -0.2178 -0.2172 -0.4056
   85GLOH   H02 9360   3.652   5.613   1.804  0.8995  0.0339 -1.6079
   85GLOH   H08 9361   3.653   5.786   1.840  0.4545  0.1003 -0.4176
   85GLOH    C2 9362   3.651   5.659   2.007 -0.2694 -0.4008 -0.6335
   85GLOH   H04 9363   3.542   5.647   2.003 -0.3380  0.1958 -0.4771
   85GLOH    O2 9364   3.714   5.536   2.058 -0.0789 -0.3175 -0.2175
   85GLOH   H05 9365   3.776   5.490   2.000  0.1792  0.2594 -0.3981
   85GLOH    C3 9366   3.693   5.764   2.104  0.2631 -0.4531  0.2952
   85GLOH   H06 9367   3.800   5.785   2.099  0.4930 -1.4531  0.7994
   85GLOH   H07 9368   3.680   5.722   2.204 -0.3091  0.7312  0.7200
   85GLOH    O3 9369   3.619   5.887   2.103  0.4214  0.0689  0.6549
   85GLOH   H01 9370   3.529   5.871   2.136 -0.2166 -1.2482 -1.6257
   86GLOH   H03 9371   8.422   8.011   0.536  0.2420 -0.5314 -0.1878
   86GLOH    O1 9372   8.457   7.923   0.560 -0.6628 -0.7719  0.2751
   86GLOH    C1 9373   8.385   7.877   0.666 -0.0674 -0.2196 -0.3894
   86GLOH   H02 9374   8.282   7.850   0.642 -0.5971  0.5509  0.9667
   86GLOH   H08 9375   8.367   7.951   0.743  0.5885  1.1848 -1.5527
   86GLOH    C2 9376   8.446   7.753   0.718  0.0194 -0.0275  0.1649
   86GLOH   H04 9377   8.450   7.689   0.629 -0.7346  0.3211 -0.1239
   86GLOH    O2 9378   8.576   7.775   0.775 -0.0276 -0.1168  0.8650
   86GLOH   H05 9379   8.625   7.691   0.781  0.1160  0.0213  1.6302
   86GLOH    C3 9380   8.343   7.694   0.812  1.1046 -0.2011  0.1986
   86GLOH   H06 9381   8.313   7.757   0.895  0.1134  1.3087 -1.2688
   86GLOH   H07 9382   8.393   7.616   0.869 -1.2078 -0.8581  1.3775
   86GLOH    O3 9383   8.232   7.633   0.749  0.0799 -0.0313  0.0287
   86GLOH   H01 9384   8.265   7.549   0.711  0.5583 -0.2730  0.9553
   87GLOH   H03 9385   1.209   5.340   1.646 -0.5922 -1.5667 -2.4172
   87GLOH    O1 9386   1.205   5.254   1.691  0.6078 -0.5694 -0.3279
   87GLOH    C1 9387   1.332   5.190   1.710  0.2236 -0.3198 -0.1889
   87GLOH   H02 9388   1.401   5.273   1.726 -0.4683  0.5962 -1.8376
   87GLOH   H08 9389   1.371   5.144   1.619  1.5523  0.2855  0.0617
   87GLOH    C2 9390   1.340   5.085   1.815 -0.5556 -0.7280  0.6829
   87GLOH   H04 9391   1.269   5.007   1.782  0.6736 -0.6753 -2.2126
   87GLOH    O2 9392   1.473   5.028   1.823  0.0581 -0.3760 -0.1644
   87GLOH   H05 9393   1.478   4.970   1.900 -2.2611 -1.4767 -0.8138
   87GLOH    C3 9394   1.293   5.151   1.949 -1.2917  0.2253  0.6015
   87GLOH   H06 9395   1.291   5.072   2.024  1.7691  1.6187  2.2025
   87GLOH   H07 9396   1.185   5.163   1.937 -1.4520 -1.3184  0.3631
   87GLOH    O3 9397   1.361   5.266   2.002 -0.0278 -0.9965  0.4111
   87GLOH   H01 9398   1.412   5.243   2.081  0.5373 -1.4542 -0.0773
   88GLOH   H03 9399   5.218   3.042   1.055  2.1330  2.8505 -0.4736
   88GLOH    O1 9400   5.290   2.980   1.033 -0.0629  0.1236 -0.2711
   88GLOH    C1 9401   5.306   2.984   0.890 -0.1564 -0.0171 -0.3208
   88GLOH   H02 9402   5.239   2.905   0.856 -0.3257 -0.2218  0.4609
   88GLOH   H08 9403   5.409   2.963   0.860  0.3062 -0.9660  1.8157
   88GLOH    C2 9404   5.258   3.113   0.829  0.2376 -0.3141 -0.1387
   88GLOH   H04 9405   5.336   3.181   0.866  0.5531  0.7983 -2.6768
   88GLOH    O2 9406   5.268   3.107   0.690  0.4439  0.4489  0.5339
   88GLOH   H05 9407   5.359   3.083   0.667  0.7678 -2.7294  4.6017
   88GLOH    C3 9408   5.128   3.165   0.886  0.5390 -0.0680  0.1970
   88GLOH   H06 9409   5.060   3.085   0.856  0.7903  0.2788 -1.3697
   88GLOH   H07 9410   5.089   3.256   0.841 -0.8312  0.1003  1.6683
   88GLOH    O3 9411   5.119   3.159   1.032 -0.6993  0.1001 -0.3475
   88GLOH   H01 9412   5.052   3.220   1.066 -1.0809 -0.0832 -0.7721
   89GLOH   H03 9413   4.652   0.929   0.135  2.4410 -0.2640 -0.3076
   89GLOH    O1 9414   4.630   1.020   0.106  1.0155 -0.6281 -0.3895
   89GLOH    C1 9415   4.618   1.093   0.235  0.3171 -0.5017  0.4321
   89GLOH   H02 9416   4.624   1.198   0.210 -1.6336 -0.5735 -0.4953
   89GLOH   H08 9417   4.708   1.085   0.296  0.0177  0.5139  1.0095
   89GLOH    C2 9418   4.493   1.069   0.314 -0.1472 -0.0271  0.4116
   89GLOH   H04 9419   4.404   1.068   0.249  1.6294  3.4963 -2.3038
   89GLOH    O2 9420   4.505   0.934   0.371 -0.0585 -0.2962 -0.5474
   89GLOH   H05 9421   4.509   0.864   0.304 -0.7192 -0.3075 -0.5796
   89GLOH    C3 9422   4.496   1.170   0.432 -0.3331 -0.3557  0.1813
   89GLOH   H06 9423   4.597   1.183   0.472 -0.0867  2.0245 -1.0829
   89GLOH   H07 9424   4.444   1.124   0.515 -0.8711 -1.4473 -0.7431
   89GLOH    O3 9425   4.447   1.300   0.413 -0.1847 -0.2749  0.6266
   89GLOH   H01 9426   4.356   1.289   0.378  0.6866 -1.8174 -1.2757
   90GLOH   H03 9427   4.274   2.886   2.724  2.8548 -1.2892  1.2324
   90GLOH    O1 9428   4.225   2.837   2.792 -0.0203 -0.0616  0.1236
   90GLOH    C1 9429   4.185   2.711   2.744  0.3870  0.0922  0.3503
   90GLOH   H02 9430   4.245   2.625   2.774  1.6802  0.6034 -0.7318
   90GLOH   H08 9431   4.188   2.710   2.635 -0.6196  0.9029  0.3007
   90GLOH    C2 9432   4.040   2.684   2.776  0.5711 -0.1582 -0.2278
   90GLOH   H04 9433   4.029   2.680   2.886  0.8920  1.6842 -0.1034
   90GLOH    O2 9434   3.953   2.788   2.724 -0.2074  0.2160  0.5849
   90GLOH   H05 9435   3.979   2.876   2.757  0.2928 -0.6771  2.5876
   90GLOH    C3 9436   3.991   2.551   2.714 -0.1521  0.1518  0.1642
   90GLOH   H06 9437   4.013   2.555   2.607  0.1197 -1.2871  0.1617
   90GLOH   H07 9438   3.882   2.538   2.715 -0.0566 -0.8311 -0.7833
   90GLOH    O3 9439   4.052   2.441   2.769 -0.2150  0.0901 -0.7709
   90GLOH   H01 9440   3.998   2.372   2.726 -0.9629  0.8003 -0.9793
   91GLOH   H03 9441   4.128   3.248   2.334  0.4122 -0.0728  0.8024
   91GLOH    O1 9442   4.202   3.199   2.295 -0.0327 -0.1595  0.0519
   91GLOH    C1 9443   4.286   3.287   2.216 -0.1692  0.4598  0.1377
   91GLOH   H02 9444   4.343   3.353   2.281  1.8366  0.9133 -1.9998
   91GLOH   H08 9445   4.229   3.348   2.146  1.8140  1.2274 -0.8759
   91GLOH    C2 9446   4.404   3.209   2.151 -0.1101 -0.3837  0.0341
   91GLOH   H04 9447   4.359   3.122   2.102  1.0525 -1.1066  0.2306
   91GLOH    O2 9448   4.484   3.271   2.049 -0.0998 -0.2632 -0.2456
   91GLOH   H05 9449   4.454   3.252   1.958  0.9236 -1.3044 -0.3770
   91GLOH    C3 9450   4.511   3.176   2.258  0.5345  0.0683  0.1760
   91GLOH   H06 9451   4.541   3.276   2.292  0.6616  0.5391 -1.3061
   91GLOH   H07 9452   4.598   3.121   2.223  2.2998  0.8565  3.0789
   91GLOH    O3 9453   4.446   3.103   2.361  0.0010  0.8304  0.0014
   91GLOH   H01 9454   4.350   3.120   2.364  0.0211  0.8789  0.3505
   92GLOH   H03 9455   4.844   2.639   0.624  0.5058  0.9990  0.5708
   92GLOH    O1 9456   4.907   2.589   0.679  0.0436 -0.1912  0.0372
   92GLOH    C1 9457   4.848   2.528   0.789  1.0658 -0.0364  0.3880
   92GLOH   H02 9458   4.815   2.426   0.766  1.8258 -0.0841 -0.5223
   92GLOH   H08 9459   4.755   2.581   0.808  0.0190 -0.8692 -2.1049
   92GLOH    C2 9460   4.930   2.532   0.916 -0.4290  0.6407 -0.0581
   92GLOH   H04 9461   4.865   2.486   0.992 -0.1237 -0.4380 -0.4516
   92GLOH    O2 9462   5.054   2.449   0.904  0.1640  0.8384 -0.5600
   92GLOH   H05 9463   5.098   2.457   0.818  3.0040  0.2551  0.8081
   92GLOH    C3 9464   4.966   2.676   0.970  0.8205 -0.7386  0.3470
   92GLOH   H06 9465   5.034   2.722   0.899  0.7977 -1.9392 -0.4683
   92GLOH   H07 9466   5.011   2.658   1.067  1.0739 -2.1317 -0.0193
   92GLOH    O3 9467   4.855   2.765   0.988 -0.4900  0.3233 -0.0457
   92GLOH   H01 9468   4.817   2.748   1.076 -1.3694 -1.6753 -0.7719
   93GLOH   H03 9469   4.662   9.430   1.990  1.5302  2.5988  0.0104
   93GLOH    O1 9470   4.747   9.399   1.954  0.5119 -0.2269 -0.0574
   93GLOH    C1 9471   4.763   9.258   1.981 -0.2796  0.2440 -0.3234
   93GLOH   H02 9472   4.868   9.227   1.977 -1.1374 -2.9612  0.1283
   93GLOH   H08 9473   4.720   9.203   1.898  0.4397 -0.3494 -0.3178
   93GLOH    C2 9474   4.705   9.207   2.118 -0.5870 -0.1612  0.1738
   93GLOH   H04 9475   4.602   9.245   2.127 -0.9545 -0.1855 -3.1347
   93GLOH    O2 9476   4.706   9.062   2.129 -0.2313  0.1989 -0.1646
   93GLOH   H05 9477   4.723   9.029   2.218  1.3684 -0.8681 -0.8384
   93GLOH    C3 9478   4.782   9.266   2.236  0.1096  0.4427  0.6882
   93GLOH   H06 9479   4.882   9.223   2.224 -0.5599 -1.6090  2.0266
   93GLOH   H07 9480   4.744   9.222   2.329  0.3336 -0.3418  0.4152
   93GLOH    O3 9481   4.778   9.405   2.243  0.0939 -0.1884 -0.5168
   93GLOH   H01 9482   4.810   9.433   2.330 -0.2228 -1.6888  0.0923
   94GLOH   H03 9483   4.839   0.484   1.386 -0.8213  0.6419 -0.6006
   94GLOH    O1 9484   4.851   0.444   1.298  0.5524  0.2440 -0.2475
   94GLOH    C1 9485   4.747   0.343   1.290  0.3957 -0.1817  0.3193
   94GLOH   H02 9486   4.740   0.303   1.189  1.1966  1.3486 -0.3612
   94GLOH   H08 9487   4.650   0.392   1.298  0.7768  0.4779  0.9036
   94GLOH    C2 9488   4.726   0.238   1.402 -0.0978 -0.4702 -0.1158
   94GLOH   H04 9489   4.675   0.292   1.483 -1.0847 -2.2639  0.4924
   94GLOH    O2 9490   4.657   0.114   1.380  0.3561  0.4759 -0.1221
   94GLOH   H05 9491   4.582   0.136   1.323  0.2619 -0.1873 -0.2601
   94GLOH    C3 9492   4.861   0.215   1.473  0.4157 -0.6482 -0.0100
   94GLOH   H06 9493   4.920   0.302   1.502 -0.4828 -0.2403  0.6026
   94GLOH   H07 9494   4.924   0.160   1.402  1.0549  1.3988 -1.0769
   94GLOH    O3 9495   4.845   0.128   1.593 -0.2606 -0.1713  0.2464
   94GLOH   H01 9496   4.871   0.037   1.573  1.0301 -0.0794  1.4780
   95GLOH   H03 9497   3.253   6.785   2.116  0.1143  1.9768  1.1978
   95GLOH    O1 9498   3.275   6.734   2.196  0.1507 -0.0454 -0.0560
   95GLOH    C1 9499   3.308   6.826   2.297  0.2812 -0.3684 -0.1641
   95GLOH   H02 9500   3.341   6.918   2.250 -0.4617  0.6867  1.3112
   95GLOH   H08 9501   3.394   6.788   2.354 -1.5653  0.2545  3.2053
   95GLOH    C2 9502   3.190   6.854   2.389 -0.0850 -0.0778 -0.7828
   95GLOH   H04 9503   3.223   6.923   2.468 -1.6166  0.1505 -0.3366
   95GLOH    O2 9504   3.087   6.917   2.324 -0.5721 -0.0175  0.2322
   95GLOH   H05 9505   3.101   6.899   2.229 -2.1590  0.0399 -0.0297
   95GLOH    C3 9506   3.131   6.731   2.463 -0.3413 -1.0506 -0.1078
   95GLOH   H06 9507   3.086   6.666   2.388 -3.7769  0.6879  0.3297
   95GLOH   H07 9508   3.047   6.764   2.523  0.9455 -0.2180  1.2688
   95GLOH    O3 9509   3.230   6.660   2.546 -0.4736 -0.0441 -0.0342
   95GLOH   H01 9510   3.304   6.721   2.568 -0.3839  0.9107 -2.7426
   96GLOH   H03 9511   3.262   6.881   0.037 -1.2829 -0.3710  0.3811
   96GLOH    O1 9512   3.290   6.809  -0.023 -0.4661 -0.0606  0.3933
   96GLOH    C1 9513   3.339   6.689   0.043 -0.2736 -0.4908  0.3548
   96GLOH   H02 9514   3.329   6.698   0.151 -0.6000 -1.3629  0.4077
   96GLOH   H08 9515   3.443   6.668   0.016  0.1126 -0.1548  1.5822
   96GLOH    C2 9516   3.263   6.563  -0.001 -0.2938  0.2662 -0.3631
   96GLOH   H04 9517   3.254   6.551  -0.110  1.1336 -0.8122 -0.3760
   96GLOH    O2 9518   3.331   6.454   0.068 -0.3219 -0.0227 -0.0770
   96GLOH   H05 9519   3.295   6.373   0.027  1.3603 -0.8785  0.1141
   96GLOH    C3 9520   3.115   6.566   0.043 -0.2059 -0.2563  0.5374
   96GLOH   H06 9521   3.049   6.572  -0.043 -0.0843  1.3589  0.5457
   96GLOH   H07 9522   3.098   6.660   0.095 -1.3701 -0.5320  0.6829
   96GLOH    O3 9523   3.072   6.452   0.131 -0.6733  0.3721  0.1751
   96GLOH   H01 9524   3.118   6.375   0.093 -1.6695 -0.1135 -0.0339
   97GLOH   H03 9525   5.033   3.225   3.110 -2.3238  0.7655  0.4875
   97GLOH    O1 9526   5.010   3.247   3.018  0.2655  0.1947 -0.3169
   97GLOH    C1 9527   5.138   3.260   2.951  0.2849 -0.4038  0.4153
   97GLOH   H02 9528   5.209   3.183   2.981 -0.1279 -0.9495  0.0107
   97GLOH   H08 9529   5.187   3.356   2.970 -1.8097  0.3232  2.3529
   97GLOH    C2 9530   5.116   3.236   2.793  0.4903  0.0164 -0.3098
   97GLOH   H04 9531   5.216   3.241   2.747  0.2464  0.0020 -0.8498
   97GLOH    O2 9532   5.058   3.104   2.779 -0.6731  0.3120 -0.0209
   97GLOH   H05 9533   5.036   3.078   2.870 -2.8094  0.6443 -0.4140
   97GLOH    C3 9534   5.027   3.346   2.731  0.3795 -0.0555  0.2968
   97GLOH   H06 9535   4.924   3.337   2.768  0.1744  0.3724 -0.1777
   97GLOH   H07 9536   5.035   3.313   2.627 -1.5160  1.2668 -0.2817
   97GLOH    O3 9537   5.061   3.483   2.764  1.0751 -0.4059  0.5399
   97GLOH   H01 9538   5.005   3.543   2.711 -0.4799 -0.5167  2.0275
   98GLOH   H03 9539   2.843   8.184   1.199 -0.6504  1.4727  0.6924
   98GLOH    O1 9540   2.775   8.212   1.135 -0.5391  0.3952  0.0819
   98GLOH    C1 9541   2.833   8.262   1.014  0.6299 -0.0675  0.1223
   98GLOH   H02 9542   2.901   8.184   0.981 -0.5983 -1.7189  1.4066
   98GLOH   H08 9543   2.896   8.349   1.035  1.2486 -0.6854  0.8126
   98GLOH    C2 9544   2.727   8.296   0.904 -1.0178  0.3735  0.2906
   98GLOH   H04 9545   2.664   8.374   0.950  0.6891  1.6673  0.5113
   98GLOH    O2 9546   2.792   8.357   0.796 -0.6361  0.2550 -0.0921
   98GLOH   H05 9547   2.834   8.298   0.731  0.3952  0.1928  0.6267
   98GLOH    C3 9548   2.649   8.163   0.870 -0.6154 -0.4351 -0.4626
   98GLOH   H06 9549   2.727   8.099   0.830  1.9113  0.7116  2.4032
   98GLOH   H07 9550   2.581   8.179   0.786  1.4577  2.0521 -1.7735
   98GLOH    O3 9551   2.588   8.109   0.985  0.3369 -0.3744  0.0567
   98GLOH   H01 9552   2.643   8.128   1.064 -0.8627  0.1185  0.7878
   99GLOH   H03 9553   1.283   6.752   2.840 -0.2728 -0.0514 -0.7153
   99GLOH    O1 9554   1.255   6.660   2.855 -0.1830  0.0661  0.2348
   99GLOH    C1 9555   1.245   6.596   2.727  0.4932  0.3522 -0.0874
   99GLOH   H02 9556   1.335   6.614   2.668 -0.7373  1.7761 -1.6323
   99GLOH   H08 9557   1.165   6.643   2.669  0.4434 -1.2108 -1.3361
   99GLOH    C2 9558   1.230   6.444   2.746  0.4188 -0.1079  0.6065
   99GLOH   H04 9559   1.144   6.421   2.811  1.2768 -0.5134  1.6127
   99GLOH    O2 9560   1.219   6.375   2.623  0.1730  0.2938  0.3891
   99GLOH   H05 9561   1.127   6.348   2.606 -0.5854  1.7660  1.9912
   99GLOH    C3 9562   1.353   6.383   2.821 -0.4969 -0.0349 -0.3257
   99GLOH   H06 9563   1.331   6.276   2.829  0.6759 -0.4889 -2.7328
   99GLOH   H07 9564   1.362   6.418   2.924  1.9484  0.2318 -0.6144
   99GLOH    O3 9565   1.477   6.406   2.761 -0.1353 -0.2827  0.6289
   99GLOH   H01 9566   1.522   6.320   2.750 -0.0014  0.1582 -2.5418
  100GLOH   H03 9567   8.161   7.107   1.290  1.3729 -0.9995 -0.1417
  100GLOH    O1 9568   8.137   7.066   1.204  0.4614 -0.4671 -0.1467
  100GLOH    C1 9569   8.101   7.148   1.094 -0.5595 -0.7160  0.3065
  100GLOH   H02 9570   7.996   7.176   1.094 -0.1097  0.9802  0.0390
  100GLOH   H08 9571   8.112   7.084   1.007 -0.5733 -0.7206  0.3087
  100GLOH    C2 9572   8.186   7.276   1.070  0.2886  0.3422 -0.9093
  100GLOH   H04 9573   8.148   7.334   0.985 -0.5342  0.2080 -0.6307
  100GLOH    O2 9574   8.171   7.361   1.187 -0.2515  0.7804 -0.3052
  100GLOH   H05 9575   8.236   7.349   1.258  0.1656 -1.0879 -0.9756
  100GLOH    C3 9576   8.332   7.250   1.051 -0.7310  0.3824 -0.2902
  100GLOH   H06 9577   8.370   7.196   1.138 -2.0269 -0.5551 -0.2949
  100GLOH   H07 9578   8.383   7.347   1.051  1.0879 -0.5569 -1.5860
  100GLOH    O3 9579   8.362   7.174   0.934  0.1121 -0.1647 -0.1055
  100GLOH   H01 9580   8.353   7.081   0.962 -0.0714  0.7216  2.9803
  101GLOH   H03 9581   2.161   6.632   2.162 -2.7972  1.4048 -1.0990
  101GLOH    O1 9582   2.145   6.662   2.253 -0.6297 -0.5368 -0.0516
  101GLOH    C1 9583   2.268   6.690   2.327 -0.0688 -0.0675 -0.3899
  101GLOH   H02 9584   2.298   6.790   2.296 -1.3850  0.5550  0.2808
  101GLOH   H08 9585   2.358   6.633   2.308  1.0475  1.4972  0.0826
  101GLOH    C2 9586   2.260   6.694   2.478  0.4500  0.0846  0.1194
  101GLOH   H04 9587   2.235   6.588   2.496 -0.4955  0.1647 -0.6706
  101GLOH    O2 9588   2.387   6.730   2.539 -0.7102  0.1289 -0.1969
  101GLOH   H05 9589   2.416   6.814   2.500 -0.3865  1.1519  2.1520
  101GLOH    C3 9590   2.142   6.779   2.537  0.4184 -0.1988  0.7752
  101GLOH   H06 9591   2.164   6.885   2.522 -0.7894 -0.1554 -0.7963
  101GLOH   H07 9592   2.136   6.749   2.642  0.2378  2.9309  1.7210
  101GLOH    O3 9593   2.016   6.757   2.475 -0.0860 -0.3800 -0.6568
  101GLOH   H01 9594   2.023   6.730   2.382  1.3216 -1.5295 -0.2419
  102GLOH   H03 9595   4.488   2.033   0.531  1.9026 -2.1695 -2.6594
  102GLOH    O1 9596   4.465   2.089   0.455  0.0534  0.8482  0.0113
  102GLOH    C1 9597   4.530   2.212   0.476 -0.0389  0.3866  0.6690
  102GLOH   H02 9598   4.635   2.201   0.502  0.5779 -1.0335 -2.2137
  102GLOH   H08 9599   4.475   2.250   0.562 -0.8683 -0.7854  0.6746
  102GLOH    C2 9600   4.503   2.315   0.358  0.2652 -0.2287 -0.4368
  102GLOH   H04 9601   4.395   2.331   0.364  0.4522  1.9643 -2.1778
  102GLOH    O2 9602   4.572   2.443   0.366  0.0273 -0.1050  0.2888
  102GLOH   H05 9603   4.668   2.429   0.367  0.1255  0.3981 -0.9932
  102GLOH    C3 9604   4.533   2.267   0.209  0.3206  0.6561  0.3739
  102GLOH   H06 9605   4.631   2.296   0.172 -0.0137  2.6932  1.0307
  102GLOH   H07 9606   4.458   2.319   0.149  0.7945 -0.0963 -0.8921
  102GLOH    O3 9607   4.504   2.131   0.203  0.1638  0.5281  0.3640
  102GLOH   H01 9608   4.499   2.096   0.294  0.7743 -1.8457 -0.4775
  103GLOH   H03 9609   1.118   1.222   0.780 -1.7038 -0.3422  1.2210
  103GLOH    O1 9610   1.107   1.317   0.764  0.2239 -0.2316  0.4366
  103GLOH    C1 9611   0.973   1.349   0.815  0.4773 -0.0081 -0.0034
  103GLOH   H02 9612   0.971   1.334   0.923  1.9093  1.0365  0.1928
  103GLOH   H08 9613   0.899   1.292   0.759  0.3927  0.2591 -0.1663
  103GLOH    C2 9614   0.936   1.499   0.789  0.6756 -0.4874 -0.3889
  103GLOH   H04 9615   1.018   1.560   0.829  0.2834 -0.3258  0.1638
  103GLOH    O2 9616   0.916   1.531   0.644 -0.0722 -0.3697 -0.3656
  103GLOH   H05 9617   0.976   1.473   0.595 -1.3325  0.4153 -2.9170
  103GLOH    C3 9618   0.823   1.550   0.869  0.1678  0.1163  0.7275
  103GLOH   H06 9619   0.804   1.648   0.826 -3.0376 -0.6157  0.3488
  103GLOH   H07 9620   0.857   1.572   0.970  1.5207 -0.2376  0.3516
  103GLOH    O3 9621   0.704   1.468   0.855  0.4619  0.1325 -0.4089
  103GLOH   H01 9622   0.696   1.437   0.763  2.0129 -2.7358  0.3535
  104GLOH   H03 9623   2.653   3.167   2.479  3.2253  0.7890 -1.5145
  104GLOH    O1 9624   2.689   3.143   2.566 -0.0505  0.1215 -0.2800
  104GLOH    C1 9625   2.616   3.028   2.623 -0.5707 -0.2912 -0.8885
  104GLOH   H02 9626   2.574   3.058   2.719  0.8699 -2.8934  0.5883
  104GLOH   H08 9627   2.685   2.946   2.642 -0.8452 -0.4003 -0.3563
  104GLOH    C2 9628   2.496   2.989   2.540 -0.5300 -0.8768 -0.1925
  104GLOH   H04 9629   2.535   2.947   2.446 -0.5624 -0.1090 -0.5509
  104GLOH    O2 9630   2.414   2.889   2.611  0.3765 -0.3534  0.2455
  104GLOH   H05 9631   2.416   2.899   2.707  1.3800 -2.7934  0.5287
  104GLOH    C3 9632   2.401   3.105   2.503 -0.2349  1.0057  0.1097
  104GLOH   H06 9633   2.349   3.137   2.593  1.4038 -0.6395  1.6824
  104GLOH   H07 9634   2.327   3.065   2.433 -0.0915 -1.1995  1.1910
  104GLOH    O3 9635   2.471   3.208   2.436 -0.1522  0.0091 -0.4852
  104GLOH   H01 9636   2.478   3.191   2.341 -2.9398 -1.1409 -0.5081
  105GLOH   H03 9637   3.537   8.670   1.045 -0.8244  1.3789 -0.4156
  105GLOH    O1 9638   3.592   8.740   1.007  1.0190  0.0623 -0.2431
  105GLOH    C1 9639   3.694   8.776   1.104 -0.8991  0.2018  0.6386
  105GLOH   H02 9640   3.766   8.840   1.052 -1.2597  0.1609  0.0765
  105GLOH   H08 9641   3.739   8.697   1.163  0.4128 -0.5793 -1.3314
  105GLOH    C2 9642   3.634   8.876   1.207 -0.2268 -0.5200  0.4312
  105GLOH   H04 9643   3.545   8.836   1.258 -2.3779  0.6580 -2.2526
  105GLOH    O2 9644   3.739   8.893   1.306  0.1614  0.3712  0.1099
  105GLOH   H05 9645   3.823   8.933   1.276  0.5632  0.6400  1.5454
  105GLOH    C3 9646   3.591   9.008   1.138  0.2530 -0.1062 -0.3048
  105GLOH   H06 9647   3.657   9.039   1.058  0.7013  2.5874  1.0542
  105GLOH   H07 9648   3.577   9.088   1.211  3.2058 -0.4681  0.6979
  105GLOH    O3 9649   3.465   8.982   1.072  0.0165  0.5693 -0.1094
  105GLOH   H01 9650   3.471   8.892   1.035 -1.0130 -0.5395  2.3040
  106GLOH   H03 9651   1.751   4.472   2.361  0.2983  0.0878  0.4353
  106GLOH    O1 9652   1.695   4.400   2.396 -0.7735  0.5201 -0.3762
  106GLOH    C1 9653   1.689   4.288   2.303  0.7422 -0.2336  0.2879
  106GLOH   H02 9654   1.674   4.325   2.202  0.3889  1.4892  0.9396
  106GLOH   H08 9655   1.605   4.224   2.328 -0.0680  0.3338 -0.9487
  106GLOH    C2 9656   1.819   4.204   2.309 -0.6329  0.0288 -0.3277
  106GLOH   H04 9657   1.907   4.270   2.309 -1.0138  0.5793  2.0329
  106GLOH    O2 9658   1.828   4.121   2.427 -0.1014 -0.0966  0.7744
  106GLOH   H05 9659   1.766   4.046   2.435 -0.2736  0.2816  3.3290
  106GLOH    C3 9660   1.815   4.120   2.180 -1.0047  0.3917 -0.8287
  106GLOH   H06 9661   1.714   4.082   2.168 -1.0891  0.0483  0.7668
  106GLOH   H07 9662   1.887   4.038   2.190 -1.0780  0.2169 -1.7627
  106GLOH    O3 9663   1.859   4.194   2.064 -0.2049 -0.0102 -0.1487
  106GLOH   H01 9664   1.955   4.182   2.061 -0.1604  0.7976 -2.6545
  107GLOH   H03 9665   8.319   5.017   2.916 -1.5294  1.1710  2.5175
  107GLOH    O1 9666   8.393   4.990   2.974 -0.1828  0.1975  0.3909
  107GLOH    C1 9667   8.453   5.112   3.019 -0.5967 -0.1374 -0.1466
  107GLOH   H02 9668   8.510   5.082   3.107  0.6387  0.4063 -0.7622
  107GLOH   H08 9669   8.386   5.181   3.070 -0.6466 -0.5292  0.3218
  107GLOH    C2 9670   8.555   5.178   2.926  1.1235  0.2527 -0.4534
  107GLOH   H04 9671   8.504   5.230   2.844 -1.0989 -1.3757 -0.1541
  107GLOH    O2 9672   8.644   5.272   2.990 -0.0115  0.5102  0.3660
  107GLOH   H05 9673   8.702   5.311   2.922  1.1945 -0.9045  0.5618
  107GLOH    C3 9674   8.631   5.066   2.857  0.2214  0.0680 -0.5091
  107GLOH   H06 9675   8.565   4.991   2.813 -0.7741 -1.0445  2.7028
  107GLOH   H07 9676   8.686   5.010   2.933  0.0477  0.6659  0.0601
  107GLOH    O3 9677   8.712   5.123   2.752 -0.6257  0.5295  0.0457
  107GLOH   H01 9678   8.793   5.163   2.790  0.1046 -0.2370 -0.6648
  108GLOH   H03 9679   3.794   3.295   1.437  0.7524 -0.6188 -0.4798
  108GLOH    O1 9680   3.794   3.265   1.530 -0.0997 -0.1906 -0.3345
  108GLOH    C1 9681   3.655   3.241   1.557  0.2609  0.0230 -0.1459
  108GLOH   H02 9682   3.617   3.173   1.482  0.8847  0.1636 -0.5905
  108GLOH   H08 9683   3.597   3.334   1.559  0.7046  0.2966  0.3017
  108GLOH    C2 9684   3.643   3.182   1.695  0.0490 -0.6938 -0.5493
  108GLOH   H04 9685   3.724   3.108   1.707  0.3347 -0.1451  1.0116
  108GLOH    O2 9686   3.667   3.292   1.791  0.1433 -0.4961  0.0844
  108GLOH   H05 9687   3.662   3.262   1.883  1.7263  1.9974  1.0340
  108GLOH    C3 9688   3.506   3.110   1.721 -0.3812  0.3031 -0.0801
  108GLOH   H06 9689   3.420   3.176   1.727  0.4640  1.2989  1.2997
  108GLOH   H07 9690   3.519   3.066   1.819  1.0966 -1.3545 -0.9763
  108GLOH    O3 9691   3.477   3.006   1.623  0.1134 -0.3652  0.7627
  108GLOH   H01 9692   3.392   2.967   1.650  0.2975 -1.0341  0.3870
  109GLOH   H03 9693   4.612   3.861   2.016  3.1893  0.6214  1.1342
  109GLOH    O1 9694   4.572   3.934   2.067 -0.3356 -0.5086  0.1503
  109GLOH    C1 9695   4.448   3.893   2.120 -0.7937  0.5828 -0.6862
  109GLOH   H02 9696   4.371   3.891   2.043 -1.5646 -0.0310  0.0843
  109GLOH   H08 9697   4.414   3.974   2.184 -0.2063 -0.2271  0.6813
  109GLOH    C2 9698   4.460   3.753   2.189  0.0697 -0.1623  0.1563
  109GLOH   H04 9699   4.495   3.675   2.120 -1.8216 -0.9348  0.0366
  109GLOH    O2 9700   4.530   3.756   2.317  0.8182 -0.1583 -0.1669
  109GLOH   H05 9701   4.491   3.832   2.364  1.1319  0.0445 -0.2298
  109GLOH    C3 9702   4.318   3.708   2.223  0.1027 -0.2291 -0.9246
  109GLOH   H06 9703   4.328   3.609   2.267 -1.8971 -0.6019 -1.2792
  109GLOH   H07 9704   4.267   3.690   2.129 -0.6277 -0.1895 -0.5368
  109GLOH    O3 9705   4.238   3.793   2.304 -0.6069  0.0247 -0.3110
  109GLOH   H01 9706   4.264   3.783   2.397  1.2496  1.5087 -0.6299
  110GLOH   H03 9707   0.129   5.613   2.615 -1.2742 -1.4662  3.1609
  110GLOH    O1 9708   0.224   5.601   2.637 -0.2559  0.3447 -0.0810
  110GLOH    C1 9709   0.286   5.517   2.539 -0.6378  0.0451  0.7302
  110GLOH   H02 9710   0.289   5.552   2.435  1.4663  0.1275  0.8110
  110GLOH   H08 9711   0.231   5.422   2.540  2.3862 -1.7342  1.9014
  110GLOH    C2 9712   0.433   5.493   2.583 -0.3122  0.4421  0.8417
  110GLOH   H04 9713   0.420   5.448   2.683 -1.9079  1.2720  1.0416
  110GLOH    O2 9714   0.504   5.405   2.494  0.1628 -0.0528  0.7283
  110GLOH   H05 9715   0.599   5.422   2.501  0.5002 -1.3371 -0.3652
  110GLOH    C3 9716   0.492   5.631   2.594 -0.5588 -0.1993  0.9336
  110GLOH   H06 9717   0.474   5.677   2.498 -1.9999 -0.4547  1.0769
  110GLOH   H07 9718   0.601   5.626   2.591 -0.1852  5.5014 -2.7737
  110GLOH    O3 9719   0.435   5.697   2.712  0.4387 -0.5972 -0.6934
  110GLOH   H01 9720   0.345   5.662   2.729  0.1470  1.1900  1.7903
  111GLOH   H03 9721   1.434   6.208   1.189  1.1031 -1.9685  0.7743
  111GLOH    O1 9722   1.525   6.229   1.162  0.5105 -0.4076 -0.1256
  111GLOH    C1 9723   1.585   6.115   1.100 -0.8488  0.3874  0.0985
  111GLOH   H02 9724   1.683   6.148   1.063 -0.6619 -1.0458 -0.7362
  111GLOH   H08 9725   1.520   6.085   1.018 -1.5947  0.4118  0.6815
  111GLOH    C2 9726   1.625   5.990   1.189 -0.1733 -0.7289  0.2791
  111GLOH   H04 9727   1.532   5.945   1.228 -1.0775  1.2302  0.4419
  111GLOH    O2 9728   1.704   5.891   1.120  0.3401  0.1927 -0.4499
  111GLOH   H05 9729   1.682   5.803   1.155 -2.5665  0.2694 -1.9319
  111GLOH    C3 9730   1.699   6.039   1.315 -0.4314  0.4511 -0.4207
  111GLOH   H06 9731   1.647   6.126   1.357 -0.8876 -0.0556  0.0675
  111GLOH   H07 9732   1.794   6.075   1.275  0.1201 -1.3202 -0.7405
  111GLOH    O3 9733   1.727   5.948   1.422 -0.0076 -0.6547 -0.2334
  111GLOH   H01 9734   1.788   5.881   1.386  0.3602 -0.8879  0.8186
  112GLOH   H03 9735   2.444   4.311   1.702 -0.8479 -1.3022  1.1289
  112GLOH    O1 9736   2.419   4.370   1.775  0.0781 -0.0267  0.4247
  112GLOH    C1 9737   2.276   4.402   1.788 -0.0815  0.0875 -0.2742
  112GLOH   H02 9738   2.261   4.508   1.767 -1.8326  0.4437  2.6040
  112GLOH   H08 9739   2.257   4.391   1.894 -0.6715  2.8549 -0.0509
  112GLOH    C2 9740   2.195   4.302   1.702  0.0470 -0.1229  0.8304
  112GLOH   H04 9741   2.191   4.205   1.754 -0.0306 -0.4910  0.1486
  112GLOH    O2 9742   2.061   4.346   1.705  0.0021  0.2088  0.0534
  112GLOH   H05 9743   2.059   4.431   1.752  0.5350  0.3001 -0.0865
  112GLOH    C3 9744   2.242   4.264   1.557  0.0517 -0.6096  0.2615
  112GLOH   H06 9745   2.246   4.355   1.498  2.4584 -1.8631 -1.6024
  112GLOH   H07 9746   2.166   4.198   1.514  1.7176 -1.7846 -0.9521
  112GLOH    O3 9747   2.369   4.203   1.558 -0.5342 -0.1639  0.4409
  112GLOH   H01 9748   2.374   4.157   1.473 -0.9010 -1.8206  1.2946
  113GLOH   H03 9749   1.980   3.102   2.071  2.2498  0.4390  0.8659
  113GLOH    O1 9750   1.948   3.194   2.064  0.0704 -0.3812 -0.1118
  113GLOH    C1 9751   2.065   3.270   2.021  0.2658 -0.5040  0.4863
  113GLOH   H02 9752   2.042   3.360   1.965 -1.9787 -0.8184  0.8574
  113GLOH   H08 9753   2.129   3.209   1.957  2.0140  0.2524  1.4461
  113GLOH    C2 9754   2.147   3.314   2.145 -0.4771 -0.3345  0.6118
  113GLOH   H04 9755   2.164   3.224   2.207  3.0857 -0.4414 -0.4139
  113GLOH    O2 9756   2.276   3.366   2.110 -0.0384 -0.2705 -0.0441
  113GLOH   H05 9757   2.298   3.431   2.179  3.8127 -2.5216  0.9972
  113GLOH    C3 9758   2.065   3.414   2.233 -0.2933  0.7233  0.0650
  113GLOH   H06 9759   2.118   3.410   2.328 -0.1624 -1.7744 -0.1015
  113GLOH   H07 9760   1.963   3.378   2.250 -0.4003  1.3198  0.7221
  113GLOH    O3 9761   2.071   3.550   2.175  0.1773 -0.0328  0.0017
  113GLOH   H01 9762   2.021   3.607   2.236 -0.2420  1.3774 -1.6352
  114GLOH   H03 9763   9.996   8.897   0.211  1.9421 -0.9808  0.8774
  114GLOH    O1 9764   9.959   8.810   0.190  0.4978 -0.2039  0.0843
  114GLOH    C1 9765   9.861   8.763   0.284  0.1290 -0.0595 -0.0029
  114GLOH   H02 9766   9.797   8.689   0.237 -0.8671  1.1287 -0.5360
  114GLOH   H08 9767   9.785   8.832   0.320 -1.0919 -0.7209 -1.3079
  114GLOH    C2 9768   9.934   8.710   0.410  0.3002 -0.1732  0.0040
  114GLOH   H04 9769  10.026   8.769   0.423 -1.0807  1.5307  2.5605
  114GLOH    O2 9770   9.846   8.722   0.521 -0.4935  0.4195  0.0016
  114GLOH   H05 9771   9.771   8.663   0.503 -2.1120  2.1256  1.0383
  114GLOH    C3 9772   9.971   8.554   0.393 -0.7108  0.2524 -0.1052
  114GLOH   H06 9773   9.877   8.507   0.365 -0.4966  0.7101 -1.6451
  114GLOH   H07 9774  10.002   8.509   0.487 -0.6400  1.4843  0.4737
  114GLOH    O3 9775  10.075   8.523   0.292  0.6930  0.1511  0.3526
  114GLOH   H01 9776  10.150   8.473   0.328  1.0485 -0.6805 -1.5109
  115GLOH   H03 9777   8.043   7.442   1.168  0.9725  1.4379  0.3707
  115GLOH    O1 9778   7.963   7.494   1.151  0.3086  0.3847  0.2100
  115GLOH    C1 9779   7.990   7.551   1.025 -0.5404 -0.1417 -0.1747
  115GLOH   H02 9780   7.971   7.483   0.942 -0.5080  1.3922 -1.4682
  115GLOH   H08 9781   8.096   7.575   1.017 -1.0982  1.9027 -1.7807
  115GLOH    C2 9782   7.893   7.668   0.999  0.7371 -0.0399 -0.2448
  115GLOH   H04 9783   7.799   7.633   0.952  0.6717  0.7142 -0.6888
  115GLOH    O2 9784   7.879   7.748   1.115  0.0002  0.4204  0.6597
  115GLOH   H05 9785   7.809   7.719   1.176 -1.6928 -2.1685 -2.3880
  115GLOH    C3 9786   7.960   7.760   0.895  0.2417 -0.2231  0.3042
  115GLOH   H06 9787   8.059   7.790   0.931  0.3510 -0.6493  0.3619
  115GLOH   H07 9788   7.911   7.856   0.882  1.4523  0.3210 -0.3158
  115GLOH    O3 9789   7.979   7.697   0.768 -0.1327  0.2301 -0.1438
  115GLOH   H01 9790   8.072   7.667   0.762 -0.0803  0.4963 -0.6939
  116GLOH   H03 9791   8.893   4.700   1.823  0.8317 -2.9798 -0.3382
  116GLOH    O1 9792   8.800   4.685   1.799  0.1279  0.1148  0.2175
  116GLOH    C1 9793   8.778   4.545   1.773  0.1922  0.2089 -0.2354
  116GLOH   H02 9794   8.836   4.517   1.686  2.5792  3.7256  0.1338
  116GLOH   H08 9795   8.675   4.523   1.744  0.3179 -0.9621  0.1491
  116GLOH    C2 9796   8.832   4.437   1.871 -0.0397 -0.1716  0.2966
  116GLOH   H04 9797   8.758   4.440   1.952  0.1550  0.2980  0.4573
  116GLOH    O2 9798   8.844   4.302   1.822 -0.0832 -0.1704 -0.1658
  116GLOH   H05 9799   8.848   4.242   1.898  1.9197  0.8537  0.5770
  116GLOH    C3 9800   8.962   4.482   1.936  0.3768 -0.1574  0.3073
  116GLOH   H06 9801   9.032   4.496   1.854  1.8173 -0.5132  1.4638
  116GLOH   H07 9802   9.004   4.401   1.995 -0.8070 -0.7295  0.3734
  116GLOH    O3 9803   8.955   4.597   2.021  0.5996 -0.3009 -0.3629
  116GLOH   H01 9804   9.046   4.622   2.048  0.4374  0.0131 -0.1050
  117GLOH   H03 9805   9.443   3.977   0.191 -1.0396  3.7689 -0.2164
  117GLOH    O1 9806   9.380   3.950   0.260  0.6319 -0.0235 -0.0564
  117GLOH    C1 9807   9.250   3.949   0.197  0.0409  0.3002 -1.5645
  117GLOH   H02 9808   9.242   3.870   0.122  0.8369  0.5118 -1.8765
  117GLOH   H08 9809   9.228   4.041   0.142 -3.9183  2.1041  2.6926
  117GLOH    C2 9810   9.142   3.934   0.313  0.1942  0.0579  0.1141
  117GLOH   H04 9811   9.179   3.982   0.405 -0.9071  2.1181 -0.4686
  117GLOH    O2 9812   9.026   4.010   0.266 -0.2975 -0.1604  0.3000
  117GLOH   H05 9813   8.983   3.955   0.199 -0.7834  0.1367  0.3612
  117GLOH    C3 9814   9.104   3.789   0.337  0.4790 -0.3559  0.1602
  117GLOH   H06 9815   9.109   3.747   0.237  1.1783  1.0479 -0.4126
  117GLOH   H07 9816   8.998   3.782   0.360 -0.1752  3.7201 -1.1277
  117GLOH    O3 9817   9.179   3.709   0.429 -0.3414 -0.1196 -0.3057
  117GLOH   H01 9818   9.269   3.748   0.431  0.4888 -1.9991  0.3321
  118GLOH   H03 9819   1.134   5.929   0.789 -2.8037  0.0436 -0.2886
  118GLOH    O1 9820   1.116   5.905   0.881  0.6938  0.0975  0.4791
  118GLOH    C1 9821   1.100   6.021   0.962  0.0256  0.2938 -0.1772
  118GLOH   H02 9822   1.034   6.091   0.911  0.0895  1.3313  1.1365
  118GLOH   H08 9823   1.191   6.078   0.981 -0.5083  0.7291  1.0994
  118GLOH    C2 9824   1.043   5.981   1.098  0.5215 -0.1267  0.5234
  118GLOH   H04 9825   1.114   5.909   1.142 -1.3831 -0.7614  2.6415
  118GLOH    O2 9826   1.042   6.101   1.185  0.2834 -0.3620 -1.2058
  118GLOH   H05 9827   1.132   6.103   1.221  0.0112 -0.3228 -0.5078
  118GLOH    C3 9828   0.903   5.914   1.079 -0.3362 -0.7573 -0.4174
  118GLOH   H06 9829   0.917   5.817   1.031 -0.5109 -1.7688  1.5225
  118GLOH   H07 9830   0.832   5.972   1.021 -0.9814 -1.7282 -0.6160
  118GLOH    O3 9831   0.842   5.891   1.206 -0.0792 -0.1653 -0.0757
  118GLOH   H01 9832   0.781   5.965   1.221 -1.1696 -1.1444  0.3229
  119GLOH   H03 9833   8.462   6.166   2.020 -2.6903  0.1964 -1.0685
  119GLOH    O1 9834   8.485   6.260   2.031 -0.3334 -0.4358 -0.2124
  119GLOH    C1 9835   8.388   6.325   2.111 -0.1059  0.2901  1.1972
  119GLOH   H02 9836   8.325   6.248   2.156  0.9225 -0.0567  2.0627
  119GLOH   H08 9837   8.321   6.379   2.043  1.1337 -0.4148 -0.6049
  119GLOH    C2 9838   8.436   6.427   2.206  0.1208 -1.1631 -0.0899
  119GLOH   H04 9839   8.513   6.492   2.163 -0.4629 -0.5541 -0.2161
  119GLOH    O2 9840   8.322   6.505   2.243 -0.1851  1.0267  0.0876
  119GLOH   H05 9841   8.352   6.579   2.298  0.2396  1.6486 -0.9852
  119GLOH    C3 9842   8.511   6.379   2.331 -0.4717  0.2565 -0.4631
  119GLOH   H06 9843   8.573   6.299   2.292  1.1404  1.2908 -0.0822
  119GLOH   H07 9844   8.441   6.325   2.395 -0.5520  0.1591 -0.6324
  119GLOH    O3 9845   8.589   6.479   2.401 -0.1361 -0.5865  0.7429
  119GLOH   H01 9846   8.682   6.482   2.374 -0.4046  1.1854 -0.0039
  120GLOH   H03 9847   0.878   4.560   2.499 -2.1011  0.3422 -4.6246
  120GLOH    O1 9848   0.955   4.513   2.459  0.2411 -0.1441  0.1152
  120GLOH    C1 9849   0.903   4.458   2.336  0.5165 -0.2366  0.2408
  120GLOH   H02 9850   0.919   4.526   2.251 -0.8877 -2.5660 -1.9682
  120GLOH   H08 9851   0.796   4.438   2.341  0.3293  0.4281 -0.7611
  120GLOH    C2 9852   0.979   4.333   2.292 -0.4292  0.3449  0.4871
  120GLOH   H04 9853   0.981   4.262   2.376 -1.4679  0.3686  0.5372
  120GLOH    O2 9854   0.919   4.285   2.172  0.8117  0.0927 -0.0461
  120GLOH   H05 9855   0.877   4.200   2.195 -1.7882  1.6619  1.1561
  120GLOH    C3 9856   1.123   4.382   2.283 -0.2196 -0.4609  0.0007
  120GLOH   H06 9857   1.150   4.426   2.379  0.9468 -1.2036  0.0336
  120GLOH   H07 9858   1.124   4.469   2.218 -2.2492  0.8887  1.7267
  120GLOH    O3 9859   1.217   4.285   2.237 -0.6589 -0.2286  0.0729
  120GLOH   H01 9860   1.192   4.269   2.144 -0.4521 -0.0304 -0.0172
  121ACOH    H4 9861   8.988   9.963   1.063  0.7671  1.6905 -1.4654
  121ACOH    O2 9862   8.966   9.889   1.003  0.2986  0.3174  0.3352
  121ACOH    C2 9863   9.073   9.819   0.971 -0.7964  0.3712 -0.2756
  121ACOH    O1 9864   9.185   9.818   1.021 -0.0986  0.1856 -0.0046
  121ACOH    C1 9865   9.053   9.736   0.848  0.1481 -0.0587  0.6230
  121ACOH    H1 9866   9.141   9.674   0.828 -0.5129 -0.7979 -0.0222
  121ACOH    H2 9867   9.037   9.799   0.760 -1.4674 -0.9296  0.2927
  121ACOH    H3 9868   8.961   9.681   0.865  1.2116 -2.4468 -1.1298
  122ACOH    H4 9869   3.272   6.755   0.379 -0.3302 -0.5229  3.9630
  122ACOH    O2 9870   3.368   6.748   0.367 -0.6405  0.2850  0.2389
  122ACOH    C2 9871   3.410   6.689   0.484 -0.5110  0.0907  0.2231
  122ACOH    O1 9872   3.338   6.664   0.581 -0.4299 -0.5519  0.4917
  122ACOH    C1 9873   3.551   6.649   0.476  0.5176  0.2638  0.0304
  122ACOH    H1 9874   3.563   6.544   0.501 -0.2666  0.4437  1.1940
  122ACOH    H2 9875   3.598   6.712   0.552 -1.4172 -0.3512  1.7860
  122ACOH    H3 9876   3.587   6.668   0.375  0.3379 -0.2318 -0.1308
  123ACOH    H4 9877   4.892   4.367   1.450  1.1073 -0.9940  0.6877
  123ACOH    O2 9878   4.902   4.441   1.512 -0.0415  0.0415 -0.3419
  123ACOH    C2 9879   4.807   4.528   1.465  0.0282 -0.2779 -0.8278
  123ACOH    O1 9880   4.717   4.503   1.385 -0.8685  0.1400  0.0803
  123ACOH    C1 9881   4.819   4.651   1.551  0.0463 -0.2125  0.6843
  123ACOH    H1 9882   4.816   4.629   1.658  1.9960 -0.7589  0.6436
  123ACOH    H2 9883   4.746   4.724   1.517  1.4311  0.1022 -1.7290
  123ACOH    H3 9884   4.918   4.693   1.532 -1.0005  1.9410 -0.1052
  124ACOH    H4 9885   4.917   1.461   2.087 -0.8604 -2.4948 -0.1354
  124ACOH    O2 9886   4.969   1.437   2.165 -0.3349 -0.2494  0.2562
  124ACOH    C2 9887   4.937   1.309   2.188  0.7568  0.4400  0.0481
  124ACOH    O1 9888   4.888   1.231   2.104  0.2766 -0.0283 -0.2663
  124ACOH    C1 9889   4.971   1.275   2.333  0.3503  0.1998  0.2730
  124ACOH    H1 9890   4.941   1.175   2.365  1.6714 -0.1300  0.5178
  124ACOH    H2 9891   4.931   1.349   2.403 -0.4185 -0.5047  0.5890
  124ACOH    H3 9892   5.080   1.280   2.333  0.3296  1.0621  1.6080
  125ACOH    H4 9893   7.868   1.921   1.229 -0.1176  0.7371  2.2770
  125ACOH    O2 9894   7.859   2.018   1.231 -0.2710  0.8037 -0.3615
  125ACOH    C2 9895   7.913   2.060   1.344 -0.2807  0.8784  0.6351
  125ACOH    O1 9896   7.973   1.997   1.432  0.4226  0.7740 -0.4769
  125ACOH    C1 9897   7.865   2.195   1.372 -0.2206  0.2973  0.4562
  125ACOH    H1 9898   7.762   2.184   1.404 -0.8288  0.0503 -1.5607
  125ACOH    H2 9899   7.868   2.253   1.280  2.0844  2.7007  1.9404
  125ACOH    H3 9900   7.928   2.252   1.441  0.7148 -0.4875  0.2741
  126ACOH    H4 9901   8.334   6.437   0.407 -0.0174  1.8109 -0.2248
  126ACOH    O2 9902   8.397   6.410   0.338 -0.0400  0.1345  0.4004
  126ACOH    C2 9903   8.320   6.339   0.254 -0.0863 -0.2235 -0.4035
  126ACOH    O1 9904   8.209   6.297   0.271 -0.0374 -0.2181  0.3110
  126ACOH    C1 9905   8.376   6.333   0.119  0.0293  0.2375 -0.3426
  126ACOH    H1 9906   8.427   6.239   0.099  0.3014  0.3287 -0.0818
  126ACOH    H2 9907   8.442   6.419   0.104  1.7367 -1.2882 -1.8144
  126ACOH    H3 9908   8.294   6.349   0.049 -2.8993 -0.7027  2.7745
  128ACOH    H4 9909   2.939   7.210   1.017 -0.1512 -2.3491 -1.0010
  128ACOH    O2 9910   3.024   7.223   0.973  0.1708 -0.0668  0.2123
  128ACOH    C2 9911   3.072   7.348   0.994  0.0146 -1.0726  0.4796
  128ACOH    O1 9912   3.024   7.438   1.061  0.0605 -0.1585  0.5635
  128ACOH    C1 9913   3.186   7.368   0.911 -0.7059 -0.1210 -0.0481
  128ACOH    H1 9914   3.233   7.466   0.921 -3.6106  1.2506  0.6731
  128ACOH    H2 9915   3.155   7.364   0.807 -0.6464 -4.9783  0.0048
  128ACOH    H3 9916   3.244   7.277   0.929  0.8722  0.3917 -2.3099
  129ACOH    H4 9917   8.544   4.752   1.159 -0.6289  0.4535  1.3603
  129ACOH    O2 9918   8.480   4.678   1.156  0.7865 -0.7661  0.4726
  129ACOH    C2 9919   8.493   4.609   1.041  0.6417  0.8714 -0.4321
  129ACOH    O1 9920   8.557   4.638   0.943 -0.3112 -0.8263  0.1337
  129ACOH    C1 9921   8.388   4.503   1.040 -0.0613  0.2090  0.1552
  129ACOH    H1 9922   8.400   4.442   1.130  1.1364  1.9140  1.2005
  129ACOH    H2 9923   8.409   4.438   0.956  1.1766 -0.7621  1.1962
  129ACOH    H3 9924   8.289   4.548   1.037  0.8685  2.4127  0.9015
  130ACOH    H4 9925   3.850   6.488   0.096  0.9872 -0.8508 -1.0750
  130ACOH    O2 9926   3.931   6.529   0.130 -0.1151  0.2778  0.2505
  130ACOH    C2 9927   3.926   6.520   0.263 -0.3805 -0.2016 -0.3431
  130ACOH    O1 9928   3.820   6.513   0.331  0.0993  0.3597  0.7546
  130ACOH    C1 9929   4.064   6.550   0.312 -0.1685 -0.0747 -0.7054
  130ACOH    H1 9930   4.142   6.498   0.256 -1.1981  0.6017 -2.8217
  130ACOH    H2 9931   4.067   6.523   0.417 -1.6761 -0.7429 -0.8237
  130ACOH    H3 9932   4.077   6.657   0.300 -0.2415  0.0439  0.2117
  131ACOH    H4 9933   7.810   8.402   1.329  0.4092 -3.1298 -1.4989
  131ACOH    O2 9934   7.786   8.366   1.416 -0.1916 -0.0879 -0.3313
  131ACOH    C2 9935   7.768   8.464   1.504 -0.1124 -0.5043  0.2303
  131ACOH    O1 9936   7.790   8.583   1.491 -0.0369  0.2662 -0.0600
  131ACOH    C1 9937   7.706   8.408   1.625  0.7594  0.2760 -0.2643
  131ACOH    H1 9938   7.626   8.341   1.595 -1.4210  3.1807 -1.1462
  131ACOH    H2 9939   7.674   8.493   1.686  0.8514  2.2919 -2.9480
  131ACOH    H3 9940   7.787   8.349   1.668  0.7993  0.9963  0.6782
  132ACOH    H4 9941   2.659   7.544   0.880 -1.5044  1.2276  0.7139
  132ACOH    O2 9942   2.666   7.584   0.792  0.4106  0.2717  0.4084
  132ACOH    C2 9943   2.584   7.527   0.703 -0.2441  0.4028 -0.3881
  132ACOH    O1 9944   2.485   7.471   0.733  0.3301  0.1220  0.0011
  132ACOH    C1 9945   2.607   7.568   0.562 -0.3389 -0.4113  0.2274
  132ACOH    H1 9946   2.513   7.589   0.510  0.1921  1.1932 -0.0841
  132ACOH    H2 9947   2.656   7.490   0.504 -0.1664  0.5047 -0.8656
  132ACOH    H3 9948   2.673   7.654   0.568  0.3993 -1.0206  0.8631
  133ACOH    H4 9949   5.796   9.282   0.973  1.0986  0.3331  0.4268
  133ACOH    O2 9950   5.804   9.336   1.053  0.5053  0.3433  0.4861
  133ACOH    C2 9951   5.792   9.463   1.009 -0.1911  0.0618  0.5975
  133ACOH    O1 9952   5.782   9.491   0.891 -0.3267 -0.4959 -0.0500
  133ACOH    C1 9953   5.792   9.563   1.118 -0.1742  0.7907 -0.5573
  133ACOH    H1 9954   5.877   9.542   1.183 -0.2880  0.0679 -0.6397
  133ACOH    H2 9955   5.697   9.565   1.172 -0.1290 -2.9497 -0.2215
  133ACOH    H3 9956   5.807   9.662   1.075  0.8931  0.0118 -1.9915
  134ACOH    H4 9957   0.659   0.357   0.511 -2.0363 -0.2730  1.0009
  134ACOH    O2 9958   0.689   0.291   0.577  0.2954 -0.0331  0.2014
  134ACOH    C2 9959   0.583   0.251   0.651  0.3126  0.3670  0.1922
  134ACOH    O1 9960   0.464   0.287   0.649  0.0295  0.2884  1.0788
  134ACOH    C1 9961   0.631   0.147   0.746 -0.2310 -0.6597 -0.1130
  134ACOH    H1 9962   0.572   0.060   0.718 -0.8233 -0.0184 -0.8550
  134ACOH    H2 9963   0.615   0.172   0.852 -0.4411 -0.8740 -0.0951
  134ACOH    H3 9964   0.736   0.123   0.727  0.1917  0.6907  0.4219
  135ACOH    H4 9965   8.313   0.841   2.016  0.5747 -0.2273 -0.0698
  135ACOH    O2 9966   8.334   0.786   1.939  0.1461 -0.5318  0.0289
  135ACOH    C2 9967   8.227   0.703   1.923 -0.9298  0.3416 -0.3427
  135ACOH    O1 9968   8.113   0.732   1.949 -0.2816 -0.6052  0.2072
  135ACOH    C1 9969   8.260   0.580   1.841  0.2899  0.0134  0.2081
  135ACOH    H1 9970   8.179   0.527   1.789  0.4128 -1.9709  1.9284
  135ACOH    H2 9971   8.308   0.507   1.906 -2.3551  0.3297  2.6066
  135ACOH    H3 9972   8.328   0.608   1.762 -0.3247  0.7647 -0.0554
  136ACOH    H4 9973   0.459   8.686   1.187  1.2472  1.1924 -1.5713
  136ACOH    O2 9974   0.423   8.776   1.191 -0.0280  0.6346  0.1892
  136ACOH    C2 9975   0.512   8.853   1.253 -0.2321 -0.0271  0.0938
  136ACOH    O1 9976   0.571   8.816   1.354 -0.0972  0.1273 -0.6522
  136ACOH    C1 9977   0.506   8.994   1.205  0.2346  0.3024 -0.4426
  136ACOH    H1 9978   0.588   9.045   1.256  1.1189 -1.5732  0.0784
  136ACOH    H2 9979   0.406   9.024   1.237  0.9946 -0.4446  2.8612
  136ACOH    H3 9980   0.510   9.000   1.096 -1.6090 -0.0204 -0.5524
  137ACOH    H4 9981   5.101   2.096   1.004  0.8342  2.3485  0.7300
  137ACOH    O2 9982   5.127   2.041   1.079  0.0074  0.3833 -0.3799
  137ACOH    C2 9983   5.047   1.939   1.101  0.2843  0.8271  0.2336
  137ACOH    O1 9984   4.961   1.904   1.017 -0.4795 -0.0925  0.4225
  137ACOH    C1 9985   5.083   1.848   1.208  0.5255 -0.2655  0.1554
  137ACOH    H1 9986   5.148   1.911   1.269  0.1824 -0.4677  0.7363
  137ACOH    H2 9987   5.138   1.766   1.162  0.3441 -0.0248 -0.4972
  137ACOH    H3 9988   4.992   1.814   1.258  1.5468 -0.9619  1.6034
  138ACOH    H4 9989   0.238   7.264   1.194 -0.0929  0.5620 -2.0699
  138ACOH    O2 9990   0.151   7.304   1.215  0.5087  0.5801  0.5200
  138ACOH    C2 9991   0.146   7.326   1.346 -0.2727  0.3688 -0.2904
  138ACOH    O1 9992   0.219   7.286   1.434 -0.3521  0.2415  0.0701
  138ACOH    C1 9993   0.022   7.392   1.385  0.3266  0.0004  0.4591
  138ACOH    H1 9994   0.015   7.496   1.355 -0.7210 -0.5638 -1.3673
  138ACOH    H2 9995   0.018   7.392   1.494 -2.1502 -3.8130  0.4752
  138ACOH    H3 9996  -0.065   7.339   1.347 -0.1414  2.1701 -1.5968
  139ACOH    H4 9997   5.140   9.186   2.442  0.5166  1.5216  2.0681
  139ACOH    O2 9998   5.229   9.212   2.411  0.1548 -0.1309 -0.5334
  139ACOH    C2 9999   5.223   9.310   2.318 -0.1473  0.6958 -0.3275
  139ACOH    O110000   5.131   9.364   2.263  0.4380  1.2885  0.3843
  139ACOH    C110001   5.363   9.341   2.276 -0.3668  0.4649  0.0593
  139ACOH    H110002   5.430   9.302   2.353 -0.7817 -2.5056 -0.9849
  139ACOH    H210003   5.373   9.449   2.280  3.1843  0.1804  0.1666
  139ACOH    H310004   5.389   9.298   2.179 -1.4751 -1.0647  0.4119
  140ACOH    H410005   7.733   7.517   2.127 -0.3389 -0.1021  0.1637
  140ACOH    O210006   7.691   7.486   2.046  0.5137 -0.6342 -0.0760
  140ACOH    C210007   7.778   7.535   1.952  0.2949 -0.3690  0.4231
  140ACOH    O110008   7.860   7.621   1.970 -0.2589  0.2038 -0.4785
  140ACOH    C110009   7.740   7.485   1.818  0.6134 -0.1929 -0.6764
  140ACOH    H110010   7.800   7.526   1.736 -0.0940 -0.2258 -1.2150
  140ACOH    H210011   7.632   7.486   1.807  0.4570 -0.4173  0.7649
  140ACOH    H310012   7.763   7.379   1.815  0.6627 -0.2042  0.0449
  141ACOH    H410013   5.659   2.629   0.350  0.3152  0.3058  0.7051
  141ACOH    O210014   5.684   2.699   0.287 -0.0641  0.0380  0.2524
  141ACOH    C210015   5.688   2.819   0.352  0.4702  0.4358 -0.1579
  141ACOH    O110016   5.667   2.835   0.469 -0.0806 -0.0675 -0.2683
  141ACOH    C110017   5.770   2.915   0.271  0.4337 -1.0089 -0.1782
  141ACOH    H110018   5.707   2.955   0.191  0.2255 -0.7040  0.1366
  141ACOH    H210019   5.862   2.869   0.237  1.3444  0.7623 -0.1614
  141ACOH    H310020   5.798   2.992   0.343 -1.5117 -0.8695  0.4767
  142ACOH    H410021   1.429   8.278   0.192 -0.9940 -2.0153  0.3183
  142ACOH    O210022   1.462   8.305   0.280 -0.4605 -0.0678 -0.4518
  142ACOH    C210023   1.414   8.214   0.365  0.2258  0.5667  0.1197
  142ACOH    O110024   1.341   8.121   0.331 -0.5651 -0.2001 -0.0721
  142ACOH    C110025   1.464   8.224   0.505  0.4551  0.0510  0.0585
  142ACOH    H110026   1.441   8.130   0.555 -0.7261  1.2325  1.8331
  142ACOH    H210027   1.400   8.292   0.561 -0.0378 -0.3032 -0.0706
  142ACOH    H310028   1.568   8.253   0.517  0.1045  1.2620  0.2783
  143ACOH    H410029   5.540   9.563   2.040 -0.1724  1.0858  0.2740
  143ACOH    O210030   5.598   9.487   2.058 -0.3417  1.0206  0.5567
  143ACOH    C210031   5.674   9.465   1.947 -0.8171 -0.1760  0.5967
  143ACOH    O110032   5.700   9.552   1.863 -0.0405 -0.0592  0.3358
  143ACOH    C110033   5.761   9.353   1.973  0.4156  0.0426 -0.1595
  143ACOH    H110034   5.775   9.345   2.081  4.6849  0.0495 -0.6190
  143ACOH    H210035   5.859   9.378   1.932  2.0354 -1.2326  2.7580
  143ACOH    H310036   5.716   9.261   1.938 -0.8976  1.0875 -1.2863
  145ACOH    H410037   7.512   8.834   2.047  0.1202 -0.3944  1.1774
  145ACOH    O210038   7.462   8.750   2.051 -0.7944  0.0803 -0.0517
  145ACOH    C210039   7.553   8.668   2.121 -0.1418 -0.4739  0.5956
  145ACOH    O110040   7.675   8.684   2.141  0.6445  0.2092 -0.1691
  145ACOH    C110041   7.484   8.542   2.151 -0.0993 -0.2479  0.7197
  145ACOH    H110042   7.413   8.526   2.070  0.2170 -1.9338  0.7421
  145ACOH    H210043   7.432   8.532   2.246 -1.0875 -0.0189  0.2054
  145ACOH    H310044   7.562   8.465   2.153 -0.7180 -0.8994  0.0913
  146ACOH    H410045   8.052   7.496   0.544  1.6348 -0.0578 -0.0004
  146ACOH    O210046   8.039   7.452   0.630 -0.1974  0.3738 -0.0299
  146ACOH    C210047   8.113   7.338   0.631  0.8369  0.4711 -0.5136
  146ACOH    O110048   8.206   7.302   0.559  0.5770  0.1631  0.8572
  146ACOH    C110049   8.067   7.251   0.742 -1.2347  0.0845 -0.0780
  146ACOH    H110050   8.019   7.301   0.827 -0.7412 -2.2619  1.6387
  146ACOH    H210051   8.149   7.191   0.782 -3.7478 -1.8133  2.4468
  146ACOH    H310052   7.991   7.186   0.698  0.9157 -1.5801 -1.4239
  147ACOH    H410053   1.099   1.763   1.279  0.4300 -0.2001 -0.6905
  147ACOH    O210054   1.075   1.849   1.239  0.6040  0.1933  0.0348
  147ACOH    C210055   1.070   1.830   1.106  0.2740  0.4423  0.2966
  147ACOH    O110056   1.115   1.737   1.040 -0.0269  0.0155 -0.3443
  147ACOH    C110057   1.044   1.957   1.039  0.5927 -0.1887  0.0392
  147ACOH    H110058   0.936   1.955   1.022  0.5329 -1.4217  0.5002
  147ACOH    H210059   1.098   1.963   0.945 -0.2787  0.3491 -0.4352
  147ACOH    H310060   1.060   2.039   1.109 -1.0305  0.3440 -0.1855
  148ACOH    H410061   4.514   8.746   0.325  1.9807 -0.6875  2.6086
  148ACOH    O210062   4.516   8.651   0.305 -0.0438 -0.1303 -0.5880
  148ACOH    C210063   4.637   8.614   0.350  0.1216  0.6527 -0.6915
  148ACOH    O110064   4.701   8.674   0.433  0.3884 -0.5556  0.5875
  148ACOH    C110065   4.677   8.473   0.324  0.5500  0.1854  0.0170
  148ACOH    H110066   4.712   8.425   0.415 -1.9345 -1.5454  0.1204
  148ACOH    H210067   4.760   8.476   0.253  2.4593  0.5041  2.2087
  148ACOH    H310068   4.590   8.420   0.285  1.7205 -2.4576  0.9341
  149ACOH    H410069   5.345   2.845   1.103 -1.0232 -0.5953 -1.9518
  149ACOH    O210070   5.338   2.757   1.144  0.5140  0.2064  0.1371
  149ACOH    C210071   5.380   2.649   1.072  0.6757 -0.7677  0.5091
  149ACOH    O110072   5.410   2.653   0.955 -0.3024  0.2337  0.2487
  149ACOH    C110073   5.380   2.529   1.148 -0.0833  0.5019 -0.7411
  149ACOH    H110074   5.329   2.450   1.093 -1.2103  0.0291  0.9389
  149ACOH    H210075   5.325   2.536   1.242 -2.2145  0.2901 -1.9596
  149ACOH    H310076   5.484   2.498   1.166 -0.5836 -1.0312 -0.4025
  150ACOH    H410077   4.896   2.120   0.604 -2.0716  2.3212 -0.1821
  150ACOH    O210078   4.922   2.147   0.515  0.6229  0.1153 -0.1227
  150ACOH    C210079   4.969   2.036   0.455  0.9482  0.5917  0.4318
  150ACOH    O110080   4.959   1.921   0.498 -0.1307 -0.2453  0.3079
  150ACOH    C110081   5.024   2.049   0.321 -0.2620 -0.2045 -0.1114
  150ACOH    H110082   5.116   1.992   0.313 -0.4212 -0.3310 -1.0425
  150ACOH    H210083   5.040   2.153   0.292 -2.2349 -0.2299 -1.4414
  150ACOH    H310084   4.954   2.007   0.249 -0.8142  1.2214 -0.4397
  151ACOH    H410085   7.491   0.942   0.489  1.0971 -1.8156  1.3758
  151ACOH    O210086   7.404   0.925   0.528  0.1569 -0.3154 -0.0017
  151ACOH    C210087   7.376   1.035   0.601  0.6216 -0.4356 -0.2786
  151ACOH    O110088   7.444   1.135   0.629 -0.2182 -0.1420 -0.1672
  151ACOH    C110089   7.244   1.011   0.668  0.4948 -0.6907  0.4067
  151ACOH    H110090   7.200   0.912   0.656 -1.7219  0.2837  0.3143
  151ACOH    H210091   7.171   1.082   0.630  2.1984  1.1501  0.4660
  151ACOH    H310092   7.254   1.032   0.775 -1.3814 -1.3702  0.7260
  152ACOH    H410093   4.754   8.426   2.219  1.3247 -2.6286 -0.5594
  152ACOH    O210094   4.772   8.448   2.126  0.7910  0.0429 -0.0718
  152ACOH    C210095   4.665   8.426   2.049 -0.7075  0.5452  0.1236
  152ACOH    O110096   4.555   8.398   2.089  0.0332  0.2632 -0.3540
  152ACOH    C110097   4.693   8.439   1.906  0.7155  0.4010 -0.0950
  152ACOH    H110098   4.609   8.457   1.839  0.8840 -2.5911 -1.2137
  152ACOH    H210099   4.742   8.352   1.863  1.0696 -0.9654  2.9120
  152ACOH    H310100   4.758   8.522   1.881 -0.5829  1.3877 -0.2419
  153ACOH    H410101   5.240   3.012   0.546  1.0098 -0.8508  0.7695
  153ACOH    O210102   5.216   2.986   0.455  0.3062  0.7626  0.4796
  153ACOH    C210103   5.211   2.851   0.453 -0.4621 -0.8039  0.8017
  153ACOH    O110104   5.243   2.780   0.544  0.1167 -1.1724 -0.6751
  153ACOH    C110105   5.175   2.795   0.321 -1.5392  0.3981  0.2180
  153ACOH    H110106   5.262   2.737   0.288 -0.7375  0.8693  1.4590
  153ACOH    H210107   5.165   2.875   0.248  1.0666 -0.3798 -1.0580
  153ACOH    H310108   5.092   2.726   0.328 -0.8618 -0.6030 -1.3192
  154ACOH    H410109   8.363   7.728   1.304  2.7677  2.2340 -0.7135
  154ACOH    O210110   8.435   7.663   1.287  0.6360 -0.2717 -0.5015
  154ACOH    C210111   8.489   7.690   1.168  0.0095 -0.0854 -0.3897
  154ACOH    O110112   8.482   7.792   1.106  0.4186 -0.6785  0.2882
  154ACOH    C110113   8.598   7.595   1.138  0.0680  0.3374  0.0673
  154ACOH    H110114   8.691   7.652   1.145  0.6936 -0.9397  2.5906
  154ACOH    H210115   8.587   7.564   1.034 -1.4561 -0.7927  0.5526
  154ACOH    H310116   8.607   7.510   1.205 -0.0189 -0.7660 -1.2993
  155ACOH    H410117   8.828   4.768   1.389 -1.4074  0.3003  0.6811
  155ACOH    O210118   8.846   4.863   1.378  0.1929 -0.1218 -0.4877
  155ACOH    C210119   8.775   4.905   1.272  0.3381 -0.2584  0.6633
  155ACOH    O110120   8.715   4.834   1.191 -0.1345 -0.5251  0.3742
  155ACOH    C110121   8.791   5.054   1.248 -0.2690  0.3796  0.1180
  155ACOH    H110122   8.747   5.104   1.334  0.7037 -1.6383  1.8239
  155ACOH    H210123   8.744   5.090   1.156 -1.8311 -0.1923  0.6861
  155ACOH    H310124   8.897   5.075   1.233 -0.6587  0.7434 -2.5189
  156ACOH    H410125   4.706   0.324   0.162  0.6685  1.7409 -0.9020
  156ACOH    O210126   4.741   0.258   0.099  0.2237 -0.0086  0.6426
  156ACOH    C210127   4.629   0.197   0.048  0.3444  0.1210 -0.0804
  156ACOH    O110128   4.511   0.201   0.077 -0.3217  0.3441  0.0003
  156ACOH    C110129   4.674   0.101  -0.051  0.6598 -0.3938  0.2747
  156ACOH    H110130   4.703   0.155  -0.141 -0.6951 -1.8372 -1.0563
  156ACOH    H210131   4.601   0.025  -0.079 -0.9019  1.0875  0.2187
  156ACOH    H310132   4.754   0.048   0.001  0.8231 -0.5034 -0.0884
  157ACOH    H410133   3.229   7.685   2.150 -2.2139 -0.7778  0.9967
  157ACOH    O210134   3.215   7.621   2.078 -0.4120 -0.0160 -0.0332
  157ACOH    C210135   3.310   7.533   2.090 -0.2563  0.2462  1.0430
  157ACOH    O110136   3.393   7.527   2.178 -0.2215  0.3342  0.2745
  157ACOH    C110137   3.292   7.432   1.981 -0.6311  0.1215  0.0396
  157ACOH    H110138   3.372   7.358   1.971 -1.8978 -1.1715 -0.7204
  157ACOH    H210139   3.276   7.491   1.890 -2.2059  1.9289  1.4434
  157ACOH    H310140   3.197   7.380   1.990 -0.1611 -0.9892 -1.1020
  158ACOH    H410141   3.899   8.427   1.063 -0.8192 -0.4655  0.0998
  158ACOH    O210142   3.904   8.397   1.156 -0.1074 -0.3641  0.0969
  158ACOH    C210143   4.024   8.430   1.217 -0.1749 -1.0422  0.3786
  158ACOH    O110144   4.112   8.502   1.167 -0.5513  0.0108 -0.1337
  158ACOH    C110145   4.051   8.356   1.338 -0.1628  0.0427 -0.3913
  158ACOH    H110146   3.963   8.300   1.370 -0.7496  0.4854 -1.2117
  158ACOH    H210147   4.088   8.430   1.409 -0.5836 -0.3578  0.2403
  158ACOH    H310148   4.135   8.286   1.337 -0.0280 -0.0003  4.3067
  159ACOH    H410149   4.321   9.741   1.438  0.2194 -0.7075 -0.4711
  159ACOH    O210150   4.327   9.758   1.342  0.4719  0.4399 -0.2585
  159ACOH    C210151   4.442   9.706   1.302  0.3758  0.0134 -0.3222
  159ACOH    O110152   4.474   9.595   1.342 -0.6164 -0.0763 -0.3436
  159ACOH    C110153   4.487   9.765   1.171  0.6024  0.1813 -0.8236
  159ACOH    H110154   4.534   9.687   1.111  1.4954 -1.1657  1.5764
  159ACOH    H210155   4.563   9.842   1.185  1.5465 -0.4141 -2.5960
  159ACOH    H310156   4.401   9.800   1.114  2.1963  2.5554 -1.8099
  160ACOH    H410157   3.335   8.258   1.071 -2.2312  0.8176 -1.3926
  160ACOH    O210158   3.354   8.198   0.996 -0.0553  0.2044 -0.3837
  160ACOH    C210159   3.476   8.143   1.019 -0.3395  0.3879  0.1739
  160ACOH    O110160   3.544   8.143   1.123  0.3892 -0.2124  0.2157
  160ACOH    C110161   3.529   8.089   0.884  1.0723 -0.9891  0.4594
  160ACOH    H110162   3.508   7.982   0.876  2.7873 -1.3068  0.0584
  160ACOH    H210163   3.638   8.095   0.880  1.1267 -1.9031  0.5881
  160ACOH    H310164   3.486   8.143   0.800  1.1728 -1.3916  0.1478
  162ACOH    H410165   2.758   6.998   0.684 -0.0413 -0.4115 -0.4760
  162ACOH    O210166   2.852   6.997   0.710 -0.1664 -0.2008 -0.0184
  162ACOH    C210167   2.878   6.884   0.782 -0.2505 -0.1814 -0.6344
  162ACOH    O110168   2.800   6.808   0.841 -0.3033  0.7395  0.0539
  162ACOH    C110169   3.028   6.868   0.784  0.8544  0.0568 -0.8074
  162ACOH    H110170   3.068   6.858   0.683  1.3872  2.0106 -0.8005
  162ACOH    H210171   3.056   6.778   0.840 -0.5155  0.4067  0.4889
  162ACOH    H310172   3.071   6.959   0.824  0.3631  1.2912 -3.0142
  164ACOH    H410173   3.623   7.563   0.043 -0.5578 -1.4429  0.2100
  164ACOH    O210174   3.703   7.513   0.068  0.4227  0.0255  0.0789
  164ACOH    C210175   3.700   7.402  -0.001  0.0780  0.4972 -0.2876
  164ACOH    O110176   3.605   7.332  -0.016  0.1682 -0.5811  0.1756
  164ACOH    C110177   3.834   7.347  -0.003  0.2348  0.7392  0.4352
  164ACOH    H110178   3.859   7.304   0.093 -0.7795 -1.0654 -0.0961
  164ACOH    H210179   3.909   7.424  -0.022 -2.4521  3.1979 -0.6855
  164ACOH    H310180   3.835   7.271  -0.081 -0.6483  1.0057  0.1510
  165ACOH    H410181   4.792   0.164   1.726  0.0688 -0.7998  0.5710
  165ACOH    O210182   4.792   0.180   1.822 -0.1116 -1.0479  0.6137
  165ACOH    C210183   4.726   0.293   1.848 -0.7543  0.2207  0.3951
  165ACOH    O110184   4.702   0.389   1.774 -0.5607 -0.1071 -0.5025
  165ACOH    C110185   4.706   0.296   1.992 -0.9911 -0.0630  0.3674
  165ACOH    H110186   4.617   0.344   2.033 -0.0516 -0.5446  3.0948
  165ACOH    H210187   4.800   0.331   2.035 -2.1933  2.8666  0.7265
  165ACOH    H310188   4.692   0.195   2.031  2.5229 -0.5753  0.4976
  166ACOH    H410189   4.552   2.152   1.066 -1.2867 -2.4600  1.1502
  166ACOH    O210190   4.466   2.191   1.044  0.0387 -0.2667 -0.3537
  166ACOH    C210191   4.491   2.261   0.936 -0.0784 -0.0036 -0.2197
  166ACOH    O110192   4.604   2.285   0.893  0.4715  0.3783 -0.5627
  166ACOH    C110193   4.370   2.320   0.883 -0.3414 -0.6817  0.4935
  166ACOH    H110194   4.308   2.367   0.959  0.6683 -1.0524  1.5487
  166ACOH    H210195   4.315   2.241   0.831 -0.3192  1.2498 -2.5730
  166ACOH    H310196   4.394   2.396   0.808  0.6792 -0.3441  1.1592
  168ACOH    H410197   4.664   9.624   0.382 -1.3405  0.0085  0.1941
  168ACOH    O210198   4.672   9.651   0.475  0.1953  0.4987 -0.0778
  168ACOH    C210199   4.617   9.771   0.489  0.0001 -0.4424 -0.0051
  168ACOH    O110200   4.542   9.825   0.410  1.1148 -0.0597 -0.3958
  168ACOH    C110201   4.656   9.837   0.612  0.0863  0.3702  0.3906
  168ACOH    H110202   4.741   9.896   0.579  0.2494 -1.2400 -2.2052
  168ACOH    H210203   4.689   9.768   0.690 -1.5799 -1.0115 -0.1020
  168ACOH    H310204   4.570   9.892   0.649 -1.9414 -1.5239 -1.3455
  169ACOH    H410205   7.888   2.679   0.614 -1.0733  0.0418 -0.9745
  169ACOH    O210206   7.862   2.771   0.634 -0.5746 -0.0948  0.3554
  169ACOH    C210207   7.974   2.849   0.622  0.4350  0.3469 -0.1806
  169ACOH    O110208   8.067   2.828   0.547 -0.4165 -0.0049  0.3059
  169ACOH    C110209   7.968   2.965   0.717  0.3816  0.2004 -0.3843
  169ACOH    H110210   7.870   2.969   0.766  0.5770 -0.9957  0.1381
  169ACOH    H210211   7.981   3.061   0.667 -1.1227  1.4302  1.5198
  169ACOH    H310212   8.037   2.946   0.799  0.9047 -0.8914 -1.0533
  170ACOH    H410213   8.502   5.168   2.103  0.0872  0.3237  2.1194
  170ACOH    O210214   8.438   5.240   2.093 -0.3090 -0.3002  0.0373
  170ACOH    C210215   8.471   5.321   1.995 -0.6036 -0.4867  0.0270
  170ACOH    O110216   8.565   5.310   1.920  0.0050 -0.6432  0.0179
  170ACOH    C110217   8.391   5.442   2.012  0.6406  0.8589  0.2610
  170ACOH    H110218   8.446   5.526   2.053 -0.3173  2.0465 -0.8767
  170ACOH    H210219   8.308   5.419   2.080  0.3434 -0.2240 -0.4563
  170ACOH    H310220   8.347   5.463   1.915 -0.6552 -0.0560  0.6294
  171ACOH    H410221   3.740   8.259   1.488  2.2804 -1.0434 -0.2262
  171ACOH    O210222   3.719   8.173   1.449 -0.6283 -0.4391 -0.1110
  171ACOH    C210223   3.619   8.120   1.523  0.3003 -0.9692  0.0835
  171ACOH    O110224   3.564   8.171   1.621 -0.1750  0.2902 -0.0708
  171ACOH    C110225   3.564   7.996   1.457 -0.1741 -0.0484 -0.4171
  171ACOH    H110226   3.557   7.916   1.531 -2.5340  0.7216  0.2588
  171ACOH    H210227   3.626   7.972   1.371  1.0369 -1.5437  0.8550
  171ACOH    H310228   3.465   8.022   1.419 -1.0847 -0.9980  1.2029
  172ACOH    H410229   8.351   6.464   1.483  1.7000  0.4005  0.9069
  172ACOH    O210230   8.267   6.418   1.497  1.5250  0.3687 -0.1905
  172ACOH    C210231   8.248   6.382   1.629  0.0895 -0.7591  0.0211
  172ACOH    O110232   8.337   6.352   1.706  0.1062  0.0562 -0.0398
  172ACOH    C110233   8.104   6.370   1.671 -0.2302 -0.2955  0.5705
  172ACOH    H110234   8.077   6.268   1.696  0.0901 -0.6488 -0.5149
  172ACOH    H210235   8.037   6.404   1.592 -2.1505 -0.6338  2.0226
  172ACOH    H310236   8.077   6.433   1.756 -1.9156 -0.2769  0.0471
  174ACOH    H410237   4.928   4.521   0.219  0.6596 -1.9597  1.1359
  174ACOH    O210238   4.928   4.557   0.309 -0.3111  0.4772  0.2036
  174ACOH    C210239   4.811   4.523   0.375 -0.1804 -0.8345  0.3948
  174ACOH    O110240   4.733   4.437   0.328  0.3031  0.1244 -0.7786
  174ACOH    C110241   4.797   4.580   0.513  0.9566 -0.3909 -0.0722
  174ACOH    H110242   4.876   4.655   0.518  1.0030 -0.4248 -0.3150
  174ACOH    H210243   4.796   4.507   0.595  1.4894  0.7570  0.9795
  174ACOH    H310244   4.696   4.621   0.512 -0.0036 -2.6039  1.3701
  175ACOH    H410245   8.134   7.622   1.727  0.1987  0.1044 -0.5732
  175ACOH    O210246   8.090   7.572   1.656 -0.0863 -0.2447 -0.1552
  175ACOH    C210247   8.096   7.441   1.690  0.4533 -0.0468 -0.6671
  175ACOH    O110248   8.094   7.387   1.797 -0.3363 -0.3359  0.7729
  175ACOH    C110249   8.039   7.372   1.570  0.7248  0.5775 -0.5301
  175ACOH    H110250   8.034   7.264   1.577  0.1022  0.6192 -0.2997
  175ACOH    H210251   8.107   7.400   1.490  2.6807 -2.4802 -0.0173
  175ACOH    H310252   7.936   7.401   1.547 -0.4185 -1.1702  2.2008
  176ACOH    H410253   1.637   4.799   1.105  0.0307  0.9358 -0.2416
  176ACOH    O210254   1.622   4.781   1.199  0.0934  0.4508 -0.3257
  176ACOH    C210255   1.663   4.657   1.234  0.8991 -0.2174  0.6035
  176ACOH    O110256   1.674   4.563   1.160 -0.4909  0.7551  0.4129
  176ACOH    C110257   1.657   4.647   1.381  0.1856 -0.2049  0.2228
  176ACOH    H110258   1.569   4.586   1.401  0.2538  0.7263  3.5860
  176ACOH    H210259   1.656   4.746   1.428  1.3241  0.4547 -1.1042
  176ACOH    H310260   1.736   4.583   1.417  1.1465  1.2271  0.7153
  177ACOH    H410261   2.984   1.619   0.280 -0.8593 -1.8719  1.5025
  177ACOH    O210262   2.966   1.689   0.346  0.2047  0.1352 -0.2591
  177ACOH    C210263   2.848   1.691   0.410 -0.0335  0.2288 -0.1478
  177ACOH    O110264   2.749   1.617   0.404 -0.4527  0.0868 -0.0299
  177ACOH    C110265   2.828   1.815   0.492  0.5879 -0.3939 -0.3709
  177ACOH    H110266   2.799   1.790   0.594 -1.3597 -0.9596 -1.0398
  177ACOH    H210267   2.755   1.882   0.446 -0.9245 -1.8072 -0.1003
  177ACOH    H310268   2.918   1.876   0.499  0.3220  0.1107 -1.2621
  178ACOH    H410269   4.343   8.556   0.534 -0.9737 -1.9439 -0.3784
  178ACOH    O210270   4.387   8.511   0.609  0.2491 -0.0045  0.1121
  178ACOH    C210271   4.313   8.403   0.635 -0.4020  0.1175  0.4343
  178ACOH    O110272   4.234   8.343   0.566  0.3501  0.0109 -0.7256
  178ACOH    C110273   4.361   8.334   0.758 -0.3342 -0.0665  0.5361
  178ACOH    H110274   4.378   8.412   0.833 -0.7812 -1.4165  2.0695
  178ACOH    H210275   4.456   8.284   0.745 -0.7893 -1.0545  0.9160
  178ACOH    H310276   4.283   8.271   0.801  0.0645 -0.5266  0.5747
  179ACOH    H410277   8.447   4.337   0.163 -0.8682 -0.1095  1.1456
  179ACOH    O210278   8.391   4.268   0.122 -0.6336  0.1626  0.3541
  179ACOH    C210279   8.468   4.158   0.128 -0.6001 -0.0819  0.3422
  179ACOH    O110280   8.588   4.145   0.134 -0.0758  0.4682 -0.9752
  179ACOH    C110281   8.382   4.037   0.096 -0.0556 -0.3022 -0.0893
  179ACOH    H110282   8.366   4.031  -0.012 -2.6226 -0.6028  0.2867
  179ACOH    H210283   8.289   4.063   0.146 -0.3687 -0.4549 -0.5879
  179ACOH    H310284   8.416   3.941   0.135  0.0105 -0.4683 -0.5523
  181ACOH    H410285   4.430   8.703   0.928  0.5196  1.2924 -1.0489
  181ACOH    O210286   4.498   8.636   0.912 -0.0829  0.3814  0.0922
  181ACOH    C210287   4.565   8.671   0.802 -0.2762  0.2894 -0.5575
  181ACOH    O110288   4.546   8.775   0.745 -0.3123 -0.0455  0.1471
  181ACOH    C110289   4.686   8.587   0.787  0.4418 -0.5155 -0.1528
  181ACOH    H110290   4.745   8.638   0.711 -0.7691  1.0016 -0.0957
  181ACOH    H210291   4.658   8.488   0.749 -0.9145 -1.0804  2.2031
  181ACOH    H310292   4.737   8.575   0.883 -0.7808  0.9543  0.6890
  182ACOH    H410293   2.406   9.721   2.287 -0.7150 -0.1762 -0.2785
  182ACOH    O210294   2.451   9.657   2.231  1.0461  0.4491  0.3744
  182ACOH    C210295   2.560   9.716   2.183 -0.1384  0.1799  0.7570
  182ACOH    O110296   2.572   9.832   2.162  0.3142  0.0456 -0.4088
  182ACOH    C110297   2.645   9.619   2.114  0.6126  0.3422 -0.2520
  182ACOH    H110298   2.661   9.633   2.008  0.4949 -0.4878 -0.3857
  182ACOH    H210299   2.604   9.521   2.142  0.2291  0.2583 -1.0987
  182ACOH    H310300   2.745   9.624   2.156  0.6392  1.1825 -0.4153
  184ACOH    H410301   7.967   8.264   0.084 -2.1250 -0.6456  0.5651
  184ACOH    O210302   7.999   8.257   0.176  0.2401  0.5331 -0.1003
  184ACOH    C210303   7.994   8.386   0.224 -0.1505 -0.0766 -0.3190
  184ACOH    O110304   7.963   8.486   0.160 -0.1961 -0.0206 -0.4375
  184ACOH    C110305   8.051   8.403   0.361  0.2701  0.5985  0.4721
  184ACOH    H110306   8.060   8.509   0.383 -0.0080  0.5558  0.7976
  184ACOH    H210307   8.153   8.363   0.355 -0.1579 -0.6196  0.9884
  184ACOH    H310308   7.992   8.357   0.440 -0.1403 -1.5863 -1.0333
  185ACOH    H410309   3.061   7.476   1.521  2.2984 -0.0710 -1.5998
  185ACOH    O210310   3.050   7.403   1.457 -0.2369 -0.7544 -0.4646
  185ACOH    C210311   3.073   7.287   1.529 -0.2789  0.2945 -0.2605
  185ACOH    O110312   3.105   7.282   1.641 -0.5143  0.2743  0.4261
  185ACOH    C110313   3.052   7.162   1.456 -0.4774 -0.1454 -1.2648
  185ACOH    H110314   3.074   7.070   1.510 -2.0555 -0.6378 -1.4229
  185ACOH    H210315   3.110   7.176   1.365 -1.0283  1.7880 -1.3402
  185ACOH    H310316   2.946   7.153   1.431 -0.9060 -0.3543  0.5461
  187ACOH    H410317  -0.176   0.582   0.805 -0.0050 -0.6809 -0.2101
  187ACOH    O210318  -0.094   0.589   0.856  0.1568 -0.3394 -0.5111
  187ACOH    C210319  -0.001   0.582   0.759 -0.5342  0.3955 -0.1206
  187ACOH    O110320  -0.014   0.559   0.638 -0.2082  0.3065 -0.0736
  187ACOH    C110321   0.134   0.551   0.822 -0.6352 -0.0723  0.1047
  187ACOH    H110322   0.146   0.574   0.928  1.0921  1.1034 -0.3216
  187ACOH    H210323   0.207   0.612   0.768  0.3024 -1.7939 -0.6130
  187ACOH    H310324   0.171   0.449   0.809  1.0408  0.4835  0.3608
  188ACOH    H410325   8.233   2.248   0.870 -0.1453  0.7945 -0.3690
  188ACOH    O210326   8.207   2.339   0.891 -0.2871  0.6546  0.0760
  188ACOH    C210327   8.205   2.357   1.025 -0.1495 -0.3383 -0.1916
  188ACOH    O110328   8.198   2.270   1.105 -0.3103  0.1707 -0.2443
  188ACOH    C110329   8.226   2.500   1.059  0.4892  0.0126  0.5018
  188ACOH    H110330   8.271   2.550   0.974  1.4737 -0.2837  0.8440
  188ACOH    H210331   8.287   2.510   1.149  0.1781  2.5868  0.4581
  188ACOH    H310332   8.130   2.548   1.083 -0.6375 -1.6236 -0.6359
  192ACOH    H410333   8.545   4.493   2.176  2.6261  1.2355 -1.0983
  192ACOH    O210334   8.539   4.571   2.234  0.7214 -0.1234  0.6160
  192ACOH    C210335   8.621   4.554   2.336  0.7852 -0.8014 -0.1516
  192ACOH    O110336   8.682   4.449   2.347  0.0415 -0.5729  0.2166
  192ACOH    C110337   8.610   4.651   2.443 -0.6340 -0.7330 -0.5435
  192ACOH    H110338   8.612   4.756   2.415 -2.0119 -0.1226  1.5493
  192ACOH    H210339   8.687   4.636   2.519 -0.3744 -0.4896 -0.7562
  192ACOH    H310340   8.511   4.634   2.484  0.1219 -0.7537  1.2933
  193ACOH    H410341   5.056   8.856   1.951  0.9126 -0.3395  1.3473
  193ACOH    O210342   5.141   8.890   1.918  0.0503  0.4310 -0.1453
  193ACOH    C210343   5.190   8.992   1.992 -0.1632 -0.8816 -0.1833
  193ACOH    O110344   5.119   9.047   2.074  0.0602 -0.0760  0.1687
  193ACOH    C110345   5.339   9.003   1.976 -0.4241 -0.0838  0.7470
  193ACOH    H110346   5.377   9.066   2.057 -2.1720  0.5480  1.1038
  193ACOH    H210347   5.359   9.063   1.887  1.2684 -1.8059 -0.0588
  193ACOH    H310348   5.387   8.906   1.978 -0.4139 -0.0607  1.9880
  194ACOH    H410349   8.363   6.091  -0.082 -0.6316  1.4864 -1.0723
  194ACOH    O210350   8.273   6.095  -0.046 -0.3149 -0.6353  0.0452
  194ACOH    C210351   8.261   5.997   0.038  0.0143  0.0510 -0.6624
  194ACOH    O110352   8.326   5.900   0.055  0.0067 -0.2827 -0.4143
  194ACOH    C110353   8.118   5.993   0.086  0.7617  0.0769 -0.9652
  194ACOH    H110354   8.057   5.938   0.015  0.0105  1.5556 -1.4895
  194ACOH    H210355   8.082   6.095   0.099  0.2198 -0.1553 -0.6617
  194ACOH    H310356   8.121   5.947   0.184  0.0264  0.5319 -0.7227
  195ACOH    H410357   8.131   3.173   0.474  0.4489 -0.5592 -1.1128
  195ACOH    O210358   8.146   3.236   0.547 -0.7032 -0.4731 -0.9340
  195ACOH    C210359   8.205   3.350   0.508 -0.2605  0.5440  0.2846
  195ACOH    O110360   8.219   3.373   0.386 -0.2359  0.0856  0.1058
  195ACOH    C110361   8.262   3.442   0.609 -0.4112 -0.0563  0.4634
  195ACOH    H110362   8.273   3.542   0.566  0.4306  0.4397  1.7988
  195ACOH    H210363   8.363   3.410   0.633 -0.2823 -0.9179 -1.1494
  195ACOH    H310364   8.199   3.449   0.697 -0.7439  1.1279  0.1428
  196ACOH    H410365   8.603   1.280   2.685 -2.0151  1.3218 -0.1063
  196ACOH    O210366   8.618   1.303   2.779 -0.8006 -0.2866  0.1157
  196ACOH    C210367   8.705   1.219   2.830  0.1462 -0.2315  0.8853
  196ACOH    O110368   8.718   1.105   2.786 -0.2059 -0.4262  0.2631
  196ACOH    C110369   8.760   1.258   2.965 -0.1429 -0.0424  0.1946
  196ACOH    H110370   8.715   1.197   3.044  2.8484 -1.0712  1.1441
  196ACOH    H210371   8.741   1.364   2.982  3.1955  0.2839  2.4082
  196ACOH    H310372   8.866   1.236   2.969  0.5381  2.9561  0.2295
  197ACOH    H410373   2.089   2.511   0.117  3.6424  1.3065 -0.5576
  197ACOH    O210374   2.105   2.446   0.187 -0.1170 -0.2000 -0.9735
  197ACOH    C210375   1.984   2.420   0.233  0.5465  0.0614 -0.1396
  197ACOH    O110376   1.878   2.478   0.202 -0.6244 -1.0579 -0.0353
  197ACOH    C110377   1.991   2.298   0.310  0.1418  0.2774  0.5586
  197ACOH    H110378   2.088   2.291   0.359  2.3945  1.6065 -3.4572
  197ACOH    H210379   1.979   2.214   0.243 -2.2509  0.0215  1.2406
  197ACOH    H310380   1.911   2.278   0.382  0.2624  0.3023  0.6997
  198ACOH    H410381   4.412   1.060   1.307 -0.3263 -0.6091 -0.1480
  198ACOH    O210382   4.420   1.119   1.384  0.1396 -0.5081 -0.2751
  198ACOH    C210383   4.408   1.247   1.342 -0.2105 -0.0994  0.4304
  198ACOH    O110384   4.403   1.286   1.232  0.1680 -0.0643  0.4676
  198ACOH    C110385   4.408   1.337   1.456  0.4356 -0.4119  1.0855
  198ACOH    H110386   4.508   1.336   1.501  0.8020 -2.6735  0.2653
  198ACOH    H210387   4.335   1.299   1.526 -1.6767 -2.0707 -1.9096
  198ACOH    H310388   4.378   1.436   1.422 -0.2360 -0.9759  0.0044
  199ACOH    H410389   8.888   5.535   0.709  0.6894  0.1837 -0.8703
  199ACOH    O210390   8.808   5.574   0.669  0.2525 -0.0245 -0.2246
  199ACOH    C210391   8.755   5.673   0.743 -0.4550 -0.7180  0.2824
  199ACOH    O110392   8.807   5.726   0.844  0.1610 -0.4391  0.1203
  199ACOH    C110393   8.635   5.721   0.671  0.4667  0.4340 -0.4825
  199ACOH    H110394   8.670   5.763   0.577  0.9806  0.3152 -0.3418
  199ACOH    H210395   8.583   5.792   0.735  0.7999  0.4145 -0.1918
  199ACOH    H310396   8.572   5.633   0.654  1.5180 -0.0788 -1.8678
  200ACOH    H410397   4.995   0.525   1.253 -0.5523 -0.7298 -1.8302
  200ACOH    O210398   5.049   0.605   1.243 -0.2753 -0.6100  0.3543
  200ACOH    C210399   5.152   0.598   1.339  0.7029 -0.4189 -0.6382
  200ACOH    O110400   5.176   0.510   1.419 -0.6414  0.5803  0.2098
  200ACOH    C110401   5.199   0.739   1.365  0.3814 -0.9123 -0.3021
  200ACOH    H110402   5.173   0.811   1.286  0.6370 -2.6577 -2.0175
  200ACOH    H210403   5.307   0.732   1.378  0.3324 -0.2496  0.5022
  200ACOH    H310404   5.147   0.769   1.456 -1.3597 -0.2544 -1.4815
  201ACOH    H410405   7.403   0.300   1.190  2.6158  0.1833  2.6342
  201ACOH    O210406   7.326   0.338   1.235  0.6774  0.1672 -0.5031
  201ACOH    C210407   7.321   0.285   1.355  0.4355 -0.4081 -0.1619
  201ACOH    O110408   7.372   0.184   1.398  0.8916 -0.1187 -0.1293
  201ACOH    C110409   7.233   0.364   1.443  0.0470  0.6067  0.2093
  201ACOH    H110410   7.128   0.371   1.417  0.1138 -0.4934 -0.4134
  201ACOH    H210411   7.278   0.463   1.442  2.2950 -0.3710 -2.7269
  201ACOH    H310412   7.243   0.329   1.546  0.8176  2.8244  0.8975
  202ACOH    H410413   3.873   9.314   2.292  0.1375  1.6949  1.2748
  202ACOH    O210414   3.920   9.255   2.354 -0.6738  0.0478  0.3425
  202ACOH    C210415   3.982   9.168   2.269 -0.0767 -0.2339 -0.1722
  202ACOH    O110416   3.980   9.180   2.149  0.0293  0.2347  0.1780
  202ACOH    C110417   4.068   9.075   2.352  1.0576  0.2018  0.4486
  202ACOH    H110418   4.017   9.054   2.445  1.7618 -0.7941  0.6193
  202ACOH    H210419   4.165   9.121   2.367  0.8128  0.8437  0.0878
  202ACOH    H310420   4.088   8.984   2.295 -0.7608 -0.4092  0.7545
  203ACOH    H410421  -0.073   4.375   1.858  0.3308 -0.9843 -1.6029
  203ACOH    O210422  -0.001   4.309   1.862  0.4215 -0.8240 -0.0228
  203ACOH    C210423   0.117   4.368   1.893 -0.0696 -0.1851  0.3950
  203ACOH    O110424   0.140   4.460   1.968  0.9164  0.3987  0.4032
  203ACOH    C110425   0.229   4.287   1.834 -0.5262 -0.3181  0.9617
  203ACOH    H110426   0.283   4.228   1.908  0.9995 -0.3398 -0.1488
  203ACOH    H210427   0.301   4.359   1.797 -1.5904  0.1025 -0.3237
  203ACOH    H310428   0.205   4.224   1.748  1.7196 -1.7171  1.3354
  204ACOH    H410429   4.843   0.320   0.591 -1.5353 -0.7982 -0.5252
  204ACOH    O210430   4.824   0.321   0.686  0.5415 -0.6716 -0.0867
  204ACOH    C210431   4.837   0.444   0.743 -0.2454 -0.1619  0.1679
  204ACOH    O110432   4.845   0.546   0.677  0.8618 -0.0057 -0.0416
  204ACOH    C110433   4.825   0.439   0.891  0.4337  0.1355  0.5895
  204ACOH    H110434   4.921   0.422   0.939 -0.3696 -0.9020  1.8668
  204ACOH    H210435   4.759   0.356   0.918  1.2369 -0.6744  0.0604
  204ACOH    H310436   4.773   0.531   0.920 -0.7085 -0.1479 -0.5295
  205ACOH    H410437   4.764   8.868   1.326 -1.6031 -2.0081  1.0037
  205ACOH    O210438   4.789   8.826   1.243  0.3072 -0.0963  0.5440
  205ACOH    C210439   4.751   8.906   1.147 -0.7035 -0.0362 -0.3756
  205ACOH    O110440   4.665   8.993   1.156  0.2634  0.4981  0.7629
  205ACOH    C110441   4.779   8.829   1.023 -0.5685 -0.0603 -0.1078
  205ACOH    H110442   4.677   8.807   0.993 -0.4017  0.5348 -1.1124
  205ACOH    H210443   4.842   8.741   1.032  0.2957  0.4015 -1.4335
  205ACOH    H310444   4.832   8.887   0.947 -0.0873 -1.6311 -0.9937
  206ACOH    H410445   3.727   6.008   2.060 -0.0619 -0.4249  0.2297
  206ACOH    O210446   3.808   6.020   2.008  0.0786 -0.6394  0.3971
  206ACOH    C210447   3.780   6.109   1.914 -0.5559 -0.0516  0.3186
  206ACOH    O110448   3.663   6.149   1.892  0.9015  0.4435 -0.4177
  206ACOH    C110449   3.894   6.147   1.832 -0.0667 -0.0225  0.5264
  206ACOH    H110450   3.845   6.175   1.739 -1.2431  0.5269  1.3051
  206ACOH    H210451   3.964   6.065   1.817  1.4741  1.2169  0.8127
  206ACOH    H310452   3.944   6.234   1.874 -0.1450  0.6441 -0.7381
  207ACOH    H410453   4.710   2.013   1.395 -1.0447  0.5382  2.8993
  207ACOH    O210454   4.784   2.077   1.391 -0.7298  0.0855  1.2066
  207ACOH    C210455   4.770   2.142   1.269 -0.9048  0.1698 -0.3532
  207ACOH    O110456   4.690   2.104   1.187  0.0525  0.0510  0.2053
  207ACOH    C110457   4.891   2.225   1.247 -0.2964 -0.0773 -0.0028
  207ACOH    H110458   4.958   2.171   1.180 -0.0279  0.7227 -0.3920
  207ACOH    H210459   4.936   2.247   1.344 -1.3819  1.5328  0.1501
  207ACOH    H310460   4.861   2.315   1.193 -1.8054  0.5151  1.7860
  208ACOH    H410461   2.292   5.812   0.226 -0.4705  0.1725  0.3293
  208ACOH    O210462   2.255   5.764   0.149 -0.0779  0.0088  0.2433
  208ACOH    C210463   2.344   5.774   0.048 -0.1246  0.1615  0.2074
  208ACOH    O110464   2.410   5.874   0.027  0.0946 -0.5938 -0.0909
  208ACOH    C110465   2.317   5.675  -0.058  0.4164  0.1239 -0.1717
  208ACOH    H110466   2.278   5.580  -0.022  0.0816  0.9608  1.7418
  208ACOH    H210467   2.402   5.658  -0.124  0.8453  2.4800 -0.2873
  208ACOH    H310468   2.245   5.725  -0.123  0.0500  0.4192  0.4587
  209ACOH    H410469   4.314   5.969   0.568  0.1465 -0.1747 -0.6196
  209ACOH    O210470   4.378   6.041   0.559  0.0962 -0.0836 -0.2838
  209ACOH    C210471   4.401   6.103   0.678 -0.5584  0.0143 -0.5435
  209ACOH    O110472   4.352   6.073   0.784 -0.1760 -0.2704  0.1817
  209ACOH    C110473   4.498   6.217   0.670 -0.8780  0.2269 -0.2143
  209ACOH    H110474   4.439   6.306   0.649 -0.9305 -0.0340 -1.2019
  209ACOH    H210475   4.565   6.199   0.586 -0.0881 -1.3249  0.7336
  209ACOH    H310476   4.551   6.233   0.764 -0.0650 -0.2565 -0.5855
  211ACOH    H410477   5.568   2.528   0.526  0.3930 -1.8505 -0.0498
  211ACOH    O210478   5.621   2.512   0.445 -0.3881  0.3790 -1.0310
  211ACOH    C210479   5.668   2.390   0.448  0.0016  0.6210 -0.4026
  211ACOH    O110480   5.624   2.290   0.513 -0.5255  1.1993  0.2101
  211ACOH    C110481   5.760   2.386   0.329  0.0736 -0.7609 -0.1487
  211ACOH    H110482   5.803   2.482   0.302  1.3837 -0.9555  1.2083
  211ACOH    H210483   5.708   2.349   0.240  0.1713 -2.8076  0.6000
  211ACOH    H310484   5.839   2.314   0.349  2.8927  2.2575 -0.0668
  212ACOH    H410485   7.842   2.501   1.884  2.0340 -0.9911  1.7537
  212ACOH    O210486   7.833   2.430   1.818  0.4893  0.3024  0.5197
  212ACOH    C210487   7.938   2.343   1.829  0.0173 -0.2193  0.0767
  212ACOH    O110488   8.025   2.352   1.918 -0.3487  0.0576 -0.2142
  212ACOH    C110489   7.937   2.244   1.725  0.3563 -0.2640  0.1573
  212ACOH    H110490   7.868   2.261   1.641 -0.2974 -0.0099  0.7407
  212ACOH    H210491   7.901   2.162   1.788 -1.1952  2.5521  3.0658
  212ACOH    H310492   8.039   2.233   1.688  0.2688  2.4171 -0.9793
  213ACOH    H410493   5.188   3.560   0.684 -0.2674 -1.0029  1.5355
  213ACOH    O210494   5.169   3.653   0.706  0.2787 -0.5300  0.0970
  213ACOH    C210495   5.122   3.710   0.598 -0.5889  0.5726  0.0304
  213ACOH    O110496   5.126   3.661   0.492  0.5486  0.1354  0.5667
  213ACOH    C110497   5.067   3.844   0.621 -0.0331 -0.3289 -0.7746
  213ACOH    H110498   4.960   3.851   0.605 -0.1124  1.6991  0.5076
  213ACOH    H210499   5.123   3.920   0.566  0.8485  0.1710  0.7964
  213ACOH    H310500   5.083   3.869   0.726 -0.4065  3.0903 -1.4589
  214ACOH    H410501   1.619   2.937   1.239 -2.6300  0.5583 -1.9691
  214ACOH    O210502   1.631   2.840   1.232  0.1984  0.6939 -0.0390
  214ACOH    C210503   1.508   2.790   1.242 -0.0252 -0.2279 -0.5260
  214ACOH    O110504   1.403   2.850   1.252 -0.3642  0.3957  0.6615
  214ACOH    C110505   1.506   2.647   1.219 -0.1775 -1.1649  0.0632
  214ACOH    H110506   1.438   2.601   1.290 -0.8349  0.6615  0.6611
  214ACOH    H210507   1.609   2.614   1.226  0.0236 -1.2164 -2.5824
  214ACOH    H310508   1.474   2.625   1.117  0.3524 -0.5788 -0.2327
  215ACOH    H410509   5.056   0.822   1.931 -1.6429 -1.0233 -0.5550
  215ACOH    O210510   5.108   0.760   1.876  0.3237  0.0638  0.0254
  215ACOH    C210511   5.057   0.635   1.899 -0.1878 -0.0595  0.2009
  215ACOH    O110512   4.950   0.612   1.948  0.7593  0.5492 -0.5002
  215ACOH    C110513   5.148   0.529   1.857  0.3959  1.2049 -0.0202
  215ACOH    H110514   5.180   0.549   1.755 -1.1059 -0.6372 -0.8746
  215ACOH    H210515   5.115   0.425   1.854  0.4585  1.1900 -0.1810
  215ACOH    H310516   5.236   0.540   1.921  2.2421 -1.6276 -1.9604
  217ACOH    H410517   2.911   3.089   2.347  2.5014 -1.8982 -0.8229
  217ACOH    O210518   2.844   3.020   2.332 -0.2408  0.3383  0.6439
  217ACOH    C210519   2.854   2.984   2.201  0.0922 -0.4195 -0.6537
  217ACOH    O110520   2.894   3.057   2.112 -0.0587 -0.0542  0.2142
  217ACOH    C110521   2.796   2.849   2.183  0.3998  0.7611 -0.4698
  217ACOH    H110522   2.784   2.800   2.280  2.4704 -1.8098 -1.4385
  217ACOH    H210523   2.866   2.787   2.127 -0.0760 -1.6774  1.5150
  217ACOH    H310524   2.702   2.849   2.130  0.3939  0.8870 -0.4590
  218ACOH    H410525   5.291   4.061   1.710  0.4475  2.2010  1.4074
  218ACOH    O210526   5.384   4.081   1.692  0.5169  0.5615 -0.1892
  218ACOH    C210527   5.432   3.976   1.623  0.5843  0.1488 -0.0681
  218ACOH    O110528   5.377   3.867   1.614  0.2857 -0.0353  0.5417
  218ACOH    C110529   5.574   4.002   1.585 -0.8925  0.5127 -0.2443
  218ACOH    H110530   5.609   4.091   1.636 -1.6528  0.5363  0.2318
  218ACOH    H210531   5.570   4.004   1.476 -1.3936 -0.0821 -0.2415
  218ACOH    H310532   5.636   3.920   1.623 -0.6163  0.7230 -0.2415
  219ACOH    H410533   2.099   2.800   2.537 -0.7039 -0.6822 -0.7333
  219ACOH    O210534   2.036   2.874   2.537 -0.2684 -0.3136  0.0075
  219ACOH    C210535   2.040   2.935   2.419 -0.0330  0.9400 -0.0348
  219ACOH    O110536   2.108   2.907   2.322 -0.0942 -0.4519 -0.9719
  219ACOH    C110537   1.919   3.017   2.401 -0.0491  0.0814 -0.0165
  219ACOH    H110538   1.854   2.980   2.322 -0.5247  1.4285 -0.2718
  219ACOH    H210539   1.949   3.112   2.358 -0.6012 -0.4905 -1.7007
  219ACOH    H310540   1.869   3.037   2.496  1.3872  1.6557  0.4387
  220ACOH    H410541   4.282   5.294   0.666 -0.0755  0.1174 -1.3804
  220ACOH    O210542   4.375   5.295   0.636  0.4720  0.1216  0.2823
  220ACOH    C210543   4.397   5.195   0.557  0.5865  0.1754  0.0278
  220ACOH    O110544   4.317   5.115   0.515 -0.5107 -0.0879  0.5887
  220ACOH    C110545   4.523   5.209   0.484 -0.6737  0.2711  0.4970
  220ACOH    H110546   4.551   5.108   0.455 -1.8811 -0.2147  0.9744
  220ACOH    H210547   4.602   5.245   0.549  0.1074  0.4466 -0.5357
  220ACOH    H310548   4.510   5.274   0.398 -0.6330  1.1664  1.1645
  221ACOH    H410549   7.756   1.778   0.578 -0.5415  0.0649 -0.7696
  221ACOH    O210550   7.763   1.870   0.546 -0.7372  0.1037 -0.6998
  221ACOH    C210551   7.714   1.869   0.421  0.5272  0.2937  0.4152
  221ACOH    O110552   7.760   1.789   0.338  0.5825 -0.3997 -0.4651
  221ACOH    C110553   7.659   1.997   0.385  0.2998 -0.3763 -0.1563
  221ACOH    H110554   7.722   2.077   0.424  0.8849 -0.3556 -1.1098
  221ACOH    H210555   7.556   2.001   0.419  0.0566 -1.3093 -0.7793
  221ACOH    H310556   7.656   2.003   0.276 -0.9443  1.3724 -0.0502
  222ACOH    H410557   4.181   6.351   0.569  2.2118  1.8552  1.0685
  222ACOH    O210558   4.259   6.328   0.516  0.8327 -0.5163  0.0027
  222ACOH    C210559   4.215   6.243   0.424  1.1506 -0.5245 -0.5169
  222ACOH    O110560   4.100   6.212   0.400  0.2975  0.3054 -0.1486
  222ACOH    C110561   4.320   6.200   0.320 -0.4795  0.9225  0.9013
  222ACOH    H110562   4.345   6.293   0.268 -1.2392  0.8938  0.4867
  222ACOH    H210563   4.273   6.123   0.260  2.8876  1.0693 -2.1290
  222ACOH    H310564   4.408   6.147   0.357 -1.1902 -1.2749 -0.4734
  223ACOH    H410565   5.791   9.536   1.712  0.1631 -3.5639  0.4612
  223ACOH    O210566   5.825   9.524   1.621  0.3324 -0.0270 -0.0215
  223ACOH    C210567   5.733   9.437   1.562 -0.4410  0.5406 -0.0471
  223ACOH    O110568   5.662   9.352   1.615 -0.0804  0.1688 -0.6034
  223ACOH    C110569   5.750   9.421   1.418 -0.6410 -0.3693  0.1623
  223ACOH    H110570   5.823   9.498   1.391 -0.1318 -0.6032  0.8412
  223ACOH    H210571   5.662   9.439   1.357  0.7164  1.6346 -1.2796
  223ACOH    H310572   5.777   9.317   1.403  0.7280 -0.6226  3.8474
  225ACOH    H410573   5.618   2.043   0.870 -3.3809  0.7528 -0.8136
  225ACOH    O210574   5.601   1.975   0.937 -0.0116  0.0474 -0.5792
  225ACOH    C210575   5.482   2.012   0.986 -0.1433  0.5532 -0.1194
  225ACOH    O110576   5.399   2.093   0.944 -0.3845 -0.3396  0.4742
  225ACOH    C110577   5.452   1.902   1.083  0.1164  0.7013 -0.1956
  225ACOH    H110578   5.347   1.905   1.111  0.0949  0.4533 -0.2513
  225ACOH    H210579   5.513   1.914   1.173  0.5021  2.6245 -0.6840
  225ACOH    H310580   5.472   1.805   1.038 -1.3470 -0.4368  1.5394
  226ACOH    H410581   5.197  -0.072   1.626 -0.1813 -1.9290 -2.3812
  226ACOH    O210582   5.166   0.009   1.581  0.0694 -0.5565 -0.1376
  226ACOH    C210583   5.146   0.108   1.679 -0.1101 -0.4524 -0.4427
  226ACOH    O110584   5.155   0.099   1.800 -0.0551 -0.3589  0.6298
  226ACOH    C110585   5.163   0.247   1.618  0.4783 -0.0568  0.1083
  226ACOH    H110586   5.090   0.318   1.658 -1.3607 -1.5829 -0.4563
  226ACOH    H210587   5.147   0.240   1.510  0.9302  0.1559  0.0269
  226ACOH    H310588   5.261   0.291   1.635 -0.3441  1.8515  0.0357
  227ACOH    H410589   3.746   5.638   1.435 -0.3124  0.8053 -0.9944
  227ACOH    O210590   3.763   5.733   1.439 -0.1462  0.7368  0.1781
  227ACOH    C210591   3.656   5.794   1.488  0.1978 -0.1565 -1.6218
  227ACOH    O110592   3.564   5.740   1.545  0.3817 -0.4723  0.4723
  227ACOH    C110593   3.666   5.941   1.468  0.1359  0.4405 -0.0680
  227ACOH    H110594   3.652   5.973   1.365  0.9411  0.1554 -0.2692
  227ACOH    H210595   3.764   5.978   1.494 -0.4526  1.2723  0.9792
  227ACOH    H310596   3.592   5.979   1.538 -2.1207 -1.5776 -1.2409
  228ACOH    H410597   4.897   4.134   2.220  0.3065 -1.1612 -1.0080
  228ACOH    O210598   4.989   4.160   2.200  0.2952 -0.1100  0.1839
  228ACOH    C210599   4.968   4.266   2.124 -0.4378 -0.2203  0.2749
  228ACOH    O110600   4.863   4.322   2.102  0.4539 -0.2143 -0.4404
  228ACOH    C110601   5.091   4.324   2.069  0.8493  0.4546  1.2514
  228ACOH    H110602   5.111   4.287   1.969 -1.1400  0.7033  0.7346
  228ACOH    H210603   5.173   4.310   2.140  1.4109 -1.0493  0.3380
  228ACOH    H310604   5.069   4.430   2.054  0.4711  0.1514 -0.4112
  230ACOH    H410605   7.978   1.829   1.878  0.9031  0.6625 -0.0616
  230ACOH    O210606   7.973   1.914   1.925 -0.1896  0.4606  0.2007
  230ACOH    C210607   7.929   1.899   2.053 -0.0410  0.0491  0.5434
  230ACOH    O110608   7.918   1.987   2.133  0.5435  0.1853 -0.5175
  230ACOH    C110609   7.914   1.755   2.086  0.4472 -0.3118 -0.7186
  230ACOH    H110610   7.931   1.690   2.001  0.2367 -2.7354  1.0113
  230ACOH    H210611   7.811   1.745   2.122  1.2380  1.4560  2.2639
  230ACOH    H310612   7.978   1.723   2.169  0.3792 -1.1260 -0.9721
  231ACOH    H410613   5.583   3.428   0.404  0.8447  1.6132 -1.8877
  231ACOH    O210614   5.678   3.424   0.420  0.5430 -0.8332 -0.4668
  231ACOH    C210615   5.715   3.313   0.354 -0.4424 -0.6973  0.2028
  231ACOH    O110616   5.652   3.211   0.359 -0.0926  0.0453  0.4740
  231ACOH    C110617   5.862   3.315   0.326  0.5773  0.1997 -0.5946
  231ACOH    H110618   5.908   3.357   0.416  0.3536 -0.7053 -0.0589
  231ACOH    H210619   5.898   3.371   0.240  1.0508 -0.3113 -0.7349
  231ACOH    H310620   5.905   3.215   0.322 -1.3110 -0.7935  2.3004
  232ACOH    H410621   3.725   9.250   2.022 -0.9509  0.1168  0.1732
  232ACOH    O210622   3.744   9.338   1.986 -0.4789  0.1787  0.5781
  232ACOH    C210623   3.743   9.430   2.081  0.9207 -0.2807 -0.3035
  232ACOH    O110624   3.753   9.409   2.198  0.6350 -0.6951 -0.2364
  232ACOH    C110625   3.723   9.561   2.019 -0.0357 -0.2733  0.1774
  232ACOH    H110626   3.799   9.583   1.943  0.1194  1.2289  0.7452
  232ACOH    H210627   3.719   9.647   2.086 -1.7902  0.7209 -1.1467
  232ACOH    H310628   3.628   9.576   1.967 -0.2648  0.0031  0.6733
  233ACOH    H410629   7.377   9.407   1.975 -0.3153 -0.2058  1.1652
  233ACOH    O210630   7.365   9.311   1.970  0.2274 -0.2149 -0.5691
  233ACOH    C210631   7.265   9.278   1.882  0.1609  0.0316  0.0669
  233ACOH    O110632   7.212   9.356   1.799 -0.3736  0.0879  0.4595
  233ACOH    C110633   7.238   9.133   1.858  0.3690  0.2223  0.2658
  233ACOH    H110634   7.296   9.090   1.776  3.0017  4.8669 -0.4464
  233ACOH    H210635   7.134   9.131   1.825 -0.3614  2.5416  2.2590
  233ACOH    H310636   7.250   9.072   1.948 -2.4425  0.0514  0.5545
  235ACOH    H410637   3.058   1.501   1.672 -2.4112 -1.0678 -0.3709
  235ACOH    O210638   3.089   1.409   1.677  0.3410 -0.1873 -0.0669
  235ACOH    C210639   2.991   1.331   1.627 -0.1320  0.5423 -0.5128
  235ACOH    O110640   2.882   1.365   1.595 -0.0810  0.7857  0.0945
  235ACOH    C110641   3.019   1.190   1.644  0.0123 -0.1258 -0.3622
  235ACOH    H110642   3.116   1.183   1.694 -0.9588  1.0196  1.7176
  235ACOH    H210643   3.024   1.143   1.546  1.1740 -1.4789  0.3117
  235ACOH    H310644   2.949   1.144   1.714  2.4998 -2.0692  0.9514
  236ACOH    H410645   4.102   8.285   0.447  1.1050  0.6679 -0.8133
  236ACOH    O210646   4.047   8.284   0.367  0.2194  0.1295 -0.2024
  236ACOH    C210647   3.954   8.379   0.371 -0.1022  0.3869 -0.5964
  236ACOH    O110648   3.936   8.453   0.461  0.5079  0.3285 -0.3076
  236ACOH    C110649   3.868   8.365   0.252  0.1643 -0.1226  0.4457
  236ACOH    H110650   3.915   8.302   0.177 -0.7990 -0.8726  0.4620
  236ACOH    H210651   3.849   8.464   0.211  0.4349  0.3331  1.3980
  236ACOH    H310652   3.772   8.319   0.276 -0.4289 -0.6092 -2.6942
  237ACOH    H410653   4.558   9.210   0.897  2.2104 -0.2651  1.8737
  237ACOH    O210654   4.592   9.292   0.859 -0.1516 -0.1364 -0.1128
  237ACOH    C210655   4.560   9.296   0.729 -0.3189 -0.6040 -0.6886
  237ACOH    O110656   4.451   9.271   0.682  0.2682 -0.2266 -0.2000
  237ACOH    C110657   4.656   9.385   0.661  0.0092  0.5110  0.1091
  237ACOH    H110658   4.691   9.339   0.569  0.2709  0.8623  0.0335
  237ACOH    H210659   4.745   9.415   0.716 -1.6646  1.8180  2.2285
  237ACOH    H310660   4.610   9.481   0.635  1.4252  0.6777 -1.8234
  238ACOH    H410661   9.107   3.248   1.358  0.8409  1.4168 -0.7877
  238ACOH    O210662   9.052   3.228   1.280 -0.9866  0.3418  0.7498
  238ACOH    C210663   9.127   3.251   1.175  0.0048  0.7645  0.0677
  238ACOH    O110664   9.238   3.206   1.162 -0.0921 -0.1521  0.7529
  238ACOH    C110665   9.039   3.284   1.064 -0.2986  0.2541  0.2314
  238ACOH    H110666   8.980   3.197   1.036 -0.1670 -0.2747  1.5863
  238ACOH    H210667   9.099   3.315   0.978 -3.1588  0.3905 -1.7851
  238ACOH    H310668   8.968   3.364   1.086 -1.2633 -0.3130 -0.7756
  239ACOH    H410669   8.057   2.518   1.423 -1.6791 -0.1920 -1.8826
  239ACOH    O210670   8.021   2.602   1.455  0.4342  0.0869 -0.0831
  239ACOH    C210671   8.048   2.623   1.584  0.1083  0.1529  1.1236
  239ACOH    O110672   8.130   2.556   1.644  0.1772  0.2161  0.3087
  239ACOH    C110673   7.975   2.739   1.637 -0.1207 -0.5198 -0.1123
  239ACOH    H110674   7.869   2.720   1.656 -0.2558  0.4025  0.0888
  239ACOH    H210675   7.986   2.811   1.555 -1.1594 -0.7936 -0.5030
  239ACOH    H310676   8.024   2.780   1.725  1.1892  1.4461 -1.7090
  241ACOH    H410677   4.734   4.043   1.587 -0.3145 -1.5761  1.5682
  241ACOH    O210678   4.689   4.113   1.637  0.1536  0.1311 -0.3327
  241ACOH    C210679   4.796   4.170   1.705  0.3192 -0.1794 -0.1490
  241ACOH    O110680   4.905   4.118   1.729  0.3667 -0.2483  0.0343
  241ACOH    C110681   4.758   4.300   1.765  0.0838  0.9319  0.9433
  241ACOH    H110682   4.721   4.366   1.686 -0.8361 -1.0643 -0.3229
  241ACOH    H210683   4.849   4.339   1.811 -0.3122  0.3486  2.2527
  241ACOH    H310684   4.677   4.285   1.837  0.9347  0.7604  1.8853
  242ACOH    H410685   8.428   3.672   1.372 -0.7029 -0.0074  0.3092
  242ACOH    O210686   8.394   3.646   1.459 -0.4194 -0.1064  0.3905
  242ACOH    C210687   8.368   3.513   1.454  0.9737 -0.7952 -0.2764
  242ACOH    O110688   8.400   3.435   1.368  0.2807 -0.0336 -0.4568
  242ACOH    C110689   8.320   3.466   1.582  0.5549  0.2630  0.1131
  242ACOH    H110690   8.248   3.533   1.629 -1.3155 -0.9093 -1.0208
  242ACOH    H210691   8.408   3.466   1.646 -0.3123  0.9708  1.3185
  242ACOH    H310692   8.269   3.370   1.579  0.1618  0.4990 -3.7040
  243ACOH    H410693   7.259   0.568  -0.124  2.5778 -0.6322  0.9078
  243ACOH    O210694   7.243   0.639  -0.060 -0.0963 -0.0069 -0.4036
  243ACOH    C210695   7.339   0.646   0.035 -0.3665 -0.0821 -0.0374
  243ACOH    O110696   7.450   0.590   0.031 -0.2503  0.1931 -0.2458
  243ACOH    C110697   7.297   0.748   0.133 -0.5943 -0.1945  0.3866
  243ACOH    H110698   7.291   0.843   0.080  1.0732 -0.5575 -0.4594
  243ACOH    H210699   7.360   0.752   0.221 -0.9711 -0.7940  0.6863
  243ACOH    H310700   7.197   0.716   0.164 -0.2768 -0.3067  1.3033
  244ACOH    H410701   4.433   5.007   2.263  2.0204 -1.6076  1.3951
  244ACOH    O210702   4.437   5.069   2.338  1.0169  0.7217 -0.3970
  244ACOH    C210703   4.431   5.194   2.284  0.6034  0.4763 -0.1540
  244ACOH    O110704   4.387   5.222   2.172  0.1172 -0.5391  0.8976
  244ACOH    C110705   4.430   5.286   2.395 -0.3981 -0.1365 -0.1048
  244ACOH    H110706   4.530   5.323   2.416  0.2848 -2.0367  0.1174
  244ACOH    H210707   4.381   5.235   2.479  2.4120 -0.4460  1.4146
  244ACOH    H310708   4.369   5.374   2.372 -1.8765 -1.0530  0.2098
  245ACOH    H410709   7.578   1.165   1.215  2.1921 -0.1652 -1.5744
  245ACOH    O210710   7.539   1.169   1.126  0.3776 -0.0675 -0.7834
  245ACOH    C210711   7.585   1.272   1.059 -0.3574  1.1519 -0.1235
  245ACOH    O110712   7.673   1.347   1.095  0.7202 -0.3269 -0.3800
  245ACOH    C110713   7.509   1.287   0.928  0.0960  0.2731 -0.8532
  245ACOH    H110714   7.512   1.193   0.873 -0.3228 -1.2394  1.6399
  245ACOH    H210715   7.558   1.367   0.873  0.1544 -0.4567 -1.8849
  245ACOH    H310716   7.404   1.309   0.942  0.0416  0.8007 -2.0433
  246ACOH    H410717   4.251   8.609   1.167 -1.1962  1.1024  0.3538
  246ACOH    O210718   4.310   8.686   1.170  0.4708 -0.1136 -0.6206
  246ACOH    C210719   4.279   8.749   1.284  0.6457  0.8502 -0.4353
  246ACOH    O110720   4.193   8.721   1.366  0.1228 -0.0374 -0.1283
  246ACOH    C110721   4.383   8.855   1.303 -0.1977 -0.3803  1.0791
  246ACOH    H110722   4.332   8.932   1.360 -0.1881  0.5036 -0.0867
  246ACOH    H210723   4.421   8.895   1.209 -0.2786 -1.9805  0.3580
  246ACOH    H310724   4.476   8.825   1.352  0.9356  0.7312 -0.3651
  247ACOH    H410725   8.362   6.491   0.867  1.9670  0.8509  1.1594
  247ACOH    O210726   8.393   6.404   0.897 -0.5025 -0.3321  0.3562
  247ACOH    C210727   8.308   6.311   0.847 -0.3181 -0.1870  0.7909
  247ACOH    O110728   8.249   6.325   0.743  0.3676  0.1161 -0.4519
  247ACOH    C110729   8.320   6.184   0.917  0.2456  0.6062  0.4052
  247ACOH    H110730   8.382   6.122   0.852 -0.8316  2.7184 -2.7346
  247ACOH    H210731   8.221   6.141   0.931 -0.2811  1.5860 -0.3094
  247ACOH    H310732   8.370   6.198   1.013  0.1041  0.3290  0.5176
  248ACOH    H410733   5.084   3.552   2.079 -0.8659 -0.5341 -0.1255
  248ACOH    O210734   5.131   3.589   2.155 -0.7452 -0.9055 -0.0160
  248ACOH    C210735   5.157   3.717   2.127  0.4538 -0.0590 -0.5670
  248ACOH    O110736   5.115   3.777   2.029 -0.0349 -0.4051 -0.3440
  248ACOH    C110737   5.252   3.780   2.226 -0.1221  0.3501 -0.1308
  248ACOH    H110738   5.226   3.879   2.262 -1.5126  0.1636 -0.5985
  248ACOH    H210739   5.337   3.806   2.162  0.1379 -1.0009 -0.3382
  248ACOH    H310740   5.278   3.715   2.309 -0.4307  2.0909  1.3542
  249ACOH    H410741   4.192   5.590   2.360  0.5777  0.9939  0.3492
  249ACOH    O210742   4.172   5.655   2.291 -0.0484 -0.0881 -0.5055
  249ACOH    C210743   4.113   5.585   2.192  0.0334 -0.2632 -0.0123
  249ACOH    O110744   4.099   5.462   2.178 -0.0113 -0.6568 -0.6875
  249ACOH    C110745   4.035   5.685   2.108 -0.1659 -0.3665 -0.3317
  249ACOH    H110746   4.066   5.681   2.004  1.1096 -0.5256  0.0394
  249ACOH    H210747   4.048   5.786   2.147  1.8445 -0.2853 -1.1465
  249ACOH    H310748   3.935   5.644   2.117  0.5673 -1.5872  2.9192
  251ACOH    H410749   5.062   2.538   0.655  0.1023  0.1077  1.1592
  251ACOH    O210750   5.139   2.482   0.672 -0.0769 -0.5236 -0.0582
  251ACOH    C210751   5.162   2.407   0.562 -0.2486  0.3411  0.6648
  251ACOH    O110752   5.092   2.402   0.463 -0.2064  0.5405 -0.0708
  251ACOH    C110753   5.301   2.365   0.569 -0.3303  0.3516  0.2553
  251ACOH    H110754   5.361   2.419   0.642 -0.3559  2.4384 -1.2343
  251ACOH    H210755   5.360   2.380   0.478 -0.6376 -2.5451 -0.4820
  251ACOH    H310756   5.301   2.259   0.594 -0.6490  0.5887  1.3080
  252ACOH    H410757   8.000   7.783   0.629 -0.5551  2.2330  0.0717
  252ACOH    O210758   8.026   7.831   0.548  0.5829  0.0863 -0.8767
  252ACOH    C210759   8.007   7.961   0.585 -0.5466  0.2654  0.2743
  252ACOH    O110760   8.001   8.009   0.696  0.1894  0.5272  0.0069
  252ACOH    C110761   7.988   8.050   0.466 -0.7760 -0.2207 -0.0422
  252ACOH    H110762   8.085   8.100   0.454 -0.8420 -0.2052 -0.5256
  252ACOH    H210763   7.912   8.125   0.490  0.2760  0.7319  0.3803
  252ACOH    H310764   7.958   8.010   0.369  1.3343 -2.7664  0.2963
  253ACOH    H410765   5.009   9.356   3.017 -2.5736  0.8632 -0.4042
  253ACOH    O210766   5.032   9.372   2.924 -0.2254 -0.6760 -0.1291
  253ACOH    C210767   5.147   9.306   2.902 -0.5438  0.3570  0.3811
  253ACOH    O110768   5.201   9.227   2.978  0.6074 -0.0660  0.2323
  253ACOH    C110769   5.196   9.347   2.763 -0.4290  0.1537 -0.7342
  253ACOH    H110770   5.139   9.430   2.720 -0.8287  1.5766  2.3744
  253ACOH    H210771   5.185   9.254   2.709  0.4819 -0.3418 -0.0868
  253ACOH    H310772   5.301   9.378   2.770  0.3241 -2.5499  0.4491
  254ACOH    H410773   8.255   5.931   1.218 -0.0685 -0.4836 -0.2919
  254ACOH    O210774   8.158   5.941   1.228 -0.0333 -0.3807 -0.0196
  254ACOH    C210775   8.140   5.958   1.357 -0.1861 -0.0882  0.4451
  254ACOH    O110776   8.216   5.976   1.452  0.3332 -0.0454  0.0280
  254ACOH    C110777   7.998   5.963   1.389  0.7322  0.2585  0.7727
  254ACOH    H110778   7.983   5.889   1.467  0.6899 -1.6897 -1.0594
  254ACOH    H210779   7.935   5.939   1.304  2.1482  0.3428 -0.3122
  254ACOH    H310780   7.977   6.065   1.422 -1.2017  0.4909 -1.0994
  255ACOH    H410781   5.299   3.714   0.069  0.8034 -2.9453  0.6772
  255ACOH    O210782   5.370   3.736   0.133  0.8847  0.4250 -0.4531
  255ACOH    C210783   5.302   3.799   0.235 -0.2532  0.4686 -0.2711
  255ACOH    O110784   5.198   3.858   0.232 -0.9340 -0.0763  0.0595
  255ACOH    C110785   5.392   3.813   0.349 -0.7385 -0.5983  0.3869
  255ACOH    H110786   5.446   3.906   0.329 -1.7562 -0.1505 -0.3112
  255ACOH    H210787   5.457   3.726   0.346 -1.5449 -1.2413  1.4920
  255ACOH    H310788   5.338   3.819   0.443 -0.3342  2.2708  0.4968
  257ACOH    H410789   5.271   3.550   1.152 -2.1938 -0.5868 -2.1846
  257ACOH    O210790   5.294   3.634   1.109 -0.1186 -0.3885 -0.7595
  257ACOH    C210791   5.333   3.611   0.982 -0.2785  1.0172 -0.6559
  257ACOH    O110792   5.323   3.502   0.927  0.2823  0.0684 -0.0393
  257ACOH    C110793   5.393   3.728   0.923 -0.6364  0.2354 -0.0138
  257ACOH    H110794   5.423   3.710   0.820 -1.5516 -1.2267 -0.0497
  257ACOH    H210795   5.479   3.768   0.977 -0.1248 -2.7597  1.5144
  257ACOH    H310796   5.317   3.806   0.919  0.2957  1.1993  0.8483
  258ACOH    H410797   3.909   5.808   1.758 -0.3438 -0.7507 -0.5417
  258ACOH    O210798   3.927   5.867   1.683 -0.2738  0.2251  0.2377
  258ACOH    C210799   4.008   5.801   1.597  0.8636 -0.2882 -0.4909
  258ACOH    O110800   4.060   5.695   1.625  0.2659  0.2035  0.3598
  258ACOH    C110801   4.054   5.885   1.486  0.0395 -0.4562  0.8163
  258ACOH    H110802   3.972   5.950   1.456  2.1876  2.0612  0.1184
  258ACOH    H210803   4.078   5.822   1.400 -0.5584  0.0839  0.2405
  258ACOH    H310804   4.139   5.942   1.525  0.2898 -2.1327  2.7746
  259ACOH    H410805   4.834   9.459   1.841  1.0430  1.0214  2.1407
  259ACOH    O210806   4.886   9.516   1.781 -0.0567 -0.1231  0.0656
  259ACOH    C210807   4.913   9.430   1.676  0.1283 -0.0509  0.0141
  259ACOH    O110808   4.880   9.312   1.662 -0.0359  0.3068 -0.1103
  259ACOH    C110809   4.979   9.498   1.568 -0.3068 -0.1482  0.0196
  259ACOH    H110810   5.008   9.599   1.598 -1.1969  0.0742  0.1576
  259ACOH    H210811   4.901   9.517   1.493 -0.8382 -2.9707 -0.1897
  259ACOH    H310812   5.059   9.443   1.519  1.2961  2.4802 -0.4230
  260ACOH    H410813   4.768   0.962   1.530  1.0989 -1.4214 -0.5180
  260ACOH    O210814   4.841   1.004   1.579  0.2712 -0.5930  0.0042
  260ACOH    C210815   4.940   0.913   1.583 -0.6656  0.2865  0.5160
  260ACOH    O110816   4.936   0.793   1.604 -0.0892 -0.5093  0.0371
  260ACOH    C110817   5.070   0.974   1.595 -0.0024 -0.3048  0.3901
  260ACOH    H110818   5.067   1.062   1.660  1.5522  1.7698 -2.2295
  260ACOH    H210819   5.104   1.002   1.496  0.8431 -0.3426  0.6628
  260ACOH    H310820   5.143   0.909   1.645 -2.6475 -2.2697  1.8439
  262ACOH    H410821   5.529   9.331   1.738 -1.2926 -1.1219 -1.7966
  262ACOH    O210822   5.456   9.340   1.801  0.2977  0.0967 -0.0825
  262ACOH    C210823   5.358   9.418   1.751  0.2211 -0.7403  0.4109
  262ACOH    O110824   5.355   9.480   1.651  0.8628  0.1149 -0.3329
  262ACOH    C110825   5.239   9.412   1.835 -1.2128  0.1701 -0.1146
  262ACOH    H110826   5.251   9.466   1.928 -0.2599 -0.0138 -0.1283
  262ACOH    H210827   5.224   9.310   1.870 -2.3853  0.1278 -0.7058
  262ACOH    H310828   5.143   9.443   1.794 -1.5823 -2.3768 -1.3103
  263SOL     OW10829   8.604   0.115   1.302 -0.0921  0.4353 -0.4030
  263SOL    HW110830   8.648   0.027   1.318  0.2751  0.5613 -0.7108
  263SOL    HW210831   8.619   0.175   1.380 -0.1043  0.3240 -0.3147
  264SOL     OW10832   9.484   3.502   0.484 -0.2146 -0.4459 -0.1626
  264SOL    HW110833   9.540   3.420   0.484  0.7834  0.1976  2.1829
  264SOL    HW210834   9.394   3.481   0.523  0.0500 -0.4257  0.4604
  265SOL     OW10835   9.827   8.976   1.615  0.3150 -0.0850  0.3993
  265SOL    HW110836   9.888   9.032   1.671 -1.5848  3.0888 -0.5591
  265SOL    HW210837   9.781   9.034   1.547 -2.0388 -2.7457 -0.3982
  266SOL     OW10838   8.109   9.768   1.808 -0.4804  0.1851  0.2247
  266SOL    HW110839   8.119   9.865   1.831  0.7047  0.0528  0.3099
  266SOL    HW210840   8.085   9.717   1.891  1.1449  0.0915  0.6563
  268SOL     OW10841   2.833   4.277   0.546  0.2855 -0.0341  0.0857
  268SOL    HW110842   2.800   4.224   0.625 -1.0512  0.1323 -0.3563
  268SOL    HW210843   2.885   4.356   0.579  1.2391 -0.9104  0.7653
  269SOL     OW10844   2.766   1.903   2.277 -0.3432 -0.5749  0.4688
  269SOL    HW110845   2.856   1.907   2.321 -0.4447 -1.2852  0.7372
  269SOL    HW210846   2.695   1.895   2.347 -0.6895  0.8388  0.3127
  270SOL     OW10847   8.734   4.925   0.297 -0.2910  0.0118  0.2400
  270SOL    HW110848   8.638   4.908   0.274 -0.6523  1.0269  0.9609
  270SOL    HW210849   8.749   4.910   0.394  0.3502 -0.4516  0.0701
  271SOL     OW10850   0.740   6.284   2.117 -0.2561 -0.2128 -0.0373
  271SOL    HW110851   0.738   6.299   2.216  1.0881 -0.3922  0.0351
  271SOL    HW210852   0.776   6.367   2.073 -0.1131 -0.4170 -0.3013
  272SOL     OW10853   4.579   0.663   0.754 -0.0338  0.1043  0.3953
  272SOL    HW110854   4.671   0.627   0.739 -1.0307 -1.7041 -1.4577
  272SOL    HW210855   4.567   0.746   0.699  0.3435  0.1200  0.3310
  273SOL     OW10856   3.061   3.562   0.855 -0.3651 -0.0420 -0.0505
  273SOL    HW110857   3.089   3.480   0.905  0.9032  0.8638  0.7856
  273SOL    HW210858   2.969   3.550   0.819 -0.5350 -1.4814  0.8206
  274SOL     OW10859   1.992   7.742   0.974  0.1910 -0.3626  0.0515
  274SOL    HW110860   2.068   7.697   0.927 -0.0589 -0.2527 -0.4573
  274SOL    HW210861   2.028   7.801   1.046  0.5446 -0.9743  0.3808
  275SOL     OW10862   9.135   1.645   0.472  0.0072  0.4453  0.8351
  275SOL    HW110863   9.119   1.635   0.570 -0.2561 -1.1783  0.6309
  275SOL    HW210864   9.048   1.645   0.423  0.2336 -0.8828  0.4146
  279SOL     OW10865   1.559   0.584   1.759  0.2063 -0.5742  0.6818
  279SOL    HW110866   1.577   0.627   1.848 -0.8369 -1.7486  1.4763
  279SOL    HW210867   1.549   0.485   1.771  0.3402 -0.7740 -0.7921
  280SOL     OW10868   0.981   8.944   2.139  0.6308  0.0992  0.3320
  280SOL    HW110869   0.995   9.039   2.164  0.3971  0.2649 -0.1640
  280SOL    HW210870   1.010   8.929   2.044 -0.0039 -0.1579  0.1760
  281SOL     OW10871   0.964   3.721   1.590 -0.2382 -0.2067  0.0671
  281SOL    HW110872   0.906   3.664   1.648 -0.5824 -1.1712 -1.2240
  281SOL    HW210873   1.059   3.712   1.618 -0.4808 -0.1331  0.9245
  282SOL     OW10874   8.824   3.079   1.344 -0.4282  0.6679  0.1085
  282SOL    HW110875   8.923   3.090   1.342  0.3541 -4.4196  2.0821
  282SOL    HW210876   8.794   3.032   1.261 -1.1546  1.7559 -0.2567
  283SOL     OW10877   3.842   0.526   1.179 -0.1953  0.1640 -0.2222
  283SOL    HW110878   3.853   0.444   1.235 -2.4685 -0.9700 -1.3804
  283SOL    HW210879   3.808   0.501   1.089  0.1025  2.2947 -0.9682
  285SOL     OW10880   3.167   4.678   1.855  0.0976 -0.3716 -0.1162
  285SOL    HW110881   3.236   4.744   1.885 -0.7860  0.7567 -0.5247
  285SOL    HW210882   3.099   4.666   1.927 -0.5364  0.2726 -0.6029
  286SOL     OW10883   4.180   0.421   1.409  0.0247  0.5777 -0.8837
  286SOL    HW110884   4.082   0.431   1.391  0.3091  0.2906 -2.7209
  286SOL    HW210885   4.228   0.504   1.379  0.5212  0.0789 -1.5033
  287SOL     OW10886   1.084   2.674   1.211 -0.0193  0.5729 -0.4243
  287SOL    HW110887   1.100   2.592   1.265 -1.1664  0.0863 -0.7958
  287SOL    HW210888   1.171   2.718   1.189  0.5160  0.2042  0.9195
  289SOL     OW10889   2.793   5.704   0.608 -0.2018  0.3730  0.1217
  289SOL    HW110890   2.884   5.718   0.645  0.3079 -0.2493 -0.8906
  289SOL    HW210891   2.788   5.741   0.515 -0.9044  0.1818  0.0773
  290SOL     OW10892   2.077   9.367   0.520  0.2607  0.4459 -0.0604
  290SOL    HW110893   2.061   9.447   0.578 -1.1343  0.5938 -0.6427
  290SOL    HW210894   1.991   9.336   0.480  0.7551 -1.4629  0.2959
  291SOL     OW10895   3.500   0.476   0.773 -0.2474 -0.8337 -0.3301
  291SOL    HW110896   3.453   0.397   0.734 -1.4166  0.1503 -0.9816
  291SOL    HW210897   3.565   0.513   0.707 -1.0344 -0.1552 -0.7321
  293SOL     OW10898   3.703   3.556   1.841  0.2013 -0.0875  0.2838
  293SOL    HW110899   3.691   3.462   1.812 -0.6930  0.4191 -1.0178
  293SOL    HW210900   3.776   3.561   1.910  2.7296 -1.2517 -2.2229
  294SOL     OW10901   3.939   1.159   1.340  0.5857 -0.1470 -0.2174
  294SOL    HW110902   3.934   1.127   1.245 -0.4425 -0.2674 -0.1351
  294SOL    HW210903   3.922   1.257   1.342  2.7764  0.2468 -0.3718
  295SOL     OW10904   2.548   7.393   1.439 -0.3520 -0.3188 -0.9926
  295SOL    HW110905   2.615   7.409   1.367 -1.3116 -1.0068 -2.0515
  295SOL    HW210906   2.559   7.301   1.476 -1.1257 -0.6661 -1.6178
  296SOL     OW10907   1.918   5.570   1.981 -0.1597  0.1249  0.3548
  296SOL    HW110908   1.861   5.528   1.910  0.2524  0.1530  0.0084
  296SOL    HW210909   2.011   5.583   1.946 -0.1656  0.8945  0.6249
  297SOL     OW10910   9.276   5.748   0.433  0.8221 -0.3162  0.4226
  297SOL    HW110911   9.310   5.725   0.525 -0.4375  1.3718  1.3406
  297SOL    HW210912   9.277   5.847   0.421  0.2997 -0.4939 -1.1206
  298SOL     OW10913   0.905   4.744   1.479  0.1112 -0.4137  0.3675
  298SOL    HW110914   0.877   4.707   1.567  1.4241 -2.0636  0.1062
  298SOL    HW210915   0.867   4.688   1.405  0.0464  0.2218 -0.0908
  299SOL     OW10916   1.231   6.872   2.015 -0.1678  0.8774 -0.0520
  299SOL    HW110917   1.328   6.867   1.993  0.2113  0.7939  1.5519
  299SOL    HW210918   1.178   6.891   1.932  1.2733  1.5906 -0.8229
  301SOL     OW10919   9.576   0.121   0.531 -0.0104  0.0885 -0.2057
  301SOL    HW110920   9.670   0.122   0.566 -0.8154  1.4337  2.0750
  301SOL    HW210921   9.530   0.039   0.564 -0.1506  0.3155  0.1736
  302SOL     OW10922   4.942   9.068   0.041  0.3390  0.1802  0.3607
  302SOL    HW110923   5.033   9.087   0.076  1.1334 -1.7181 -0.6058
  302SOL    HW210924   4.880   9.049   0.118  1.2949 -0.7516  0.9133
  303SOL     OW10925   3.816   4.634   2.135  0.3949 -0.4803  0.5499
  303SOL    HW110926   3.889   4.595   2.192 -0.9843 -1.3114  1.7727
  303SOL    HW210927   3.809   4.732   2.153  3.0517  0.1798 -1.6371
  304SOL     OW10928   0.521   5.638   1.199  0.2463  0.0656  0.1661
  304SOL    HW110929   0.434   5.681   1.223 -0.3141 -1.2833  0.5523
  304SOL    HW210930   0.564   5.690   1.125  0.0703  1.8887  1.3221
  305SOL     OW10931   1.161   3.311   1.353 -0.3935 -0.1075 -0.2803
  305SOL    HW110932   1.149   3.342   1.259 -1.2785 -0.5570 -0.3224
  305SOL    HW210933   1.120   3.377   1.416 -0.6088 -0.2536 -0.2655
  306SOL     OW10934   1.897   8.900   0.745 -0.1120 -0.0520  0.2755
  306SOL    HW110935   1.977   8.853   0.707 -0.0980  0.6324 -0.5552
  306SOL    HW210936   1.927   8.965   0.815  0.0855  0.4072 -0.2339
  307SOL     OW10937   1.774   1.730   0.988 -0.2084 -0.6658  0.1495
  307SOL    HW110938   1.844   1.658   0.992 -0.6423 -1.1040 -0.1243
  307SOL    HW210939   1.751   1.748   0.893  2.5175  2.3900 -0.0366
  308SOL     OW10940   1.095   2.829   1.495 -0.2168  0.4947 -0.3824
  308SOL    HW110941   1.162   2.758   1.473  0.2443  0.9571 -0.4742
  308SOL    HW210942   1.069   2.877   1.412  0.5365  1.3726 -0.1139
  310SOL     OW10943   0.667   7.300   1.799  0.0059  0.0691  0.5543
  310SOL    HW110944   0.589   7.243   1.826 -0.0304  0.5816  1.5286
  310SOL    HW210945   0.693   7.359   1.875 -0.7826  2.2791 -0.8345
  311SOL     OW10946   1.270   1.374   1.477  0.1256 -0.1272 -0.0132
  311SOL    HW110947   1.227   1.289   1.448 -0.7187 -0.0088  0.8759
  311SOL    HW210948   1.369   1.365   1.470 -0.0184 -0.5094 -1.7693
  312SOL     OW10949   0.037   6.994   1.320 -0.1037 -0.0882  0.4879
  312SOL    HW110950  -0.022   6.987   1.240 -0.3803 -3.5794  0.8955
  312SOL    HW210951   0.121   7.042   1.296 -1.5565  1.8098 -0.9996
  313SOL     OW10952   3.509   1.432   0.891  0.2318 -0.0221  0.3850
  313SOL    HW110953   3.448   1.511   0.892  1.1232  0.6752  0.1163
  313SOL    HW210954   3.526   1.403   0.797 -1.5207 -1.6651  0.5408
  314SOL     OW10955   0.074   0.634   1.574  0.2032  0.5111 -0.1772
  314SOL    HW110956   0.102   0.546   1.536 -3.0570 -0.1747 -1.1999
  314SOL    HW210957   0.122   0.651   1.659  0.4505 -2.5654  0.3516
  315SOL     OW10958   3.740   1.514   1.443  0.5352 -0.0849 -0.1639
  315SOL    HW110959   3.791   1.538   1.526  0.4284 -2.0132  0.4864
  315SOL    HW210960   3.804   1.486   1.372  0.4761 -0.9930  0.1391
  318SOL     OW10961   9.636   8.901   0.113 -0.3771 -0.0224  0.4705
  318SOL    HW110962   9.659   8.983   0.165  0.0987 -0.4395  0.9300
  318SOL    HW210963   9.715   8.871   0.060 -0.8184  0.3170 -0.3840
  319SOL     OW10964   2.592   8.395   1.383  0.1516  0.1720  0.5286
  319SOL    HW110965   2.632   8.305   1.400  1.2287  0.9949  2.4688
  319SOL    HW210966   2.492   8.387   1.385  0.2193 -1.2241 -0.7139
  320SOL     OW10967   7.621   9.933   0.625  0.1584 -0.1356  0.0846
  320SOL    HW110968   7.695  10.000   0.629  0.9513 -0.8004 -2.1430
  320SOL    HW210969   7.542   9.967   0.676  0.7745  2.1857 -0.4334
  321SOL     OW10970   0.504   2.366   2.013  0.4145 -0.0158  0.0875
  321SOL    HW110971   0.538   2.429   1.944 -0.1397 -0.1841 -0.3396
  321SOL    HW210972   0.405   2.356   2.005  0.7766 -2.9790 -1.6069
  322SOL     OW10973   2.801   1.787   1.743  0.7325 -0.3444  0.1046
  322SOL    HW110974   2.786   1.703   1.795 -1.7392  0.9479  1.5112
  322SOL    HW210975   2.747   1.784   1.659 -0.7975  0.6433  1.0552
  323SOL     OW10976   1.808   1.507   2.275  0.4804 -0.5843  0.4260
  323SOL    HW110977   1.749   1.476   2.201  0.2832 -0.0506  0.3581
  323SOL    HW210978   1.753   1.526   2.356  0.1584  2.4811 -0.4181
  325SOL     OW10979   3.363   0.563   0.979  0.1790  0.1542 -0.3689
  325SOL    HW110980   3.414   0.538   0.896 -0.7968 -0.5113 -0.7775
  325SOL    HW210981   3.416   0.538   1.060  0.6023 -0.3219 -0.7941
  326SOL     OW10982   9.612   9.261   1.969  0.1427 -0.1687  0.2314
  326SOL    HW110983   9.651   9.198   2.035 -0.7359 -0.8532  0.1127
  326SOL    HW210984   9.546   9.212   1.911  0.9339  0.3999 -1.1796
  328SOL     OW10985   0.669   2.447   1.100  0.1190  0.4955 -0.3592
  328SOL    HW110986   0.699   2.520   1.161 -1.3196  0.3266  0.5786
  328SOL    HW210987   0.572   2.429   1.115  0.0987 -0.5609 -1.6652
  329SOL     OW10988   9.034   0.994   2.267  0.4197 -0.7391  0.3182
  329SOL    HW110989   9.129   1.017   2.287  0.4005 -0.4179  0.0298
  329SOL    HW210990   9.014   0.902   2.301  1.3443 -1.5380 -1.2639
  330SOL     OW10991   3.193   2.119   0.460 -0.2292  0.0245 -0.5135
  330SOL    HW110992   3.268   2.185   0.457 -1.0074  0.8847 -1.9785
  330SOL    HW210993   3.126   2.148   0.529  0.1007  0.0158 -0.1887
  331SOL     OW10994   9.344   9.496   0.866  0.1353 -0.1859  0.2288
  331SOL    HW110995   9.260   9.441   0.868 -0.4003  0.6405  0.9964
  331SOL    HW210996   9.368   9.518   0.772 -0.0927 -1.0483 -0.0397
  332SOL     OW10997   2.313   9.775   1.765  0.2255 -0.3981  0.2339
  332SOL    HW110998   2.246   9.827   1.818  1.1919  0.7209  0.3902
  332SOL    HW210999   2.270   9.738   1.683 -0.9812 -1.0997  1.1616
  334SOL     OW11000   2.859   9.114   2.167  0.1286 -0.1303  0.0897
  334SOL    HW111001   2.860   9.214   2.171  0.9221 -0.1827  1.8292
  334SOL    HW211002   2.927   9.078   2.231 -0.2019 -1.7884 -0.4733
  335SOL     OW11003   1.423   7.918   0.642 -0.1383 -0.3269 -0.5496
  335SOL    HW111004   1.329   7.929   0.610  0.3134 -0.0916 -1.8038
  335SOL    HW211005   1.457   7.829   0.613 -0.0465 -0.5124  0.1155
  336SOL     OW11006   1.314   4.512   1.275 -0.3562  0.2407  0.1205
  336SOL    HW111007   1.239   4.539   1.215 -1.5008 -2.6657  0.1562
  336SOL    HW211008   1.281   4.505   1.369 -0.2527 -1.7620  0.0256
  337SOL     OW11009   9.647   3.573   0.738  0.1439  0.1488 -0.1635
  337SOL    HW111010   9.695   3.610   0.658 -0.9504  0.5910 -0.6273
  337SOL    HW211011   9.700   3.593   0.820  1.2951 -0.3295 -0.7700
  338SOL     OW11012   3.708   2.441   0.415 -0.0191  0.0567 -0.1574
  338SOL    HW111013   3.776   2.387   0.366  0.8112  0.8877  0.0502
  338SOL    HW211014   3.714   2.537   0.385 -3.2081 -0.3843 -2.4390
  339SOL     OW11015   9.038   2.871   0.799 -0.0404  0.1451  0.2799
  339SOL    HW111016   9.036   2.856   0.898 -1.6785 -0.0398  0.2383
  339SOL    HW211017   8.968   2.815   0.756  1.3799 -0.5841 -1.1220
  340SOL     OW11018   9.411   2.307   2.237  0.7256  0.1658  0.1510
  340SOL    HW111019   9.317   2.292   2.206  1.1183  1.3271 -1.7145
  340SOL    HW211020   9.411   2.325   2.335 -0.7439 -2.0083  0.6001
  342SOL     OW11021   3.471   3.563   1.204  0.1738 -0.3448 -0.2329
  342SOL    HW111022   3.486   3.470   1.169 -1.3486 -0.7817  0.2215
  342SOL    HW211023   3.447   3.624   1.128 -0.2014 -0.6346 -0.3480
  343SOL     OW11024   1.317   0.714   2.304 -0.2878  0.0219  0.6730
  343SOL    HW111025   1.327   0.690   2.400 -0.5600 -0.0392  0.6860
  343SOL    HW211026   1.279   0.636   2.254 -1.4858  0.5362  0.7777
  344SOL     OW11027   8.272   9.705   1.564 -0.3429 -0.1012  0.2774
  344SOL    HW111028   8.174   9.717   1.543 -0.0621  1.1519 -0.3492
  344SOL    HW211029   8.288   9.723   1.661 -0.8004 -0.7099  0.4694
  345SOL     OW11030   9.285   4.660   1.838 -0.3895  0.0354 -0.3690
  345SOL    HW111031   9.242   4.741   1.799  1.2496  1.3558  0.4965
  345SOL    HW211032   9.247   4.642   1.929 -1.2215 -0.5498 -0.8361
  346SOL     OW11033   1.937   9.350   0.792  0.3444 -0.4873  0.1914
  346SOL    HW111034   1.893   9.303   0.868  1.9086 -1.1941  0.6820
  346SOL    HW211035   2.019   9.300   0.765  1.2412  1.1726 -0.2279
  347SOL     OW11036   8.435   8.802   1.598  0.4290 -0.0655 -0.1446
  347SOL    HW111037   8.361   8.814   1.664  0.6577  0.1261  0.0766
  347SOL    HW211038   8.397   8.771   1.511  0.3239 -2.4420  0.7001
  348SOL     OW11039   8.745   7.177   0.456  0.2267  0.2805 -0.1482
  348SOL    HW111040   8.728   7.194   0.553  0.1071 -2.4044  0.3301
  348SOL    HW211041   8.666   7.205   0.402 -0.9080 -1.0309  0.8359
  351SOL     OW11042   2.297   9.380   0.360  0.3806 -0.1357 -0.0845
  351SOL    HW111043   2.229   9.379   0.433  2.2942 -1.2987  1.7309
  351SOL    HW211044   2.335   9.473   0.352  0.6396 -0.1493  0.8804
  352SOL     OW11045   1.727   0.843   2.179 -0.0404  0.5173 -0.1098
  352SOL    HW111046   1.782   0.818   2.258 -0.2525 -0.7667 -0.3532
  352SOL    HW211047   1.788   0.869   2.103  0.2320 -0.3314 -0.1939
  354SOL     OW11048   0.861   1.437   1.249  0.2308  0.2636  0.5066
  354SOL    HW111049   0.837   1.342   1.230 -0.9645  0.8614 -1.2414
  354SOL    HW211050   0.780   1.494   1.234  0.9003  1.5349  1.6685
  355SOL     OW11051   9.197   2.508   1.627 -0.2247  0.0076 -0.2218
  355SOL    HW111052   9.169   2.568   1.552  0.0087  0.5674  0.1334
  355SOL    HW211053   9.246   2.429   1.590 -2.0368 -0.8544 -0.8221
  356SOL     OW11054   0.260   9.262   0.804 -0.1070  0.8048  0.0233
  356SOL    HW111055   0.295   9.256   0.711 -1.9421 -1.4924 -0.5767
  356SOL    HW211056   0.179   9.320   0.805 -0.1551  0.7368  0.1430
  359SOL     OW11057   1.961   4.399   1.097  0.3663 -0.2404  0.5104
  359SOL    HW111058   1.919   4.364   1.181 -0.9849 -0.6376 -0.3219
  359SOL    HW211059   1.911   4.479   1.066  0.2645 -0.6845 -0.4673
  360SOL     OW11060   9.942   9.345   1.894 -0.2021 -0.1937  0.5062
  360SOL    HW111061   9.882   9.382   1.823 -1.3401 -0.9594  1.0569
  360SOL    HW211062   9.942   9.406   1.974  0.5248  0.3034  0.1349
  361SOL     OW11063   8.875   4.917   0.795 -0.2077  0.6218 -0.0241
  361SOL    HW111064   8.888   4.822   0.825 -0.6784  0.2079 -1.0891
  361SOL    HW211065   8.908   4.979   0.866 -0.7452 -0.3313  1.0881
  362SOL     OW11066   3.945   2.681   1.788 -0.0880 -0.6640 -0.3382
  362SOL    HW111067   3.859   2.728   1.769 -0.0828 -0.5403 -0.0663
  362SOL    HW211068   3.926   2.592   1.831 -0.0715 -0.5041  0.0007
  364SOL     OW11069   3.312   6.040   1.282  0.1775  0.0723  0.4092
  364SOL    HW111070   3.244   6.112   1.294  0.3028 -0.0411  1.9072
  364SOL    HW211071   3.267   5.951   1.288  0.4726 -0.0062  1.6032
  365SOL     OW11072   0.218   3.340   0.359  0.3533  0.0690  0.0557
  365SOL    HW111073   0.218   3.379   0.267  0.2126  0.3484  0.1730
  365SOL    HW211074   0.309   3.307   0.381  0.8732  1.7658  0.5550
  366SOL     OW11075   8.375   9.810   2.265 -0.2725 -0.1950  0.1445
  366SOL    HW111076   8.305   9.869   2.226  0.7543  0.7375 -0.3426
  366SOL    HW211077   8.333   9.730   2.307 -1.6651  0.6649  0.4106
  367SOL     OW11078   3.088   7.136   1.905  0.2945 -0.0158  0.1660
  367SOL    HW111079   3.126   7.181   1.825  0.4517 -0.7113 -0.1534
  367SOL    HW211080   2.990   7.153   1.910  0.1915 -0.3957 -0.4632
  368SOL     OW11081   2.878   2.322   1.497 -0.4451  0.3876 -0.4165
  368SOL    HW111082   2.978   2.314   1.498 -0.3399  1.5035 -1.6912
  368SOL    HW211083   2.839   2.252   1.557  1.0924 -0.1563 -0.0264
  369SOL     OW11084   1.047   2.395   0.604 -0.3321 -0.3271  0.8468
  369SOL    HW111085   1.089   2.329   0.667  2.2404  0.5344  0.0889
  369SOL    HW211086   1.065   2.367   0.510 -1.7568 -0.0867  0.4905
  370SOL     OW11087   1.956   4.858   2.048 -0.0537 -0.1981 -0.2340
  370SOL    HW111088   2.028   4.912   2.005 -0.1570 -0.2538 -0.4783
  370SOL    HW211089   1.989   4.819   2.134 -0.0666  0.4802  0.0781
  371SOL     OW11090   3.548   8.316   1.867  0.3368  0.2503 -0.5572
  371SOL    HW111091   3.576   8.245   1.801 -1.2190 -0.0445 -0.9252
  371SOL    HW211092   3.572   8.406   1.831 -0.3083  0.0747 -1.4404
  372SOL     OW11093   0.974   8.350   2.099 -0.4521 -0.3206  0.1979
  372SOL    HW111094   0.961   8.443   2.066 -1.2706 -0.6516 -0.4281
  372SOL    HW211095   0.956   8.285   2.025 -0.0800 -0.9857  0.6798
  373SOL     OW11096   2.795   0.961   1.607  0.0143  0.5522 -0.2008
  373SOL    HW111097   2.775   0.876   1.558 -0.0048 -0.3071  1.2640
  373SOL    HW211098   2.853   1.020   1.550  1.1033 -0.9946 -0.7228
  374SOL     OW11099   0.893   5.702   0.394  0.3238  0.0863  0.3176
  374SOL    HW111100   0.963   5.773   0.393 -0.4332  0.8431 -1.4820
  374SOL    HW211101   0.932   5.617   0.427  1.4411  1.1381  1.7855
  376SOL     OW11102   1.519   6.268   2.044 -0.4353  0.2584 -0.1498
  376SOL    HW111103   1.450   6.308   2.104 -1.6055  1.4754 -2.2218
  376SOL    HW211104   1.590   6.223   2.099 -2.1060  0.2313  2.0628
  377SOL     OW11105   4.053   5.356   0.485  0.1264  0.5031 -0.4191
  377SOL    HW111106   3.955   5.376   0.491  0.1636  0.9500 -1.2161
  377SOL    HW211107   4.087   5.328   0.575 -0.7792  0.1287 -0.1810
  379SOL     OW11108   1.826   5.460   0.650  0.5333 -0.6864 -0.6591
  379SOL    HW111109   1.904   5.399   0.641  0.8984 -0.3342  0.0392
  379SOL    HW211110   1.854   5.553   0.625  0.9198 -0.1554  1.5774
  381SOL     OW11111   8.148   2.391   1.368 -0.5052 -0.3148 -0.3437
  381SOL    HW111112   8.148   2.360   1.273 -0.0779  1.1350 -0.8378
  381SOL    HW211113   8.239   2.379   1.407 -0.7085 -1.0106 -0.0868
  382SOL     OW11114   1.977   1.956   0.512 -0.6413  0.2923 -0.1557
  382SOL    HW111115   2.073   1.965   0.485 -0.4036 -0.7497  0.3349
  382SOL    HW211116   1.932   2.046   0.506  0.2808  0.7199 -0.6827
  384SOL     OW11117   4.661   1.506   1.220  0.2718  0.3948 -0.6309
  384SOL    HW111118   4.633   1.534   1.128  0.7862  0.3398 -0.8070
  384SOL    HW211119   4.729   1.433   1.213 -2.0579 -1.8952 -0.1690
  385SOL     OW11120   2.379   6.270   1.973  0.1619  0.4864 -0.0570
  385SOL    HW111121   2.285   6.240   1.958  0.0254  1.3207 -0.8659
  385SOL    HW211122   2.379   6.367   1.998  0.8981  0.7563 -1.1157
  386SOL     OW11123   4.980   8.964   2.302  0.0035  0.1989 -0.0573
  386SOL    HW111124   5.003   8.992   2.209 -0.7485  0.5542 -0.1427
  386SOL    HW211125   4.934   8.875   2.300 -1.8408  1.1433 -0.2152
  387SOL     OW11126   4.033   3.922   0.789  0.6272 -0.5669  0.2707
  387SOL    HW111127   4.118   3.919   0.842  0.0913 -0.6273  1.1542
  387SOL    HW211128   4.046   3.875   0.702  1.8082  0.3793 -0.0711
  388SOL     OW11129   9.624   3.956   0.650 -0.4645 -0.2361  0.1703
  388SOL    HW111130   9.673   3.887   0.597  0.3893 -0.1954  0.9015
  388SOL    HW211131   9.565   4.009   0.588  1.4631  0.6465 -0.9802
  389SOL     OW11132   8.397   1.491   0.489 -0.1704  0.6931 -0.0012
  389SOL    HW111133   8.458   1.505   0.567  1.1089 -0.2928 -0.8064
  389SOL    HW211134   8.448   1.450   0.413 -1.8168 -0.0910 -0.7147
  390SOL     OW11135   3.369   5.815   2.160  0.7003 -0.0232  0.0307
  390SOL    HW111136   3.334   5.825   2.066 -0.2925 -2.1424  0.1585
  390SOL    HW211137   3.300   5.847   2.224  1.1249  0.8111  0.0805
  391SOL     OW11138   9.159   8.329   0.224  0.0567 -0.6710  0.2404
  391SOL    HW111139   9.110   8.360   0.143  2.1044 -1.5233 -1.3564
  391SOL    HW211140   9.096   8.328   0.302 -2.3752 -1.4507 -1.6675
  392SOL     OW11141   0.091   1.435   0.211 -0.0446 -0.2982 -0.1823
  392SOL    HW111142   0.105   1.465   0.306  0.3749 -0.1782 -0.2827
  392SOL    HW211143   0.014   1.370   0.208 -0.6577  0.4081  0.0991
  393SOL     OW11144   0.863   6.849   0.635 -0.1905 -0.2931  0.2277
  393SOL    HW111145   0.833   6.929   0.688 -0.2820 -1.0167  1.2707
  393SOL    HW211146   0.958   6.828   0.659  0.6574  0.9794 -1.8487
  394SOL     OW11147   3.235   2.570   0.568 -0.5452  0.6836 -0.2475
  394SOL    HW111148   3.205   2.666   0.564 -2.0987  0.2567  0.8156
  394SOL    HW211149   3.332   2.565   0.545  0.1965  2.8547  2.2141
  395SOL     OW11150   3.151   3.072   1.384  0.0767  0.0269 -0.4228
  395SOL    HW111151   3.168   3.168   1.361  1.7550 -0.4042 -1.0273
  395SOL    HW211152   3.190   3.051   1.473  3.6538 -1.1711 -2.1690
  396SOL     OW11153   1.341   8.800   1.779 -0.2114 -0.1695  0.0161
  396SOL    HW111154   1.295   8.862   1.842 -1.2281  0.4823 -1.3493
  396SOL    HW211155   1.323   8.828   1.685 -1.3963 -3.0246 -0.6639
  397SOL     OW11156   3.033   8.368   1.294  0.6856  0.3117 -0.3431
  397SOL    HW111157   2.971   8.290   1.306 -0.2415  0.9023 -1.2538
  397SOL    HW211158   3.024   8.429   1.372 -0.5946  0.8728 -0.9056
  398SOL     OW11159   1.131   0.149   1.952 -0.1843 -0.1745  0.2593
  398SOL    HW111160   1.072   0.072   1.928 -0.8550  0.2438  0.5655
  398SOL    HW211161   1.225   0.116   1.962 -0.2521 -0.7319 -0.8114
  400SOL     OW11162   2.665   8.255   0.405  0.0248  0.2183  0.0758
  400SOL    HW111163   2.626   8.277   0.316  1.2776 -0.9181 -0.7585
  400SOL    HW211164   2.628   8.318   0.474 -1.8885  0.3179 -1.0093
  404SOL     OW11165   1.966   2.014   2.943 -0.8852  0.3251  0.3737
  404SOL    HW111166   2.032   2.018   2.869 -1.3125  1.7717  0.0525
  404SOL    HW211167   1.878   2.051   2.912 -0.3532  3.3715  2.3010
  407SOL     OW11168   8.391   0.423   0.331  0.0157  0.1241 -0.1344
  407SOL    HW111169   8.489   0.431   0.350  0.1357 -1.8815  0.1572
  407SOL    HW211170   8.339   0.453   0.411  0.4243 -0.8990  0.5266
  408SOL     OW11171   1.664   8.539   0.397 -0.0456 -0.4277  0.0692
  408SOL    HW111172   1.740   8.599   0.376  0.3981 -1.2471 -0.7370
  408SOL    HW211173   1.669   8.510   0.492  0.1964  0.1654  0.2344
  409SOL     OW11174   0.237   3.879   0.634 -0.1133  0.7970 -0.3733
  409SOL    HW111175   0.283   3.803   0.680  0.9708  0.1640 -2.4189
  409SOL    HW211176   0.218   3.952   0.700  1.9439  0.1796  0.9408
  410SOL     OW11177   2.588   9.011   0.387 -0.4359  0.0104 -0.1641
  410SOL    HW111178   2.627   9.029   0.477 -2.1635 -0.3240  0.6663
  410SOL    HW211179   2.661   8.984   0.324  0.7910  0.3075  1.1075
  412SOL     OW11180   8.374   7.788   0.131 -0.0183  0.0094 -0.2419
  412SOL    HW111181   8.397   7.789   0.034 -0.7210 -0.7689 -0.4190
  412SOL    HW211182   8.333   7.876   0.157  0.2723  0.2577 -0.6173
  414SOL     OW11183   4.376   1.899   1.141  0.9988 -0.0236  0.0908
  414SOL    HW111184   4.299   1.835   1.140  0.1296  1.0157 -1.2577
  414SOL    HW211185   4.344   1.990   1.111  2.8176  0.3261 -0.8442
  415SOL     OW11186   2.962   0.247   1.504 -0.1202  0.1697  0.1655
  415SOL    HW111187   2.949   0.307   1.584  3.4835  1.1606  0.1282
  415SOL    HW211188   2.933   0.154   1.527 -0.5976  0.7645  2.1104
  416SOL     OW11189   8.418   3.738   1.221 -0.2210 -0.6523  0.4114
  416SOL    HW111190   8.507   3.741   1.176  0.1535 -2.4969  1.0054
  416SOL    HW211191   8.346   3.755   1.154  0.5186 -0.2833 -0.2883
  417SOL     OW11192   4.327   0.358   1.977 -0.0540 -0.1638  0.3476
  417SOL    HW111193   4.312   0.299   1.897 -0.3262 -0.4798  0.6275
  417SOL    HW211194   4.350   0.301   2.056  0.6819  0.1786  0.3898
  418SOL     OW11195   9.695   3.016   1.208 -0.0535  0.2541 -0.2516
  418SOL    HW111196   9.600   2.986   1.221  0.7272 -1.6895  1.1465
  418SOL    HW211197   9.727   2.987   1.117 -1.6591  3.4112 -1.9312
  420SOL     OW11198   1.179   6.687   1.121  0.6287 -0.0389 -0.0600
  420SOL    HW111199   1.138   6.776   1.143  1.0371  0.1875 -0.1926
  420SOL    HW211200   1.107   6.619   1.109  0.3185  0.2410  0.1972
  421SOL     OW11201   8.394   9.911   0.533  0.4265 -1.0265  0.3291
  421SOL    HW111202   8.294   9.900   0.539  0.5800 -1.5140  2.0662
  421SOL    HW211203   8.415   9.977   0.461 -1.1975 -0.2060  0.5767
  422SOL     OW11204   4.304   3.468   1.123  0.3353 -0.4132  0.6687
  422SOL    HW111205   4.275   3.387   1.071 -0.1489  0.2695 -0.1230
  422SOL    HW211206   4.355   3.530   1.064 -0.0538  0.2798  1.0552
  425SOL     OW11207   9.615   5.956   0.931  0.4397 -0.0514  0.0364
  425SOL    HW111208   9.599   5.871   0.881 -0.0069 -0.3866  0.7424
  425SOL    HW211209   9.679   5.939   1.006  0.3247  0.2267  0.1988
  426SOL     OW11210   3.804   3.166   0.225  0.2916 -0.0542 -0.1060
  426SOL    HW111211   3.779   3.155   0.321  0.0616 -1.6862 -0.3443
  426SOL    HW211212   3.726   3.144   0.167  0.4895  0.7329 -0.6893
  427SOL     OW11213   3.789   1.809   1.240  1.1169  0.5251  0.0119
  427SOL    HW111214   3.818   1.904   1.231  2.0158  0.4696  1.9184
  427SOL    HW211215   3.868   1.753   1.268  0.1698 -0.4212  0.8487
  428SOL     OW11216   9.371   5.691   0.668 -0.2991  0.5515  0.4147
  428SOL    HW111217   9.462   5.710   0.702 -0.2142 -1.8798  1.6782
  428SOL    HW211218   9.328   5.620   0.724 -1.5322 -1.0084 -2.3467
  429SOL     OW11219   3.999   9.973   0.108  0.1123 -0.2550  0.5405
  429SOL    HW111220   4.039   9.884   0.084 -0.3115 -0.3871  0.3124
  429SOL    HW211221   3.901   9.962   0.123 -0.3347  0.5652 -1.6114
  430SOL     OW11222   1.055   6.172   0.568  0.3866  0.0208  0.4358
  430SOL    HW111223   0.966   6.147   0.604  1.0515 -2.5879  0.3416
  430SOL    HW211224   1.111   6.211   0.641 -0.2122 -0.0005  0.9051
  431SOL     OW11225   3.750   9.921   1.596  0.0670 -0.3379 -0.1271
  431SOL    HW111226   3.758   9.826   1.567 -1.5760 -1.2927  2.3562
  431SOL    HW211227   3.670   9.962   1.553 -1.4594 -1.2776  1.7332
  433SOL     OW11228   3.243   6.397   0.368  0.4153  0.3694 -0.1492
  433SOL    HW111229   3.190   6.446   0.298  1.0341  1.3327  0.0446
  433SOL    HW211230   3.300   6.327   0.324  0.6839  0.8668 -0.6051
  435SOL     OW11231   9.129   7.556   2.214 -0.1715  0.0714 -0.3285
  435SOL    HW111232   9.226   7.533   2.203 -0.4470 -1.1204 -0.3563
  435SOL    HW211233   9.073   7.478   2.185 -1.1541  0.9094 -0.7345
  436SOL     OW11234   3.002   0.915   1.378 -0.8874 -1.3158  0.4789
  436SOL    HW111235   2.925   0.851   1.383 -0.2365 -2.1301  0.1906
  436SOL    HW211236   3.086   0.865   1.360 -0.3526 -0.3791  0.3160
  437SOL     OW11237   9.235   1.586   0.834 -0.6111 -0.2985  0.0665
  437SOL    HW111238   9.274   1.510   0.780 -2.5225 -0.2419 -1.4527
  437SOL    HW211239   9.267   1.673   0.796  1.3227 -0.2988  1.6105
  438SOL     OW11240   2.718   4.698   0.365  0.3621  0.2354 -0.2901
  438SOL    HW111241   2.640   4.724   0.308 -1.2042 -1.5708  0.9865
  438SOL    HW211242   2.736   4.600   0.354  0.9178  0.1548  1.2614
  440SOL     OW11243   1.683   2.910   1.955  0.5585  0.5726 -0.1356
  440SOL    HW111244   1.703   2.854   2.036 -0.9802  0.9117  0.5024
  440SOL    HW211245   1.696   2.855   1.873  0.7885 -0.1953  0.4052
  441SOL     OW11246   9.044   7.323   1.216  0.2621 -1.0448 -0.1431
  441SOL    HW111247   9.063   7.342   1.120  0.8150 -1.1961 -0.0634
  441SOL    HW211248   9.030   7.225   1.229 -1.9551 -0.7975 -0.4386
  442SOL     OW11249   9.674   9.600   0.896 -0.2332  0.0636 -0.0917
  442SOL    HW111250   9.596   9.647   0.855 -0.1770  0.2476  0.0093
  442SOL    HW211251   9.759   9.636   0.858 -0.2440 -1.5261 -1.6773
  443SOL     OW11252   3.891   8.370   2.168  0.4494 -0.5310 -0.4728
  443SOL    HW111253   3.794   8.394   2.174  0.3837 -1.2457  2.2640
  443SOL    HW211254   3.901   8.281   2.124 -0.0741 -0.1503 -1.3725
  445SOL     OW11255   0.156   7.922   1.861  0.0619  0.4443  0.6437
  445SOL    HW111256   0.139   7.899   1.765 -0.9684  0.9967  0.6829
  445SOL    HW211257   0.125   7.846   1.919  0.4775  0.2042  0.5537
  446SOL     OW11258   3.072   5.689   0.657 -0.2024  0.2647 -0.2662
  446SOL    HW111259   3.121   5.724   0.737  0.3646  0.1889 -0.5818
  446SOL    HW211260   3.095   5.744   0.577 -0.5768  0.1855 -0.4291
  447SOL     OW11261   4.373   4.556   1.787 -0.1851 -0.1660 -0.1672
  447SOL    HW111262   4.314   4.530   1.863 -0.3761  1.9493  0.4514
  447SOL    HW211263   4.321   4.551   1.701  0.0190 -2.5094 -0.1848
  448SOL     OW11264   8.309   8.256   0.917 -0.7983 -0.2744 -0.8843
  448SOL    HW111265   8.251   8.273   0.837  1.6601  0.1097 -2.6706
  448SOL    HW211266   8.309   8.158   0.937 -2.1539 -0.2615 -0.7661
  449SOL     OW11267   2.767   5.107   1.680  0.0614  0.0812 -0.1983
  449SOL    HW111268   2.774   5.009   1.699  1.4878  0.1651 -0.2318
  449SOL    HW211269   2.740   5.121   1.585  0.6503 -0.2773 -0.4197
  450SOL     OW11270   2.878   3.273   0.113 -0.2303 -0.1061 -0.1408
  450SOL    HW111271   2.887   3.372   0.101  3.0538 -0.3852 -0.5274
  450SOL    HW211272   2.852   3.253   0.207  0.0699  1.1023  0.2120
  451SOL     OW11273   4.556   4.291   1.295  0.2893 -0.1084 -0.0378
  451SOL    HW111274   4.501   4.263   1.373 -1.4193  1.6638 -0.5445
  451SOL    HW211275   4.621   4.362   1.323  0.7470 -0.5677  0.0773
  452SOL     OW11276   5.456   2.631   0.659  0.7203  0.2780 -0.3568
  452SOL    HW111277   5.456   2.634   0.759 -0.4263 -3.5246 -0.1704
  452SOL    HW211278   5.385   2.693   0.624  0.7403  1.1948  1.1949
  455SOL     OW11279   9.455   0.320   1.454 -1.1094 -0.6000 -0.1040
  455SOL    HW111280   9.465   0.232   1.500 -0.6456 -0.5307 -0.0719
  455SOL    HW211281   9.522   0.327   1.379  0.5642  0.7269  1.4639
  456SOL     OW11282   1.746   8.138   0.062  0.1506  0.2165  0.0637
  456SOL    HW111283   1.717   8.132  -0.033  2.8085 -0.1115 -0.7583
  456SOL    HW211284   1.774   8.232   0.082  3.6867 -0.5952 -0.7694
  457SOL     OW11285   0.430   9.987   1.529 -0.5369 -0.1079 -0.2724
  457SOL    HW111286   0.342   9.948   1.500  0.0306 -1.0008 -0.8252
  457SOL    HW211287   0.443  10.076   1.485 -1.1459  0.0159 -0.2144
  458SOL     OW11288   9.560   1.443   0.322  0.3658  0.4931 -0.1283
  458SOL    HW111289   9.619   1.503   0.268 -0.8187  0.7778 -1.1149
  458SOL    HW211290   9.497   1.394   0.262 -0.2343 -0.0180  0.8912
  459SOL     OW11291   1.881   0.246   0.388  0.0766  0.2223 -0.2633
  459SOL    HW111292   1.918   0.175   0.447 -0.5117 -0.1041 -0.2882
  459SOL    HW211293   1.953   0.280   0.327 -0.1060 -1.7372 -1.6338
  460SOL     OW11294   7.482   0.623   0.578 -0.1364 -0.5032 -0.0881
  460SOL    HW111295   7.517   0.650   0.668  2.3425  1.7581 -1.6557
  460SOL    HW211296   7.388   0.654   0.569  0.4023  1.5604  0.8289
  462SOL     OW11297   0.618   6.986   1.293  0.0487  0.6067 -0.5120
  462SOL    HW111298   0.663   6.993   1.204 -0.4469  0.9275 -0.7397
  462SOL    HW211299   0.642   7.067   1.348  2.3810 -0.7738  0.5995
  463SOL     OW11300   2.392   4.108   1.317 -0.5315  0.0718 -0.5073
  463SOL    HW111301   2.355   4.017   1.337  0.9072 -0.1997  1.0465
  463SOL    HW211302   2.483   4.099   1.278 -0.8121  0.8237 -1.3356
  465SOL     OW11303   3.003   5.396   1.736 -0.3444 -0.2840 -0.5119
  465SOL    HW111304   3.046   5.446   1.811 -0.8278  1.4669 -1.3693
  465SOL    HW211305   2.915   5.359   1.767 -1.0403  1.3406 -0.5011
  466SOL     OW11306   8.213   1.589   1.505  0.3541 -0.7016  0.6829
  466SOL    HW111307   8.232   1.687   1.515 -1.0011 -0.3128 -0.3542
  466SOL    HW211308   8.213   1.565   1.408  1.5508 -1.9225  0.9796
  467SOL     OW11309   2.129   8.829   1.786 -0.1156 -0.2078  0.2089
  467SOL    HW111310   2.067   8.863   1.716  1.5461 -0.2252 -1.3069
  467SOL    HW211311   2.164   8.905   1.840  1.7886  0.2770 -1.6656
  469SOL     OW11312   9.671   3.468   0.037  0.2798 -0.2164  0.1339
  469SOL    HW111313   9.742   3.497  -0.027 -0.1852  1.1679  0.2380
  469SOL    HW211314   9.676   3.523   0.120 -0.2256 -0.8445  0.5856
  470SOL     OW11315   3.134   7.797   0.353 -0.1622  0.2483  0.7093
  470SOL    HW111316   3.047   7.749   0.359  0.4851 -1.0226  0.2192
  470SOL    HW211317   3.135   7.875   0.415 -2.3296  1.3661 -0.5982
  472SOL     OW11318   9.285   5.153   1.754 -0.2291  0.7387  0.9067
  472SOL    HW111319   9.237   5.096   1.822 -1.3516  0.0328 -0.4567
  472SOL    HW211320   9.381   5.127   1.751 -0.5098 -0.3529  1.0752
  473SOL     OW11321   8.859   1.880   2.944  0.3508 -0.0123  0.0777
  473SOL    HW111322   8.802   1.961   2.938  1.3713  0.7095 -0.0830
  473SOL    HW211323   8.929   1.883   2.872 -0.0401 -1.3809 -0.3880
  475SOL     OW11324   4.042   9.171   0.475 -0.0436 -0.5800 -0.3348
  475SOL    HW111325   3.951   9.130   0.465 -0.9046  1.1848  0.1424
  475SOL    HW211326   4.057   9.197   0.570 -0.2186  1.8098 -0.9300
  476SOL     OW11327   1.162   8.041   0.754  0.1349  0.1437 -0.3475
  476SOL    HW111328   1.126   8.028   0.661 -0.2483  0.4678 -0.2471
  476SOL    HW211329   1.108   7.987   0.818  1.7048 -1.7379 -0.5681
  477SOL     OW11330   9.560   2.470   1.228 -0.3124  0.2514  0.1045
  477SOL    HW111331   9.624   2.547   1.236 -1.7721  1.4847  0.1469
  477SOL    HW211332   9.594   2.393   1.282  0.7812  1.1407  0.7108
  478SOL     OW11333   0.873   6.540   2.146  0.4027 -0.1197  0.4516
  478SOL    HW111334   0.851   6.624   2.097 -1.6067 -0.3434  0.9032
  478SOL    HW211335   0.908   6.561   2.237  0.8356  0.2364  0.2029
  479SOL     OW11336   0.205   8.707   1.822 -0.0575 -0.5642  0.0051
  479SOL    HW111337   0.285   8.713   1.762 -0.7298  0.5118 -0.7998
  479SOL    HW211338   0.196   8.793   1.873 -1.5810 -0.0892 -1.0517
  480SOL     OW11339   2.316   4.585   0.210  0.7371 -0.1331  0.2167
  480SOL    HW111340   2.221   4.570   0.237  0.8181  1.4809  1.4792
  480SOL    HW211341   2.322   4.586   0.110 -0.4043 -1.1966  0.1215
  481SOL     OW11342   3.133   1.876   2.039 -0.1848  0.5684 -0.2316
  481SOL    HW111343   3.087   1.936   1.972 -0.6553 -0.3614 -0.7474
  481SOL    HW211344   3.086   1.884   2.127 -0.7282  0.3718 -0.5005
  483SOL     OW11345   7.760   0.304   2.181 -0.1229  0.6144 -0.3266
  483SOL    HW111346   7.748   0.249   2.264 -2.2963  1.2516 -0.1795
  483SOL    HW211347   7.719   0.394   2.195  1.7883  1.6544 -1.2143
  484SOL     OW11348   0.287   7.512   0.659 -0.1240 -0.5978  0.1432
  484SOL    HW111349   0.308   7.591   0.601  0.2065  0.2067  1.3261
  484SOL    HW211350   0.188   7.497   0.660 -0.2722  0.3551  0.6016
  485SOL     OW11351   2.031   4.949   1.734 -1.0584  0.1984 -0.1121
  485SOL    HW111352   2.023   5.020   1.803  0.5147  0.5032 -0.2251
  485SOL    HW211353   2.007   4.986   1.644  0.7091  0.8599 -0.3220
  486SOL     OW11354   4.449   4.179   0.357  0.1658  0.1076  0.2490
  486SOL    HW111355   4.494   4.101   0.314  0.0786  0.0920  0.1870
  486SOL    HW211356   4.375   4.212   0.298 -0.1768 -0.1306  0.5411
  487SOL     OW11357   3.580   4.248   2.161  0.2767 -0.1426 -0.5520
  487SOL    HW111358   3.643   4.267   2.085  0.5079 -0.2320 -0.3855
  487SOL    HW211359   3.580   4.325   2.224 -0.1444  0.0573 -0.7977
  488SOL     OW11360   1.997   3.948   0.109 -0.2356  0.6883 -0.8603
  488SOL    HW111361   2.001   3.882   0.034 -1.0340  2.3769 -2.4330
  488SOL    HW211362   2.012   4.040   0.073  1.3772  1.3394  1.3723
  490SOL     OW11363   2.130   6.187   0.780 -0.2557  0.3540 -0.0743
  490SOL    HW111364   2.129   6.098   0.733 -0.1900 -1.2915  2.8961
  490SOL    HW211365   2.040   6.203   0.820 -0.0206  1.2513  0.0909
  491SOL     OW11366   3.415   2.245   2.161 -0.2824 -0.4206 -0.0113
  491SOL    HW111367   3.417   2.177   2.088 -0.3611  0.5782 -0.9487
  491SOL    HW211368   3.496   2.303   2.154 -0.7873  0.2977  0.1008
  492SOL     OW11369   1.734   4.949   0.128  0.3744 -0.0799  0.4945
  492SOL    HW111370   1.773   4.926   0.039 -1.0535  0.7438 -0.3560
  492SOL    HW211371   1.799   5.005   0.179  0.4615  1.0317 -0.7964
  493SOL     OW11372   9.338   6.059   0.630  0.3518  0.8025  0.3432
  493SOL    HW111373   9.302   5.999   0.702  0.7169  0.0598 -0.0847
  493SOL    HW211374   9.319   6.019   0.541 -0.4723  1.9279  0.0026
  494SOL     OW11375   1.483   9.048   0.254  0.7160  0.0418 -0.2758
  494SOL    HW111376   1.456   9.113   0.325 -0.2398  0.8681 -1.3790
  494SOL    HW211377   1.401   9.018   0.204  1.5709  0.8803 -2.2210
  495SOL     OW11378   9.655   5.530   1.144  0.5716  0.0669 -0.0233
  495SOL    HW111379   9.645   5.487   1.054 -0.9715 -1.7193  0.9599
  495SOL    HW211380   9.564   5.548   1.183  1.1942  3.5148 -0.0359
  496SOL     OW11381   2.761   0.209   2.112  0.4645 -0.0574 -0.5143
  496SOL    HW111382   2.739   0.130   2.055 -0.9195 -0.1437  0.1092
  496SOL    HW211383   2.676   0.245   2.153  1.5614 -1.0842  2.8810
  497SOL     OW11384   4.495   2.858   0.506  0.2099  0.1758 -0.1256
  497SOL    HW111385   4.401   2.838   0.535  0.0706 -1.2545 -1.4845
  497SOL    HW211386   4.499   2.950   0.466 -0.3336  0.7399  1.0992
  499SOL     OW11387   3.732   8.954   2.308 -0.6255 -0.8916  0.2567
  499SOL    HW111388   3.752   8.960   2.406 -0.1908 -0.9693  0.1724
  499SOL    HW211389   3.796   8.892   2.265 -0.2213 -0.1360 -0.2396
  500SOL     OW11390   2.585   4.041   1.903  0.0022 -0.2362 -0.1879
  500SOL    HW111391   2.522   4.018   1.828 -0.7434 -0.0286  0.3746
  500SOL    HW211392   2.654   4.106   1.870  0.0629 -0.6378 -0.8626
  502SOL     OW11393   2.900   3.115   0.649 -0.0592 -0.3281 -0.2606
  502SOL    HW111394   2.854   3.155   0.570 -1.3845  1.9690  1.5972
  502SOL    HW211395   2.837   3.054   0.696  0.7761 -1.8092 -1.0439
  503SOL     OW11396   3.938   2.290   0.382 -0.4123 -0.0806  0.5840
  503SOL    HW111397   4.003   2.308   0.308  0.3871 -0.2466  1.2357
  503SOL    HW211398   3.900   2.198   0.370 -1.0208  0.2620 -0.1607
  504SOL     OW11399   3.839   9.560   1.109 -0.3364 -0.8055 -0.1773
  504SOL    HW111400   3.916   9.607   1.151  0.0973 -0.8237 -0.9447
  504SOL    HW211401   3.868   9.516   1.024 -1.6421  0.9602 -1.5845
  505SOL     OW11402   3.146   9.435   2.264 -0.2746  0.1690  0.4336
  505SOL    HW111403   3.164   9.404   2.357 -0.1676  1.0991  0.7324
  505SOL    HW211404   3.052   9.412   2.239  0.8069 -3.4262 -0.6107
  506SOL     OW11405   8.525   2.573   1.298  0.0502  0.6376 -0.3625
  506SOL    HW111406   8.484   2.662   1.319  0.0194  0.7476 -0.8728
  506SOL    HW211407   8.574   2.539   1.378 -0.4125  0.8509  0.0172
  507SOL     OW11408   7.730   1.621   0.653  0.3646 -0.6202 -0.1948
  507SOL    HW111409   7.652   1.560   0.663  0.3700 -0.3074  1.8325
  507SOL    HW211410   7.813   1.576   0.685  0.9152 -0.6880 -1.6646
  508SOL     OW11411   0.486   3.282   0.322 -0.2785  0.5927 -0.3741
  508SOL    HW111412   0.570   3.257   0.371 -0.1166 -0.4372 -1.1736
  508SOL    HW211413   0.507   3.299   0.226 -0.7887  1.5290 -0.3287
  509SOL     OW11414   1.911   6.454   1.011 -0.5003 -0.3914 -0.8160
  509SOL    HW111415   1.818   6.452   1.047 -0.4431 -1.0461 -0.6993
  509SOL    HW211416   1.908   6.451   0.911 -0.6143 -0.0060 -0.8257
  510SOL     OW11417   0.443   4.913   1.948  0.3095 -0.0186  0.1670
  510SOL    HW111418   0.434   5.006   1.912  0.8298 -1.0480 -2.7306
  510SOL    HW211419   0.361   4.861   1.926  0.2445 -0.4277  1.3309
  511SOL     OW11420   0.597   0.501   1.503 -0.1076 -0.3518  0.6574
  511SOL    HW111421   0.512   0.459   1.535 -1.3810 -0.5360 -2.7403
  511SOL    HW211422   0.613   0.586   1.553 -1.7020 -0.8684  2.0869
  513SOL     OW11423   9.166   9.424   1.103  0.1509  0.7790  0.1155
  513SOL    HW111424   9.066   9.423   1.109  0.2314  1.2169  1.8059
  513SOL    HW211425   9.197   9.518   1.086  0.1725  0.2594 -2.9921
  514SOL     OW11426   0.075   5.559   1.245  0.8434 -0.7375  0.3851
  514SOL    HW111427   0.088   5.658   1.233  0.8052 -0.7886 -0.0755
  514SOL    HW211428  -0.014   5.542   1.287  0.6938 -0.5979  0.1259
  515SOL     OW11429   2.342   6.935   1.706 -0.2685  0.4734  0.1682
  515SOL    HW111430   2.285   6.918   1.625 -1.2016  1.0708  0.6818
  515SOL    HW211431   2.283   6.942   1.787  0.6423  0.0760  0.8649
  516SOL     OW11432   3.927   5.993   0.287  0.1819 -0.1860  0.4671
  516SOL    HW111433   3.957   6.087   0.302 -1.7692  0.3592  1.1605
  516SOL    HW211434   3.997   5.942   0.238  1.3019  1.6073  0.1943
  518SOL     OW11435   9.296   3.394   0.246  0.0006  0.3640  0.3179
  518SOL    HW111436   9.302   3.409   0.345 -0.1404 -1.4939  0.6446
  518SOL    HW211437   9.206   3.355   0.224  2.0188 -4.8084  0.3502
  519SOL     OW11438   0.775   5.100   2.097  0.2648  0.4485  0.3739
  519SOL    HW111439   0.741   5.174   2.038  2.7639  2.3590  1.1977
  519SOL    HW211440   0.866   5.073   2.067  0.7872  0.1183  2.1557
  521SOL     OW11441   0.539   3.305   1.701  0.0355  0.3742 -0.3506
  521SOL    HW111442   0.553   3.289   1.603  0.7413 -3.0530  0.2526
  521SOL    HW211443   0.447   3.342   1.716 -0.6922 -0.6386 -2.1634
  522SOL     OW11444   8.106   7.643   1.366  0.0056 -0.2491 -0.1197
  522SOL    HW111445   8.065   7.616   1.454 -0.7760 -1.1864 -0.7575
  522SOL    HW211446   8.047   7.612   1.291  1.3254 -0.6163 -1.0299
  523SOL     OW11447   0.692   5.842   0.516 -0.4966 -0.6054 -0.1777
  523SOL    HW111448   0.611   5.841   0.457 -0.5222 -0.5762 -0.1425
  523SOL    HW211449   0.759   5.776   0.481 -0.0304  0.2518 -0.9209
  524SOL     OW11450   3.431   2.126   0.793 -0.5538  0.1949 -0.0082
  524SOL    HW111451   3.375   2.194   0.745 -1.4286 -0.4941  0.0126
  524SOL    HW211452   3.373   2.049   0.820  0.1070  0.1757  1.3899
  525SOL     OW11453   7.914   1.105   0.697  0.0695 -0.4388 -0.4601
  525SOL    HW111454   8.001   1.089   0.650  0.4666 -2.0963  0.8306
  525SOL    HW211455   7.923   1.184   0.758  0.9191 -1.0990  0.2807
  526SOL     OW11456   7.859   9.697   0.320  0.1108 -0.5259  0.3028
  526SOL    HW111457   7.901   9.682   0.231  0.3009 -0.1495  0.3319
  526SOL    HW211458   7.841   9.794   0.333  1.0011 -0.4631  1.0935
  527SOL     OW11459   2.238   8.599   1.636 -0.3714 -0.4913 -0.9912
  527SOL    HW111460   2.151   8.562   1.602 -0.9740 -0.5402  0.5481
  527SOL    HW211461   2.221   8.655   1.717  1.0933 -0.9974 -0.3014
  528SOL     OW11462   1.317   7.049   0.947  0.4661 -0.1571  0.6142
  528SOL    HW111463   1.356   6.977   0.889 -0.3644 -0.5980  0.5911
  528SOL    HW211464   1.388   7.116   0.970  0.3937  1.0618 -2.4618
  531SOL     OW11465   2.442   5.231   1.834  0.4282 -0.1531  0.1780
  531SOL    HW111466   2.508   5.278   1.775 -0.7100 -0.3878 -1.3016
  531SOL    HW211467   2.445   5.133   1.816 -1.0506 -0.0587 -0.6420
  532SOL     OW11468   1.020   3.794   0.851 -0.3194 -0.6479 -0.4334
  532SOL    HW111469   0.927   3.766   0.832 -0.6931  0.9583 -1.1060
  532SOL    HW211470   1.039   3.881   0.805  0.8812  0.0258  1.2638
  533SOL     OW11471   8.812   2.065   1.728 -0.3631 -0.0901 -0.0560
  533SOL    HW111472   8.775   2.010   1.654 -2.7752  0.5729  0.6322
  533SOL    HW211473   8.765   2.043   1.813 -0.9684  2.5957  0.3398
  535SOL     OW11474   7.968   1.126   1.729  0.0213  0.8436 -0.2409
  535SOL    HW111475   7.996   1.216   1.762  0.5281  0.3859  0.5911
  535SOL    HW211476   7.920   1.077   1.801 -2.6039  1.4499 -1.5180
  536SOL     OW11477   0.829   0.358   1.626 -0.6152 -0.4998  0.5615
  536SOL    HW111478   0.754   0.380   1.563  0.0170  1.7533  0.5453
  536SOL    HW211479   0.797   0.367   1.720 -0.6619 -0.6451  0.5601
  538SOL     OW11480   8.983   8.693   2.068  0.2194 -0.0485  0.0391
  538SOL    HW111481   8.907   8.642   2.027  0.4878 -0.2377 -0.2261
  538SOL    HW211482   9.030   8.635   2.134 -0.3077  0.3086  0.7368
  540SOL     OW11483   4.332   2.294   1.300  0.2183 -0.1311  0.1818
  540SOL    HW111484   4.319   2.222   1.368 -0.8290 -0.1024  0.0310
  540SOL    HW211485   4.385   2.258   1.223  0.0431 -0.6292  0.2931
  541SOL     OW11486   8.672   2.868   0.341 -0.5153  0.1965 -0.5106
  541SOL    HW111487   8.577   2.888   0.319 -1.3508  1.1484  3.5525
  541SOL    HW211488   8.676   2.790   0.403  1.2869  0.6457 -0.0402
  543SOL     OW11489   9.651   3.338   0.872 -0.1357  0.4601 -0.2529
  543SOL    HW111490   9.589   3.264   0.847 -2.7247  2.0561  1.1572
  543SOL    HW211491   9.629   3.420   0.818  2.7374  0.2393 -1.8608
  544SOL     OW11492   0.356   5.206   1.071  0.0868  0.7347 -0.3733
  544SOL    HW111493   0.437   5.230   1.017  0.1017  1.3677 -0.0720
  544SOL    HW211494   0.287   5.278   1.060 -0.4713  0.1503 -0.7097
  548SOL     OW11495   8.152   9.209   2.012 -0.2944  0.1847  0.2713
  548SOL    HW111496   8.220   9.195   1.940  0.5166  0.1601  1.0287
  548SOL    HW211497   8.187   9.275   2.079 -1.2853  0.6587  0.3275
  550SOL     OW11498   2.377   7.836   1.678 -0.3838 -0.1483 -0.4824
  550SOL    HW111499   2.445   7.771   1.643 -1.3943 -0.6656 -1.5217
  550SOL    HW211500   2.376   7.833   1.778  2.7198  1.5231 -0.3253
  551SOL     OW11501   1.677   2.017   1.120  0.3547  0.8278  0.1172
  551SOL    HW111502   1.653   2.048   1.028  2.5556 -0.9780 -1.1284
  551SOL    HW211503   1.616   1.943   1.147  0.8588  0.1201 -0.6622
  552SOL     OW11504   2.014   8.569   1.476  0.0189 -0.1053 -0.0400
  552SOL    HW111505   1.971   8.631   1.542  0.4601 -0.1864  0.3279
  552SOL    HW211506   1.943   8.513   1.433 -0.3236  0.2828  0.0146
  553SOL     OW11507   0.933   2.923   0.562  0.1754  0.3733 -0.1665
  553SOL    HW111508   0.845   2.889   0.528  0.6260 -0.4732 -0.5040
  553SOL    HW211509   0.989   2.845   0.592  0.3335  1.0042  1.1921
  554SOL     OW11510   1.200   1.460   1.756 -0.0909 -0.3694  0.0435
  554SOL    HW111511   1.209   1.415   1.667 -0.7432 -0.0003 -0.2160
  554SOL    HW211512   1.135   1.537   1.748 -0.6038 -0.6978  0.9681
  557SOL     OW11513   3.953   3.299   2.054 -0.7336 -0.3357  0.0324
  557SOL    HW111514   4.020   3.302   1.980 -0.5015  1.4324  0.2910
  557SOL    HW211515   3.988   3.244   2.129 -0.0625 -0.3722 -0.3076
  558SOL     OW11516   8.632   2.255   1.905  0.5969 -0.4615  0.0607
  558SOL    HW111517   8.708   2.304   1.861  1.0431 -0.3430  0.9557
  558SOL    HW211518   8.560   2.239   1.838 -0.4963  3.2950  0.2541
  559SOL     OW11519   4.639   2.554   1.438 -0.3464  0.4599  0.3815
  559SOL    HW111520   4.542   2.528   1.440 -0.1877 -0.1780 -0.0636
  559SOL    HW211521   4.694   2.485   1.485 -0.1402  0.9695  0.8886
  560SOL     OW11522   2.673   0.500   2.284 -0.1878  0.4312 -0.2804
  560SOL    HW111523   2.613   0.439   2.232 -0.1802 -0.2815  0.5302
  560SOL    HW211524   2.716   0.449   2.358  1.6269  0.8719 -1.0055
  561SOL     OW11525   3.457   9.276   2.161 -0.4633 -0.2312 -0.1506
  561SOL    HW111526   3.520   9.233   2.096 -0.6204 -0.0655 -0.4105
  561SOL    HW211527   3.403   9.347   2.115 -0.0666  0.3845  0.3245
  562SOL     OW11528   0.860   8.935   0.045 -0.4050  0.6317  0.1844
  562SOL    HW111529   0.895   9.000   0.113  0.5084 -0.2115  0.5252
  562SOL    HW211530   0.843   8.847   0.089 -0.1488  0.1843 -0.6020
  563SOL     OW11531   0.455   8.798   0.113  0.1755  0.0037 -0.4598
  563SOL    HW111532   0.398   8.783   0.193 -0.1715 -1.8245 -1.0271
  563SOL    HW211533   0.499   8.888   0.119  1.3149 -0.7115  2.4794
  565SOL     OW11534   8.094   9.288   0.889  0.1878  0.2553 -0.2238
  565SOL    HW111535   8.016   9.330   0.841  0.0568 -1.1920 -1.3510
  565SOL    HW211536   8.159   9.254   0.821  0.6260 -0.6956  0.6727
  566SOL     OW11537   4.286   1.465   2.225 -0.5628 -0.1154  0.1121
  566SOL    HW111538   4.280   1.380   2.172 -1.1020 -0.3178  0.5017
  566SOL    HW211539   4.196   1.507   2.232 -0.0551  1.2851 -1.3731
  567SOL     OW11540   3.008   4.713   1.078 -0.0972  0.5263  0.0655
  567SOL    HW111541   2.919   4.679   1.047 -0.3643  1.3516 -0.0872
  567SOL    HW211542   2.999   4.753   1.169  0.1912  0.2743  0.2040
  568SOL     OW11543   2.995   0.298   1.990 -0.1242 -0.1391  0.0225
  568SOL    HW111544   3.081   0.293   2.042  0.3470 -2.4880 -0.9051
  568SOL    HW211545   2.919   0.270   2.048 -0.1259  0.8606  0.5170
  569SOL     OW11546   1.187   9.143   0.763 -0.4883  0.2163 -0.7442
  569SOL    HW111547   1.282   9.116   0.781 -0.9793 -0.4556  0.9769
  569SOL    HW211548   1.186   9.220   0.700  1.2802  1.4299  0.6444
  570SOL     OW11549   1.017   4.925   2.066 -0.5658  0.1566  0.4985
  570SOL    HW111550   0.962   4.879   2.136 -0.3951  0.6459  0.9546
  570SOL    HW211551   1.092   4.975   2.110  0.1603 -0.3781 -0.1019
  571SOL     OW11552   8.844   4.083   1.661  0.0588  0.4157  0.2772
  571SOL    HW111553   8.826   4.169   1.709 -0.0839  1.0202 -0.8392
  571SOL    HW211554   8.942   4.069   1.655  0.0709 -0.0049  1.3337
  573SOL     OW11555   1.655   5.227   1.919  0.5405  0.1142 -0.0412
  573SOL    HW111556   1.579   5.178   1.876  2.1838 -1.3164 -1.3321
  573SOL    HW211557   1.710   5.164   1.973  2.1035  0.6976 -0.9129
  576SOL     OW11558   9.651   2.586   0.407 -0.3053 -0.0515 -0.1320
  576SOL    HW111559   9.719   2.523   0.370 -0.9154 -0.8546  0.0995
  576SOL    HW211560   9.684   2.680   0.399  2.0270 -0.6061  2.5389
  577SOL     OW11561   9.512   0.353   0.678  0.3378  0.0836  0.4180
  577SOL    HW111562   9.477   0.327   0.768 -0.9465 -0.1213 -0.1287
  577SOL    HW211563   9.535   0.271   0.626  1.4709  0.2117  0.6965
  578SOL     OW11564   0.900   1.912   0.043 -0.9233  0.4422  0.0873
  578SOL    HW111565   0.865   1.994   0.089  2.6131  2.0585  0.0715
  578SOL    HW211566   0.911   1.838   0.109 -0.5920  1.1728  0.8584
  579SOL     OW11567   9.479   4.130   0.452 -0.3343  0.1530 -0.2258
  579SOL    HW111568   9.408   4.102   0.388 -0.9632 -0.8598  0.8927
  579SOL    HW211569   9.439   4.186   0.525 -0.2294 -1.4212  1.0770
  580SOL     OW11570   0.583   1.974   0.063 -0.0683 -0.3589  0.1461
  580SOL    HW111571   0.616   2.023   0.144  0.1576  2.0366 -1.3267
  580SOL    HW211572   0.654   1.911   0.031 -0.3245 -1.6467  2.0241
  581SOL     OW11573   0.693   8.420   0.302  0.4477  0.0632  0.0192
  581SOL    HW111574   0.680   8.455   0.394  1.0914  0.9866 -0.2275
  581SOL    HW211575   0.620   8.453   0.242  0.5963  0.3035 -0.0293
  583SOL     OW11576   4.850   4.230   1.382 -0.0749  0.1085  0.0897
  583SOL    HW111577   4.891   4.147   1.419  0.7219  0.1139 -0.7625
  583SOL    HW211578   4.761   4.208   1.342 -0.6540 -0.0116  1.4273
  585SOL     OW11579   8.769   0.707   1.650  0.4435  0.7197  0.5339
  585SOL    HW111580   8.701   0.692   1.579  3.1928  0.2706 -2.1255
  585SOL    HW211581   8.775   0.626   1.709  0.1657 -0.0761 -0.5299
  586SOL     OW11582   5.065   3.550   1.702  0.5961  0.0042  0.4311
  586SOL    HW111583   5.041   3.644   1.727 -0.2152 -0.3256  0.9169
  586SOL    HW211584   5.150   3.550   1.650 -0.0746  1.1450 -0.7156
  587SOL     OW11585   1.274   2.804   0.618  0.8235 -0.6200  0.3657
  587SOL    HW111586   1.272   2.760   0.528 -0.3924 -0.5513  0.3495
  587SOL    HW211587   1.223   2.748   0.683 -0.1962  0.4408  0.4922
  588SOL     OW11588   3.184   2.895   2.087  0.0182 -0.9394 -0.3862
  588SOL    HW111589   3.276   2.859   2.105 -0.6367 -1.2845  2.5287
  588SOL    HW211590   3.191   2.982   2.039  1.8760 -0.7107  0.2558
  589SOL     OW11591   0.418   7.167   0.857  0.2672  0.3283 -0.4690
  589SOL    HW111592   0.422   7.070   0.835  2.5014  0.3792 -0.4035
  589SOL    HW211593   0.421   7.221   0.772  1.3656  0.3772 -0.4042
  590SOL     OW11594   8.204   2.602   1.971  0.2178  0.8685 -0.0871
  590SOL    HW111595   8.171   2.527   1.913  0.0044  0.1837  0.9090
  590SOL    HW211596   8.126   2.652   2.009  0.3363  0.4807  0.6784
  591SOL     OW11597   4.632   3.641   0.675  0.2828 -0.5168 -0.4383
  591SOL    HW111598   4.661   3.662   0.769  0.2885 -1.2355 -0.2756
  591SOL    HW211599   4.604   3.725   0.629  1.2772 -0.0016 -0.1319
  593SOL     OW11600   8.442   0.838   0.518 -0.3248 -0.5687  0.1822
  593SOL    HW111601   8.497   0.843   0.435 -0.4956  0.9304  0.1567
  593SOL    HW211602   8.345   0.847   0.494 -0.4156 -0.6963  0.4957
  595SOL     OW11603   9.976   2.796   0.835  0.0903  0.9636 -0.4260
  595SOL    HW111604   9.918   2.718   0.811  0.0096  1.4253 -1.8143
  595SOL    HW211605  10.006   2.842   0.751  0.0828  2.4694  0.3757
  596SOL     OW11606   8.829   2.301   1.144  0.2051  0.0890 -0.1371
  596SOL    HW111607   8.925   2.295   1.171  0.1488  1.0888  0.3434
  596SOL    HW211608   8.799   2.397   1.151 -0.8927 -0.2568 -0.0360
  597SOL     OW11609   9.313   3.166   2.001 -0.0625 -0.5587  0.7313
  597SOL    HW111610   9.234   3.227   2.001 -1.5857 -2.4904  1.1996
  597SOL    HW211611   9.298   3.092   1.935  2.3551  0.2997 -0.8378
  599SOL     OW11612   0.468   0.302   1.070  0.2774  0.2459  0.2962
  599SOL    HW111613   0.507   0.213   1.095 -1.1932 -0.3064  0.6916
  599SOL    HW211614   0.497   0.370   1.137  3.1291  0.5548 -1.1551
  600SOL     OW11615   3.866   3.894   1.366 -0.3100 -0.0565  0.1371
  600SOL    HW111616   3.784   3.951   1.361 -0.5338 -0.3402  0.6023
  600SOL    HW211617   3.839   3.798   1.374  0.0598  0.0244  2.6468
  601SOL     OW11618   4.052   8.829   1.708 -0.1748 -0.2850  0.0207
  601SOL    HW111619   4.007   8.914   1.732  0.9738  0.1105  0.8014
  601SOL    HW211620   4.150   8.844   1.699 -0.1369 -1.2124 -1.3065
  602SOL     OW11621   9.039   9.534   0.546 -0.5073 -0.6597 -0.0662
  602SOL    HW111622   8.982   9.495   0.619 -0.2018  0.5378  0.8298
  602SOL    HW211623   9.033   9.476   0.465 -0.8841 -2.0021  0.8939
  603SOL     OW11624   0.228   3.465   0.115 -0.4509 -0.2831 -0.4881
  603SOL    HW111625   0.145   3.432   0.069 -1.9230  1.2435  1.0065
  603SOL    HW211626   0.267   3.541   0.062 -0.9171  0.0530 -0.3526
  604SOL     OW11627   9.494   4.465   2.189  0.4436  0.5475  0.1631
  604SOL    HW111628   9.446   4.391   2.236  2.3329 -0.9805 -0.2303
  604SOL    HW211629   9.560   4.507   2.251  0.4597  0.8918 -0.0818
  605SOL     OW11630   1.850   4.039   1.399  0.2928 -0.6604  0.0012
  605SOL    HW111631   1.888   3.968   1.459 -3.0224 -1.5603  1.1038
  605SOL    HW211632   1.782   3.999   1.338 -0.1799  1.2125 -0.7356
  606SOL     OW11633   3.599   5.439   1.144  0.2305  0.1593 -0.1947
  606SOL    HW111634   3.503   5.413   1.150  0.2571 -0.2010 -1.2777
  606SOL    HW211635   3.632   5.465   1.235 -0.6394 -0.5884  0.3428
  607SOL     OW11636   0.770   6.650   0.338 -0.3401 -0.3779 -0.0835
  607SOL    HW111637   0.822   6.599   0.406 -2.0429 -0.5692  1.0963
  607SOL    HW211638   0.820   6.734   0.314  0.9614 -1.0339  0.3010
  608SOL     OW11639   0.637   6.777   1.655 -0.2464 -0.3339  0.0461
  608SOL    HW111640   0.584   6.861   1.663 -0.2463 -0.5169  2.2805
  608SOL    HW211641   0.722   6.795   1.607 -0.2660  0.9389  0.4838
  609SOL     OW11642   9.064   6.367   1.386 -0.1847  0.0456  1.0375
  609SOL    HW111643   9.107   6.302   1.324 -0.1255  1.5091 -0.4851
  609SOL    HW211644   8.966   6.347   1.393 -0.2556  0.1004  0.1974
  610SOL     OW11645   1.760   2.742   2.162 -0.3002  0.2083  0.1026
  610SOL    HW111646   1.674   2.692   2.168 -1.9248  2.8398 -0.5334
  610SOL    HW211647   1.806   2.739   2.251 -0.9924 -1.2935  0.4238
  611SOL     OW11648   9.697   2.703   1.245 -0.3059  0.5307  0.1244
  611SOL    HW111649   9.659   2.791   1.273  0.0126  0.9248 -0.6626
  611SOL    HW211650   9.775   2.718   1.184 -0.3459 -0.2977 -0.1441
  612SOL     OW11651   3.701   9.190   0.834  0.6814 -0.5543 -0.0929
  612SOL    HW111652   3.798   9.201   0.853  0.0471  0.6350  2.6627
  612SOL    HW211653   3.679   9.093   0.826  1.2141 -1.1704  4.5976
  614SOL     OW11654   2.729   0.648   1.665 -0.2932 -0.1246 -0.3623
  614SOL    HW111655   2.812   0.675   1.615  0.6957 -1.8745  0.2985
  614SOL    HW211656   2.747   0.654   1.763 -0.5570 -1.6548 -0.2154
  615SOL     OW11657   9.907   1.157   0.426 -0.0605  0.5471  0.2881
  615SOL    HW111658   9.924   1.234   0.364 -2.1214  0.6454 -0.1889
  615SOL    HW211659   9.876   1.078   0.372 -0.3251  0.1447  1.0300
  616SOL     OW11660   8.710   7.039   1.314  0.2373  0.2010  0.1171
  616SOL    HW111661   8.675   7.087   1.233  2.9714  0.8831 -0.7351
  616SOL    HW211662   8.799   7.000   1.292 -0.1501 -1.8361  2.0564
  617SOL     OW11663   3.921   3.026   1.453 -0.5413 -0.0357 -0.0131
  617SOL    HW111664   3.909   3.047   1.356 -2.3439  0.5743  0.3311
  617SOL    HW211665   3.872   3.094   1.508 -0.7768 -1.2520  1.2860
  618SOL     OW11666   2.578   3.515   1.739  0.1376  0.2970 -0.8320
  618SOL    HW111667   2.664   3.547   1.698  0.8223 -1.1017 -0.5024
  618SOL    HW211668   2.506   3.520   1.670  1.1527 -1.4300 -2.0722
  619SOL     OW11669   2.947   1.585   0.732  0.0207  0.1101  0.5234
  619SOL    HW111670   3.000   1.664   0.703 -2.6927  1.4510 -0.9981
  619SOL    HW211671   2.949   1.515   0.661 -1.0588  0.5980 -0.0043
  620SOL     OW11672   3.627   4.289   1.329  0.2334 -0.4943  0.1061
  620SOL    HW111673   3.549   4.228   1.341  0.4340 -1.0849 -1.5173
  620SOL    HW211674   3.690   4.250   1.262  1.2681  0.6210  0.4121
  621SOL     OW11675   2.472   3.090   1.910 -0.2689  0.1855 -0.6959
  621SOL    HW111676   2.521   3.165   1.864 -1.8319  1.5893 -0.1448
  621SOL    HW211677   2.392   3.066   1.855 -0.3044 -0.4280 -0.3713
  622SOL     OW11678   3.653   2.130   0.027  0.4059 -0.0284 -1.1026
  622SOL    HW111679   3.574   2.175  -0.014  0.4380  0.4555 -0.6358
  622SOL    HW211680   3.686   2.058  -0.035 -0.6433 -0.5115 -1.1084
  623SOL     OW11681   9.015   0.355   1.977  0.8420 -0.1510 -0.1028
  623SOL    HW111682   8.999   0.310   2.065  0.1328  1.8530  0.8258
  623SOL    HW211683   8.951   0.430   1.966  1.1796 -0.1461 -2.1901
  624SOL     OW11684   7.932   8.251   1.155 -0.2607  0.0993 -0.1745
  624SOL    HW111685   7.926   8.152   1.167 -0.1676  0.1792  0.5557
  624SOL    HW211686   7.982   8.291   1.232 -0.6825  0.7649 -0.2412
  625SOL     OW11687   3.163   2.690   1.299  0.4026  0.0956 -0.3118
  625SOL    HW111688   3.251   2.646   1.315  1.1881  2.3900  2.0413
  625SOL    HW211689   3.178   2.781   1.262 -1.0122  0.3319 -0.3137
  626SOL     OW11690   0.828   6.244   1.306 -0.4929 -0.1938  0.1888
  626SOL    HW111691   0.912   6.204   1.270 -1.1929  0.0387 -1.8041
  626SOL    HW211692   0.750   6.212   1.251 -1.7274 -0.4566  2.0295
  627SOL     OW11693   4.465   3.654   0.995  0.4397 -0.2931  0.3227
  627SOL    HW111694   4.461   3.753   1.001 -1.0527 -0.3586  0.5294
  627SOL    HW211695   4.555   3.626   0.960  0.4354  1.1761 -0.9123
  628SOL     OW11696   0.085   7.680   1.982  0.0011  0.3513 -0.1976
  628SOL    HW111697   0.166   7.624   1.961  1.1173  1.7722  0.2894
  628SOL    HW211698   0.055   7.661   2.075  1.0638  1.3605  0.3691
  629SOL     OW11699   1.860   9.868   0.080  0.3190 -0.2779 -0.2123
  629SOL    HW111700   1.906   9.931   0.018 -3.2411  3.2629  0.5258
  629SOL    HW211701   1.783   9.824   0.033  0.1913 -0.7834  0.4625
  630SOL     OW11702   2.633   3.084   0.063 -0.2870 -0.0117  0.9686
  630SOL    HW111703   2.641   3.181   0.039 -2.1070  0.1176  0.7859
  630SOL    HW211704   2.677   3.068   0.151 -1.8508  1.4417  2.0451
  631SOL     OW11705   2.971   5.058   0.127  0.0759 -0.0907 -0.3360
  631SOL    HW111706   3.000   5.031   0.035  0.7063  0.0837 -0.1874
  631SOL    HW211707   2.874   5.037   0.138  0.2216 -0.9854 -0.7123
  632SOL     OW11708   8.732   7.938   0.917 -0.3391  0.0288  0.4434
  632SOL    HW111709   8.708   7.884   0.836 -0.7241 -1.0651  1.2786
  632SOL    HW211710   8.649   7.980   0.954 -0.1536  0.5746  0.2391
  633SOL     OW11711   3.027   1.994   0.248  0.1334 -0.2631 -0.5781
  633SOL    HW111712   3.101   2.042   0.297  0.2093 -0.4358 -0.5246
  633SOL    HW211713   3.011   1.905   0.290 -1.8700  0.8158  1.0236
  634SOL     OW11714   9.275   5.574   2.114  0.2974  0.1143  0.0187
  634SOL    HW111715   9.335   5.651   2.091  0.4525  0.6476  2.1010
  634SOL    HW211716   9.320   5.488   2.090 -0.1369  0.6764 -2.9019
  635SOL     OW11717   9.435   7.562   1.116  0.2675  0.8106 -0.6325
  635SOL    HW111718   9.474   7.606   1.197  2.3383  0.8941 -1.6590
  635SOL    HW211719   9.461   7.613   1.034  0.6764 -0.9425 -1.6222
  636SOL     OW11720   2.947   6.718   1.614 -0.2453 -0.1124  0.2538
  636SOL    HW111721   2.871   6.784   1.612 -0.5491 -0.3178  2.7164
  636SOL    HW211722   2.929   6.644   1.550 -0.7439  1.3005 -1.2654
  637SOL     OW11723   0.883   7.676   0.541  0.0432 -0.8960  0.1202
  637SOL    HW111724   0.829   7.714   0.616  0.4602 -0.2996  0.1199
  637SOL    HW211725   0.928   7.750   0.491  0.2225 -1.3310 -0.3711
  640SOL     OW11726   7.280   9.768   1.528  0.0000  0.4095 -0.2617
  640SOL    HW111727   7.208   9.708   1.563 -0.0103  0.9784  0.6982
  640SOL    HW211728   7.327   9.812   1.604  2.1249 -0.8257 -0.7940
  641SOL     OW11729   3.794   4.284   1.582 -0.0549 -0.2507  0.6149
  641SOL    HW111730   3.745   4.271   1.668 -1.3787  1.3845  0.1148
  641SOL    HW211731   3.731   4.272   1.505  0.3882  1.4814 -0.0423
  642SOL     OW11732   8.596   4.248   1.047  0.3578  0.2307 -0.2265
  642SOL    HW111733   8.642   4.323   1.094 -0.8689  0.1457  1.1439
  642SOL    HW211734   8.575   4.175   1.112  1.2273 -1.1635 -1.4813
  643SOL     OW11735   0.997   3.579   1.351  0.0168  0.1133  0.3583
  643SOL    HW111736   0.995   3.647   1.425  0.5280 -0.2074  0.6702
  643SOL    HW211737   0.951   3.616   1.270  0.4440  0.9086  0.4713
  644SOL     OW11738   1.808   9.031   1.550  0.6457 -0.0528 -0.1127
  644SOL    HW111739   1.788   9.096   1.623 -0.6733 -1.6379  0.9773
  644SOL    HW211740   1.748   9.049   1.472  0.2533  0.0008  0.2030
  646SOL     OW11741   0.252   0.203   0.857 -0.2861 -0.3863  0.0969
  646SOL    HW111742   0.302   0.220   0.941  0.7184 -2.1632 -0.1009
  646SOL    HW211743   0.307   0.232   0.779 -0.8429  0.4465  0.0116
  648SOL     OW11744   9.788   0.933   0.094  0.3079 -0.0638  0.0374
  648SOL    HW111745   9.741   0.962   0.178  0.8960  0.0415  0.3345
  648SOL    HW211746   9.879   0.899   0.117  0.7063  0.5330 -0.6212
  649SOL     OW11747   2.800   9.659   0.685  0.0538  0.5249  0.4627
  649SOL    HW111748   2.783   9.739   0.742 -1.9566  0.9252 -0.6743
  649SOL    HW211749   2.730   9.590   0.704 -0.3261  0.4624 -1.1527
  650SOL     OW11750   2.464   5.089   0.690 -0.0220 -0.0262  0.0644
  650SOL    HW111751   2.378   5.083   0.740 -0.1809 -0.4375 -0.2568
  650SOL    HW211752   2.477   5.006   0.636  0.0313  0.5210 -0.7693
  651SOL     OW11753   0.760   9.942   2.176 -0.2150 -0.1083  0.4925
  651SOL    HW111754   0.663   9.921   2.187 -0.2518 -0.9054 -1.1352
  651SOL    HW211755   0.772  10.000   2.095  0.6966 -0.2458  0.5210
  652SOL     OW11756   0.440   3.573   2.153 -0.1072  0.0525 -0.2160
  652SOL    HW111757   0.346   3.605   2.158 -0.1528 -0.2087  0.6202
  652SOL    HW211758   0.443   3.480   2.119 -0.1078  0.2670 -0.8063
  653SOL     OW11759   0.279   5.308   0.164  0.2131 -0.0494 -0.6869
  653SOL    HW111760   0.374   5.278   0.161  0.4503  0.6323 -0.2119
  653SOL    HW211761   0.221   5.235   0.199  0.7316 -0.0712  0.1293
  654SOL     OW11762   9.126   8.357   1.906  0.4794  0.6530 -0.2317
  654SOL    HW111763   9.199   8.345   1.973  2.4100 -0.5234 -2.4664
  654SOL    HW211764   9.166   8.379   1.816 -1.7649 -1.7712 -1.8948
  655SOL     OW11765   0.955   7.940   0.913  0.1517  0.3706 -0.7209
  655SOL    HW111766   0.862   7.969   0.890 -0.3121  0.8231  1.6664
  655SOL    HW211767   0.993   8.000   0.983  1.6694 -0.7723 -0.5279
  656SOL     OW11768   1.790   5.114   0.848 -0.4990  0.0395 -0.0498
  656SOL    HW111769   1.702   5.157   0.867 -0.6689 -0.7058  0.8966
  656SOL    HW211770   1.797   5.094   0.750  0.5414  4.3128 -0.9392
  657SOL     OW11771   8.479   8.665   2.036  0.3304  0.0006 -0.5561
  657SOL    HW111772   8.488   8.612   2.120  2.3762  1.0496 -0.1054
  657SOL    HW211773   8.423   8.746   2.052 -2.5458 -1.7937 -1.1710
  659SOL     OW11774   9.044   6.683   0.264  0.3356  0.7140  0.3112
  659SOL    HW111775   9.077   6.598   0.305  0.7405  0.3733 -0.6979
  659SOL    HW211776   9.097   6.760   0.301  0.3756  0.4644  0.7802
  660SOL     OW11777   0.441   7.316   0.335 -0.4881  0.0327 -0.2298
  660SOL    HW111778   0.363   7.360   0.289  1.5961  2.2284 -1.7713
  660SOL    HW211779   0.480   7.247   0.274 -0.5644 -0.3375  0.1361
  661SOL     OW11780   2.639   1.157   1.828 -0.2793  0.2905  0.0836
  661SOL    HW111781   2.596   1.168   1.738 -1.9773 -0.4601  0.7672
  661SOL    HW211782   2.696   1.074   1.827 -3.0863 -1.7259  0.6843
  662SOL     OW11783   8.830   6.803   1.945 -0.2458  0.7510  0.4096
  662SOL    HW111784   8.842   6.720   1.999 -2.1824 -0.6196 -1.1743
  662SOL    HW211785   8.917   6.830   1.905  0.3916 -0.5709  0.8819
  663SOL     OW11786   0.417   8.663   1.607  0.1650 -0.2256  0.0741
  663SOL    HW111787   0.461   8.577   1.584  1.5844  0.7684 -1.0094
  663SOL    HW211788   0.485   8.737   1.605 -1.2864  1.1224 -0.3028
  664SOL     OW11789   8.279   7.990   1.013 -0.2832 -0.5880 -0.1004
  664SOL    HW111790   8.200   8.000   1.074  0.0551  1.0121  0.1003
  664SOL    HW211791   8.326   7.903   1.032 -1.8158 -1.4195 -0.0375
  665SOL     OW11792   9.896   6.534   1.321  0.5345  0.3348 -0.2542
  665SOL    HW111793   9.843   6.454   1.350  0.9197 -0.0577 -0.6208
  665SOL    HW211794   9.867   6.614   1.374 -0.5976  0.1769 -0.6261
  666SOL     OW11795   4.530   2.875   0.790  0.3561 -0.0942  0.6702
  666SOL    HW111796   4.575   2.901   0.705  2.4710 -1.8773  1.1748
  666SOL    HW211797   4.588   2.900   0.867 -0.1020 -1.2619  1.4154
  667SOL     OW11798   1.797   9.303   0.450 -0.2786 -0.1080 -0.1217
  667SOL    HW111799   1.790   9.219   0.505 -1.2448 -0.2134 -0.3938
  667SOL    HW211800   1.726   9.367   0.479  0.9019  0.9036  0.5626
  668SOL     OW11801   2.042   6.690   0.826  0.1087  0.9103  0.1723
  668SOL    HW111802   2.045   6.709   0.924 -1.7632 -0.3316  0.4917
  668SOL    HW211803   1.963   6.631   0.806  1.3987 -0.1691 -1.8462
  670SOL     OW11804   9.126   2.074   0.062  0.4577  0.4524  0.1220
  670SOL    HW111805   9.167   1.982   0.058 -0.7702 -0.1413  0.7952
  670SOL    HW211806   9.152   2.118   0.148 -1.0668 -0.3022  0.9884
  671SOL     OW11807   4.402   9.801   2.051 -0.5517 -0.1128 -0.0130
  671SOL    HW111808   4.339   9.725   2.038 -0.3897 -0.2088 -0.2414
  671SOL    HW211809   4.432   9.803   2.146  1.0630 -1.6191 -0.4482
  672SOL     OW11810   3.349   9.857   0.130  0.5893  0.0533  0.2894
  672SOL    HW111811   3.285   9.782   0.116  1.3259 -0.2055 -1.8073
  672SOL    HW211812   3.303   9.931   0.181 -0.2709 -1.5746  1.9413
  673SOL     OW11813   2.376   5.376   0.844  0.5768  0.2551 -0.2674
  673SOL    HW111814   2.338   5.419   0.761 -0.5241 -0.7026 -0.2710
  673SOL    HW211815   2.475   5.365   0.833  0.6884  1.5789 -0.8049
  674SOL     OW11816   1.595   5.821   0.778  0.4573  0.4636  0.0091
  674SOL    HW111817   1.551   5.910   0.782  1.1014  0.7958 -0.2107
  674SOL    HW211818   1.692   5.830   0.802  0.4598 -0.2186  0.2632
  675SOL     OW11819   3.435   8.343   0.198 -0.4116  1.0090 -0.3636
  675SOL    HW111820   3.494   8.416   0.234  0.4937 -0.2453  0.7586
  675SOL    HW211821   3.378   8.380   0.125 -0.2832  2.9547  0.4674
  677SOL     OW11822   8.828   6.218   1.409  0.4701  0.3066 -0.0540
  677SOL    HW111823   8.768   6.156   1.460 -0.8017  0.8356 -0.8659
  677SOL    HW211824   8.772   6.285   1.360  1.7680  1.2567 -0.2688
  679SOL     OW11825   8.210   1.442   2.221 -0.0036 -0.3447  0.1298
  679SOL    HW111826   8.209   1.495   2.136  0.0988 -0.6080 -0.0334
  679SOL    HW211827   8.167   1.496   2.294 -0.6002 -0.3420 -0.2220
  680SOL     OW11828   8.643   5.906   2.160 -0.3523 -0.6140  0.4999
  680SOL    HW111829   8.662   5.872   2.253  0.5402 -1.5294 -0.0059
  680SOL    HW211830   8.722   5.886   2.101 -1.1590 -0.5598 -0.6018
  681SOL     OW11831   9.194   1.759   1.346  0.4200  0.0656  0.8276
  681SOL    HW111832   9.121   1.692   1.350  0.2639  0.2216  0.6065
  681SOL    HW211833   9.165   1.842   1.395 -0.2763  0.8169 -0.8342
  682SOL     OW11834   1.125   9.489   1.448  0.1725  0.3134  0.0824
  682SOL    HW111835   1.084   9.438   1.524  1.3541 -0.4094  0.2446
  682SOL    HW211836   1.225   9.486   1.456  0.2793  3.5434  0.7052
  683SOL     OW11837   4.227   8.666   0.448  0.1027  0.4059  0.2362
  683SOL    HW111838   4.180   8.726   0.513  1.2424  1.1181  0.4157
  683SOL    HW211839   4.161   8.623   0.388 -0.8949  0.4250  1.3049
  684SOL     OW11840   8.620   1.456   1.137  0.3831  0.2737  0.1679
  684SOL    HW111841   8.604   1.427   1.043  1.7987 -0.7879  0.2347
  684SOL    HW211842   8.716   1.485   1.147  0.4209 -0.2436  1.4388
  685SOL     OW11843   2.292   9.206   0.676  0.5535  0.7238  0.0396
  685SOL    HW111844   2.370   9.154   0.641  1.1610  0.5912  1.5434
  685SOL    HW211845   2.214   9.194   0.615  0.5019 -2.4586  0.6563
  686SOL     OW11846   4.412   3.365   1.362  0.0336 -0.1014 -0.5015
  686SOL    HW111847   4.361   3.407   1.286  0.0888 -0.3253 -0.6622
  686SOL    HW211848   4.507   3.352   1.334 -0.2087 -1.2429 -0.7976
  687SOL     OW11849   8.681   0.065   2.242 -0.5954 -0.0750  0.1321
  687SOL    HW111850   8.770   0.087   2.201 -1.3042  1.9903 -0.3644
  687SOL    HW211851   8.633  -0.001   2.184  0.0505 -0.2004 -0.2701
  688SOL     OW11852   8.948   8.355   1.159 -0.1032 -0.3449  0.1674
  688SOL    HW111853   8.867   8.407   1.187  0.0301  0.3036 -0.6445
  688SOL    HW211854   8.920   8.270   1.115 -0.3448  0.1019 -0.5388
  689SOL     OW11855   2.016   2.589   1.453  0.4692  0.7337  0.2608
  689SOL    HW111856   2.072   2.509   1.434  0.9013  1.2340 -0.6270
  689SOL    HW211857   2.059   2.645   1.524 -0.8944 -0.8899  2.4021
  690SOL     OW11858   8.596   5.757   0.128  0.1441 -0.0810 -0.2481
  690SOL    HW111859   8.632   5.783   0.218  1.1475  0.4642 -0.7948
  690SOL    HW211860   8.503   5.792   0.118  0.6164  1.2334 -0.0479
  691SOL     OW11861   8.977   1.165   1.777  0.7333  0.1509  0.1221
  691SOL    HW111862   9.054   1.209   1.731 -0.2957  0.4805 -1.3010
  691SOL    HW211863   8.937   1.096   1.718  1.1860 -1.4613  1.6505
  692SOL     OW11864   9.321   8.673   1.023  0.0957 -0.0388  0.3779
  692SOL    HW111865   9.235   8.638   1.060 -0.0183  0.3961  0.5262
  692SOL    HW211866   9.325   8.772   1.034 -0.1443  0.1675 -1.1968
  693SOL     OW11867   0.642   2.618   0.270  0.1846 -0.3588  0.6274
  693SOL    HW111868   0.593   2.588   0.189 -0.0777  0.9235  0.2981
  693SOL    HW211869   0.597   2.583   0.352  0.4801 -1.6970  0.2281
  694SOL     OW11870   1.831   6.640   2.001  0.5080 -0.2725 -0.2180
  694SOL    HW111871   1.863   6.566   2.060  0.8404 -1.0744 -1.3876
  694SOL    HW211872   1.732   6.649   2.010  0.7773  0.9662  1.9810
  695SOL     OW11873   9.576   4.228   1.152 -0.5744 -0.8071 -0.0933
  695SOL    HW111874   9.512   4.304   1.164  0.1298 -0.1165 -0.6356
  695SOL    HW211875   9.629   4.242   1.069 -0.6696 -2.0752 -0.3708
  696SOL     OW11876   8.424   0.435   0.762  0.1417  0.2352  0.4337
  696SOL    HW111877   8.486   0.407   0.835  1.3526  1.6163 -0.0247
  696SOL    HW211878   8.367   0.511   0.794 -0.3969 -0.1632  0.4269
  699SOL     OW11879   0.617   3.060   0.771 -0.4218 -0.1534  0.0570
  699SOL    HW111880   0.545   3.034   0.836 -1.2822  1.0976 -0.3646
  699SOL    HW211881   0.683   3.121   0.817 -0.5474  0.0275 -0.0012
  701SOL     OW11882   4.755   2.690   1.220 -0.1693  0.0933 -0.1088
  701SOL    HW111883   4.729   2.606   1.267  1.1145 -0.2389  0.0493
  701SOL    HW211884   4.806   2.749   1.283 -1.6072  1.2741 -0.0378
  702SOL     OW11885   1.856   3.016   1.400 -0.1970 -0.1127  0.6715
  702SOL    HW111886   1.775   3.055   1.355  1.3900  1.9880 -0.4411
  702SOL    HW211887   1.848   3.030   1.499 -1.2464 -0.0321  0.5846
  703SOL     OW11888   3.497   8.941   1.937  0.0948  0.0782  0.1033
  703SOL    HW111889   3.404   8.975   1.955  0.3364  0.1796  1.1774
  703SOL    HW211890   3.498   8.894   1.849 -1.5420 -2.0218  1.1555
  704SOL     OW11891   2.647   0.039   1.939  0.5120  0.0533  0.3843
  704SOL    HW111892   2.578   0.075   1.876  1.2565  1.3004  0.2597
  704SOL    HW211893   2.602  -0.006   2.016 -0.4369  0.5836  0.1439
  705SOL     OW11894   9.553   7.202   1.793 -0.4148 -0.3725 -0.3219
  705SOL    HW111895   9.482   7.204   1.863 -0.4148  0.3916 -0.3360
  705SOL    HW211896   9.518   7.244   1.709 -0.3193 -1.0209 -0.6871
  707SOL     OW11897   1.188   5.961   0.650  0.1008  0.1238  0.0074
  707SOL    HW111898   1.134   6.029   0.601 -0.6140 -0.2948  0.2079
  707SOL    HW211899   1.245   5.910   0.586 -0.6394 -0.2477 -0.3603
  708SOL     OW11900   9.383   2.549   1.021 -0.2829  0.0384  0.2723
  708SOL    HW111901   9.443   2.552   1.100 -0.7983  0.1554  0.6604
  708SOL    HW211902   9.349   2.455   1.009  0.5922 -0.1959 -0.4113
  709SOL     OW11903   9.771   0.405   0.206 -0.4505 -0.1957  0.0938
  709SOL    HW111904   9.758   0.409   0.305  0.3784  1.2914  0.1667
  709SOL    HW211905   9.827   0.482   0.177  0.0527 -1.1025 -1.4259
  710SOL     OW11906   3.353   5.501   2.110  0.2312  0.6504 -0.1419
  710SOL    HW111907   3.359   5.598   2.133  0.7875  0.4888  0.4180
  710SOL    HW211908   3.435   5.454   2.143 -0.5234 -0.1968  0.5493
  711SOL     OW11909   9.539   1.420   0.014 -0.0092 -0.1645  0.3705
  711SOL    HW111910   9.498   1.338   0.055  0.6215 -0.4461  0.4489
  711SOL    HW211911   9.637   1.405   0.003  0.3309  1.0756  1.6038
  712SOL     OW11912   4.067   4.325   1.028  0.2915  0.0904 -0.2008
  712SOL    HW111913   4.008   4.271   0.968  0.1576 -2.1442  1.8367
  712SOL    HW211914   4.011   4.374   1.094  0.5600  0.4497 -0.2389
  716SOL     OW11915   3.236   1.288   1.358 -0.1874 -0.0711 -0.8759
  716SOL    HW111916   3.196   1.373   1.391  1.7558 -0.2565  2.2286
  716SOL    HW211917   3.336   1.292   1.367 -0.1373 -3.1367  0.6845
  717SOL     OW11918   1.492   3.742   1.378  0.0087  0.2934  0.0729
  717SOL    HW111919   1.401   3.752   1.336  0.0440  0.6053  0.0674
  717SOL    HW211920   1.514   3.645   1.386  0.1049  0.2285 -0.8722
  719SOL     OW11921   2.095   7.222   2.228  0.4310  0.4843 -0.5095
  719SOL    HW111922   2.180   7.208   2.178 -0.1514  1.2361 -1.7565
  719SOL    HW211923   2.097   7.310   2.275  0.2139  0.6716 -0.8427
  720SOL     OW11924   4.421   9.337   0.405 -0.4909  0.1535 -0.3328
  720SOL    HW111925   4.429   9.297   0.497 -2.4575  0.5251  0.0156
  720SOL    HW211926   4.478   9.285   0.342 -0.5283 -1.2450  0.7456
  721SOL     OW11927   8.361   1.836   0.225  0.1088 -0.3650 -0.3991
  721SOL    HW111928   8.345   1.900   0.150  0.6867  0.1739 -0.0599
  721SOL    HW211929   8.458   1.814   0.230  0.0150 -0.6920 -0.0448
  722SOL     OW11930   8.684   7.793   1.919 -0.0246  0.0057 -0.1241
  722SOL    HW111931   8.704   7.695   1.918 -0.0199  0.0115 -1.1353
  722SOL    HW211932   8.765   7.844   1.946  0.3295 -0.1992 -0.7936
  723SOL     OW11933   8.565   7.023   2.132  0.8340 -0.5703  0.5013
  723SOL    HW111934   8.466   7.037   2.135  1.1123  1.6019  0.3006
  723SOL    HW211935   8.585   6.937   2.084 -0.9854 -1.8056  1.8669
  724SOL     OW11936   8.484   7.553   1.598 -0.2716  0.9827  0.7613
  724SOL    HW111937   8.434   7.638   1.614 -1.2485  1.1229 -2.6819
  724SOL    HW211938   8.574   7.573   1.560  0.1292  0.5335  1.4655
  726SOL     OW11939   9.244   5.008   0.517 -0.0780  0.0380  0.1961
  726SOL    HW111940   9.182   5.047   0.450 -0.8418 -1.8393 -0.2296
  726SOL    HW211941   9.300   4.937   0.473  0.0527 -0.5804  1.3397
  727SOL     OW11942   9.043   8.430   0.693 -0.1364  0.4852 -0.1520
  727SOL    HW111943   9.118   8.495   0.678 -0.1213  0.0430 -2.0873
  727SOL    HW211944   9.075   8.337   0.674 -0.9705  0.2064 -0.2149
  728SOL     OW11945   7.586   0.715   0.809 -0.2974 -0.2746 -0.0859
  728SOL    HW111946   7.615   0.803   0.770 -2.3575  0.0040 -1.0241
  728SOL    HW211947   7.600   0.717   0.908  0.5429  0.7537 -0.2080
  729SOL     OW11948   0.416   2.203   0.513 -0.7043 -0.4006  0.2125
  729SOL    HW111949   0.412   2.214   0.613  1.1913 -1.0271  0.3796
  729SOL    HW211950   0.414   2.106   0.490  0.0683 -0.3008 -0.2868
  731SOL     OW11951   9.000   9.357   1.931  0.4507 -0.1065 -0.6317
  731SOL    HW111952   8.947   9.430   1.973 -1.1687 -1.7384  0.2495
  731SOL    HW211953   8.949   9.319   1.853  1.5915  0.1609 -1.5298
  732SOL     OW11954   8.152   1.995   0.494  0.1089  0.0986  0.2688
  732SOL    HW111955   8.182   1.900   0.501  1.0073  0.2626 -1.1977
  732SOL    HW211956   8.232   2.055   0.489 -0.4445  0.7258 -1.2824
  733SOL     OW11957   3.832   2.212   2.045  0.1174  0.2360 -0.2839
  733SOL    HW111958   3.895   2.136   2.066 -1.3326 -0.6023  1.1452
  733SOL    HW211959   3.763   2.181   1.980 -1.6647 -0.3265  1.7870
  734SOL     OW11960   9.918   4.723   0.605 -0.3558  0.2113  0.4276
  734SOL    HW111961   9.973   4.780   0.665  0.6902 -0.3419  0.0044
  734SOL    HW211962   9.838   4.689   0.655  0.4829 -0.2091  1.5010
  735SOL     OW11963   2.489   2.486   0.446 -0.4221 -0.7115 -0.4170
  735SOL    HW111964   2.405   2.541   0.448  0.2927  0.4322 -1.2289
  735SOL    HW211965   2.479   2.412   0.380 -0.3980  0.0773 -1.3080
  736SOL     OW11966   2.501   0.290   0.685 -0.5630 -0.4305  0.8193
  736SOL    HW111967   2.592   0.323   0.660 -1.1153  1.8149  1.6670
  736SOL    HW211968   2.476   0.213   0.626  1.0252  0.2546 -0.7841
  738SOL     OW11969   0.949   2.999   0.948  0.1038 -0.1424 -0.2292
  738SOL    HW111970   1.042   3.001   0.984  1.1836  0.0989 -2.8689
  738SOL    HW211971   0.892   3.064   0.998  1.3214 -0.3443  1.4571
  740SOL     OW11972   9.750   7.339   1.614 -0.0606 -0.1128  0.0420
  740SOL    HW111973   9.687   7.351   1.691 -0.9417 -0.9509 -0.5273
  740SOL    HW211974   9.711   7.382   1.533  1.1185  1.2389  0.1859
  741SOL     OW11975   2.705   7.874   0.667  0.1168 -0.0456  0.5626
  741SOL    HW111976   2.702   7.832   0.758 -0.0192 -2.0668 -0.3495
  741SOL    HW211977   2.613   7.885   0.632  0.2054  0.0583  0.3601
  742SOL     OW11978   1.869   6.116   1.682 -0.1596  0.1767 -0.4329
  742SOL    HW111979   1.802   6.174   1.730 -0.3587  0.0695 -0.5830
  742SOL    HW211980   1.823   6.037   1.643  0.0810  0.0253 -0.4089
  743SOL     OW11981   0.556   7.614   1.485 -0.5687  0.3235  0.3868
  743SOL    HW111982   0.619   7.662   1.425 -0.2902 -1.0082 -0.4008
  743SOL    HW211983   0.571   7.643   1.580  1.7538 -0.5377  0.3130
  744SOL     OW11984   8.838   5.470   1.655 -0.1176  0.6100 -0.5207
  744SOL    HW111985   8.800   5.516   1.576  1.5284  0.2621 -1.5488
  744SOL    HW211986   8.935   5.492   1.663  0.1615 -0.8525  0.3023
  745SOL     OW11987   4.826   0.744   0.467 -0.0646 -0.3781  0.4153
  745SOL    HW111988   4.782   0.804   0.534  1.4170 -0.4206  1.4502
  745SOL    HW211989   4.845   0.655   0.508  1.3229 -0.2335  0.1237
  748SOL     OW11990   9.761   4.321   0.533  0.3966 -0.2490  0.2277
  748SOL    HW111991   9.684   4.263   0.506 -0.4669  0.5735  0.9135
  748SOL    HW211992   9.817   4.272   0.600  0.2797 -0.7131 -0.0116
  749SOL     OW11993   8.676   3.741   0.721  0.2374 -0.1463  0.1903
  749SOL    HW111994   8.663   3.734   0.622  0.9794  0.5765  0.0314
  749SOL    HW211995   8.756   3.687   0.748 -0.0652 -0.4817  0.4227
  750SOL     OW11996   1.536   7.107   0.728  0.3934  0.6647  0.0435
  750SOL    HW111997   1.603   7.171   0.691  0.0916 -0.0727 -1.8327
  750SOL    HW211998   1.444   7.139   0.708  0.2152  0.4813  0.5520
  751SOL     OW11999   1.592   4.787   0.581 -0.4351 -0.2721 -0.3616
  751SOL    HW112000   1.576   4.794   0.482  1.8558 -0.2433 -0.7505
  751SOL    HW212001   1.677   4.738   0.598 -0.6853 -0.0762  1.6095
  752SOL     OW12002   2.666   1.572   0.979 -0.3186  0.1847 -0.2079
  752SOL    HW112003   2.568   1.595   0.977  0.0818  1.8549 -1.1374
  752SOL    HW212004   2.690   1.522   0.895 -0.1378  0.7723 -0.5069
  753SOL     OW12005   2.078   9.308   1.858 -0.0602  0.0859  0.2918
  753SOL    HW112006   2.161   9.257   1.833 -1.4463 -1.9922 -0.2513
  753SOL    HW212007   2.081   9.331   1.955  2.0872  1.8654 -0.1581
  756SOL     OW12008   4.801   1.722   0.608 -0.1052  0.1379  0.4323
  756SOL    HW112009   4.796   1.756   0.702  0.0486  1.9986 -0.2036
  756SOL    HW212010   4.854   1.786   0.552  0.5877 -1.4208 -0.7225
  758SOL     OW12011   1.773   8.439   1.331  0.2128  0.4590 -0.1001
  758SOL    HW112012   1.775   8.430   1.231  1.7819  3.0694 -0.3644
  758SOL    HW212013   1.710   8.512   1.357 -1.3899 -1.2494  0.9689
  759SOL     OW12014   3.784   9.593   0.090 -0.0097  0.5148 -0.1614
  759SOL    HW112015   3.794   9.550   0.179  1.5149  0.9249 -0.1179
  759SOL    HW212016   3.692   9.631   0.081 -0.5372 -0.5021  0.7852
  760SOL     OW12017   9.676   0.291   2.312 -0.2162 -0.3781 -0.3905
  760SOL    HW112018   9.595   0.265   2.365  0.2534  0.1278  0.5826
  760SOL    HW212019   9.659   0.273   2.215 -1.0036 -1.5197 -0.0530
  761SOL     OW12020   3.040   1.674   1.649 -0.4327  0.1978 -0.3397
  761SOL    HW112021   3.033   1.724   1.563  0.5558  1.0942  0.0892
  761SOL    HW212022   2.954   1.682   1.699 -1.3230 -1.0688 -1.6293
  762SOL     OW12023   1.207   3.459   1.617 -0.0361  0.5361 -0.0902
  762SOL    HW112024   1.183   3.481   1.711 -0.8293  1.4838 -0.4969
  762SOL    HW212025   1.305   3.476   1.603 -0.2839  2.2439  0.0744
  764SOL     OW12026   9.092   9.257   0.122 -0.6121  0.0202  0.0055
  764SOL    HW112027   9.147   9.175   0.104 -0.3756  0.6233 -2.1603
  764SOL    HW212028   9.097   9.318   0.043 -2.8092  1.0003  0.6049
  765SOL     OW12029   0.564   4.121   1.920 -0.0170  0.3146 -0.0781
  765SOL    HW112030   0.525   4.082   1.837  0.0344 -0.1776  0.1256
  765SOL    HW212031   0.586   4.048   1.984 -1.0508  0.7621  0.8091
  766SOL     OW12032   9.447   6.553   1.276  0.7463 -0.0375  0.0888
  766SOL    HW112033   9.523   6.537   1.214  1.3262 -1.1439  1.0665
  766SOL    HW212034   9.482   6.568   1.369 -0.2435 -1.2462  0.6708
  767SOL     OW12035   2.132   2.346   1.886  0.1147 -0.1286 -0.0157
  767SOL    HW112036   2.166   2.324   1.795  0.2284 -0.7504  0.1794
  767SOL    HW212037   2.086   2.267   1.925 -0.4259  0.3093  0.2461
  768SOL     OW12038   3.758   3.447   0.955 -0.3251 -0.1449  0.3968
  768SOL    HW112039   3.696   3.509   0.906 -0.7144 -0.8392  0.0110
  768SOL    HW212040   3.739   3.353   0.928 -1.3783 -0.6495  2.8237
  769SOL     OW12041   9.248   6.290   0.824 -0.0009  0.1947 -0.3462
  769SOL    HW112042   9.274   6.260   0.732 -1.5845 -1.3623 -0.3005
  769SOL    HW212043   9.239   6.390   0.825  1.6514  0.3708 -1.4420
  770SOL     OW12044   3.761   4.628   1.873  0.5708  0.2330  0.6650
  770SOL    HW112045   3.789   4.616   1.968  4.2076 -0.6615 -0.4399
  770SOL    HW212046   3.696   4.556   1.848  0.2335 -0.0185  2.1972
  771SOL     OW12047   2.698   4.429   2.263 -0.4413  0.0792 -0.0889
  771SOL    HW112048   2.615   4.485   2.266 -1.4176 -1.3474 -0.3628
  771SOL    HW212049   2.674   4.332   2.263  1.2450 -0.3598  0.3693
  773SOL     OW12050   2.835   2.684   1.017  0.0692  0.3637 -0.1369
  773SOL    HW112051   2.801   2.754   1.080  1.0497  0.5187  0.2285
  773SOL    HW212052   2.922   2.648   1.051 -0.7247 -1.4813  0.0158
  774SOL     OW12053   0.673   5.529   2.155  0.2035 -0.0454 -0.5615
  774SOL    HW112054   0.664   5.628   2.145 -0.8584 -0.2374 -1.7622
  774SOL    HW212055   0.597   5.494   2.210  1.8324  0.0620  1.8194
  775SOL     OW12056   2.285   3.757   1.571 -0.4837  0.3377 -0.2689
  775SOL    HW112057   2.339   3.686   1.527  0.0523  0.4874  0.1412
  775SOL    HW212058   2.201   3.717   1.608  1.0018 -0.6007  2.2133
  777SOL     OW12059   3.250   4.397   1.828 -0.5978  0.3058  0.0774
  777SOL    HW112060   3.253   4.359   1.920 -1.6038 -0.1691 -0.0791
  777SOL    HW212061   3.200   4.484   1.830 -0.0518  0.6177  0.0951
  778SOL     OW12062   8.586   1.971   0.875 -0.2656  0.0686 -0.5825
  778SOL    HW112063   8.557   1.914   0.798 -0.8083 -2.0691  1.1558
  778SOL    HW212064   8.590   1.916   0.958  2.1049  1.9043  0.6039
  779SOL     OW12065   9.056   1.156   2.033  0.6464 -0.1444  0.0851
  779SOL    HW112066   8.990   1.106   2.089 -2.0469  2.5815 -0.4811
  779SOL    HW212067   9.019   1.169   1.941  2.5706  0.3100 -0.6482
  780SOL     OW12068   0.151   7.576   0.409  0.2861  0.1372 -0.0492
  780SOL    HW112069   0.123   7.493   0.359 -3.3710  0.5831  1.1133
  780SOL    HW212070   0.171   7.649   0.343  1.3326 -0.9877 -1.0129
  781SOL     OW12071   1.598   0.597   1.324  0.0564 -0.2487  0.3140
  781SOL    HW112072   1.691   0.568   1.345 -0.1160 -1.2389 -0.2898
  781SOL    HW212073   1.565   0.550   1.242 -1.5992 -1.2297  1.4993
  782SOL     OW12074   4.289   1.645   1.493 -0.2543 -0.0476  0.1949
  782SOL    HW112075   4.374   1.623   1.445  0.6891  2.5224  0.6017
  782SOL    HW212076   4.310   1.670   1.588 -1.4064  1.1237  0.1503
  783SOL     OW12077   2.454   4.347   0.320  0.2572 -0.1716  0.1850
  783SOL    HW112078   2.372   4.361   0.265  0.3235  1.6180  0.4991
  783SOL    HW212079   2.480   4.251   0.319 -2.0325 -0.8033  0.3538
  784SOL     OW12080   2.201   6.474   0.215 -0.1651 -0.1779  0.3537
  784SOL    HW112081   2.167   6.444   0.305  0.4330 -1.4123  0.1757
  784SOL    HW212082   2.299   6.490   0.220 -0.1652 -0.0528 -0.0342
  785SOL     OW12083   9.139   8.712   0.180  0.2793 -0.8355  0.3074
  785SOL    HW112084   9.046   8.686   0.208  0.3093  0.1830  1.4116
  785SOL    HW212085   9.162   8.800   0.222  1.1432 -0.3007 -1.2497
  786SOL     OW12086   9.332   4.563   0.322  0.3870 -0.0240 -0.3430
  786SOL    HW112087   9.296   4.501   0.253  2.6213  0.5097 -2.0663
  786SOL    HW212088   9.346   4.513   0.408  0.6249 -1.5175 -1.2291
  787SOL     OW12089   7.775   9.206   1.154  0.1133 -0.0078 -0.2484
  787SOL    HW112090   7.688   9.250   1.176 -0.4120 -0.3637 -1.5679
  787SOL    HW212091   7.759   9.111   1.129  0.7048  0.3060 -1.8743
  788SOL     OW12092   9.744   5.227   0.672 -0.0095  0.0483  0.5403
  788SOL    HW112093   9.752   5.323   0.699  0.0448  0.4270 -0.7883
  788SOL    HW212094   9.828   5.199   0.626 -0.8130 -0.0531 -0.8644
  789SOL     OW12095   9.526   1.555   1.778  0.0146 -0.0426 -0.2952
  789SOL    HW112096   9.488   1.607   1.701  0.8220  2.4090  0.9175
  789SOL    HW212097   9.624   1.545   1.766 -0.3026 -2.5299 -1.1891
  790SOL     OW12098   7.905   9.955   1.121  0.0195 -0.1595  0.3754
  790SOL    HW112099   7.925   9.884   1.052 -0.6094  1.0885 -1.1285
  790SOL    HW212100   7.984   9.966   1.181  0.3669 -1.6801  0.2187
  791SOL     OW12101   1.966   4.123   0.626 -1.0167 -0.4137 -0.6905
  791SOL    HW112102   1.926   4.036   0.654 -0.1701 -0.3763  0.7057
  791SOL    HW212103   2.050   4.106   0.574  0.0524 -0.4448  0.9899
  792SOL     OW12104   0.572   3.948   1.431  0.1616 -0.3274 -0.1566
  792SOL    HW112105   0.668   3.969   1.450  0.4105 -0.1214 -1.5595
  792SOL    HW212106   0.518   4.032   1.437  0.4716  0.0029 -1.6598
  793SOL     OW12107   8.705   4.302   0.439 -0.0381 -0.1705 -0.0299
  793SOL    HW112108   8.724   4.289   0.537  2.0052 -0.1540 -0.3932
  793SOL    HW212109   8.767   4.372   0.403 -1.4454  0.5107 -1.1307
  794SOL     OW12110   3.556   2.851   0.582  0.6947  0.1480  0.3972
  794SOL    HW112111   3.500   2.933   0.587 -1.8165 -1.6452  2.8747
  794SOL    HW212112   3.597   2.833   0.672  0.5012 -1.8076  0.1122
  795SOL     OW12113   0.032   8.362   1.831  0.1142  0.1369 -0.0442
  795SOL    HW112114  -0.062   8.396   1.839 -0.0551  0.2410 -2.3471
  795SOL    HW212115   0.089   8.407   1.900 -1.6868 -0.5691  1.9556
  797SOL     OW12116   9.802   3.164   0.291  0.1794  0.3186 -0.0671
  797SOL    HW112117   9.715   3.208   0.271  0.4814  1.3570  0.8630
  797SOL    HW212118   9.837   3.118   0.209 -1.1471  0.0466 -0.4848
  798SOL     OW12119   1.076   7.201   1.975  0.3556 -0.6717 -0.2409
  798SOL    HW112120   0.979   7.184   1.988  0.2301  0.3485  0.2328
  798SOL    HW212121   1.129   7.146   2.039  0.0130 -0.0734  0.5652
  799SOL     OW12122   1.136   6.529   1.383  0.4354  0.5887 -0.1490
  799SOL    HW112123   1.164   6.611   1.334  1.9578  0.4572  0.4778
  799SOL    HW212124   1.037   6.530   1.396 -0.1090  0.3282 -3.7362
  800SOL     OW12125   3.981   0.415   0.577  0.3838  0.4554  0.3688
  800SOL    HW112126   3.951   0.361   0.498  0.6603 -0.1920  0.7038
  800SOL    HW212127   4.079   0.433   0.570  0.3565  0.6257  0.4268
  802SOL     OW12128   0.835   6.575   1.813 -0.0920 -0.0941 -0.2571
  802SOL    HW112129   0.764   6.626   1.764  0.6831 -0.4512 -1.7595
  802SOL    HW212130   0.824   6.477   1.795  1.6156 -0.0531 -1.6168
  803SOL     OW12131   1.524   8.410   1.829 -0.2024 -0.1129 -0.3147
  803SOL    HW112132   1.452   8.419   1.759  0.8790  0.0455 -1.4316
  803SOL    HW212133   1.489   8.357   1.906 -1.0114 -1.4215 -1.5545
  804SOL     OW12134   9.253   4.359   1.819 -1.0155  0.2581 -0.0027
  804SOL    HW112135   9.277   4.456   1.811  1.1357 -0.3443 -1.1563
  804SOL    HW212136   9.212   4.329   1.732 -1.0330 -0.0514  0.1146
  805SOL     OW12137   1.525   1.956   0.837  0.3192  0.5180  0.3619
  805SOL    HW112138   1.556   2.020   0.767 -0.1950 -0.3776 -0.7207
  805SOL    HW212139   1.542   1.862   0.805 -1.8511  0.0481  0.5035
  806SOL     OW12140   0.844   0.889   0.910  0.2442  0.1172  0.3428
  806SOL    HW112141   0.786   0.808   0.919  1.8225 -0.9559  0.9755
  806SOL    HW212142   0.893   0.886   0.823  0.8490  0.0182  0.6811
  807SOL     OW12143   3.547   3.832   0.608  0.4018  0.1141 -0.4806
  807SOL    HW112144   3.519   3.921   0.644  1.1158  0.2672 -0.2909
  807SOL    HW212145   3.477   3.797   0.546 -0.6899  0.0209  0.7620
  808SOL     OW12146   1.392   6.928   1.696 -0.2303  0.0575  0.0669
  808SOL    HW112147   1.421   6.906   1.789  1.7583 -0.2433 -0.6112
  808SOL    HW212148   1.438   7.011   1.666 -1.2980  0.4733 -0.4681
  811SOL     OW12149   8.003   2.540   0.666  0.4324 -0.4842 -0.3002
  811SOL    HW112150   8.091   2.573   0.701  1.4115 -0.9309 -2.2422
  811SOL    HW212151   8.000   2.440   0.672  0.2977 -0.5087 -0.7608
  812SOL     OW12152   2.996   9.171   0.358 -0.2579  0.0215  0.8828
  812SOL    HW112153   2.986   9.209   0.450 -0.7075  2.5387 -0.1798
  812SOL    HW212154   2.946   9.084   0.353 -1.2699  0.4688  2.6736
  813SOL     OW12155   1.119   3.500   0.659 -0.1121  0.1362  0.3426
  813SOL    HW112156   1.022   3.507   0.685 -0.2898 -0.7173 -0.0556
  813SOL    HW212157   1.167   3.446   0.728 -0.1351 -0.3129  0.0079
  814SOL     OW12158   2.896   3.344   1.096 -0.4329  0.2710 -0.4632
  814SOL    HW112159   2.921   3.317   1.188 -4.0839 -1.4399  0.1047
  814SOL    HW212160   2.865   3.440   1.096 -2.0355 -0.2388  0.4276
  815SOL     OW12161   3.631   8.648   0.083  0.1208  0.7949  0.1974
  815SOL    HW112162   3.703   8.710   0.113  0.2912  1.3009 -1.1983
  815SOL    HW212163   3.569   8.629   0.159  2.0753 -0.1500  1.5976
  816SOL     OW12164   1.601   4.340   0.617  0.0903  0.1534  0.7796
  816SOL    HW112165   1.541   4.412   0.582 -1.3177 -0.6702  1.4419
  816SOL    HW212166   1.638   4.288   0.540 -1.2167 -0.2502  0.4143
  818SOL     OW12167   1.845   0.333   1.893  0.3814  0.0660  0.0257
  818SOL    HW112168   1.886   0.409   1.944 -3.5737  0.2226  3.2167
  818SOL    HW212169   1.862   0.247   1.940  2.3425 -0.7141 -2.0258
  819SOL     OW12170   2.385   2.315   0.248 -0.7204 -0.4349 -0.1057
  819SOL    HW112171   2.321   2.245   0.217  0.2162 -0.9784 -0.8192
  819SOL    HW212172   2.423   2.363   0.169 -0.2999 -0.0632  0.3202
  820SOL     OW12173   0.957   4.327   0.568 -0.0561 -0.3130  0.4054
  820SOL    HW112174   1.017   4.383   0.626 -0.6012  2.1700 -1.3436
  820SOL    HW212175   0.867   4.370   0.561 -0.5748 -1.5488 -0.7510
  822SOL     OW12176   7.742   9.807   0.879  0.2924  0.2186  0.0702
  822SOL    HW112177   7.805   9.757   0.939 -0.1774  1.1369  1.3471
  822SOL    HW212178   7.738   9.761   0.790  0.2634 -1.7194  1.0467
  823SOL     OW12179   2.325   8.860   1.423  0.2717 -0.3753 -0.0460
  823SOL    HW112180   2.294   8.864   1.518  0.4821  2.1117 -0.0570
  823SOL    HW212181   2.423   8.840   1.421  0.6324  1.2907  0.3365
  825SOL     OW12182   3.155   2.326   0.686  0.2637 -0.5004  1.0267
  825SOL    HW112183   3.180   2.415   0.647 -2.8119 -0.4639 -1.0068
  825SOL    HW212184   3.150   2.334   0.785  1.4392  1.2053  0.9831
  826SOL     OW12185   1.211   4.787   0.442  0.3996 -0.5702 -0.2858
  826SOL    HW112186   1.198   4.745   0.532 -1.0443 -2.0635 -1.1526
  826SOL    HW212187   1.308   4.789   0.419  0.5256 -3.5249 -0.2122
  827SOL     OW12188   0.187   8.631   2.256  0.5063 -0.2780 -0.5548
  827SOL    HW112189   0.115   8.623   2.187  0.1984  0.8723 -0.3793
  827SOL    HW212190   0.184   8.722   2.297  0.9202 -0.8198  0.7258
  828SOL     OW12191   7.947   1.395   1.216 -0.4397 -0.4490 -0.2057
  828SOL    HW112192   7.937   1.353   1.125  0.7928 -2.0121  0.3585
  828SOL    HW212193   7.869   1.369   1.273 -0.5566 -0.5403 -0.4052
  829SOL     OW12194   2.213   7.931   2.111 -0.6311  0.2368 -0.1103
  829SOL    HW112195   2.203   8.029   2.129 -0.3488  0.2565 -0.0596
  829SOL    HW212196   2.225   7.882   2.197  1.2008  0.3894 -0.2635
  830SOL     OW12197   0.741   0.325   0.218 -0.1022 -1.0646 -0.0484
  830SOL    HW112198   0.713   0.306   0.124  2.0488 -0.0251 -0.9286
  830SOL    HW212199   0.660   0.344   0.274 -1.2880 -0.1530 -2.0275
  835SOL     OW12200   2.893   3.615   0.094  0.7216  0.9417 -0.4908
  835SOL    HW112201   2.847   3.602   0.182  0.4254 -0.1487 -0.8053
  835SOL    HW212202   2.944   3.702   0.096 -0.0498  1.3829  0.4160
  836SOL     OW12203   2.626   3.962   0.925 -0.0812  0.1713 -0.0199
  836SOL    HW112204   2.616   3.997   1.018 -2.2798 -0.6130  0.0690
  836SOL    HW212205   2.706   3.901   0.920  1.4379  2.0766  0.7543
  839SOL     OW12206   0.887   7.434   1.371 -0.3651 -0.0990 -0.1676
  839SOL    HW112207   0.864   7.447   1.468  1.3148 -2.1436  0.5338
  839SOL    HW212208   0.985   7.422   1.361 -0.0305  3.7527 -2.6053
  840SOL     OW12209   9.170   1.186   1.373  0.4638  0.1593  0.0367
  840SOL    HW112210   9.239   1.192   1.446  0.6852 -0.7052 -0.1034
  840SOL    HW212211   9.117   1.103   1.384 -0.4136  0.7157  0.0074
  841SOL     OW12212   1.164   6.088   2.041 -0.3756 -0.4681 -0.5736
  841SOL    HW112213   1.253   6.080   1.995 -0.5893 -0.4370 -0.9894
  841SOL    HW212214   1.150   6.009   2.101 -0.0141 -0.4154 -0.4194
  842SOL     OW12215   0.430   7.293   0.606  0.7299  0.1660  0.1625
  842SOL    HW112216   0.434   7.302   0.507 -0.8440 -2.1910 -0.1686
  842SOL    HW212217   0.361   7.356   0.643 -1.6790 -1.8463 -0.7496
  843SOL     OW12218   2.092   7.363   1.224 -0.2042 -0.3062 -0.7157
  843SOL    HW112219   2.096   7.276   1.176 -0.1001 -0.3729 -0.5876
  843SOL    HW212220   2.171   7.419   1.198 -0.4373 -0.1247 -1.0359
  846SOL     OW12221   9.470   6.788   1.692  0.1113  0.1080  0.5159
  846SOL    HW112222   9.466   6.697   1.650  0.8178  1.0984 -1.8117
  846SOL    HW212223   9.560   6.803   1.732  0.6910  0.5184 -0.9069
  847SOL     OW12224   4.597   9.115   0.336 -0.0208  0.6790  0.4887
  847SOL    HW112225   4.594   9.058   0.418  0.9838 -0.7640 -0.4522
  847SOL    HW212226   4.516   9.096   0.280  0.1924  0.3633  0.2897
  848SOL     OW12227   9.763   5.810   1.144  0.3581  0.3585 -0.4149
  848SOL    HW112228   9.848   5.819   1.092 -0.5187  0.9610 -1.7662
  848SOL    HW212229   9.716   5.726   1.117  0.5668 -0.0388  0.4241
  851SOL     OW12230   8.696   2.191   0.171 -0.2674  0.6987 -0.1044
  851SOL    HW112231   8.758   2.267   0.191  0.6662  0.2621 -1.2624
  851SOL    HW212232   8.706   2.164   0.075  0.4278 -1.7564  0.6173
  852SOL     OW12233   0.174   8.932   1.177  0.1916  0.5941  0.0679
  852SOL    HW112234   0.212   9.004   1.235  2.0116 -0.2644 -0.0333
  852SOL    HW212235   0.248   8.872   1.146 -1.1981 -0.8086 -0.5621
  853SOL     OW12236   5.258   3.447   1.269 -0.2994  0.2680  0.2047
  853SOL    HW112237   5.165   3.413   1.287 -0.3318  0.9823  1.4245
  853SOL    HW212238   5.316   3.370   1.241 -1.3289 -0.1317 -0.8671
  854SOL     OW12239   2.778   7.867   1.916  0.0502 -0.3455  0.1407
  854SOL    HW112240   2.771   7.880   1.817 -0.7706 -0.1003  0.2250
  854SOL    HW212241   2.714   7.929   1.962 -0.7622 -1.6270  0.7504
  855SOL     OW12242   3.183   1.572   1.392 -0.1867 -0.5772  0.0305
  855SOL    HW112243   3.129   1.656   1.394 -1.6255 -1.4002 -2.0424
  855SOL    HW212244   3.280   1.593   1.405 -0.8138  1.0669  2.4470
  856SOL     OW12245   1.388   1.282   2.154  0.0210 -0.5570  0.2838
  856SOL    HW112246   1.340   1.265   2.068  0.1949  0.0318  0.0700
  856SOL    HW212247   1.331   1.253   2.230 -0.2453 -0.8287 -0.0179
  857SOL     OW12248   2.333   8.401   1.436 -0.2734  0.2032 -0.1623
  857SOL    HW112249   2.270   8.335   1.396  0.0768  0.4826 -1.1953
  857SOL    HW212250   2.289   8.446   1.514 -0.9088 -0.4490 -0.1309
  859SOL     OW12251   2.742   8.739   2.040  0.4968  0.2364 -0.4816
  859SOL    HW112252   2.733   8.804   1.965 -0.0117  1.9195  0.9911
  859SOL    HW212253   2.674   8.761   2.111 -0.3321 -2.5129 -0.3871
  860SOL     OW12254   0.962   0.092   1.526 -0.2628 -0.1984 -0.7371
  860SOL    HW112255   0.999   0.141   1.446 -0.0903  1.8315  0.5531
  860SOL    HW212256   0.931   0.158   1.594  3.0056 -1.7947  2.5112
  861SOL     OW12257   8.634   8.123   0.715  0.1982  0.1936  0.5596
  861SOL    HW112258   8.676   8.069   0.642  0.3012  0.8156  0.1601
  861SOL    HW212259   8.617   8.064   0.794  0.6468 -0.3428  0.2571
  862SOL     OW12260   9.004   0.770   0.792 -0.2707 -0.0980  0.2798
  862SOL    HW112261   8.996   0.866   0.818 -0.4704 -0.4045  1.3479
  862SOL    HW212262   9.100   0.742   0.793 -0.1144  0.3313 -0.9477
  863SOL     OW12263   1.666   6.861   2.281 -0.3032 -0.0750 -0.4797
  863SOL    HW112264   1.726   6.916   2.224  0.9378 -1.6867 -0.7362
  863SOL    HW212265   1.702   6.768   2.290 -1.8743 -0.6073  0.7253
  864SOL     OW12266   8.078   7.976   0.102  0.7121  0.1831 -0.6431
  864SOL    HW112267   8.139   8.021   0.168  0.3399  0.1662 -0.2899
  864SOL    HW212268   7.988   7.961   0.144  0.6544 -0.3592 -0.9559
  865SOL     OW12269   1.646   5.661   1.188 -0.1722  0.3135  0.2214
  865SOL    HW112270   1.600   5.686   1.273  0.5787  0.5660  0.5565
  865SOL    HW212271   1.704   5.581   1.203 -3.2126 -2.2863 -1.0407
  866SOL     OW12272   9.899   4.304   1.550  0.3083 -0.0288  0.4668
  866SOL    HW112273   9.803   4.296   1.577 -0.3574 -1.1979 -2.0727
  866SOL    HW212274   9.914   4.394   1.509 -0.2425 -0.5856 -1.0116
  867SOL     OW12275   0.297   9.305   1.138  0.2394 -0.1380 -0.4007
  867SOL    HW112276   0.218   9.320   1.079 -0.2938  0.5104  0.4652
  867SOL    HW212277   0.378   9.291   1.082 -0.3456  0.0095 -1.2923
  868SOL     OW12278   0.585   1.924   2.081 -0.3203  0.7784  0.3093
  868SOL    HW112279   0.605   1.844   2.025 -2.8665  0.7339 -0.6034
  868SOL    HW212280   0.641   2.001   2.051 -1.3231  0.6309 -2.0200
  870SOL     OW12281   8.742   9.356   1.407 -0.1945 -0.1238  0.1151
  870SOL    HW112282   8.772   9.399   1.492  0.5143  0.5320 -0.4629
  870SOL    HW212283   8.716   9.261   1.425 -1.5818  0.4628  1.3686
  871SOL     OW12284   0.818   2.251   0.477 -0.8303 -0.8266 -0.1919
  871SOL    HW112285   0.723   2.281   0.481 -0.7048 -0.4636  0.1958
  871SOL    HW212286   0.865   2.279   0.561  0.9932  3.6284 -2.5269
  872SOL     OW12287   0.403   1.921   0.526  0.0829 -0.0172  0.1757
  872SOL    HW112288   0.418   1.899   0.430  0.0508  0.5605  0.0360
  872SOL    HW212289   0.488   1.906   0.577  0.3158  0.4111 -0.0829
  873SOL     OW12290   2.768   0.753   1.381 -0.4446  0.4271  0.0146
  873SOL    HW112291   2.721   0.810   1.315  1.6107  0.7180 -1.2434
  873SOL    HW212292   2.739   0.658   1.370 -0.5903  0.5717 -0.8683
  874SOL     OW12293   9.514   2.905   0.232  0.1009 -0.2952 -0.5942
  874SOL    HW112294   9.590   2.855   0.275  0.4738  0.2417 -0.6207
  874SOL    HW212295   9.534   2.920   0.135 -0.6318 -1.2909 -0.9028
  875SOL     OW12296   9.070   2.386   0.352  0.2936 -0.1263 -0.1728
  875SOL    HW112297   9.146   2.324   0.372  0.7870  0.9402  1.3358
  875SOL    HW212298   9.105   2.478   0.335 -0.4982 -0.0707 -1.6320
  876SOL     OW12299   3.075   8.366   0.548 -0.0592  0.1055 -0.4472
  876SOL    HW112300   2.991   8.313   0.557  1.0601 -1.2887  2.7862
  876SOL    HW212301   3.131   8.354   0.631  3.5126  0.6358 -2.6498
  877SOL     OW12302   9.003   9.721   0.318  0.3306 -0.0913 -0.0299
  877SOL    HW112303   9.023   9.668   0.400 -1.3890 -1.7012 -0.6049
  877SOL    HW212304   9.042   9.675   0.238  0.1871  0.3424 -0.3555
  878SOL     OW12305   7.909   1.760   1.170 -0.2525  0.1870  0.3705
  878SOL    HW112306   7.938   1.671   1.204  1.9016  0.8450  0.3101
  878SOL    HW212307   7.889   1.754   1.072  1.2403  0.0618  0.0575
  879SOL     OW12308   0.343   6.174   0.171 -0.8515  0.1735 -0.2368
  879SOL    HW112309   0.413   6.196   0.239 -1.0312  1.3099 -0.4220
  879SOL    HW212310   0.328   6.252   0.110 -0.0390 -1.1169 -2.1730
  880SOL     OW12311   1.140   8.073   1.100 -0.1419 -0.1085  0.5814
  880SOL    HW112312   1.191   8.159   1.109 -0.5375  0.0509  1.3817
  880SOL    HW212313   1.204   7.997   1.096  0.1849  0.1441  0.9266
  881SOL     OW12314   1.897   6.064   0.317  0.1345  0.0812  0.1015
  881SOL    HW112315   1.990   6.062   0.354 -0.1870  0.3154  0.9175
  881SOL    HW212316   1.901   6.077   0.218  1.0704 -2.4088 -0.2309
  882SOL     OW12317   8.648   7.211   1.106 -0.1820  0.7487  0.5269
  882SOL    HW112318   8.672   7.221   1.010  1.5507 -1.4332  0.6875
  882SOL    HW212319   8.696   7.280   1.160 -0.3623  1.3300 -0.0511
  883SOL     OW12320   0.665   5.264   1.897 -0.5179 -0.2335  0.1400
  883SOL    HW112321   0.688   5.184   1.841  2.1447 -0.7820  1.9173
  883SOL    HW212322   0.661   5.345   1.840  1.8588 -0.8252 -0.9111
  884SOL     OW12323   9.036   4.021   0.841 -0.0860 -0.1089  0.1579
  884SOL    HW112324   9.092   3.940   0.851 -0.2245 -0.3267 -0.7554
  884SOL    HW212325   8.954   3.999   0.787  0.0407  0.7025 -0.3861
  885SOL     OW12326   0.517   1.028   1.009  0.0229 -0.2629 -0.4833
  885SOL    HW112327   0.595   1.089   0.993  1.6951 -2.0084  0.7335
  885SOL    HW212328   0.493   1.030   1.106  0.1226 -1.5634 -0.4320
  886SOL     OW12329   2.046   0.499   0.778  0.1203  0.3576  0.2446
  886SOL    HW112330   2.054   0.541   0.868  1.0448  0.6388  0.0314
  886SOL    HW212331   1.976   0.428   0.781  0.0727  0.4378  1.1523
  887SOL     OW12332   9.174   4.012   1.287 -0.5286  0.5033 -0.4012
  887SOL    HW112333   9.164   4.100   1.241 -0.8130  0.5826 -0.1853
  887SOL    HW212334   9.090   3.959   1.277 -0.3942  0.3005 -0.4422
  888SOL     OW12335   9.353   5.278   2.310 -0.1220  0.1152  0.1607
  888SOL    HW112336   9.260   5.243   2.323  0.0483 -0.3210  0.2107
  888SOL    HW212337   9.371   5.287   2.212  0.9041 -2.8621  0.0223
  889SOL     OW12338   3.840   9.989   2.167 -0.1692 -0.2265 -0.0171
  889SOL    HW112339   3.787  10.028   2.092 -0.1166  1.7024  0.9089
  889SOL    HW212340   3.781   9.979   2.247  0.4913  0.4910  0.5626
  890SOL     OW12341   3.094   3.820   0.532 -0.0321  0.3099 -0.4929
  890SOL    HW112342   3.074   3.900   0.588  2.0134 -0.4574  1.4313
  890SOL    HW212343   3.010   3.787   0.489 -0.9465  3.2532 -1.0387
  891SOL     OW12344   8.237   1.717   0.434  0.1402  0.5780 -0.4770
  891SOL    HW112345   8.279   1.631   0.461 -1.7002  0.0634  0.8809
  891SOL    HW212346   8.273   1.746   0.346 -0.2868 -2.3594 -1.6688
  893SOL     OW12347   1.834   9.783   0.735 -0.2558  0.8672  0.5989
  893SOL    HW112348   1.857   9.845   0.811  1.1458  1.8899 -0.6309
  893SOL    HW212349   1.774   9.710   0.769  3.3642 -0.8832  3.5655
  894SOL     OW12350   1.630   9.854   1.652 -0.2243 -0.0712  0.1322
  894SOL    HW112351   1.670   9.812   1.733 -0.9419 -0.7110  0.1646
  894SOL    HW212352   1.667   9.810   1.570  0.0831  0.1989  0.1231
  895SOL     OW12353   8.013   7.982   1.142 -0.1901 -0.4166 -0.2812
  895SOL    HW112354   8.063   7.982   1.229  1.7354 -4.0745 -1.2557
  895SOL    HW212355   7.963   7.896   1.133 -3.6663  1.6041 -1.0746
  897SOL     OW12356   7.814   0.159   1.494  0.6797 -0.2835  0.4331
  897SOL    HW112357   7.721   0.132   1.518 -0.5482  2.7796 -0.5966
  897SOL    HW212358   7.835   0.247   1.535  2.0712  0.4210 -1.6980
  899SOL     OW12359   9.828   0.983   0.688  0.3386 -0.2402  0.1458
  899SOL    HW112360   9.793   0.931   0.611  1.0047  2.5518 -2.1065
  899SOL    HW212361   9.754   1.037   0.729  0.2453 -0.8009  0.7307
  900SOL     OW12362   3.980   5.258   1.261  0.1297 -0.0699 -0.3320
  900SOL    HW112363   3.996   5.330   1.328 -1.0662  0.1479 -0.2730
  900SOL    HW212364   3.993   5.169   1.304  0.6372  0.0939 -0.1485
  901SOL     OW12365   4.046   9.620   0.868 -0.3662 -0.8800 -0.1913
  901SOL    HW112366   3.998   9.705   0.889  0.5007 -0.3172 -0.4830
  901SOL    HW212367   4.131   9.640   0.820  0.0677 -1.8855  0.1366
  902SOL     OW12368   4.503   2.700   0.270  0.2912 -0.3912  0.0426
  902SOL    HW112369   4.536   2.608   0.291 -0.4640 -0.3220  1.5767
  902SOL    HW212370   4.464   2.741   0.352 -1.6732  0.3390 -1.2276
  903SOL     OW12371   3.720   2.255   1.719 -0.3528 -0.0286  0.3960
  903SOL    HW112372   3.726   2.234   1.622 -2.7719 -1.8782  0.6165
  903SOL    HW212373   3.627   2.283   1.742  0.4084  1.2669  2.0335
  904SOL     OW12374   9.952   7.975   1.520 -0.2766 -0.1553  0.1585
  904SOL    HW112375  10.027   7.919   1.485 -0.5607 -0.2803 -0.2551
  904SOL    HW212376   9.920   8.037   1.449 -1.0873 -0.6566  0.0744
  905SOL     OW12377   8.801   0.477   1.430  0.3091 -0.1138  1.1723
  905SOL    HW112378   8.736   0.548   1.457 -0.6071 -0.5572  0.1582
  905SOL    HW212379   8.820   0.485   1.332 -0.5600 -1.8832  0.8510
  906SOL     OW12380   1.126   8.027   0.490 -0.0595  0.1792 -0.3807
  906SOL    HW112381   1.192   8.090   0.450 -1.0395  1.6768  0.3183
  906SOL    HW212382   1.089   7.968   0.419 -0.4243  1.5859 -1.3894
  907SOL     OW12383   3.145   3.158   0.589 -0.0352 -0.0217  0.2776
  907SOL    HW112384   3.164   3.184   0.495 -0.2709 -1.9748 -0.3304
  907SOL    HW212385   3.050   3.128   0.597  0.8596 -2.9878  0.3896
  908SOL     OW12386   9.119   6.425   0.378 -0.1247 -0.5223  0.1185
  908SOL    HW112387   9.066   6.354   0.425  1.4366 -1.0281  1.1534
  908SOL    HW212388   9.217   6.408   0.392  0.2690  1.6638  0.1272
  909SOL     OW12389   2.167   9.843   1.288 -0.1063 -0.2264 -0.8335
  909SOL    HW112390   2.174   9.942   1.290 -1.8809 -0.1010 -0.2833
  909SOL    HW212391   2.114   9.814   1.209 -0.2539 -0.6937 -0.5647
  910SOL     OW12392   8.325   0.213   0.618  0.2220  0.4126  0.0930
  910SOL    HW112393   8.235   0.250   0.594  0.0762  0.2624  0.4121
  910SOL    HW212394   8.388   0.288   0.634 -0.3298  0.5500  1.7184
  912SOL     OW12395   4.713   4.777   0.131  0.5632 -0.0172  0.1380
  912SOL    HW112396   4.656   4.769   0.213 -0.4799  1.8431 -0.3919
  912SOL    HW212397   4.808   4.755   0.155  0.2093  0.1616  1.7692
  913SOL     OW12398   4.721   4.085   0.624 -0.3525  0.1293  0.3905
  913SOL    HW112399   4.762   4.057   0.537  0.7019 -1.7242  1.4579
  913SOL    HW212400   4.704   4.184   0.622 -0.6679  0.0596 -2.0341
  915SOL     OW12401   0.832   8.743   1.166 -0.6933 -0.0713 -0.1323
  915SOL    HW112402   0.871   8.724   1.076  0.3933 -0.4998  0.4274
  915SOL    HW212403   0.742   8.701   1.172 -0.4952 -0.5980 -0.7798
  916SOL     OW12404   9.067   4.434   1.198  0.2602  0.1973 -0.2107
  916SOL    HW112405   9.012   4.393   1.270 -0.2342  0.0675 -0.6632
  916SOL    HW212406   9.083   4.367   1.126  1.8460 -0.0846  0.3735
  917SOL     OW12407   2.206   0.829   1.742 -0.2764 -0.3900  0.3861
  917SOL    HW112408   2.305   0.816   1.737 -0.3953 -0.6366 -1.8470
  917SOL    HW212409   2.186   0.927   1.740 -0.1187 -0.3697 -0.4656
  919SOL     OW12410   4.095   0.775   2.165  0.1989 -0.5582  0.2489
  919SOL    HW112411   4.182   0.803   2.205 -0.0555 -0.4795  0.7479
  919SOL    HW212412   4.113   0.717   2.085  0.7081 -0.2248  0.1173
  921SOL     OW12413   1.472   1.201   1.095  0.1602 -0.3605  0.2818
  921SOL    HW112414   1.396   1.137   1.085  0.4218 -0.8206  1.1653
  921SOL    HW212415   1.445   1.291   1.059 -0.3792 -0.8325 -0.5053
  922SOL     OW12416   1.880   7.625   0.437 -0.3728 -0.0074  0.1923
  922SOL    HW112417   1.957   7.633   0.374 -1.0296 -0.7646 -0.7212
  922SOL    HW212418   1.909   7.573   0.518 -0.0396 -0.6868 -0.3559
  923SOL     OW12419   4.009   3.427   0.798 -0.0059 -0.3025  0.2942
  923SOL    HW112420   3.914   3.449   0.822  0.0153 -0.8183  0.8817
  923SOL    HW212421   4.049   3.372   0.871  0.3720 -1.0979 -0.5026
  926SOL     OW12422   1.221   1.653   1.412  0.4048  0.5107 -0.5973
  926SOL    HW112423   1.309   1.701   1.417 -0.3454  1.8360  0.4684
  926SOL    HW212424   1.232   1.561   1.449  1.1826  0.9313  0.2720
  927SOL     OW12425   3.339   3.939   2.194 -0.2682  0.1684 -0.0523
  927SOL    HW112426   3.328   4.010   2.125  0.1541  1.2345  0.9650
  927SOL    HW212427   3.436   3.924   2.212 -0.3980  1.2113  1.6361
  928SOL     OW12428   0.815   3.952   1.867 -0.5006 -0.0178  0.0919
  928SOL    HW112429   0.872   4.034   1.873 -0.9996  0.4297 -1.1332
  928SOL    HW212430   0.738   3.970   1.806 -1.7163 -0.7521  1.3726
  929SOL     OW12431   0.550   6.715   0.174 -0.0483 -0.2847  0.2699
  929SOL    HW112432   0.535   6.781   0.247  1.6846  0.8316 -0.3512
  929SOL    HW212433   0.641   6.675   0.183  0.4759  0.4179 -1.6773
  931SOL     OW12434   1.369   9.771   1.664 -0.1060 -0.4837 -0.0377
  931SOL    HW112435   1.462   9.795   1.636 -0.3300  1.0843  0.5243
  931SOL    HW212436   1.306   9.792   1.590 -0.0375 -1.4502 -0.3791
  932SOL     OW12437   3.654   1.305   1.628  0.4723 -0.5140 -0.2135
  932SOL    HW112438   3.651   1.354   1.541  1.0700 -1.2830 -0.6712
  932SOL    HW212439   3.749   1.297   1.659  0.0693  2.7582  2.2443
  933SOL     OW12440   0.903   3.768   0.211 -0.2278  0.6388  0.1741
  933SOL    HW112441   0.847   3.829   0.268  0.2319  1.4812 -0.2754
  933SOL    HW212442   0.852   3.683   0.194 -0.8343  0.8530  0.8720
  934SOL     OW12443   1.913   7.856   1.692 -0.2041 -0.9393 -0.2360
  934SOL    HW112444   1.938   7.770   1.649  0.2745 -0.0990 -1.6764
  934SOL    HW212445   1.817   7.876   1.673  0.1701 -0.2542 -1.5243
  935SOL     OW12446   8.307   8.886   2.107 -0.3961  0.1314  0.0707
  935SOL    HW112447   8.280   8.955   2.174 -0.7731 -0.7139  0.7979
  935SOL    HW212448   8.254   8.803   2.122  1.8907 -1.2121  0.8592
  936SOL     OW12449   2.415   8.313   0.218  0.4742  0.4398  0.1963
  936SOL    HW112450   2.371   8.385   0.272 -1.8376 -0.2847 -0.6285
  936SOL    HW212451   2.352   8.236   0.209  0.5933  0.6866 -3.8596
  937SOL     OW12452   3.302   1.677   1.765 -0.1628 -0.0088  0.3173
  937SOL    HW112453   3.304   1.592   1.817 -0.7440 -0.6926 -0.7482
  937SOL    HW212454   3.216   1.682   1.713  1.1449 -0.1674 -1.9093
  938SOL     OW12455   8.368   9.332   1.872 -0.4218  0.3645  0.3115
  938SOL    HW112456   8.313   9.309   1.792 -0.3937 -2.4488  1.0672
  938SOL    HW212457   8.464   9.312   1.854 -0.4680 -0.6794  1.1805
  939SOL     OW12458   9.753   2.351   0.086  0.4081 -1.0840 -0.3664
  939SOL    HW112459   9.799   2.306   0.163  0.4138  1.5021  1.2071
  939SOL    HW212460   9.654   2.349   0.101  0.5185  1.9319  1.2597
  940SOL     OW12461   8.695   1.967   1.950  0.3863  0.1159 -0.0358
  940SOL    HW112462   8.764   1.917   2.002 -2.7784 -4.1845  0.3163
  940SOL    HW212463   8.638   2.021   2.013 -0.4758 -1.3288  0.4434
  941SOL     OW12464   8.886   1.411   1.956  0.3937 -0.0624 -0.3810
  941SOL    HW112465   8.928   1.352   1.887  0.2895 -0.9865  0.3341
  941SOL    HW212466   8.854   1.355   2.032  1.4711  1.0583  0.9138
  943SOL     OW12467   4.739   3.113   1.573  0.3060  0.9374  0.9813
  943SOL    HW112468   4.795   3.175   1.628  0.1859  1.3456  0.6349
  943SOL    HW212469   4.673   3.066   1.633  1.6946 -0.3125  1.5699
  944SOL     OW12470   3.737   1.385   2.058  0.0325  0.7009 -0.2290
  944SOL    HW112471   3.706   1.477   2.031 -0.9019  0.7171  0.8663
  944SOL    HW212472   3.776   1.389   2.150 -2.2307 -0.4176  0.8344
  945SOL     OW12473   0.281   6.416   0.034  0.7557 -0.1568 -0.5111
  945SOL    HW112474   0.193   6.390  -0.006  0.3621 -2.0125  1.5135
  945SOL    HW212475   0.323   6.486  -0.024 -1.3863 -0.2437 -2.2726
  946SOL     OW12476   8.926   0.218   1.734 -0.1775 -0.2210  0.0741
  946SOL    HW112477   8.980   0.245   1.655  3.9851 -2.9143  1.8388
  946SOL    HW212478   8.956   0.269   1.815 -1.1724 -0.8377  0.8509
  947SOL     OW12479   0.878   3.734   2.000 -0.4502  0.5034  0.1326
  947SOL    HW112480   0.844   3.803   1.936  0.5968  2.5789  1.7487
  947SOL    HW212481   0.916   3.657   1.948 -2.9445  0.4332 -1.6936
  950SOL     OW12482   0.699   2.149   1.978  0.5731  0.4150 -0.1319
  950SOL    HW112483   0.791   2.185   1.966  1.2297 -0.4304  2.0322
  950SOL    HW212484   0.636   2.224   2.000  0.8671  0.9077 -0.9584
  951SOL     OW12485   8.692   0.248   1.536 -0.1400 -0.4794  0.7902
  951SOL    HW112486   8.754   0.317   1.497  0.2517 -2.5971 -2.5583
  951SOL    HW212487   8.742   0.191   1.601  0.7906 -0.6035 -0.0244
  952SOL     OW12488   0.394   8.872   0.546 -0.1601 -0.4364  0.6868
  952SOL    HW112489   0.364   8.843   0.637 -1.4442 -1.0333  0.0789
  952SOL    HW212490   0.402   8.791   0.487  1.5625 -0.1600  0.5157
  953SOL     OW12491   2.475   2.488   1.310  0.6896 -0.5951  0.0541
  953SOL    HW112492   2.482   2.582   1.342  1.1705 -0.3204 -0.8376
  953SOL    HW212493   2.537   2.475   1.233  0.6537 -1.6547  0.1990
  954SOL     OW12494   1.108   8.392   0.513  0.0575 -0.2190 -0.1223
  954SOL    HW112495   1.173   8.460   0.481 -0.4476 -0.0437 -0.7769
  954SOL    HW212496   1.064   8.347   0.435  1.6427 -2.5267  0.2668
  955SOL     OW12497   1.877   4.196   0.912 -0.0078  0.0582  0.3830
  955SOL    HW112498   1.890   4.229   0.818 -1.9061  0.5795  0.2809
  955SOL    HW212499   1.885   4.272   0.976  3.5251 -0.6526  0.8980
  956SOL     OW12500   4.054   1.778   1.405 -0.2359 -0.0990 -0.1039
  956SOL    HW112501   4.132   1.741   1.456 -0.5045  0.3378  0.6484
  956SOL    HW212502   3.985   1.811   1.470 -0.5047  0.6494 -0.7639
  957SOL     OW12503   0.638   1.640   0.006  0.3562 -0.2946 -0.3049
  957SOL    HW112504   0.554   1.598  -0.027 -0.0145 -0.2545  0.5948
  957SOL    HW212505   0.708   1.635  -0.066 -0.7842  0.8016 -1.5211
  959SOL     OW12506   2.368   0.590   1.521 -0.5865 -0.3009  0.2022
  959SOL    HW112507   2.296   0.521   1.518 -2.1704  1.2936  0.3404
  959SOL    HW212508   2.366   0.636   1.610  0.5758 -0.1968  0.1826
  960SOL     OW12509   1.173   1.954   2.018  0.1224  0.3878  0.1316
  960SOL    HW112510   1.246   1.961   1.949 -0.6514 -2.2051 -1.0081
  960SOL    HW212511   1.126   2.042   2.026  1.5777  1.3024 -1.1279
  962SOL     OW12512   4.224   2.080   1.586 -0.0059 -0.2556 -0.1068
  962SOL    HW112513   4.179   2.139   1.653  0.0746  1.0147 -1.1617
  962SOL    HW212514   4.310   2.047   1.623 -0.0546  0.2830  0.4951
  963SOL     OW12515   8.270   8.762   1.152  0.8201  0.0615  0.4290
  963SOL    HW112516   8.265   8.824   1.074  0.7206  0.5605  0.8270
  963SOL    HW212517   8.366   8.739   1.171  0.7615 -1.3185 -0.8100
  965SOL     OW12518   2.488   1.197   1.590 -0.1432 -0.6144 -0.0645
  965SOL    HW112519   2.394   1.219   1.562  0.0211  1.6800  1.1072
  965SOL    HW212520   2.540   1.168   1.509 -1.3962 -0.2590 -1.0296
  966SOL     OW12521   1.776   8.380   0.188 -0.2115  0.2816  0.4484
  966SOL    HW112522   1.866   8.411   0.219  0.0685 -0.8940  0.8458
  966SOL    HW212523   1.710   8.390   0.261  0.3316 -1.9862  1.2843
  967SOL     OW12524   9.542   7.622   0.749 -0.3134 -0.3726  0.7532
  967SOL    HW112525   9.589   7.709   0.732 -0.9308  0.0378  1.1250
  967SOL    HW212526   9.482   7.601   0.672  0.4522 -0.8769  0.2955
  968SOL     OW12527   0.422   3.735   1.316 -0.0774 -0.4107  0.0906
  968SOL    HW112528   0.341   3.783   1.284 -0.3540 -0.5256  0.6205
  968SOL    HW212529   0.477   3.795   1.374 -0.4470 -0.7492  0.7909
  969SOL     OW12530   2.853   2.878   1.192  0.4427 -0.5129  0.1846
  969SOL    HW112531   2.826   2.972   1.170 -0.2072 -0.5668  0.7498
  969SOL    HW212532   2.844   2.862   1.290  0.6043 -1.1527  0.1002
  970SOL     OW12533   9.529   3.615   2.136  0.0805 -0.1763 -0.0038
  970SOL    HW112534   9.490   3.543   2.080 -0.1439 -1.2855  1.5453
  970SOL    HW212535   9.628   3.617   2.124  0.0995 -0.8287  0.0316
  971SOL     OW12536   7.058   9.507   1.224  0.4499 -0.8050  0.1153
  971SOL    HW112537   7.147   9.528   1.265  1.1651 -1.1007 -1.2496
  971SOL    HW212538   7.065   9.512   1.125 -1.0704 -0.8290 -0.0052
  972SOL     OW12539   4.126   2.474   1.272  0.6579  0.3474  0.2824
  972SOL    HW112540   4.208   2.417   1.275 -0.2856 -1.0582  0.1654
  972SOL    HW212541   4.080   2.469   1.360  0.0431  0.1132 -0.0475
  973SOL     OW12542   2.630   0.934   0.566  0.4242 -0.6856  0.0136
  973SOL    HW112543   2.631   0.859   0.632 -0.0605 -0.0468  0.7569
  973SOL    HW212544   2.607   0.898   0.475  0.3174 -1.4488  0.3382
  974SOL     OW12545   0.261   8.254   1.667  0.2326 -0.5385 -0.2508
  974SOL    HW112546   0.163   8.261   1.688  0.1488 -1.0997 -0.4656
  974SOL    HW212547   0.314   8.262   1.752 -0.0478 -1.3955  0.0058
  977SOL     OW12548   9.408   4.977   1.346 -0.0297 -0.1903 -0.2438
  977SOL    HW112549   9.370   4.927   1.268  1.7875 -1.3170 -0.4362
  977SOL    HW212550   9.465   4.916   1.400 -0.2658  0.9063  1.2892
  980SOL     OW12551   2.992   4.778   1.628 -0.1575 -0.1593  0.0962
  980SOL    HW112552   3.017   4.869   1.659  0.1422 -0.3260  0.3422
  980SOL    HW212553   3.038   4.709   1.684 -1.0816 -0.4679  0.4795
  981SOL     OW12554   2.967   8.994   1.932 -0.2769 -0.2304 -0.1550
  981SOL    HW112555   2.901   9.037   1.993  1.4460 -2.0419  3.0781
  981SOL    HW212556   2.951   8.895   1.931  1.9173 -0.6003  0.0960
  982SOL     OW12557   4.132   4.969   2.277  0.1161  0.6944 -0.0695
  982SOL    HW112558   4.084   5.055   2.256 -0.4311  0.2469 -0.6541
  982SOL    HW212559   4.226   4.974   2.242 -0.4501  0.3793 -1.6729
  983SOL     OW12560   1.657   1.945   1.586 -0.2015  0.2915 -0.0937
  983SOL    HW112561   1.703   2.033   1.595  2.1582 -0.5873 -3.0168
  983SOL    HW212562   1.699   1.879   1.648  0.1275  0.4000 -0.2012
  984SOL     OW12563   9.816   0.425   0.476 -0.0257 -0.0973  0.1352
  984SOL    HW112564   9.808   0.349   0.540  1.0813 -1.7180 -1.6078
  984SOL    HW212565   9.880   0.493   0.513  0.9478 -1.2315  0.5585
  985SOL     OW12566   9.677   5.312   0.105 -0.1121 -0.1121 -0.4046
  985SOL    HW112567   9.679   5.221   0.146  0.5230 -0.5315 -1.3648
  985SOL    HW212568   9.586   5.353   0.119 -0.8373 -1.4360 -1.1796
  986SOL     OW12569   0.995   1.077   0.186 -0.1560 -0.2093 -0.1546
  986SOL    HW112570   1.052   0.995   0.174  0.3158 -0.3087  2.3615
  986SOL    HW212571   1.019   1.145   0.118  0.6784 -1.5136 -1.1796
  987SOL     OW12572   9.926   2.659   1.089 -0.2678  0.3288 -0.7241
  987SOL    HW112573   9.967   2.605   1.015  0.0062 -0.1103 -0.2579
  987SOL    HW212574   9.989   2.731   1.117 -0.5346  0.7454 -1.1867
  989SOL     OW12575   3.638   8.900   0.811 -0.9922  0.9708 -0.1662
  989SOL    HW112576   3.629   8.822   0.874 -0.6267 -0.8511 -2.2895
  989SOL    HW212577   3.552   8.914   0.763 -0.3721  0.2982 -1.5223
  990SOL     OW12578   4.249   4.554   1.520  0.3331  0.2400  0.0915
  990SOL    HW112579   4.154   4.535   1.494 -0.2916  1.0172  1.6721
  990SOL    HW212580   4.307   4.553   1.439 -0.6080 -2.6229 -0.5998
  991SOL     OW12581   1.939   5.518   0.186 -0.2161 -0.1528  0.1501
  991SOL    HW112582   1.963   5.603   0.139 -0.4577  1.3367  2.6205
  991SOL    HW212583   1.843   5.495   0.166  0.8202 -1.7244 -3.2386
  992SOL     OW12584   1.720   8.705   0.879  0.1121 -0.2846  0.4404
  992SOL    HW112585   1.772   8.788   0.864 -0.9784  0.5944  1.3881
  992SOL    HW212586   1.718   8.651   0.795  0.3898  0.8938 -0.3358
  993SOL     OW12587   1.596   5.765   0.168  0.2066 -0.2031  0.1168
  993SOL    HW112588   1.618   5.847   0.221 -0.5212  0.0728  0.0089
  993SOL    HW212589   1.497   5.760   0.156  0.1739 -1.6488  0.9921
  994SOL     OW12590   0.830   0.660   1.945  0.0580 -0.5273 -0.0558
  994SOL    HW112591   0.913   0.684   1.894  1.1032 -1.7805  1.0430
  994SOL    HW212592   0.773   0.742   1.954  0.5032  0.0346 -2.0216
  995SOL     OW12593   7.785   9.701   1.253  0.7541  0.4440  0.0374
  995SOL    HW112594   7.837   9.778   1.215  0.9445 -0.4861 -1.6781
  995SOL    HW212595   7.810   9.617   1.203  2.7220 -1.2815  3.7316
  996SOL     OW12596   0.423   0.777   2.194 -0.1631 -0.1485 -0.3413
  996SOL    HW112597   0.404   0.874   2.180 -1.5878 -0.3438  0.1983
  996SOL    HW212598   0.490   0.766   2.268  1.0785  0.4773 -1.3541
  998SOL     OW12599   2.277   0.804   0.598  0.0955 -0.1127 -0.2487
  998SOL    HW112600   2.317   0.737   0.661 -1.0748 -1.6940 -1.1521
  998SOL    HW212601   2.290   0.773   0.504 -0.3872  0.9776 -0.6753
 1001SOL     OW12602   1.926   9.374   1.619 -0.1678  0.9973  0.0603
 1001SOL    HW112603   1.949   9.303   1.552  1.5805  1.1127  0.4948
 1001SOL    HW212604   1.960   9.347   1.709 -0.1764  2.0241  0.3837
 1002SOL     OW12605   9.581   6.864   2.027  0.6017  0.0520  0.4491
 1002SOL    HW112606   9.641   6.876   1.947 -1.1647 -1.0051 -1.0817
 1002SOL    HW212607   9.555   6.954   2.062  0.4881  0.5433 -0.8700
 1003SOL     OW12608   4.056   6.337   0.666 -0.5419  0.5594  0.1235
 1003SOL    HW112609   4.047   6.359   0.763  1.3233  0.8086  0.2583
 1003SOL    HW212610   3.971   6.295   0.634 -0.7984 -0.5310  2.1171
 1004SOL     OW12611   3.342   5.035   0.897 -0.7978 -0.1897  0.1199
 1004SOL    HW112612   3.252   5.016   0.938 -0.4080  1.1596  1.6648
 1004SOL    HW212613   3.408   5.051   0.970  0.4943 -0.2073 -1.0350
 1005SOL     OW12614   9.860   0.678   2.140 -0.0497  0.1093  1.2329
 1005SOL    HW112615   9.885   0.598   2.194  0.6768 -0.0077  0.7288
 1005SOL    HW212616   9.827   0.751   2.200  0.1717 -0.2391  1.7742
 1006SOL     OW12617   9.887   3.501   1.617 -0.3974  0.2724 -0.2008
 1006SOL    HW112618   9.793   3.480   1.643 -0.0569 -0.4760  0.4181
 1006SOL    HW212619   9.936   3.417   1.594 -0.1075  0.7322 -1.3295
 1007SOL     OW12620   1.402   8.217   0.028  0.0899 -0.7214 -0.1919
 1007SOL    HW112621   1.444   8.127   0.017  1.1020 -0.2624 -0.0695
 1007SOL    HW212622   1.331   8.229  -0.043  3.0968  0.1809 -3.1941
 1009SOL     OW12623   1.378   2.517   0.814 -0.5673 -0.2021 -0.1665
 1009SOL    HW112624   1.307   2.447   0.814  0.7068 -1.5195  0.4164
 1009SOL    HW212625   1.425   2.516   0.726 -0.7091  0.0857 -0.2452
 1010SOL     OW12626   8.502   6.867   0.873 -0.2153 -0.1017 -0.4100
 1010SOL    HW112627   8.488   6.937   0.803 -0.6444 -1.5670 -1.8128
 1010SOL    HW212628   8.452   6.893   0.957 -2.1507  0.2220 -1.6272
 1011SOL     OW12629   8.989   6.765   1.279 -0.2323 -0.1737  0.3528
 1011SOL    HW112630   8.915   6.710   1.242  0.2844 -0.0410 -0.8899
 1011SOL    HW212631   9.047   6.708   1.337 -0.9535 -0.4146  0.8435
 1013SOL     OW12632   3.662   1.111   0.012 -0.0469 -0.7073  0.5193
 1013SOL    HW112633   3.593   1.164   0.061 -0.5041 -0.8435  0.0248
 1013SOL    HW212634   3.731   1.172  -0.027  0.1466 -0.5764  1.0564
 1015SOL     OW12635   1.438   5.520   0.319 -0.2547  0.6617 -0.2736
 1015SOL    HW112636   1.393   5.490   0.402  2.7496 -0.0659  1.1585
 1015SOL    HW212637   1.488   5.605   0.337  0.0260  0.7607 -1.4486
 1016SOL     OW12638   2.933   1.538   0.998 -0.1679  0.6713 -0.1334
 1016SOL    HW112639   2.835   1.542   1.016 -0.2594  3.1859 -0.9709
 1016SOL    HW212640   2.950   1.564   0.903  1.2755 -0.2051 -0.1244
 1017SOL     OW12641   2.816   7.733   0.220  0.1261 -0.2982 -0.5313
 1017SOL    HW112642   2.870   7.815   0.203 -0.7988  0.4476  0.1540
 1017SOL    HW212643   2.722   7.757   0.241 -0.0462 -1.4987  0.1686
 1018SOL     OW12644   0.573   6.429   0.033 -0.0425  0.2554  0.0638
 1018SOL    HW112645   0.485   6.448   0.077 -0.1460  1.9164 -0.8528
 1018SOL    HW212646   0.557   6.389  -0.057  0.1676 -0.5823  0.3865
 1020SOL     OW12647   3.822   3.790   0.494 -0.0614  0.9979  0.0829
 1020SOL    HW112648   3.743   3.807   0.552 -0.1497  0.4928  0.1080
 1020SOL    HW212649   3.793   3.772   0.400  0.0573  1.3707 -0.0292
 1022SOL     OW12650   8.868   0.500   1.172  0.2267 -0.3908 -0.3716
 1022SOL    HW112651   8.941   0.435   1.152  2.6091  2.1538 -0.2432
 1022SOL    HW212652   8.848   0.554   1.090  1.7475  2.0437  0.8117
 1024SOL     OW12653   2.865   7.331   0.745 -0.6703 -0.0216  0.3778
 1024SOL    HW112654   2.846   7.302   0.652 -0.6711 -0.3480  0.4769
 1024SOL    HW212655   2.850   7.254   0.808 -2.4244  0.6995  0.8615
 1025SOL     OW12656   8.362   0.067   0.278 -0.1662  0.0957  0.5497
 1025SOL    HW112657   8.296   0.140   0.297 -0.1750  0.8394 -2.1780
 1025SOL    HW212658   8.332   0.014   0.199  1.7297 -0.5399  0.2215
 1027SOL     OW12659   1.595   3.169   1.872  0.0511 -0.2781  0.0308
 1027SOL    HW112660   1.615   3.079   1.911 -1.2759 -0.7099 -0.2556
 1027SOL    HW212661   1.496   3.183   1.869  0.2162  0.7950 -0.8479
 1029SOL     OW12662   9.032   7.576   1.329  0.2428  0.0082  0.3085
 1029SOL    HW112663   8.977   7.560   1.411 -0.1170 -0.0383  0.0560
 1029SOL    HW212664   9.058   7.487   1.289 -1.0213  0.0351 -0.5967
 1030SOL     OW12665   1.615   1.454   0.726 -0.4194  0.2884 -0.1059
 1030SOL    HW112666   1.521   1.439   0.757 -0.8028 -0.0542 -1.4385
 1030SOL    HW212667   1.623   1.434   0.629  1.0174  0.4111 -0.0336
 1031SOL     OW12668   3.481   8.040   0.138  0.6215  0.3088 -0.0643
 1031SOL    HW112669   3.478   8.020   0.040 -0.1510  0.7818 -0.1381
 1031SOL    HW212670   3.502   8.137   0.151 -2.2547  0.9530  0.1678
 1032SOL     OW12671   8.764   6.919   0.084  0.1974 -0.1817 -0.2082
 1032SOL    HW112672   8.755   7.013   0.052  0.8925 -0.4494 -1.2365
 1032SOL    HW212673   8.833   6.872   0.029  0.5216 -1.0273  0.8949
 1033SOL     OW12674   8.362   6.917   1.815  0.3503  0.5921 -0.0908
 1033SOL    HW112675   8.303   6.989   1.777  1.8782  1.2103 -1.3418
 1033SOL    HW212676   8.342   6.906   1.912 -2.0160  0.5977 -0.5426
 1034SOL     OW12677   3.221   3.002   1.645 -0.3169 -0.5919  0.7987
 1034SOL    HW112678   3.236   3.049   1.732 -2.9602 -2.0526  2.1048
 1034SOL    HW212679   3.139   2.946   1.651 -0.5401 -0.7514 -2.6717
 1035SOL     OW12680   3.017   9.741   2.293  0.5041  0.3662  0.1467
 1035SOL    HW112681   3.053   9.647   2.298  1.1130  0.6562  1.4049
 1035SOL    HW212682   3.071   9.793   2.227  1.1681  0.2689  0.6121
 1036SOL     OW12683   4.121   0.754   1.477  0.6319  0.4887  0.3854
 1036SOL    HW112684   4.050   0.685   1.486  0.6497  0.3405 -0.5809
 1036SOL    HW212685   4.110   0.803   1.391  2.6137 -0.6017 -0.5237
 1037SOL     OW12686   0.556   5.284   0.890  0.1467  0.0353  0.2908
 1037SOL    HW112687   0.647   5.316   0.916  0.8642 -1.1238 -0.7830
 1037SOL    HW212688   0.533   5.320   0.800 -0.3299  0.0540  0.4175
 1038SOL     OW12689   1.259   4.367   0.430  0.1746  0.8124  0.0883
 1038SOL    HW112690   1.313   4.330   0.355  0.6508 -0.2167  0.9306
 1038SOL    HW212691   1.319   4.385   0.508 -0.5082  0.7833  0.6197
 1039SOL     OW12692   1.435   1.071   1.815 -0.3799  0.5373 -0.5599
 1039SOL    HW112693   1.461   1.032   1.726  1.5012  0.8528 -0.1540
 1039SOL    HW212694   1.422   1.170   1.805  0.2558  0.6376 -0.3887
 1040SOL     OW12695   9.482   0.831   1.210  0.0361 -0.5763  0.1459
 1040SOL    HW112696   9.419   0.895   1.165  0.3400 -1.5211 -1.6719
 1040SOL    HW212697   9.573   0.872   1.216 -0.1552 -0.1983  0.4794
 1042SOL     OW12698   0.119   4.493   0.831  0.0387 -0.4247  0.6717
 1042SOL    HW112699   0.202   4.546   0.851  0.6869 -1.0207 -0.3966
 1042SOL    HW212700   0.048   4.516   0.898  1.0206  0.1895  1.5196
 1044SOL     OW12701   1.163   4.702   0.693  0.2101  0.3610 -0.3245
 1044SOL    HW112702   1.133   4.618   0.739  1.1032  0.5506  0.6006
 1044SOL    HW212703   1.166   4.777   0.758 -0.6271  1.1467 -1.1582
 1045SOL     OW12704   3.435   9.719   1.389 -0.9435 -0.3858 -0.2171
 1045SOL    HW112705   3.507   9.688   1.326 -1.1710 -0.9069 -0.2281
 1045SOL    HW212706   3.346   9.701   1.348 -1.0874 -0.3880  0.0974
 1046SOL     OW12707   4.574   1.139   0.737  0.5803 -0.8422  0.1383
 1046SOL    HW112708   4.601   1.133   0.833  0.0485  0.5969  0.3921
 1046SOL    HW212709   4.612   1.223   0.697 -1.6107  0.0854 -0.0955
 1047SOL     OW12710   0.863   5.397   0.378  0.2840  0.4741  0.4125
 1047SOL    HW112711   0.779   5.429   0.336  1.0674  2.0211 -0.0073
 1047SOL    HW212712   0.909   5.332   0.317 -0.3283  0.0274  0.4223
 1048SOL     OW12713   2.374   4.349   0.579  0.1249  0.7256 -0.9057
 1048SOL    HW112714   2.389   4.382   0.486 -1.0149  1.0880 -0.9679
 1048SOL    HW212715   2.462   4.330   0.623  0.6978  1.6524 -1.6578
 1049SOL     OW12716   8.293   2.898   1.155  0.0882  0.5382 -0.2272
 1049SOL    HW112717   8.343   2.879   1.070  0.9187 -1.4406  0.6710
 1049SOL    HW212718   8.324   2.985   1.193  2.4611 -0.3691  0.0047
 1050SOL     OW12719   1.270   8.671   0.881  0.5217  0.9859  0.3677
 1050SOL    HW112720   1.189   8.728   0.882 -1.1206 -1.2378 -1.3329
 1050SOL    HW212721   1.261   8.598   0.948 -2.0150 -3.2927 -4.2915
 1051SOL     OW12722   2.390   5.227   1.074  0.7588 -0.1154 -0.5178
 1051SOL    HW112723   2.348   5.137   1.059 -2.6900  1.2804  0.2465
 1051SOL    HW212724   2.392   5.278   0.989 -2.1127  0.9893  0.0192
 1052SOL     OW12725   2.309   8.158   0.571  0.1561  0.3934 -0.6028
 1052SOL    HW112726   2.322   8.257   0.579  0.7026  0.3637 -1.1005
 1052SOL    HW212727   2.269   8.137   0.482 -1.6814  0.3222  0.2130
 1053SOL     OW12728   0.110   2.030   1.660  0.4954  0.2366  0.1266
 1053SOL    HW112729   0.096   1.932   1.675 -2.6596  0.5638 -0.4079
 1053SOL    HW212730   0.057   2.081   1.728  0.9503  1.6030 -0.5422
 1054SOL     OW12731   2.756   6.051   1.053  0.3484 -0.0479  0.1607
 1054SOL    HW112732   2.721   6.002   0.974 -1.0813 -0.4521  1.0259
 1054SOL    HW212733   2.739   6.148   1.043 -0.7419 -0.2103  0.4299
 1056SOL     OW12734   8.614   3.442   2.308  0.4296  0.4600  0.5036
 1056SOL    HW112735   8.653   3.352   2.288  0.4410  0.6291 -0.2517
 1056SOL    HW212736   8.685   3.511   2.299  0.1296  0.6874 -0.1786
 1057SOL     OW12737   8.610   3.164   1.063  0.0170 -0.6837 -0.5275
 1057SOL    HW112738   8.606   3.233   0.990  1.4880 -1.1111 -1.0252
 1057SOL    HW212739   8.668   3.088   1.034 -0.3779 -1.4306  0.6143
 1058SOL     OW12740   9.747   1.230   1.856 -0.3208 -0.0914  0.1846
 1058SOL    HW112741   9.733   1.138   1.819  1.5719  0.0471 -0.9129
 1058SOL    HW212742   9.820   1.227   1.925  0.9544  0.8716 -1.0970
 1059SOL     OW12743   0.582   4.729   0.428  0.1182  0.2591 -0.1274
 1059SOL    HW112744   0.678   4.750   0.444  0.4023 -0.6545 -0.6035
 1059SOL    HW212745   0.529   4.748   0.511  0.4019  2.5296 -0.4453
 1060SOL     OW12746   2.445   3.347   0.867 -0.2333  0.3826  0.0295
 1060SOL    HW112747   2.536   3.305   0.874 -0.8126 -1.1607 -1.4085
 1060SOL    HW212748   2.446   3.418   0.796 -0.4727 -0.5180 -0.8772
 1061SOL     OW12749   8.087   8.732   0.009 -0.4372 -0.6081  0.0805
 1061SOL    HW112750   8.027   8.664   0.053 -1.3130  1.2330  1.7859
 1061SOL    HW212751   8.178   8.726   0.048 -0.3387 -1.2492 -0.2399
 1062SOL     OW12752   1.691   4.311   1.862 -0.3693  0.6626  0.4089
 1062SOL    HW112753   1.692   4.244   1.788  0.7717 -0.1801  1.1575
 1062SOL    HW212754   1.754   4.281   1.934 -0.8565  1.8742  1.3506
 1063SOL     OW12755   2.838   9.428   1.905  0.2041  0.1324  0.0026
 1063SOL    HW112756   2.867   9.513   1.862  1.9453 -0.1956  0.4839
 1063SOL    HW212757   2.872   9.350   1.852 -0.9301 -0.2572 -0.1505
 1064SOL     OW12758   1.774   8.019   2.026  0.4450  0.0256 -0.0912
 1064SOL    HW112759   1.784   7.977   2.116  0.9129  0.0616 -0.1293
 1064SOL    HW212760   1.827   7.968   1.959  2.0714  1.4240  0.0971
 1065SOL     OW12761   8.883   1.828   2.180  0.4170 -0.1883 -0.0647
 1065SOL    HW112762   8.837   1.867   2.259  2.9153  0.7621  0.9816
 1065SOL    HW212763   8.910   1.734   2.201 -0.5836 -0.5783 -0.4981
 1066SOL     OW12764   3.452   6.079   1.000 -0.3270  0.3734 -0.0430
 1066SOL    HW112765   3.462   6.084   1.099 -0.8168  0.0870  0.0238
 1066SOL    HW212766   3.434   5.984   0.974  0.8729  0.2654 -0.5040
 1068SOL     OW12767   9.318   4.928   2.152 -0.3474  1.0057  0.5528
 1068SOL    HW112768   9.314   4.979   2.238  1.4066  2.5000 -0.2367
 1068SOL    HW212769   9.404   4.878   2.146 -1.1248 -0.3405  0.3417
 1069SOL     OW12770   9.165   4.247   0.334 -0.4457  0.2916 -0.0557
 1069SOL    HW112771   9.133   4.158   0.300  0.9541  0.0171 -0.6945
 1069SOL    HW212772   9.143   4.318   0.267  0.6515  0.0360 -0.6976
 1070SOL     OW12773   1.955   5.750   1.650 -0.4167  1.1053 -0.0048
 1070SOL    HW112774   2.043   5.794   1.635 -1.0172  2.0812 -0.7353
 1070SOL    HW212775   1.918   5.777   1.739  0.6513 -0.3999  0.9096
 1071SOL     OW12776   2.189   5.872   1.640 -0.0166 -0.0127  0.2117
 1071SOL    HW112777   2.220   5.953   1.590  2.1827 -0.7181  0.3899
 1071SOL    HW212778   2.267   5.814   1.662 -1.6990 -2.9204 -1.1852
 1072SOL     OW12779   7.318   9.626   1.309 -0.3403 -0.4381 -0.1342
 1072SOL    HW112780   7.295   9.694   1.379 -0.7374 -0.1341 -0.5635
 1072SOL    HW212781   7.408   9.648   1.270  0.0232 -0.7903  0.5016
 1073SOL     OW12782   2.803   1.077   0.165 -0.5539  0.0593 -0.3352
 1073SOL    HW112783   2.833   1.075   0.260  3.8606  1.9244 -1.5122
 1073SOL    HW212784   2.811   0.986   0.125  0.2223 -0.1949  0.3840
 1074SOL     OW12785   9.446   1.666   1.462 -0.3857  0.1710  0.3151
 1074SOL    HW112786   9.508   1.679   1.384 -0.9071  1.3793  0.1003
 1074SOL    HW212787   9.360   1.714   1.445 -0.5798  0.2732  1.5544
 1075SOL     OW12788   8.513   6.879   1.415 -0.1128  0.3042  0.1988
 1075SOL    HW112789   8.539   6.856   1.509  0.1822  1.8134  0.5131
 1075SOL    HW212790   8.587   6.930   1.371 -0.4304 -0.0097 -0.7092
 1076SOL     OW12791   0.864   2.685   2.164  0.2295 -0.2946  0.3842
 1076SOL    HW112792   0.877   2.784   2.165 -0.9285 -0.1247 -0.5747
 1076SOL    HW212793   0.775   2.663   2.203 -0.8080 -0.7319 -2.1136
 1077SOL     OW12794   8.386   2.845   0.575  0.3267  0.2523 -0.0251
 1077SOL    HW112795   8.414   2.918   0.637 -0.3626  0.4440  0.0670
 1077SOL    HW212796   8.365   2.883   0.486 -2.5800  0.5671  0.7447
 1078SOL     OW12797   0.750   8.334   0.015  0.5898 -0.7197  0.4641
 1078SOL    HW112798   0.725   8.389   0.094 -1.0744  0.3734 -0.7929
 1078SOL    HW212799   0.759   8.393  -0.065  3.5898 -1.5995  0.0774
 1079SOL     OW12800   3.033   4.836   1.339  0.0763  0.5104  0.0833
 1079SOL    HW112801   2.978   4.813   1.420  0.3781 -0.2172  0.0841
 1079SOL    HW212802   3.109   4.895   1.366  0.3539  0.0209  0.3888
 1081SOL     OW12803   1.823   1.395   0.088  0.4712  0.3357 -0.0679
 1081SOL    HW112804   1.802   1.317   0.029  1.3891 -0.0335  0.0854
 1081SOL    HW212805   1.894   1.369   0.154 -1.3038  0.4207  1.9227
 1082SOL     OW12806   0.236   5.312   0.495  0.3655 -0.1464 -0.0803
 1082SOL    HW112807   0.221   5.224   0.451 -0.7839 -0.3157  0.6376
 1082SOL    HW212808   0.199   5.385   0.436  0.1225 -0.2553 -0.0645
 1083SOL     OW12809   0.439   3.973   0.977 -0.5556 -0.0155 -0.0071
 1083SOL    HW112810   0.385   4.035   0.920 -0.9915 -0.2288  0.1708
 1083SOL    HW212811   0.385   3.946   1.057 -0.4328 -0.7421 -0.1619
 1084SOL     OW12812   9.309   2.965   1.843 -0.4597  0.1877 -0.1779
 1084SOL    HW112813   9.222   2.916   1.838 -0.3313 -0.1034  0.3814
 1084SOL    HW212814   9.370   2.917   1.906 -0.0652  0.6595 -0.2020
 1085SOL     OW12815   0.399   9.251   1.534 -0.1699 -0.2527 -0.2088
 1085SOL    HW112816   0.413   9.300   1.449  0.9826  2.2858  1.3893
 1085SOL    HW212817   0.341   9.305   1.595 -0.6500 -1.8451  0.7949
 1086SOL     OW12818   9.490   9.551   1.512 -0.3214  0.4002  0.0107
 1086SOL    HW112819   9.407   9.528   1.461 -0.1717 -0.1573  0.0096
 1086SOL    HW212820   9.531   9.634   1.474 -0.2373  0.0139 -0.7525
 1087SOL     OW12821   1.942   8.663   1.961  0.1206  0.7931  0.0669
 1087SOL    HW112822   2.015   8.720   1.923  0.3301 -0.3939 -1.3576
 1087SOL    HW212823   1.854   8.699   1.932  0.1720  1.4375  0.6783
 1088SOL     OW12824   2.829   8.194   2.029 -0.0227 -0.6969  0.0663
 1088SOL    HW112825   2.811   8.288   2.001 -0.1293 -0.6615  0.2563
 1088SOL    HW212826   2.885   8.193   2.112 -0.0876 -0.8007  0.1098
 1090SOL     OW12827   0.849   6.888   1.543 -0.0793 -0.0358  0.1189
 1090SOL    HW112828   0.855   6.980   1.582 -0.0608  0.0577 -0.1069
 1090SOL    HW212829   0.941   6.855   1.522 -0.1917  0.5951 -1.4470
 1091SOL     OW12830   0.650   3.910   0.681  0.1283  0.3648 -0.0588
 1091SOL    HW112831   0.644   3.866   0.771  1.8978  1.4740  0.6316
 1091SOL    HW212832   0.665   4.008   0.693 -1.3763  0.7976 -1.5827
 1093SOL     OW12833   9.440   3.457   1.933  0.1217 -0.3265 -0.1787
 1093SOL    HW112834   9.376   3.383   1.954 -0.7981  0.6827  0.6676
 1093SOL    HW212835   9.388   3.539   1.907  1.1154  0.0869 -0.8785
 1094SOL     OW12836   9.435   0.819   2.156  0.0709 -0.7459 -0.3712
 1094SOL    HW112837   9.440   0.819   2.056 -0.3029 -2.2560 -0.3958
 1094SOL    HW212838   9.383   0.740   2.187  1.2367 -0.9677  1.0763
 1096SOL     OW12839   2.782   0.537   1.095  0.2157 -0.3287  0.0765
 1096SOL    HW112840   2.787   0.447   1.138 -0.5127  0.2305  1.3322
 1096SOL    HW212841   2.842   0.538   1.014 -0.6403 -2.2930 -0.6162
 1097SOL     OW12842   1.081   7.456   1.125 -0.6154  0.0089  0.6393
 1097SOL    HW112843   1.110   7.385   1.059 -0.8433  0.4390  0.0696
 1097SOL    HW212844   1.060   7.540   1.075 -0.2231  0.5173  1.3324
 1098SOL     OW12845   5.405   9.655   2.044 -0.0689  0.3885  0.1708
 1098SOL    HW112846   5.381   9.685   2.136 -1.3212  0.4581 -0.1716
 1098SOL    HW212847   5.356   9.711   1.977  1.8306  1.2114 -0.5696
 1099SOL     OW12848   0.773   3.191   1.076  0.2788  0.3609 -0.4936
 1099SOL    HW112849   0.757   3.284   1.046 -0.4257  0.5459  0.4390
 1099SOL    HW212850   0.688   3.150   1.108  0.9008 -0.0079  0.7458
 1100SOL     OW12851   2.065   3.998   1.224 -0.3989  0.0298  0.0672
 1100SOL    HW112852   2.129   3.925   1.248 -0.7254 -0.7693 -1.3953
 1100SOL    HW212853   1.998   4.010   1.297  0.3005 -0.4010  0.7852
 1103SOL     OW12854   1.348   2.017   1.825 -0.3889  0.2958  0.2115
 1103SOL    HW112855   1.424   2.068   1.866 -1.4703  1.8172  0.3639
 1103SOL    HW212856   1.322   2.060   1.739  0.1236 -1.3163 -0.7632
 1104SOL     OW12857   9.436   0.868   1.891  0.0524 -0.4156  0.5889
 1104SOL    HW112858   9.363   0.935   1.874  0.5787  0.0426  0.1340
 1104SOL    HW212859   9.421   0.787   1.834  0.2926 -0.0262 -0.0249
 1105SOL     OW12860   4.299   2.655   0.886  1.0339 -0.3190  0.1092
 1105SOL    HW112861   4.393   2.632   0.914  1.4130 -0.8081 -1.5459
 1105SOL    HW212862   4.267   2.733   0.940  1.7724 -1.1910  1.8620
 1106SOL     OW12863   2.752   6.937   1.657 -0.3597 -0.2455 -0.1902
 1106SOL    HW112864   2.780   7.011   1.718  1.0614  0.0120 -1.1328
 1106SOL    HW212865   2.702   6.976   1.579  0.8765 -0.1977 -0.9756
 1107SOL     OW12866   1.959   4.723   0.958  0.4754 -0.8007 -0.0464
 1107SOL    HW112867   1.864   4.748   0.974  0.4883 -0.5600 -0.3410
 1107SOL    HW212868   2.012   4.738   1.041  0.2529 -0.9559  0.1248
 1108SOL     OW12869   8.766   6.394   1.618 -0.0887  0.5400  0.1530
 1108SOL    HW112870   8.774   6.349   1.529  3.2775  2.9375 -0.8378
 1108SOL    HW212871   8.826   6.349   1.683  0.0955  0.9713  0.2799
 1109SOL     OW12872   8.936   7.129   0.760 -0.2734 -0.3064  0.0149
 1109SOL    HW112873   8.922   7.045   0.812 -3.0041 -0.4849 -0.8948
 1109SOL    HW212874   8.984   7.108   0.675 -0.8800 -0.9345 -0.1764
 1110SOL     OW12875   9.848   2.598   0.041 -0.1111  0.3848 -0.3522
 1110SOL    HW112876   9.927   2.585   0.100 -0.3988  3.1406  0.7051
 1110SOL    HW212877   9.789   2.517   0.046  0.9276 -0.2931  1.4663
 1111SOL     OW12878   1.149   5.429   1.061  0.1331 -0.0120  0.0184
 1111SOL    HW112879   1.052   5.440   1.086  0.1576  2.6536 -0.9339
 1111SOL    HW212880   1.175   5.501   0.997  3.0540 -0.0765  1.0924
 1112SOL     OW12881   1.647   2.032   0.292 -0.6068 -0.9202  0.5090
 1112SOL    HW112882   1.727   1.979   0.263  0.8996  2.1020 -1.1128
 1112SOL    HW212883   1.599   2.065   0.210 -0.8579  1.1067  1.4497
 1114SOL     OW12884   0.925   4.605   1.071 -0.3970 -0.4414 -0.1232
 1114SOL    HW112885   1.008   4.649   1.105 -0.5610  0.6529 -1.0676
 1114SOL    HW212886   0.853   4.613   1.139  0.3223 -1.5490  0.7717
 1115SOL     OW12887   1.851   2.166   1.651 -0.0495 -0.0690  0.1532
 1115SOL    HW112888   1.775   2.228   1.633 -0.8405 -1.1180 -0.1664
 1115SOL    HW212889   1.915   2.169   1.573 -0.2517  0.1048 -0.0076
 1116SOL     OW12890   3.676   9.108   2.082  0.2793  0.1188  0.6804
 1116SOL    HW112891   3.607   9.045   2.046 -1.8120  1.7341  1.7455
 1116SOL    HW212892   3.702   9.079   2.174  1.1634 -0.5849  0.2142
 1117SOL     OW12893   0.586   9.323   0.090 -0.5261 -0.3501  0.2331
 1117SOL    HW112894   0.618   9.324  -0.004  0.1946 -0.5987  0.4768
 1117SOL    HW212895   0.609   9.410   0.134 -2.1382  0.3370 -0.2437
 1118SOL     OW12896   3.418   0.485   1.851  0.1623 -0.2090  0.1259
 1118SOL    HW112897   3.491   0.438   1.802 -0.6617 -1.5770  0.1841
 1118SOL    HW212898   3.385   0.562   1.797 -0.5549 -1.5385 -1.3877
 1119SOL     OW12899   8.044   1.681   0.250 -0.2600 -0.6330  0.9507
 1119SOL    HW112900   7.948   1.703   0.269 -0.3332 -0.2155  0.1257
 1119SOL    HW212901   8.099   1.697   0.331 -0.4380  1.8516  0.6008
 1120SOL     OW12902   1.452   5.212   1.287 -0.6193  0.3658  0.0424
 1120SOL    HW112903   1.544   5.209   1.247  0.9885 -0.6305  3.6610
 1120SOL    HW212904   1.425   5.308   1.299  1.4313  0.7023  2.1863
 1121SOL     OW12905   3.608   1.974   0.476  0.4984 -0.2516  0.2832
 1121SOL    HW112906   3.589   2.053   0.535  3.3142  1.0924 -0.5489
 1121SOL    HW212907   3.639   1.897   0.532 -1.6574 -0.6150  1.0317
 1122SOL     OW12908   1.333   4.158   0.154  0.1133  0.4907 -0.2175
 1122SOL    HW112909   1.247   4.199   0.127  0.3127  0.7702 -0.4314
 1122SOL    HW212910   1.328   4.059   0.144 -0.2315  0.4965 -0.0853
 1124SOL     OW12911   2.530   7.784   0.272 -0.2952 -0.2685 -0.0202
 1124SOL    HW112912   2.504   7.833   0.355  0.7308  1.6917 -0.8186
 1124SOL    HW212913   2.509   7.841   0.192 -2.2053 -2.5403 -1.1753
 1125SOL     OW12914   2.675   2.894   0.663  0.2222 -0.9421 -0.5496
 1125SOL    HW112915   2.718   2.815   0.706  1.5770 -1.5928 -3.0071
 1125SOL    HW212916   2.649   2.871   0.570 -1.4878  0.8269 -0.5414
 1127SOL     OW12917   9.698   4.735   0.794 -0.9691 -0.2890 -0.3327
 1127SOL    HW112918   9.631   4.719   0.722 -0.3573  0.5933 -1.1078
 1127SOL    HW212919   9.713   4.833   0.805  1.7578 -0.5131 -1.6489
 1128SOL     OW12920   9.536   4.784   2.101 -0.0544  0.4749 -0.4933
 1128SOL    HW112921   9.627   4.810   2.133 -0.5662  0.0459  1.3804
 1128SOL    HW212922   9.525   4.685   2.111 -1.2263  0.7070  0.6808
 1129SOL     OW12923   8.898   9.296   1.689  0.2783 -0.0655 -0.0143
 1129SOL    HW112924   8.972   9.272   1.626  0.5596  0.9776 -0.0776
 1129SOL    HW212925   8.850   9.377   1.656  0.4601  0.5222  1.1485
 1130SOL     OW12926   1.825   4.488   1.644  0.0254 -0.1782  0.5878
 1130SOL    HW112927   1.830   4.434   1.560  1.0161 -0.2548  0.6879
 1130SOL    HW212928   1.766   4.440   1.710 -0.7745 -0.1001 -0.0684
 1131SOL     OW12929   0.456   9.756   1.963 -0.2069 -0.3952 -0.0506
 1131SOL    HW112930   0.449   9.846   1.919 -1.5835 -0.5961 -0.2673
 1131SOL    HW212931   0.543   9.713   1.938 -0.0467  0.3955 -0.8657
 1133SOL     OW12932   1.439   7.910   0.014 -0.1173 -0.0194  0.0383
 1133SOL    HW112933   1.452   7.856  -0.069 -1.4626  1.8176 -1.4250
 1133SOL    HW212934   1.347   7.895   0.050 -0.3134  0.8661 -0.0759
 1134SOL     OW12935   0.345   7.647   1.849  0.4746  0.4692 -0.6304
 1134SOL    HW112936   0.345   7.549   1.872  0.3573  0.3711 -1.0444
 1134SOL    HW212937   0.277   7.664   1.778  0.9680  0.7343 -1.0468
 1135SOL     OW12938   0.838   9.834   1.256  0.0018  0.1990  0.2982
 1135SOL    HW112939   0.808   9.873   1.343 -1.5611 -1.1567  0.3909
 1135SOL    HW212940   0.931   9.798   1.265  1.0596  2.8886  0.5016
 1136SOL     OW12941   8.518   6.531   1.507 -0.4637  0.0857 -0.0533
 1136SOL    HW112942   8.518   6.629   1.526 -1.0752  0.7230 -2.9828
 1136SOL    HW212943   8.566   6.482   1.579  4.3348  3.0822 -0.9894
 1137SOL     OW12944   0.266   0.585   2.058 -0.0603  0.1052  0.3274
 1137SOL    HW112945   0.284   0.486   2.063 -1.8781 -0.3283 -0.8672
 1137SOL    HW212946   0.327   0.633   2.120  0.4206 -1.8417  1.4287
 1138SOL     OW12947   2.210   1.800   0.305 -0.1019  0.0041 -0.1692
 1138SOL    HW112948   2.217   1.865   0.380  0.4533  0.5838 -0.7193
 1138SOL    HW212949   2.295   1.799   0.253 -0.4491 -0.4570 -0.7391
 1140SOL     OW12950   2.144   9.735   2.009  0.0680 -0.8813  0.5243
 1140SOL    HW112951   2.196   9.662   1.965 -2.0410 -0.2052 -3.3803
 1140SOL    HW212952   2.065   9.695   2.056 -1.0144 -1.2205 -1.4996
 1142SOL     OW12953   3.943   9.994   1.805  0.8040  0.2903 -0.2017
 1142SOL    HW112954   3.998  10.077   1.794  3.3985 -1.7101 -2.8590
 1142SOL    HW212955   3.882   9.984   1.726  0.5109 -0.3611  0.1041
 1144SOL     OW12956   9.308   9.569   0.591 -0.2407  0.4981 -0.3893
 1144SOL    HW112957   9.338   9.538   0.500 -1.0031 -0.2565 -0.3931
 1144SOL    HW212958   9.208   9.561   0.597 -0.1221 -0.1287  0.7579
 1146SOL     OW12959   0.419   0.761   1.043 -0.4278  0.3772 -0.1428
 1146SOL    HW112960   0.385   0.843   0.997 -0.4627  1.4249  1.7168
 1146SOL    HW212961   0.499   0.784   1.097  0.1240 -1.0276 -0.3460
 1147SOL     OW12962   2.284   6.927   0.059 -0.2154 -0.3473  0.0972
 1147SOL    HW112963   2.379   6.923   0.088 -0.2211 -1.6726 -0.0071
 1147SOL    HW212964   2.224   6.917   0.138 -0.2333 -3.3025 -0.2331
 1149SOL     OW12965   1.226   7.084   2.172 -0.3852 -0.2648 -0.2626
 1149SOL    HW112966   1.221   6.986   2.153 -2.3559 -0.2317 -0.0161
 1149SOL    HW212967   1.315   7.106   2.211 -0.5320 -2.2554  1.2607
 1150SOL     OW12968   3.640   8.649   2.083  0.0922 -0.1401  0.3750
 1150SOL    HW112969   3.713   8.663   2.017 -0.4787  1.3834  0.0522
 1150SOL    HW212970   3.554   8.631   2.036  0.1597 -1.5199  0.7488
 1152SOL     OW12971   2.706   8.887   0.783 -0.7885 -0.1870 -0.2024
 1152SOL    HW112972   2.648   8.881   0.702  0.1891  0.5726 -0.9824
 1152SOL    HW212973   2.713   8.798   0.826 -3.2780 -0.1066  0.4423
 1153SOL     OW12974   1.167   1.094   1.415  0.2267 -0.3408  0.2371
 1153SOL    HW112975   1.140   1.081   1.320  1.7627  0.9582 -0.3919
 1153SOL    HW212976   1.195   1.007   1.454  2.1281 -0.4587 -1.3167
 1154SOL     OW12977   4.405   0.255   2.210  0.1449  0.0542 -0.3245
 1154SOL    HW112978   4.355   0.312   2.275 -1.1125 -2.0923  0.6298
 1154SOL    HW212979   4.501   0.248   2.239  0.6769  2.9019 -1.3010
 1155SOL     OW12980   2.371   6.355   1.431  0.3076  0.4224  0.1030
 1155SOL    HW112981   2.426   6.385   1.510 -1.1321 -1.2229  1.7706
 1155SOL    HW212982   2.431   6.316   1.362  1.3121 -1.2857  1.8732
 1156SOL     OW12983   3.998   1.885   0.194  0.0660  0.5969  0.5051
 1156SOL    HW112984   3.923   1.951   0.191 -0.2120  0.3141  1.1956
 1156SOL    HW212985   4.085   1.933   0.177 -0.1568  1.1014  0.7646
 1157SOL     OW12986   8.267   0.265   1.181  0.4806 -0.1762 -0.1086
 1157SOL    HW112987   8.255   0.246   1.084 -0.1264 -0.2739 -0.0150
 1157SOL    HW212988   8.317   0.351   1.192 -0.0203  0.1645 -0.5018
 1158SOL     OW12989   8.466   2.362   0.163 -0.1223 -0.0115  0.2442
 1158SOL    HW112990   8.530   2.293   0.197 -0.9966 -0.6960  0.5300
 1158SOL    HW212991   8.489   2.451   0.201  0.3594 -0.3480  0.7484
 1160SOL     OW12992   8.974   2.360   0.801  0.4712  0.2579  0.5690
 1160SOL    HW112993   8.925   2.422   0.739  0.5704  0.4955  0.7316
 1160SOL    HW212994   8.908   2.302   0.848  0.2721  1.2929  1.5692
 1161SOL     OW12995   1.323   4.506   2.013  0.2177 -0.0859 -0.0008
 1161SOL    HW112996   1.240   4.497   1.958  0.8107  0.0115 -0.9372
 1161SOL    HW212997   1.303   4.556   2.097 -0.7741 -0.5187  0.0225
 1162SOL     OW12998   7.610   9.379   1.603 -0.0172  0.1464 -0.2533
 1162SOL    HW112999   7.514   9.351   1.596 -0.2342  1.0407 -0.9337
 1162SOL    HW213000   7.616   9.465   1.652  0.5487 -0.4669  0.7797
 1164SOL     OW13001   0.526   3.893   1.697 -0.6504  0.0041  0.4983
 1164SOL    HW113002   0.495   3.798   1.689 -0.5039 -0.0004 -0.0550
 1164SOL    HW213003   0.552   3.927   1.606 -0.9101  0.6435  0.6654
 1165SOL     OW13004   9.820   1.390   2.226 -0.5134  0.5061 -0.4263
 1165SOL    HW113005   9.778   1.449   2.295  0.9615 -1.1395  1.9938
 1165SOL    HW213006   9.755   1.320   2.197 -0.8788  0.7009 -0.0741
 1166SOL     OW13007   5.141   9.760   1.942  0.1111 -0.3942 -0.8669
 1166SOL    HW113008   5.085   9.690   1.988  1.6518 -0.9510  0.1884
 1166SOL    HW213009   5.137   9.845   1.994  1.4535 -0.8787  0.0426
 1167SOL     OW13010   8.189   2.337   0.228 -0.0869  0.0534 -0.2694
 1167SOL    HW113011   8.284   2.337   0.197  0.8207  0.5560  2.3953
 1167SOL    HW213012   8.154   2.431   0.230  0.5386  0.2601  2.1323
 1169SOL     OW13013   0.132   4.055   0.380  0.2018 -0.5593  0.1448
 1169SOL    HW113014   0.167   4.136   0.428  1.0157 -1.7670  1.6066
 1169SOL    HW213015   0.108   4.080   0.286  0.0649  1.4775  0.6914
 1170SOL     OW13016   9.861   9.769   0.774  0.3297  0.0328 -0.2239
 1170SOL    HW113017   9.840   9.761   0.677  2.1365  1.0069 -0.7355
 1170SOL    HW213018   9.824   9.855   0.809 -0.2096 -0.2578 -0.0775
 1171SOL     OW13019   2.292   9.474   1.508 -0.1249 -0.1308  0.4241
 1171SOL    HW113020   2.314   9.446   1.414 -2.8985  0.2459 -0.3931
 1171SOL    HW213021   2.273   9.393   1.563 -1.5982 -0.2279 -0.1968
 1172SOL     OW13022   9.495   9.707   1.066 -0.7959 -0.3932  0.3131
 1172SOL    HW113023   9.462   9.624   1.021 -1.0807  1.4826 -3.1436
 1172SOL    HW213024   9.422   9.775   1.071  0.0928  0.5651  0.7282
 1173SOL     OW13025   1.261   1.080   0.345  0.2992 -0.2033  0.1348
 1173SOL    HW113026   1.268   1.175   0.314  0.9466 -0.6828 -1.2473
 1173SOL    HW213027   1.346   1.032   0.324  0.4800 -0.7435  2.0655
 1174SOL     OW13028   1.921   1.803   1.900 -0.6257  0.2479  0.4236
 1174SOL    HW113029   1.849   1.735   1.890  1.0646 -1.7560  1.4637
 1174SOL    HW213030   1.999   1.779   1.842 -0.5028  2.0329 -0.2042
 1175SOL     OW13031   1.688   3.240   0.955 -1.0430 -0.2793 -0.6790
 1175SOL    HW113032   1.750   3.165   0.936 -0.5692  0.1870 -0.9809
 1175SOL    HW213033   1.675   3.295   0.872 -0.1007  0.9189 -0.0458
 1178SOL     OW13034   9.152   5.263   1.557 -0.2585  0.4142 -0.6358
 1178SOL    HW113035   9.195   5.222   1.638  1.8520 -0.5191 -2.1998
 1178SOL    HW213036   9.106   5.192   1.505 -0.3100  0.7611 -1.0626
 1179SOL     OW13037   4.063   4.932   1.986  0.0453  0.0831 -0.6406
 1179SOL    HW113038   4.081   5.030   1.995 -0.1507  0.1555 -1.0018
 1179SOL    HW213039   4.057   4.890   2.076  0.8328  0.2743 -0.4927
 1180SOL     OW13040   3.370   5.467   0.820 -0.4538  0.3884  0.5925
 1180SOL    HW113041   3.397   5.457   0.916 -1.2159 -0.1049  0.7568
 1180SOL    HW213042   3.406   5.390   0.767  0.1534  0.7743  0.4345
 1181SOL     OW13043   1.353   6.452   0.437  0.3984  0.2351 -0.4430
 1181SOL    HW113044   1.328   6.541   0.477  0.9378  0.7686 -1.2957
 1181SOL    HW213045   1.285   6.426   0.368  1.1724  0.8029 -1.4262
 1182SOL     OW13046   9.064   9.976   0.116 -0.0050  0.3337 -0.3625
 1182SOL    HW113047   9.077  10.047   0.185  4.1482  0.7138 -1.3970
 1182SOL    HW213048   9.061   9.886   0.159  0.8423  0.6990  0.4624
 1183SOL     OW13049   2.794   5.926   1.961 -0.5276 -0.3477 -0.4670
 1183SOL    HW113050   2.816   5.835   1.926 -0.8856 -0.2940 -0.8374
 1183SOL    HW213051   2.717   5.964   1.910 -0.8118 -0.1121  0.1260
 1184SOL     OW13052   2.563   0.743   2.288  0.4441  0.9556  0.0918
 1184SOL    HW113053   2.619   0.819   2.320  0.7014  0.9948 -0.4619
 1184SOL    HW213054   2.615   0.657   2.298  0.5868  0.9884 -0.3918
 1185SOL     OW13055   0.698   7.263   1.262 -0.2095  0.0986  0.2873
 1185SOL    HW113056   0.767   7.334   1.275  1.6691 -1.4815 -0.8517
 1185SOL    HW213057   0.624   7.277   1.328  0.7445  2.3421  0.9408
 1186SOL     OW13058   9.922   2.642   1.472 -0.4468 -0.1700  0.1692
 1186SOL    HW113059   9.880   2.675   1.388  1.1201  0.4174 -0.3934
 1186SOL    HW213060   9.971   2.556   1.453  0.2561  0.1803  0.3865
 1188SOL     OW13061   9.314   6.624   0.188  0.2838 -0.1307  0.4134
 1188SOL    HW113062   9.362   6.630   0.101  1.3039 -1.2598  0.8877
 1188SOL    HW213063   9.334   6.536   0.232 -0.7320  0.1529  1.4886
 1189SOL     OW13064   1.988   8.673   0.059  0.3523 -0.6122 -0.3923
 1189SOL    HW113065   2.032   8.751   0.014 -0.7063  0.1664 -0.0987
 1189SOL    HW213066   2.044   8.591   0.046  1.7612  0.2995 -0.2524
 1190SOL     OW13067   1.880   3.224   0.462  0.2284 -0.4552 -0.4410
 1190SOL    HW113068   1.832   3.244   0.376  1.0336  0.3619 -0.7032
 1190SOL    HW213069   1.816   3.231   0.538 -0.2390 -0.1189 -0.8637
 1192SOL     OW13070   5.398   3.232   1.212  0.4215 -0.0269  0.0884
 1192SOL    HW113071   5.353   3.175   1.143 -2.1830 -2.0835  3.3047
 1192SOL    HW213072   5.481   3.186   1.244  0.6142  0.0147 -0.3546
 1193SOL     OW13073   0.434   6.540   1.741 -0.1346  0.5016  0.4246
 1193SOL    HW113074   0.449   6.553   1.643  0.4341 -0.3184  0.4003
 1193SOL    HW213075   0.502   6.592   1.793  0.5748 -0.3425  0.3571
 1194SOL     OW13076   3.620   4.755   1.369 -0.2330 -0.2780  0.9763
 1194SOL    HW113077   3.562   4.836   1.371  2.7474  2.1592 -3.3920
 1194SOL    HW213078   3.704   4.772   1.420  0.4226 -0.5868  0.0136
 1195SOL     OW13079   2.522   4.506   2.036  0.0533 -0.1621 -0.3544
 1195SOL    HW113080   2.539   4.573   2.108 -2.6944  1.2750 -0.9649
 1195SOL    HW213081   2.609   4.467   2.005  1.4390  0.7907  2.1874
 1196SOL     OW13082   0.038   9.621   1.673 -0.0344  0.2440  0.3058
 1196SOL    HW113083  -0.055   9.629   1.710 -0.2064  0.7481 -0.2503
 1196SOL    HW213084   0.103   9.615   1.749 -0.5755 -0.7575  0.7004
 1200SOL     OW13085   9.780   2.858   0.321 -0.5754 -0.1282 -0.0156
 1200SOL    HW113086   9.777   2.936   0.258  0.0419  1.5012  1.8907
 1200SOL    HW213087   9.875   2.837   0.343 -0.7945 -0.4622  0.6149
 1201SOL     OW13088   1.883   1.230   2.081  0.5232 -0.1946 -0.2766
 1201SOL    HW113089   1.831   1.237   2.166  0.6871  3.4939 -0.3846
 1201SOL    HW213090   1.974   1.192   2.100  1.2318  2.3067  1.5586
 1202SOL     OW13091   3.171   4.020   1.401 -0.2608  0.2957  0.3560
 1202SOL    HW113092   3.178   4.103   1.456  0.6799  0.2049  0.3808
 1202SOL    HW213093   3.188   3.940   1.459 -2.7117 -0.0178  0.6680
 1203SOL     OW13094   8.553   9.576   0.176  0.8284 -0.4571  0.4797
 1203SOL    HW113095   8.567   9.647   0.245  0.7622  0.9557 -0.9428
 1203SOL    HW213096   8.636   9.566   0.121  1.3393 -2.4910  1.5687
 1204SOL     OW13097   9.962   3.411   0.018 -0.1168  0.2364  0.1406
 1204SOL    HW113098   9.983   3.441  -0.075  1.2142  1.1105  0.7108
 1204SOL    HW213099   9.980   3.313   0.026 -0.5030  0.1028 -0.5982
 1208SOL     OW13100   9.126   4.709   1.505 -0.0404  0.0027 -0.1781
 1208SOL    HW113101   9.178   4.625   1.492  1.4329  0.9116 -0.2358
 1208SOL    HW213102   9.091   4.713   1.599  2.1787  0.5693  0.6601
 1211SOL     OW13103   2.576   9.481   1.676  0.6099  0.5368  0.3490
 1211SOL    HW113104   2.546   9.523   1.590  1.1881 -1.3372 -0.7916
 1211SOL    HW213105   2.662   9.523   1.705  0.3723  1.2315  0.0629
 1212SOL     OW13106   2.656   8.987   1.906 -0.1939  0.4811  0.0399
 1212SOL    HW113107   2.638   9.071   1.855 -1.7769  0.5542  0.6774
 1212SOL    HW213108   2.632   9.000   2.002 -0.2048 -0.6057  0.1978
 1214SOL     OW13109   4.473   8.670   0.003 -0.0152 -0.6049  0.2401
 1214SOL    HW113110   4.448   8.718  -0.081 -0.4957 -1.4249 -0.0929
 1214SOL    HW213111   4.529   8.730   0.060  0.6964 -0.2098 -0.8630
 1215SOL     OW13112   3.486   8.502   1.410 -0.3781 -0.3429  0.4678
 1215SOL    HW113113   3.541   8.568   1.460 -1.9217  0.9153  0.5607
 1215SOL    HW213114   3.544   8.450   1.347  0.4861  3.1000 -1.7272
 1216SOL     OW13115   8.875   8.646   0.309  0.5298 -0.3164  0.1572
 1216SOL    HW113116   8.869   8.561   0.256 -2.7908 -0.9400  1.4232
 1216SOL    HW213117   8.792   8.699   0.296  1.1686  1.1843  1.9998
 1217SOL     OW13118   2.737   9.353   0.760  0.0665 -0.5994  0.8006
 1217SOL    HW113119   2.666   9.398   0.814 -0.2242 -0.0979  0.0099
 1217SOL    HW213120   2.809   9.419   0.738 -0.4880 -0.4369 -0.5881
 1218SOL     OW13121   2.560   3.806   0.296  0.3302 -0.3796  0.0107
 1218SOL    HW113122   2.499   3.786   0.373 -0.7481 -0.0248 -0.7277
 1218SOL    HW213123   2.619   3.727   0.279 -0.2602 -0.9206  0.4340
 1220SOL     OW13124   1.697   1.637   0.072  0.4884 -0.2673 -0.1613
 1220SOL    HW113125   1.741   1.547   0.060  1.3648  0.2724 -1.1200
 1220SOL    HW213126   1.763   1.701   0.111 -0.0157  0.0616  0.1505
 1221SOL     OW13127   0.954   7.243   0.428 -0.0259  0.0600 -0.0726
 1221SOL    HW113128   0.872   7.224   0.483 -0.0463 -0.9893 -0.4484
 1221SOL    HW213129   0.977   7.162   0.375  0.5125  0.7802 -0.9466
 1224SOL     OW13130   8.489   2.867   0.973  0.3820  0.2694 -0.6923
 1224SOL    HW113131   8.566   2.907   1.023  0.1960  0.8508 -0.8662
 1224SOL    HW213132   8.512   2.774   0.944  0.5007 -0.0686  0.4637
 1225SOL     OW13133   9.734   8.651   2.074  0.1231  0.1127  0.0383
 1225SOL    HW113134   9.831   8.625   2.077  0.7493  2.3831  0.4494
 1225SOL    HW213135   9.695   8.623   1.987  1.6147  0.7092 -0.8388
 1228SOL     OW13136   0.913   4.566   0.223  0.0359 -0.4345  0.2566
 1228SOL    HW113137   0.909   4.600   0.317 -0.7076 -0.5994  0.2843
 1228SOL    HW213138   0.997   4.514   0.210 -0.5566 -1.6714  1.2603
 1229SOL     OW13139   9.993   2.462   0.659  0.3667  0.2385 -0.3575
 1229SOL    HW113140  10.025   2.367   0.657 -0.9065 -0.2392  0.7993
 1229SOL    HW213141   9.910   2.467   0.714  1.5617  2.3893  1.2915
 1230SOL     OW13142   8.887   4.460   0.329  0.0732 -0.0252 -0.4146
 1230SOL    HW113143   8.952   4.530   0.360  1.5188 -1.5996  0.1660
 1230SOL    HW213144   8.877   4.467   0.230  1.0219  0.3301 -0.4979
 1232SOL     OW13145   2.383   1.687   1.295 -0.7044 -0.1982  0.0776
 1232SOL    HW113146   2.429   1.599   1.286  1.1115  0.5684  1.5529
 1232SOL    HW213147   2.443   1.760   1.263 -1.5504  0.6719  0.4379
 1233SOL     OW13148   4.627   4.624   1.842  0.2497  0.7998 -0.1098
 1233SOL    HW113149   4.547   4.595   1.789  1.2585 -1.5800 -0.3954
 1233SOL    HW213150   4.642   4.560   1.917  2.1566  0.9711 -0.3376
 1234SOL     OW13151   3.997   9.002   1.943  0.1655  0.0630 -0.0990
 1234SOL    HW113152   3.962   9.089   1.979  1.4196  0.7271 -0.4461
 1234SOL    HW213153   4.087   8.985   1.982  0.3349 -0.6036 -0.7856
 1235SOL     OW13154   2.523   0.211   1.519 -0.3211 -0.4924 -0.0844
 1235SOL    HW113155   2.423   0.209   1.515 -0.2915 -0.6152 -0.7576
 1235SOL    HW213156   2.554   0.304   1.538 -0.4869 -0.0659 -1.8908
 1236SOL     OW13157   0.629   5.822   1.029  0.4318  0.7285 -0.6999
 1236SOL    HW113158   0.657   5.795   0.937  3.0584 -1.2598  0.6279
 1236SOL    HW213159   0.705   5.811   1.092 -1.6414  1.0210  1.9490
 1237SOL     OW13160   7.984   9.715   0.990  0.4657  0.6544 -0.3676
 1237SOL    HW113161   8.060   9.727   0.927  0.0005 -0.0200 -1.0683
 1237SOL    HW213162   7.993   9.627   1.037  0.0257  0.4920 -0.5843
 1238SOL     OW13163   2.545   6.770   0.422  0.5620  0.1007  0.1734
 1238SOL    HW113164   2.446   6.766   0.412  0.8115 -3.0418 -1.8314
 1238SOL    HW213165   2.573   6.714   0.499  0.8682 -0.2778 -0.2082
 1239SOL     OW13166   8.574   1.405   0.301  0.1108 -0.5786 -0.4030
 1239SOL    HW113167   8.567   1.307   0.317  1.4274 -0.2419  2.3853
 1239SOL    HW213168   8.670   1.431   0.290 -0.1666  0.5200 -0.3358
 1240SOL     OW13169   3.098   8.761   1.068  0.5902  0.2670 -0.5996
 1240SOL    HW113170   3.147   8.806   1.143  1.2580 -1.1306 -0.1785
 1240SOL    HW213171   3.030   8.824   1.030 -1.1758  0.3861  2.5013
 1242SOL     OW13172   3.974   2.112   1.441 -0.0563 -0.0203 -0.3064
 1242SOL    HW113173   4.070   2.093   1.462 -0.3434 -3.6924 -1.9262
 1242SOL    HW213174   3.920   2.031   1.459 -2.9119  2.0079  0.5575
 1243SOL     OW13175   1.388   5.980   1.466  0.2229  0.1004  0.4269
 1243SOL    HW113176   1.469   6.030   1.498  0.0368  0.5059  0.2712
 1243SOL    HW213177   1.311   5.999   1.526  0.4526 -0.9426  1.0522
 1244SOL     OW13178   3.725   0.565   0.667 -0.4863 -0.0365  0.3859
 1244SOL    HW113179   3.813   0.588   0.625 -0.8300 -0.1606 -0.4086
 1244SOL    HW213180   3.706   0.628   0.743  0.3164 -0.0521  0.6027
 1249SOL     OW13181   1.810   2.478   0.540 -0.6638 -0.8071  0.3740
 1249SOL    HW113182   1.907   2.485   0.564 -0.8363  1.2375  0.5642
 1249SOL    HW213183   1.756   2.458   0.622 -0.3321 -2.7978  0.1257
 1250SOL     OW13184   9.134   2.464   2.118  0.7153 -0.2118 -0.0028
 1250SOL    HW113185   9.034   2.470   2.110  0.6667 -0.6624  0.2341
 1250SOL    HW213186   9.160   2.370   2.140  1.1902 -0.0849 -0.0141
 1251SOL     OW13187   9.558   5.647   1.876 -0.9476  0.5698  0.2312
 1251SOL    HW113188   9.656   5.643   1.897 -0.6726  0.9721 -0.9573
 1251SOL    HW213189   9.545   5.646   1.777 -2.2396 -1.5550  0.4008
 1252SOL     OW13190   0.083   1.027   1.753  0.0042 -0.6036 -0.5471
 1252SOL    HW113191   0.145   1.067   1.821 -1.0027 -0.1751  0.1291
 1252SOL    HW213192   0.023   0.961   1.798  0.8259 -2.0007 -1.4338
 1253SOL     OW13193   9.069   8.144   2.276 -0.4360  0.0528  0.2755
 1253SOL    HW113194   9.038   8.118   2.184 -0.2804 -0.2099  0.2982
 1253SOL    HW213195   9.160   8.184   2.270 -1.1600  1.7309  0.0828
 1254SOL     OW13196   4.031   0.629   0.777 -0.0368  0.6846  0.4052
 1254SOL    HW113197   4.130   0.644   0.782 -0.1172  1.2258  0.4138
 1254SOL    HW213198   4.014   0.537   0.743  0.4760  0.8027 -0.1968
 1255SOL     OW13199   8.552   6.737   2.076 -0.0757 -0.0594  0.3468
 1255SOL    HW113200   8.651   6.739   2.090 -0.0956  0.4000  0.4060
 1255SOL    HW213201   8.532   6.680   1.996  0.4149  1.8840 -1.2090
 1256SOL     OW13202   1.089   5.108   2.287 -0.3736  0.0689 -0.2369
 1256SOL    HW113203   1.157   5.130   2.356  0.5687  1.5566 -1.5994
 1256SOL    HW213204   1.077   5.186   2.226 -2.3422 -0.6580 -0.8058
 1257SOL     OW13205   8.375   2.912   1.846 -0.3299  0.0002  0.7936
 1257SOL    HW113206   8.313   2.988   1.865 -0.3825  0.2577 -0.3417
 1257SOL    HW213207   8.468   2.946   1.832 -0.2035 -0.2292  1.0572
 1258SOL     OW13208   2.144   2.734   1.656 -0.0046  0.2420  0.0862
 1258SOL    HW113209   2.237   2.731   1.695 -0.2436 -0.7086  0.6005
 1258SOL    HW213210   2.086   2.791   1.714 -0.5931 -1.9092  1.6851
 1261SOL     OW13211   8.928   0.086   2.141  0.8010 -0.1472  0.3889
 1261SOL    HW113212   8.949   0.168   2.194  0.2044  0.2230  0.0518
 1261SOL    HW213213   9.011   0.054   2.096  1.3606 -0.5923  1.7173
 1262SOL     OW13214   1.223   6.566   0.183  0.4380 -0.5664 -0.1771
 1262SOL    HW113215   1.150   6.499   0.200  0.1413 -0.3054 -0.4243
 1262SOL    HW213216   1.249   6.563   0.087 -0.9531  1.0533 -0.6363
 1263SOL     OW13217   2.568   5.258   0.291  0.1041 -0.0663  0.4347
 1263SOL    HW113218   2.481   5.248   0.339  0.7425  0.9793  1.8231
 1263SOL    HW213219   2.556   5.233   0.195 -1.8692  0.6212  0.4840
 1264SOL     OW13220   0.017   2.351   1.630 -0.7942  0.0594 -0.1437
 1264SOL    HW113221  -0.019   2.284   1.695 -2.9299  1.0745 -0.2407
 1264SOL    HW213222  -0.016   2.330   1.538 -0.3810  0.4780 -0.3937
 1265SOL     OW13223   3.531   3.110   0.073 -0.2156  0.0837 -0.3074
 1265SOL    HW113224   3.485   3.170   0.139 -0.8708  0.0722 -0.7451
 1265SOL    HW213225   3.541   3.019   0.113 -1.2908 -0.1248 -0.5033
 1266SOL     OW13226   9.747   0.062   1.657  0.2946  0.0817  0.1046
 1266SOL    HW113227   9.697  -0.021   1.680  0.8681 -0.4825 -0.6659
 1266SOL    HW213228   9.722   0.092   1.564  0.2029  0.6828  0.3179
 1267SOL     OW13229   9.970   7.667   2.226  0.3885  0.0171  0.1897
 1267SOL    HW113230   9.960   7.568   2.217  1.7524 -0.0874 -0.3851
 1267SOL    HW213231   9.886   7.713   2.197 -1.1381 -1.0730  2.8149
 1274SOL     OW13232   9.125   1.159   0.616  0.0940  0.5347  0.0214
 1274SOL    HW113233   9.215   1.125   0.586 -0.0356 -0.0088  0.2365
 1274SOL    HW213234   9.102   1.242   0.565  0.9764  1.0010  0.3564
 1275SOL     OW13235   3.285   3.452   1.703  0.1281  0.3229  0.0640
 1275SOL    HW113236   3.354   3.475   1.772  1.1408  1.6208 -1.3201
 1275SOL    HW213237   3.297   3.512   1.624  1.0634 -3.1960 -2.5870
 1277SOL     OW13238   1.420   1.508   1.073 -0.1597 -0.3245 -0.5438
 1277SOL    HW113239   1.402   1.510   0.975 -0.8194 -2.6176 -0.4943
 1277SOL    HW213240   1.338   1.479   1.121  0.5737 -0.5926  0.5672
 1278SOL     OW13241   8.839   5.827   1.930  0.3824 -0.0061 -0.0072
 1278SOL    HW113242   8.831   5.859   1.836 -0.0362  0.6199  0.2312
 1278SOL    HW213243   8.811   5.732   1.936  0.2699 -0.0036 -0.4921
 1279SOL     OW13244   0.081   6.499   0.342 -0.2997  0.4161  0.0800
 1279SOL    HW113245   0.170   6.543   0.355 -0.0669 -0.0339  0.0324
 1279SOL    HW213246   0.070   6.474   0.246 -0.7574  1.0561 -0.0403
 1280SOL     OW13247   1.514   2.837   0.797  0.5539 -0.0730 -0.0525
 1280SOL    HW113248   1.502   2.911   0.864  1.3438 -1.7319  1.9807
 1280SOL    HW213249   1.439   2.840   0.731  0.2788  2.2050  0.3057
 1281SOL     OW13250   9.405   6.127   1.568 -0.2648  0.0490  0.4437
 1281SOL    HW113251   9.385   6.188   1.491  0.3562 -1.0998 -0.6341
 1281SOL    HW213252   9.355   6.159   1.649  1.3640  2.9776  0.3693
 1282SOL     OW13253   2.250   2.649   0.365  0.0083  0.6119  0.1117
 1282SOL    HW113254   2.206   2.570   0.323 -0.9069  1.5921 -0.8111
 1282SOL    HW213255   2.194   2.730   0.350  0.7653  1.3762  1.3478
 1283SOL     OW13256   4.002   4.512   2.292  0.2101  0.5005 -0.5032
 1283SOL    HW113257   3.967   4.429   2.335  2.3461 -0.2525 -0.1669
 1283SOL    HW213258   3.989   4.590   2.354  1.5950 -0.2536  0.7598
 1286SOL     OW13259   8.629   8.673   0.843 -0.2680  0.5694  0.2336
 1286SOL    HW113260   8.599   8.654   0.936 -0.5103 -0.9689 -0.1481
 1286SOL    HW213261   8.628   8.588   0.789 -0.2804  1.4689 -1.2100
 1288SOL     OW13262   4.400   0.069   0.453 -0.3010 -0.1409 -0.4056
 1288SOL    HW113263   4.323   0.097   0.396 -0.5039  1.4722  0.6006
 1288SOL    HW213264   4.456   0.003   0.404 -0.8586  0.6682 -2.1889
 1289SOL     OW13265   9.543   8.466   0.241 -0.0505 -0.1595 -0.6674
 1289SOL    HW113266   9.466   8.405   0.222  1.3162 -2.3420  0.6053
 1289SOL    HW213267   9.587   8.492   0.155 -0.2645 -1.4986 -1.1893
 1290SOL     OW13268   2.433   4.046   0.698 -0.4677  0.3238  0.8530
 1290SOL    HW113269   2.395   4.110   0.766 -0.0306 -0.4350  1.8264
 1290SOL    HW213270   2.362   4.018   0.635 -1.3512 -0.4494  2.1645
 1291SOL     OW13271   1.874   8.303   0.622 -0.5915  0.4835 -0.0348
 1291SOL    HW113272   1.957   8.312   0.568  1.0540  0.7616  2.4681
 1291SOL    HW213273   1.861   8.208   0.650 -1.4725  0.3272 -0.9367
 1292SOL     OW13274   2.109   6.503   1.973  0.4755  0.0835  0.1923
 1292SOL    HW113275   2.134   6.510   1.877 -0.1035 -2.6780 -0.2071
 1292SOL    HW213276   2.050   6.423   1.987 -0.1306  0.8993  2.7048
 1293SOL     OW13277   0.519   6.587   0.677 -0.6135  0.4506 -0.1301
 1293SOL    HW113278   0.551   6.682   0.672  1.6014 -0.2209  0.7736
 1293SOL    HW213279   0.527   6.545   0.587  0.8351  0.3639  0.0363
 1294SOL     OW13280   8.322   9.444   0.117  0.7824  0.3816 -0.3410
 1294SOL    HW113281   8.405   9.500   0.115 -0.2396  1.9199 -0.6245
 1294SOL    HW213282   8.308   9.402   0.027  0.3984  1.4162 -0.7703
 1295SOL     OW13283   3.719   4.125   1.790 -0.1383 -0.0912 -0.5119
 1295SOL    HW113284   3.764   4.039   1.818 -0.1374  0.4201  1.1467
 1295SOL    HW213285   3.621   4.110   1.784 -0.1747 -0.1301  0.1152
 1296SOL     OW13286   2.921   7.641   0.878  0.2325 -0.5271 -0.5526
 1296SOL    HW113287   2.850   7.589   0.830 -0.9322  0.4443  0.1096
 1296SOL    HW213288   2.973   7.579   0.937  0.3187 -1.3432 -1.4685
 1297SOL     OW13289   7.831   8.763   1.867 -0.4629 -0.3052 -0.2175
 1297SOL    HW113290   7.762   8.760   1.940  1.8089  0.0697  2.0092
 1297SOL    HW213291   7.852   8.858   1.845  0.3136 -0.4199  0.0357
 1298SOL     OW13292   2.384   2.894   2.219  0.5157  0.0725 -0.4742
 1298SOL    HW113293   2.285   2.907   2.232  0.6380  0.1884  0.3803
 1298SOL    HW213294   2.426   2.981   2.195  0.8939  0.7399  2.3909
 1299SOL     OW13295   8.000   0.666   0.880 -0.3968  0.4391 -0.2864
 1299SOL    HW113296   7.948   0.651   0.964 -0.6322  0.8818 -0.3544
 1299SOL    HW213297   7.956   0.616   0.805  0.1595 -0.4552 -0.0220
 1300SOL     OW13298   0.929   0.621   0.157 -0.0369 -0.1388 -0.2311
 1300SOL    HW113299   0.965   0.538   0.198 -1.5322 -1.3161 -1.2521
 1300SOL    HW213300   0.852   0.655   0.213  2.5944  2.4123  1.9933
 1301SOL     OW13301   2.422   8.707   1.976 -0.0440  0.2468 -0.4427
 1301SOL    HW113302   2.461   8.628   1.930  1.1428  1.0831 -0.9019
 1301SOL    HW213303   2.334   8.682   2.017 -0.9399 -0.6006 -2.8262
 1302SOL     OW13304   9.379   5.228   0.332 -0.2856 -0.4793  0.3287
 1302SOL    HW113305   9.365   5.172   0.250  0.8949  1.2020 -1.0899
 1302SOL    HW213306   9.393   5.169   0.411 -0.7657 -2.1650 -0.8063
 1304SOL     OW13307   9.649   0.985   0.346 -0.2879  0.2709  0.2344
 1304SOL    HW113308   9.664   0.909   0.409 -0.2818  0.1659  0.1066
 1304SOL    HW213309   9.632   1.069   0.398 -0.2454  0.1919  0.3753
 1305SOL     OW13310   3.033   9.260   1.034 -0.5315 -0.0471 -0.4898
 1305SOL    HW113311   3.047   9.243   1.132 -1.3594  2.7897  0.1719
 1305SOL    HW213312   3.106   9.216   0.982 -0.1480 -1.7124  1.3941
 1306SOL     OW13313   0.563   1.075   1.849  0.0680 -0.5748  0.1643
 1306SOL    HW113314   0.526   1.119   1.767  0.9511 -1.0149 -0.4891
 1306SOL    HW213315   0.537   0.978   1.850 -1.2981 -0.2088  1.2455
 1307SOL     OW13316   3.765   9.144   0.489 -0.1296  0.0596 -0.0841
 1307SOL    HW113317   3.671   9.141   0.454  0.0973 -1.0676 -0.6230
 1307SOL    HW213318   3.770   9.208   0.565 -1.6265 -0.8584  0.8019
 1310SOL     OW13319   3.260   7.662   0.602  0.5993  0.6536 -0.4873
 1310SOL    HW113320   3.340   7.608   0.630 -0.2125  0.9368  2.5533
 1310SOL    HW213321   3.181   7.601   0.593  0.3142  0.9156  0.2114
 1311SOL     OW13322   1.477   1.763   1.870  0.0716 -0.5019 -0.1534
 1311SOL    HW113323   1.416   1.825   1.821 -0.1969 -0.5875  0.0738
 1311SOL    HW213324   1.515   1.809   1.950  0.1870 -0.5009 -0.2068
 1312SOL     OW13325   1.082   2.241   2.003 -0.2081  0.0418  0.7495
 1312SOL    HW113326   1.039   2.235   2.094  0.1996  0.0525  0.9436
 1312SOL    HW213327   1.028   2.303   1.946  0.2966  1.1188  1.4249
 1313SOL     OW13328   3.824   1.728   0.066 -0.2106 -0.4409  0.4826
 1313SOL    HW113329   3.741   1.781   0.085 -0.6344 -0.3762 -1.5001
 1313SOL    HW213330   3.904   1.778   0.102 -0.6680  1.2325 -0.7569
 1314SOL     OW13331   3.889   0.980   1.797 -0.3717 -0.1061  0.6501
 1314SOL    HW113332   3.840   1.061   1.829 -2.5773 -1.2513  0.3108
 1314SOL    HW213333   3.933   1.000   1.709 -1.9611  0.3647 -0.0576
 1315SOL     OW13334   2.149   0.451   1.687  0.8625 -0.6193 -0.8838
 1315SOL    HW113335   2.207   0.395   1.746  1.3238 -1.2328 -1.8968
 1315SOL    HW213336   2.107   0.525   1.741  2.9350  0.1092 -0.2287
 1316SOL     OW13337   3.150   0.470   1.392  0.1748  0.1171  0.2050
 1316SOL    HW113338   3.126   0.439   1.300 -0.9305 -0.2017  0.5864
 1316SOL    HW213339   3.212   0.404   1.434 -2.5044 -1.8939  1.1711
 1317SOL     OW13340   0.389   5.562   1.797  0.9609 -0.5675  0.3272
 1317SOL    HW113341   0.296   5.534   1.821  0.7786  0.8670  1.3860
 1317SOL    HW213342   0.430   5.494   1.736 -0.8695 -1.0779 -0.3598
 1318SOL     OW13343   8.590   1.348   2.019  0.5023 -0.4536  0.0636
 1318SOL    HW113344   8.529   1.411   2.066  0.7088 -0.0735 -0.1804
 1318SOL    HW213345   8.546   1.314   1.937  0.8137  0.2086 -0.3802
 1319SOL     OW13346   1.989   7.851   1.958 -0.0522 -0.2876 -0.0048
 1319SOL    HW113347   2.073   7.895   1.989 -0.5384  0.4889  0.2045
 1319SOL    HW213348   1.971   7.874   1.862  0.0647 -0.6017 -0.1055
 1320SOL     OW13349   3.989   0.711   1.044  0.1154  0.2588  0.1091
 1320SOL    HW113350   3.996   0.686   0.947  0.9589  1.2147 -0.0906
 1320SOL    HW213351   3.907   0.670   1.083 -0.2536 -0.1103 -1.0238
 1321SOL     OW13352   2.808   9.512   0.150 -0.4285 -0.9419  0.7101
 1321SOL    HW113353   2.846   9.604   0.149 -1.2899 -0.5789  1.1361
 1321SOL    HW213354   2.726   9.509   0.092 -0.4790 -1.4078  0.8038
 1322SOL     OW13355   1.140   3.499   0.351 -0.4796 -0.8353 -0.3934
 1322SOL    HW113356   1.116   3.483   0.447  0.7951 -1.0014 -0.0969
 1322SOL    HW213357   1.122   3.594   0.328 -1.4695 -0.9683 -0.1938
 1323SOL     OW13358   4.479   3.071   0.337 -0.4460 -0.1213  0.2493
 1323SOL    HW113359   4.403   3.134   0.349 -2.3679 -2.2342 -0.5541
 1323SOL    HW213360   4.545   3.110   0.273 -1.6413  1.0313 -0.2991
 1324SOL     OW13361   3.641   2.810   1.721 -0.4412  0.0888  0.0406
 1324SOL    HW113362   3.600   2.744   1.785 -1.0556  0.3246 -0.1007
 1324SOL    HW213363   3.571   2.876   1.693  0.4818  1.5253  1.0975
 1325SOL     OW13364   3.151   0.312   2.289 -0.7554  0.3332 -0.0695
 1325SOL    HW113365   3.250   0.309   2.303 -0.7024  1.4560 -0.1533
 1325SOL    HW213366   3.119   0.406   2.301 -1.5649  0.2781 -1.6282
 1326SOL     OW13367   4.211   5.046   1.549  0.3461 -0.0960 -0.0613
 1326SOL    HW113368   4.197   4.962   1.601 -1.0478 -0.1494 -0.4867
 1326SOL    HW213369   4.220   5.123   1.613 -2.6548  0.0281  0.2963
 1327SOL     OW13370   9.048   0.932   1.061  0.5668 -0.1945 -0.3413
 1327SOL    HW113371   9.147   0.941   1.072  0.5706  0.0018 -0.5620
 1327SOL    HW213372   9.017   0.991   0.987  0.0253  1.1321  0.9320
 1330SOL     OW13373   3.214   1.939   0.844  0.4437 -0.1239  0.2387
 1330SOL    HW113374   3.207   1.864   0.910  0.6494  1.0864  1.6844
 1330SOL    HW213375   3.129   1.944   0.791  1.4591 -3.0353 -1.7522
 1331SOL     OW13376   9.215   8.183   0.568 -0.1617  0.4188 -0.4325
 1331SOL    HW113377   9.250   8.095   0.536  0.4643  0.1698  0.8928
 1331SOL    HW213378   9.286   8.230   0.620 -0.0648  2.3020 -2.1956
 1332SOL     OW13379   0.165   7.998   0.712 -0.0262 -0.1394  0.1879
 1332SOL    HW113380   0.219   8.070   0.757  1.1130 -1.3666  0.8493
 1332SOL    HW213381   0.206   7.977   0.623  0.9386 -1.4324  0.9112
 1333SOL     OW13382   3.378   8.099   0.464 -0.2304  0.0396  0.2058
 1333SOL    HW113383   3.356   8.112   0.367 -2.5166  3.0647  1.0389
 1333SOL    HW213384   3.442   8.171   0.493 -0.9548  0.2363  1.3481
 1334SOL     OW13385   4.637   1.539   0.922  0.2978  0.1507 -0.6121
 1334SOL    HW113386   4.566   1.606   0.901 -0.4526 -1.0209 -1.8447
 1334SOL    HW213387   4.672   1.499   0.838  0.8957 -0.8423  0.0967
 1335SOL     OW13388   3.608   0.502   0.383 -0.0491  0.7180 -0.8067
 1335SOL    HW113389   3.635   0.544   0.470  2.6215  0.4640 -1.4531
 1335SOL    HW213390   3.637   0.561   0.307  2.8675 -1.7204 -1.6857
 1337SOL     OW13391   1.009   4.109   0.405  0.1690 -0.0185 -0.1269
 1337SOL    HW113392   1.105   4.087   0.426  0.8973  1.6230 -1.5990
 1337SOL    HW213393   0.987   4.199   0.443 -0.4585  0.0985 -0.7647
 1338SOL     OW13394   0.142   3.316   0.912 -0.1923  0.1315  0.0559
 1338SOL    HW113395   0.132   3.398   0.856 -2.6652 -0.1804 -0.0249
 1338SOL    HW213396   0.054   3.268   0.918  1.3722 -2.9535 -0.5508
 1339SOL     OW13397   2.751   8.641   0.876 -0.4273  0.0718  0.1150
 1339SOL    HW113398   2.821   8.573   0.854 -1.2539 -0.8321  0.2248
 1339SOL    HW213399   2.683   8.600   0.937 -0.1931  1.4196  1.3369
 1341SOL     OW13400   8.437   8.755   0.324  0.0456 -0.4984 -0.3349
 1341SOL    HW113401   8.525   8.801   0.331  0.0648 -0.6696  0.6401
 1341SOL    HW213402   8.430   8.685   0.396 -1.1252 -0.0616 -0.0089
 1343SOL     OW13403   9.315   1.408   2.320 -0.3298 -0.4020  0.5064
 1343SOL    HW113404   9.319   1.499   2.279  0.2924 -0.8937 -0.5486
 1343SOL    HW213405   9.220   1.376   2.322 -0.5092  0.1499  0.5994
 1344SOL     OW13406   9.536   4.499   0.924  0.7337 -0.1506  0.5994
 1344SOL    HW113407   9.515   4.543   0.837 -0.5336  1.7081  1.8248
 1344SOL    HW213408   9.551   4.568   0.994 -1.0477 -1.6565  2.5088
 1346SOL     OW13409   9.720   3.254   2.031  0.5569  0.7310  0.0938
 1346SOL    HW113410   9.654   3.308   2.083  0.0670  0.4324 -0.2198
 1346SOL    HW213411   9.708   3.157   2.052 -0.1214  0.5408 -1.1025
 1347SOL     OW13412   1.434   7.415   0.441 -0.4032 -0.0964  0.2744
 1347SOL    HW113413   1.381   7.395   0.358  0.2898  1.3606 -0.5466
 1347SOL    HW213414   1.532   7.402   0.422 -0.3572 -1.5349  1.4084
 1348SOL     OW13415   8.156   1.006   0.027 -0.7635  0.3837 -0.8813
 1348SOL    HW113416   8.111   0.967  -0.053 -0.2992  1.0349 -1.4715
 1348SOL    HW213417   8.095   1.071   0.072 -1.4157 -0.7641 -0.0862
 1349SOL     OW13418   2.069   3.071   1.051 -0.2232 -0.0832 -0.5272
 1349SOL    HW113419   2.009   3.104   0.979  0.3264  0.1858 -0.8649
 1349SOL    HW213420   2.079   2.972   1.044  0.6410  0.0667 -1.4444
 1350SOL     OW13421   8.266   2.008   1.906 -0.1944  0.1971  0.3809
 1350SOL    HW113422   8.321   1.925   1.911 -0.2256  0.1795  0.4310
 1350SOL    HW213423   8.170   1.984   1.893 -0.3470  0.1940  1.4406
 1351SOL     OW13424   2.390   4.896   2.087  0.0167 -0.9676 -0.2131
 1351SOL    HW113425   2.310   4.901   2.027 -0.7369  0.1087  0.8519
 1351SOL    HW213426   2.472   4.921   2.036 -0.7757  1.0704 -0.5051
 1353SOL     OW13427   3.002   8.740   1.750  0.2899 -0.1494 -0.1700
 1353SOL    HW113428   3.058   8.665   1.712 -0.2446 -0.2742 -0.7193
 1353SOL    HW213429   2.908   8.731   1.717 -0.0127  0.1684  0.6063
 1355SOL     OW13430   2.840   3.275   0.398  0.3684 -0.2966 -0.2837
 1355SOL    HW113431   2.903   3.343   0.437 -0.0044  0.5844 -1.2097
 1355SOL    HW213432   2.755   3.273   0.451  0.0567  0.5401 -0.7642
 1356SOL     OW13433   0.981   9.745   1.670  0.7648  0.2194 -0.5142
 1356SOL    HW113434   1.057   9.764   1.607  1.2321 -0.6693 -0.2254
 1356SOL    HW213435   0.920   9.678   1.630  1.2984 -0.6739  0.1545
 1357SOL     OW13436   9.849   1.320   0.190 -0.0124  0.4953  0.3271
 1357SOL    HW113437   9.759   1.292   0.223  0.3949  0.4774  1.4097
 1357SOL    HW213438   9.845   1.331   0.090 -1.1648  0.3243  0.3468
 1358SOL     OW13439   1.737   2.752   0.564 -0.5661 -0.0022  0.0844
 1358SOL    HW113440   1.767   2.661   0.534  1.8591  1.4922 -2.2389
 1358SOL    HW213441   1.780   2.775   0.651  2.3412  0.6355 -1.4512
 1362SOL     OW13442   9.983   4.955   1.065  0.2391  0.1046 -0.2509
 1362SOL    HW113443  10.060   4.975   1.125  0.0688 -0.0440  0.0126
 1362SOL    HW213444   9.947   5.041   1.028 -0.2460  0.2628  0.5825
 1363SOL     OW13445   3.446   0.063   1.890 -0.1459  0.1697 -0.3708
 1363SOL    HW113446   3.405   0.080   1.979 -1.3388 -0.3546 -0.8008
 1363SOL    HW213447   3.493   0.145   1.858 -0.9138  0.8107  0.1143
 1364SOL     OW13448   4.535   3.931   0.957 -0.3451 -0.5979 -0.0053
 1364SOL    HW113449   4.630   3.945   0.929  0.2547 -2.3430  1.0828
 1364SOL    HW213450   4.511   3.999   1.027 -0.0824  0.1777 -0.6543
 1365SOL     OW13451   1.797   3.910   0.695  0.2413 -0.5033 -0.0420
 1365SOL    HW113452   1.790   3.844   0.770 -1.2187 -0.5800 -0.2507
 1365SOL    HW213453   1.741   3.880   0.618  0.1922  0.5833 -0.4370
 1366SOL     OW13454   2.805   2.098   1.652 -0.3218 -0.7703 -0.2043
 1366SOL    HW113455   2.730   2.142   1.701 -0.8425 -0.7485 -1.0049
 1366SOL    HW213456   2.862   2.046   1.717 -1.5979 -1.6010  0.2757
 1371SOL     OW13457   1.490   6.670   0.231 -0.6027 -0.3021  0.1514
 1371SOL    HW113458   1.400   6.627   0.234 -0.2659 -0.9556  1.5705
 1371SOL    HW213459   1.549   6.620   0.167 -0.7722 -0.8464  0.4124
 1372SOL     OW13460   2.165   8.014   0.361 -0.3363 -0.0676  0.0042
 1372SOL    HW113461   2.183   7.937   0.422 -0.4581 -0.5979 -0.6295
 1372SOL    HW213462   2.066   8.028   0.353 -0.3078  0.5557  0.6062
 1374SOL     OW13463   9.954   2.049   1.389  0.1962 -0.2055  0.5695
 1374SOL    HW113464   9.983   2.056   1.484 -2.6592  1.6714  1.3635
 1374SOL    HW213465   9.875   1.988   1.382  2.2188 -2.7723 -1.0991
 1375SOL     OW13466   3.173   2.027   1.488  0.2381  0.0366 -0.4909
 1375SOL    HW113467   3.130   1.987   1.407 -0.5061  0.5002 -0.3193
 1375SOL    HW213468   3.185   2.125   1.474  0.8461 -0.0160 -0.3596
 1377SOL     OW13469   0.390   1.122   2.180 -0.1352 -0.2556 -0.0177
 1377SOL    HW113470   0.325   1.115   2.104 -0.2668  1.6320 -0.1115
 1377SOL    HW213471   0.348   1.175   2.254 -0.6640 -3.5616  2.1319
 1378SOL     OW13472   2.959   9.217   1.757  0.1575 -0.1468  0.3331
 1378SOL    HW113473   2.927   9.217   1.662 -0.7793 -0.0646  0.6434
 1378SOL    HW213474   2.932   9.132   1.801  1.2506 -0.5125  0.3158
 1379SOL     OW13475   8.322   9.436   1.452 -0.4819 -0.0348 -0.4913
 1379SOL    HW113476   8.383   9.480   1.387  0.4241 -0.0469  0.3334
 1379SOL    HW213477   8.300   9.500   1.525 -0.5457 -0.3917 -0.1964
 1381SOL     OW13478   8.603   1.010   1.246  0.7554  0.3136 -0.4411
 1381SOL    HW113479   8.535   0.938   1.252  0.2441  0.8708  0.5297
 1381SOL    HW213480   8.689   0.972   1.212 -0.2979 -0.2053 -2.6387
 1382SOL     OW13481   8.606   7.894   2.159 -0.7023  0.2054  0.5915
 1382SOL    HW113482   8.624   7.867   2.065  0.3483  0.7748  0.6155
 1382SOL    HW213483   8.604   7.813   2.218  0.5697  0.0035  0.3750
 1383SOL     OW13484   1.126   6.993   1.637 -0.2550  0.1940 -0.4641
 1383SOL    HW113485   1.225   6.989   1.650  0.0658 -1.4335 -3.0258
 1383SOL    HW213486   1.096   7.089   1.638  1.0154  0.6024  2.3235
 1384SOL     OW13487   4.066   9.373   1.232 -0.7371  0.2450  0.0822
 1384SOL    HW113488   4.129   9.298   1.214 -0.2630  0.4800  0.7334
 1384SOL    HW213489   4.053   9.383   1.331 -1.4776  0.4581 -0.0305
 1385SOL     OW13490   2.835   6.175   0.392 -0.5668  0.7201 -0.5486
 1385SOL    HW113491   2.742   6.142   0.380 -0.3658  0.1497 -0.5298
 1385SOL    HW213492   2.876   6.131   0.471  0.3315 -0.3696 -1.6085
 1386SOL     OW13493   2.923   6.750   1.899 -0.5043  0.0225 -0.3635
 1386SOL    HW113494   2.938   6.726   1.803 -1.2303 -0.9143 -0.2440
 1386SOL    HW213495   2.847   6.697   1.935 -0.0274  0.1386  0.8300
 1387SOL     OW13496   0.467   2.172   1.473 -0.4359 -0.4908  0.7260
 1387SOL    HW113497   0.379   2.157   1.428  0.3501 -1.6244 -0.4438
 1387SOL    HW213498   0.477   2.108   1.550 -0.8006 -0.0865  1.1126
 1388SOL     OW13499   2.045   3.642   1.706 -0.4969  0.8685  0.2527
 1388SOL    HW113500   2.075   3.549   1.686  1.1736  1.5461 -0.5178
 1388SOL    HW213501   2.093   3.677   1.786  0.0668  1.6096 -0.3920
 1389SOL     OW13502   4.129   2.868   1.409 -0.4839  0.3461 -0.0184
 1389SOL    HW113503   4.150   2.823   1.496 -1.2465  0.3568  0.1817
 1389SOL    HW213504   4.059   2.938   1.424 -2.2607 -1.1571 -0.9785
 1390SOL     OW13505   3.149   5.921   0.524  0.0826 -0.2496  0.1830
 1390SOL    HW113506   3.051   5.931   0.541 -0.1503 -0.2273 -1.1191
 1390SOL    HW213507   3.178   5.989   0.456  1.1360  0.1824  1.0473
 1392SOL     OW13508   9.074   6.082   1.623 -0.4720 -0.1239 -0.0996
 1392SOL    HW113509   9.119   6.172   1.619 -1.5428  0.4317  0.0573
 1392SOL    HW213510   9.130   6.019   1.676 -0.3370  0.8351  0.9150
 1394SOL     OW13511   3.032   4.497   0.630  0.1864 -0.1182 -0.3708
 1394SOL    HW113512   3.102   4.454   0.573  1.0958 -0.2718  0.8371
 1394SOL    HW213513   3.046   4.472   0.726 -1.3687  0.0669 -0.0725
 1395SOL     OW13514   0.119   7.727   1.651 -0.0931 -0.6264  0.5666
 1395SOL    HW113515   0.054   7.650   1.646 -0.0432 -0.5680 -1.1865
 1395SOL    HW213516   0.170   7.733   1.566  0.6270  0.7431  1.0825
 1396SOL     OW13517   0.901   1.722   1.822 -0.1468  0.0433  0.0415
 1396SOL    HW113518   0.973   1.769   1.772 -2.1245  1.7416 -1.3303
 1396SOL    HW213519   0.932   1.702   1.915  2.7441 -1.0266 -1.1071
 1397SOL     OW13520   7.652   9.653   1.705 -0.2515 -0.0377  0.4035
 1397SOL    HW113521   7.728   9.663   1.642 -0.2088 -2.4100  0.0263
 1397SOL    HW213522   7.685   9.662   1.799  0.1763  0.6611  0.1892
 1398SOL     OW13523   1.931   2.972   0.522 -0.2114  0.1388  0.1904
 1398SOL    HW113524   1.888   3.061   0.506 -1.6012 -0.6887 -0.7764
 1398SOL    HW213525   1.862   2.907   0.554  0.1027 -1.4452 -2.2121
 1399SOL     OW13526   0.542   9.559   0.994  0.0567 -0.3252  0.1168
 1399SOL    HW113527   0.591   9.582   1.078  0.3790 -1.5930  0.2868
 1399SOL    HW213528   0.523   9.461   0.992 -2.0169  0.0450 -0.1995
 1400SOL     OW13529   8.634   9.234   2.087  0.1158 -0.1161  0.8020
 1400SOL    HW113530   8.608   9.238   1.990  0.9345 -0.3215  0.5699
 1400SOL    HW213531   8.685   9.150   2.104  0.4530  0.1872  1.2917
 1401SOL     OW13532   0.365   1.533   2.055  0.4788 -0.1097  0.0446
 1401SOL    HW113533   0.345   1.493   2.145 -0.7483  2.6743  1.0496
 1401SOL    HW213534   0.457   1.572   2.057  0.4378 -0.0150  0.1162
 1402SOL     OW13535   8.889   0.882   1.972  0.7997 -0.7870  0.4546
 1402SOL    HW113536   8.971   0.830   1.948  1.3746  0.5377 -0.4822
 1402SOL    HW213537   8.849   0.922   1.890 -1.4035 -2.2770  0.7409
 1403SOL     OW13538   2.886   5.129   0.496 -0.5415 -0.2060 -0.0554
 1403SOL    HW113539   2.869   5.206   0.435 -0.2795  0.8718  1.2304
 1403SOL    HW213540   2.972   5.084   0.469  0.4376  1.2858  0.5588
 1404SOL     OW13541   9.561   7.298   0.894 -0.1283 -0.0847 -0.2046
 1404SOL    HW113542   9.561   7.381   0.949  1.8417 -0.3637  0.2428
 1404SOL    HW213543   9.617   7.228   0.939 -0.6697 -1.2106 -1.2404
 1405SOL     OW13544   0.507   0.142   1.325  0.2330 -0.1626 -0.1766
 1405SOL    HW113545   0.579   0.101   1.269  0.2681 -1.4830  0.8137
 1405SOL    HW213546   0.422   0.146   1.273  1.0491  1.6367 -1.4413
 1406SOL     OW13547   2.541   4.702   2.205  0.8090 -0.2831  0.3135
 1406SOL    HW113548   2.599   4.748   2.272  2.6777  2.0114 -2.7171
 1406SOL    HW213549   2.480   4.769   2.163 -0.3832 -1.6802 -0.2257
 1407SOL     OW13550   9.637   6.392   2.297 -0.1041 -0.5739 -0.0932
 1407SOL    HW113551   9.601   6.331   2.226 -0.7324 -0.5585  0.2101
 1407SOL    HW213552   9.734   6.411   2.278 -0.1721 -0.8484 -0.7508
 1408SOL     OW13553   3.906   5.214   0.162  0.2267 -0.1453 -0.1256
 1408SOL    HW113554   3.948   5.139   0.110  0.5303 -0.3492  0.4138
 1408SOL    HW213555   3.975   5.282   0.185 -0.2674  0.9059 -1.6415
 1409SOL     OW13556   0.632   0.018   0.176 -0.1262 -0.5591 -0.4741
 1409SOL    HW113557   0.562   0.073   0.222 -1.3036 -2.5697  0.2129
 1409SOL    HW213558   0.671   0.070   0.101 -0.9475  1.3461  0.3771
 1410SOL     OW13559   7.707   0.689   0.156  0.1627  0.3925  0.5376
 1410SOL    HW113560   7.634   0.663   0.093  0.1128  2.6859 -0.3815
 1410SOL    HW213561   7.795   0.683   0.109  0.3506 -0.1262  0.9522
 1411SOL     OW13562   2.979   2.780   0.350  0.1926 -0.2911  0.0399
 1411SOL    HW113563   2.899   2.720   0.352 -0.1344  0.1592  0.4248
 1411SOL    HW213564   3.010   2.798   0.443 -0.6657  1.4236  0.0033
 1412SOL     OW13565   8.793   2.590   0.020  0.1176 -0.0864 -0.1293
 1412SOL    HW113566   8.733   2.563  -0.055  1.8018 -0.1223 -1.4793
 1412SOL    HW213567   8.843   2.509   0.053 -1.4493 -0.3177  1.8476
 1415SOL     OW13568   3.089   9.818   0.740  0.1591 -0.2092  0.2764
 1415SOL    HW113569   3.143   9.840   0.658  0.4571  0.3320  0.6121
 1415SOL    HW213570   2.992   9.820   0.718  0.1311  2.3499  0.4921
 1416SOL     OW13571   1.842   5.903   0.880  0.2092 -0.0012 -0.0455
 1416SOL    HW113572   1.786   5.901   0.963 -1.0236 -0.3033 -0.8736
 1416SOL    HW213573   1.914   5.834   0.887  0.4330  0.3302  0.9958
 1418SOL     OW13574   9.306   8.929   1.036  0.3727  0.1632 -0.1864
 1418SOL    HW113575   9.319   9.028   1.032  1.0555  0.0362 -1.2340
 1418SOL    HW213576   9.230   8.904   0.976 -0.2059  0.1130  0.5569
 1422SOL     OW13577   3.807   5.611   0.719  0.5619 -0.1263  0.1177
 1422SOL    HW113578   3.724   5.658   0.748  0.2170 -0.1705 -0.8007
 1422SOL    HW213579   3.877   5.678   0.696  0.6909 -0.0866  0.6113
 1423SOL     OW13580   0.751   6.493   0.939 -0.4052  0.1202 -0.1550
 1423SOL    HW113581   0.756   6.501   0.839  0.2225 -0.3015 -0.1623
 1423SOL    HW213582   0.656   6.484   0.967 -0.5174 -0.8758 -0.8114
 1424SOL     OW13583   8.473   2.932   1.470 -0.0859 -0.1487  0.1121
 1424SOL    HW113584   8.401   2.875   1.430 -0.7103  0.7649 -0.0849
 1424SOL    HW213585   8.469   3.023   1.430 -0.1776  0.5324  1.6517
 1427SOL     OW13586   2.603   9.968   1.435  0.4545  0.1367  0.5605
 1427SOL    HW113587   2.596   9.932   1.528  0.4408  0.7939  0.8211
 1427SOL    HW213588   2.571  10.063   1.434 -1.5897 -0.5447 -0.5536
 1428SOL     OW13589   1.409   1.552   2.239 -0.0408 -0.3060  0.3114
 1428SOL    HW113590   1.340   1.624   2.226  0.5311 -0.0152 -1.2114
 1428SOL    HW213591   1.388   1.475   2.179 -0.9782 -1.6737  2.3606
 1431SOL     OW13592   0.165   2.417   0.904 -0.0783 -0.5322 -0.3377
 1431SOL    HW113593   0.111   2.439   0.823 -1.7574 -2.8279  0.0932
 1431SOL    HW213594   0.261   2.440   0.888 -0.6778  0.6868 -2.3085
 1432SOL     OW13595   2.982   7.939   1.002  0.4102  0.2164  0.1005
 1432SOL    HW113596   3.049   8.000   0.961 -0.1845  0.6400 -0.2589
 1432SOL    HW213597   2.973   7.856   0.947  1.3846 -0.3089  0.7124
 1433SOL     OW13598   9.643   0.992   1.545 -0.1514  0.4959  0.0001
 1433SOL    HW113599   9.699   1.034   1.474 -0.1654  0.8561  0.2061
 1433SOL    HW213600   9.610   0.903   1.512  0.3421  0.3875 -0.2119
 1434SOL     OW13601   0.029   2.347   2.257 -0.2541 -0.0207 -0.9421
 1434SOL    HW113602  -0.036   2.292   2.309 -0.2965 -0.6063 -1.6100
 1434SOL    HW213603   0.023   2.442   2.286  0.5168 -0.5137  0.9131
 1435SOL     OW13604   1.267   7.689   0.334  0.4221 -0.0828  0.2313
 1435SOL    HW113605   1.188   7.627   0.335  1.2485 -1.1768 -1.5713
 1435SOL    HW213606   1.309   7.690   0.424 -0.8458 -0.5145  0.8459
 1436SOL     OW13607   0.407   4.513   1.119  0.0962 -0.0674 -0.2456
 1436SOL    HW113608   0.316   4.472   1.113  1.1666 -2.2477 -2.2555
 1436SOL    HW213609   0.406   4.585   1.188 -3.1585 -0.0195 -0.2469
 1437SOL     OW13610   0.722   1.159   0.445 -0.2969  0.0526  0.7126
 1437SOL    HW113611   0.701   1.062   0.451 -1.1979  0.1647 -0.3835
 1437SOL    HW213612   0.820   1.171   0.430 -0.1333 -0.6697  1.1762
 1438SOL     OW13613   0.515   5.023   2.201 -0.4333  0.0163 -0.4206
 1438SOL    HW113614   0.606   4.999   2.166 -0.1634 -0.3763  0.5115
 1438SOL    HW213615   0.446   5.004   2.132  0.0414 -1.1478 -0.5950
 1441SOL     OW13616   1.922   7.002   2.312  0.4682 -0.2186 -0.4462
 1441SOL    HW113617   1.998   7.061   2.284  0.0100  0.8461  0.4898
 1441SOL    HW213618   1.930   6.982   2.410  0.5981 -1.6919 -0.7521
 1442SOL     OW13619   2.287   3.865   1.329  0.1106 -0.0164 -0.6496
 1442SOL    HW113620   2.251   3.827   1.414  2.0140  0.9523  0.6061
 1442SOL    HW213621   2.310   3.791   1.266  0.4233 -0.7985  0.3878
 1443SOL     OW13622   4.194   1.437   1.081  0.2958  0.1984 -0.1901
 1443SOL    HW113623   4.249   1.384   1.146 -0.5360 -0.8317 -0.3032
 1443SOL    HW213624   4.194   1.391   0.992  2.5206  2.2890 -1.3195
 1444SOL     OW13625   1.179   4.710   1.686  0.7740  0.7299  0.1914
 1444SOL    HW113626   1.220   4.638   1.742 -1.0894 -0.4702  0.0796
 1444SOL    HW213627   1.114   4.763   1.742  0.7832  1.1553 -0.1918
 1445SOL     OW13628   8.865   1.775   0.835  0.5022 -0.2656  0.4643
 1445SOL    HW113629   8.794   1.791   0.766 -0.3149  0.9959  1.5708
 1445SOL    HW213630   8.945   1.830   0.812  0.2269  0.1643  0.5266
 1446SOL     OW13631   9.292   6.709   0.445 -0.2042 -0.3983  0.3367
 1446SOL    HW113632   9.305   6.708   0.345  1.2074  1.3933  0.4861
 1446SOL    HW213633   9.222   6.642   0.469  0.3565 -1.7782 -1.7258
 1447SOL     OW13634   1.913   2.930   0.127  0.0593  0.3904  0.1667
 1447SOL    HW113635   1.849   2.853   0.124 -2.3984  2.3867  0.0995
 1447SOL    HW213636   1.981   2.914   0.198 -0.1221 -2.0581 -0.1849
 1448SOL     OW13637   3.765   3.324   1.279 -0.1780  0.0244  0.1655
 1448SOL    HW113638   3.837   3.362   1.222  0.9694 -1.7383  0.3850
 1448SOL    HW213639   3.678   3.329   1.230  0.4210  0.4307 -0.8884
 1449SOL     OW13640   8.865   9.615   2.015 -0.1383  0.0082 -0.6880
 1449SOL    HW113641   8.786   9.555   2.033 -0.3065  0.4697  0.1723
 1449SOL    HW213642   8.884   9.669   2.097  2.3699 -1.5980 -0.1315
 1451SOL     OW13643   9.394   7.052   0.181 -0.2779 -0.2740  0.0491
 1451SOL    HW113644   9.391   7.025   0.085 -1.5617  1.7759 -0.5045
 1451SOL    HW213645   9.487   7.042   0.215  0.8061  1.7557 -2.2211
 1452SOL     OW13646   4.097   1.484   1.869  0.4107  0.1828  0.8101
 1452SOL    HW113647   4.099   1.539   1.952  1.0155 -0.0369  0.9474
 1452SOL    HW213648   4.186   1.440   1.856  0.9771  1.8282 -1.0522
 1454SOL     OW13649   8.037   8.030   1.639 -0.0016 -0.1928 -0.1062
 1454SOL    HW113650   8.062   8.104   1.701  1.9111 -0.4995 -0.4558
 1454SOL    HW213651   8.005   7.951   1.692  0.0181  0.1424  0.4018
 1455SOL     OW13652   2.778   4.664   0.684 -0.1966 -0.1490  0.2706
 1455SOL    HW113653   2.866   4.622   0.663 -0.5466 -0.1887 -1.1300
 1455SOL    HW213654   2.759   4.737   0.620 -1.2553 -0.2343  0.4698
 1457SOL     OW13655   2.736   2.376   2.035  0.3450  0.4071 -0.0108
 1457SOL    HW113656   2.709   2.300   1.976 -0.4753  0.1216  0.7371
 1457SOL    HW213657   2.835   2.386   2.032  0.3584  0.0365 -1.0079
 1459SOL     OW13658   2.283   2.997   1.470  0.1466 -0.7526  0.6786
 1459SOL    HW113659   2.313   2.902   1.460 -1.4774 -1.1391 -0.9827
 1459SOL    HW213660   2.214   3.017   1.400  0.5811  1.7083  0.9068
 1460SOL     OW13661   9.069   5.226   0.337  0.4175 -0.3774  0.3248
 1460SOL    HW113662   9.091   5.291   0.409 -0.0493 -2.4746  2.4281
 1460SOL    HW213663   8.970   5.220   0.326  0.4685 -0.5240 -0.0859
 1461SOL     OW13664   0.447   0.806   1.879  0.0234  0.4825 -0.0987
 1461SOL    HW113665   0.444   0.788   1.977 -1.1762 -3.3145 -0.7574
 1461SOL    HW213666   0.355   0.798   1.841  0.4121  2.2820 -1.5140
 1462SOL     OW13667   9.781   1.482   1.753 -0.4456 -0.1631 -0.4634
 1462SOL    HW113668   9.846   1.505   1.825 -0.5597  1.0358 -0.7381
 1462SOL    HW213669   9.754   1.386   1.761 -0.9928  0.1391  1.5161
 1463SOL     OW13670   3.436   3.722   0.992  0.2272  0.2870  0.1905
 1463SOL    HW113671   3.496   3.684   0.921 -0.9295 -0.9731 -0.1317
 1463SOL    HW213672   3.367   3.781   0.951  1.1928  1.6926  0.5563
 1464SOL     OW13673   0.315   1.071   0.616 -0.7449  0.4898  0.5454
 1464SOL    HW113674   0.296   1.148   0.556 -0.4179 -1.2355 -1.8569
 1464SOL    HW213675   0.237   1.009   0.618  0.1074 -0.6484 -0.0271
 1468SOL     OW13676   8.413   9.038   0.489  0.1319 -0.1959 -0.4030
 1468SOL    HW113677   8.464   9.124   0.479  0.9642 -0.5609  0.6245
 1468SOL    HW213678   8.382   9.008   0.399 -1.8075  2.1521 -0.5925
 1469SOL     OW13679   0.580   5.077   1.615 -0.2589  0.1049  0.0245
 1469SOL    HW113680   0.638   5.037   1.544 -0.7553 -0.4919 -0.0544
 1469SOL    HW213681   0.491   5.032   1.613 -0.1018 -0.2755  1.3757
 1470SOL     OW13682   2.360   0.625   0.794  0.1338 -0.1534  0.1338
 1470SOL    HW113683   2.449   0.587   0.818 -0.2300 -1.0577  0.0966
 1470SOL    HW213684   2.288   0.568   0.833 -0.4326  1.1691  1.0724
 1472SOL     OW13685   4.035   0.300   1.023 -0.4385  0.5241 -0.3549
 1472SOL    HW113686   3.942   0.329   0.998 -1.2815  0.0433  2.0380
 1472SOL    HW213687   4.053   0.210   0.985 -0.8217  0.7710 -1.1358
 1473SOL     OW13688   0.170   3.613   1.460  0.2068  0.3773 -0.2722
 1473SOL    HW113689   0.139   3.524   1.427  0.3041  0.5606 -0.8639
 1473SOL    HW213690   0.242   3.647   1.399  0.8862  0.3924  0.5377
 1475SOL     OW13691   9.591   1.436   0.956 -0.0109 -0.0673  0.2206
 1475SOL    HW113692   9.615   1.442   0.859 -0.3222 -0.2583  0.1330
 1475SOL    HW213693   9.602   1.341   0.987 -1.4055 -0.3169 -0.0120
 1477SOL     OW13694   1.787   9.743   1.880 -0.3734 -0.0118 -0.2401
 1477SOL    HW113695   1.869   9.744   1.823 -1.0198 -2.5486 -1.2575
 1477SOL    HW213696   1.804   9.795   1.964  2.1068 -0.1157 -0.6546
 1478SOL     OW13697   9.781   2.955   0.969 -0.0733  0.6581  0.1793
 1478SOL    HW113698   9.864   2.908   0.941  0.0028  0.5538  0.5853
 1478SOL    HW213699   9.722   2.968   0.889 -0.9857 -1.9063  0.4003
 1479SOL     OW13700   0.257   0.550   1.238 -0.2765  0.6860 -0.8075
 1479SOL    HW113701   0.316   0.603   1.178  0.1612 -0.5578 -1.4973
 1479SOL    HW213702   0.282   0.566   1.334 -0.1662  1.7163 -1.0093
 1480SOL     OW13703   1.006   3.438   2.198  0.6051  0.2228 -0.1246
 1480SOL    HW113704   0.961   3.402   2.117 -1.1439  1.5778  0.1977
 1480SOL    HW213705   1.104   3.448   2.181  0.6669 -1.9163 -1.1707
 1482SOL     OW13706   8.343   1.789   1.677 -0.0826 -0.2126  0.2058
 1482SOL    HW113707   8.439   1.762   1.679  0.8195  2.8192  0.5421
 1482SOL    HW213708   8.328   1.852   1.600 -1.4367  0.5455  1.0696
 1483SOL     OW13709   0.009   1.240   1.595  0.3337 -0.3239  0.4648
 1483SOL    HW113710   0.031   1.180   1.672  2.6591 -0.0036  0.1011
 1483SOL    HW213711   0.072   1.317   1.594 -1.7687  1.4271  0.1356
 1484SOL     OW13712   8.601   1.751   1.719  0.7583 -0.4468 -0.1763
 1484SOL    HW113713   8.649   1.792   1.641  2.3951 -0.0510  1.0204
 1484SOL    HW213714   8.665   1.700   1.775 -0.7195 -2.1191  0.0475
 1486SOL     OW13715   8.820   4.009   0.687 -0.7747  0.0457  0.2164
 1486SOL    HW113716   8.760   3.937   0.723 -2.0486  2.1135  2.3360
 1486SOL    HW213717   8.812   4.011   0.587 -1.1896 -2.3299  0.1680
 1487SOL     OW13718   8.283   1.138   1.874  0.1682 -0.2646 -0.6688
 1487SOL    HW113719   8.355   1.176   1.817 -1.3982  0.3188 -2.3199
 1487SOL    HW213720   8.208   1.204   1.882  0.0158 -0.6422  1.4592
 1489SOL     OW13721   9.696   0.127   1.405 -0.5171  0.2117 -0.1132
 1489SOL    HW113722   9.645   0.101   1.323  0.9678  0.3387 -1.1032
 1489SOL    HW213723   9.749   0.210   1.386  1.1805 -0.7362  0.4311
 1490SOL     OW13724   0.756   9.081   1.945  0.0019 -0.2286  0.2698
 1490SOL    HW113725   0.844   9.079   1.899  0.6421  1.3739  1.3931
 1490SOL    HW213726   0.745   8.998   2.000  0.8881 -0.3231  0.3064
 1491SOL     OW13727   3.544   5.328   0.201  0.3299  0.2383  0.1599
 1491SOL    HW113728   3.592   5.240   0.198  0.9103  0.5549 -0.1870
 1491SOL    HW213729   3.551   5.372   0.111  2.4178  1.8644  1.0573
 1492SOL     OW13730   9.495   9.758   0.171  0.7284  0.0535 -0.4370
 1492SOL    HW113731   9.489   9.841   0.227  1.1459 -1.2575  1.5798
 1492SOL    HW213732   9.412   9.751   0.114 -0.3401  0.7000  1.0099
 1494SOL     OW13733   0.582   7.690   1.748  0.2915 -0.0217 -0.4176
 1494SOL    HW113734   0.590   7.788   1.767  0.3409 -0.4132  1.7237
 1494SOL    HW213735   0.492   7.657   1.777  0.9616 -0.9682  0.6434
 1495SOL     OW13736   9.866   4.158   0.732 -0.0788  0.2887  0.4064
 1495SOL    HW113737   9.888   4.071   0.687  0.2492 -0.2018  1.4869
 1495SOL    HW213738   9.945   4.219   0.728  0.0811  0.0992  0.6559
 1496SOL     OW13739   2.364   1.234   1.856 -0.8029 -0.1850  0.3506
 1496SOL    HW113740   2.457   1.198   1.846 -1.1429 -1.0474  0.2415
 1496SOL    HW213741   2.300   1.177   1.805 -1.3048  0.8131 -0.1476
 1497SOL     OW13742   0.020   4.040   2.289 -0.0371  0.0138  0.1742
 1497SOL    HW113743   0.020   4.131   2.329 -0.0623 -0.5803  1.5470
 1497SOL    HW213744  -0.066   4.026   2.239  1.2445  1.8350 -2.6369
 1498SOL     OW13745   2.608   9.004   2.178  0.0876 -0.7228 -0.2140
 1498SOL    HW113746   2.699   9.045   2.171  1.2503 -3.0625  0.6964
 1498SOL    HW213747   2.591   8.978   2.273  0.0421 -3.7561 -1.0097
 1500SOL     OW13748   0.385   7.202   1.121 -0.1223  0.5836 -0.3127
 1500SOL    HW113749   0.401   7.185   1.023  1.0635  1.6832 -0.3173
 1500SOL    HW213750   0.375   7.114   1.168 -0.0594  0.0224 -1.3102
 1502SOL     OW13751   4.716   9.687   2.155  0.2864  0.2978  0.4543
 1502SOL    HW113752   4.739   9.603   2.204  1.3528  0.5281  0.3760
 1502SOL    HW213753   4.650   9.666   2.083  0.7013 -0.5184  0.2970
 1503SOL     OW13754   1.620   1.410   2.086  0.1937  0.1523 -0.0588
 1503SOL    HW113755   1.549   1.371   2.144  1.3906 -0.5119  1.0107
 1503SOL    HW213756   1.631   1.355   2.004 -1.9878  1.4866 -1.2904
 1504SOL     OW13757   2.712   3.293   0.883  0.0627 -0.2282  0.3041
 1504SOL    HW113758   2.774   3.220   0.853  0.5236 -0.0978  0.9353
 1504SOL    HW213759   2.762   3.359   0.939 -0.6430 -0.1217  0.8179
 1505SOL     OW13760   2.951   5.243   1.491  0.3087 -0.8790  0.1798
 1505SOL    HW113761   2.991   5.316   1.547  2.8475 -1.8889 -0.2385
 1505SOL    HW213762   2.854   5.263   1.474  0.3041  1.0670  2.2165
 1506SOL     OW13763   0.991   7.448   2.076  0.0470  0.2253 -0.0427
 1506SOL    HW113764   1.039   7.528   2.038  2.0077 -0.2152  1.3835
 1506SOL    HW213765   1.027   7.365   2.034 -1.3533  0.0398 -0.8723
 1507SOL     OW13766   8.480   4.088   1.262  0.0501  0.0863  0.2718
 1507SOL    HW113767   8.555   4.070   1.326  0.0384  1.0166  0.5445
 1507SOL    HW213768   8.415   4.012   1.266 -0.2747  0.4240  1.8256
 1509SOL     OW13769   9.569   9.369   1.032 -0.5579 -0.9045  0.0397
 1509SOL    HW113770   9.615   9.453   1.002 -0.1421 -1.3890 -0.6983
 1509SOL    HW213771   9.479   9.364   0.990 -0.3614 -1.0973 -0.3694
 1510SOL     OW13772   9.350   3.953   1.861  0.6640  0.0938  0.3354
 1510SOL    HW113773   9.297   4.031   1.894  1.7495  0.4721  1.2042
 1510SOL    HW213774   9.445   3.980   1.845  0.7450 -0.7182 -0.6707
 1511SOL     OW13775   2.351   9.488   1.866 -0.0683  0.2960 -0.1639
 1511SOL    HW113776   2.434   9.435   1.850 -0.5198 -0.1708 -1.0546
 1511SOL    HW213777   2.361   9.580   1.828  0.6091  0.7605  1.1205
 1513SOL     OW13778   2.426   8.873   1.711 -0.2193  0.3901 -0.1630
 1513SOL    HW113779   2.510   8.858   1.658 -1.2253  0.2850 -1.7822
 1513SOL    HW213780   2.415   8.799   1.777 -0.6492 -1.3417 -2.1131
 1514SOL     OW13781   3.062   7.757   0.042  0.3768  0.0339  0.4186
 1514SOL    HW113782   3.064   7.665   0.003 -1.4669  0.3863 -0.6023
 1514SOL    HW213783   3.111   7.758   0.128 -0.3372 -2.1314  0.8796
 1515SOL     OW13784   1.589   8.854   0.449  0.3895 -0.3444  0.0446
 1515SOL    HW113785   1.565   8.774   0.395  0.3540  0.4510 -1.1263
 1515SOL    HW213786   1.564   8.937   0.399 -0.5127  0.3959  1.6790
 1517SOL     OW13787   1.490   5.045   0.211 -0.7898  0.8535  0.2930
 1517SOL    HW113788   1.496   5.127   0.267  0.5754  0.5090  0.6674
 1517SOL    HW213789   1.581   5.021   0.178 -0.8693 -1.5902  1.7530
 1518SOL     OW13790   8.041   0.431   0.010 -0.0637  0.4143 -0.0177
 1518SOL    HW113791   7.992   0.346  -0.008  0.3792  0.3121 -0.7519
 1518SOL    HW213792   8.138   0.419  -0.012  0.0069  1.0943 -0.0983
 1520SOL     OW13793   1.512   2.060   0.063 -0.4437  0.3807  0.0502
 1520SOL    HW113794   1.558   2.060  -0.026 -0.5062  1.0102  0.0174
 1520SOL    HW213795   1.433   1.999   0.059 -0.4691  0.4376 -0.3328
 1522SOL     OW13796   8.681   5.499   0.222 -0.0560  0.4144 -0.1960
 1522SOL    HW113797   8.638   5.586   0.196 -3.7255 -0.6589  1.9633
 1522SOL    HW213798   8.623   5.423   0.192  0.6923 -1.1403  2.1812
 1523SOL     OW13799   3.321   8.297   1.524 -0.3628 -0.0036 -0.3746
 1523SOL    HW113800   3.365   8.370   1.472 -0.5052 -0.0202 -0.5182
 1523SOL    HW213801   3.389   8.252   1.582 -0.1788 -0.0580 -0.6303
 1524SOL     OW13802   3.653   0.296   1.789  0.5844  0.7114  0.6021
 1524SOL    HW113803   3.731   0.313   1.728  1.2539  0.1127  1.2889
 1524SOL    HW213804   3.685   0.292   1.884 -0.2416  0.1637  0.8608
 1525SOL     OW13805   2.571   3.099   1.469 -0.2268  0.2018  0.2558
 1525SOL    HW113806   2.479   3.061   1.473  0.2020 -1.0112 -0.9871
 1525SOL    HW213807   2.577   3.163   1.393 -0.0504  0.3016  0.3530
 1526SOL     OW13808   5.067   3.596   0.221 -0.4541 -0.3063 -0.7200
 1526SOL    HW113809   5.084   3.682   0.173  2.8104 -0.5851 -0.1163
 1526SOL    HW213810   5.074   3.611   0.320 -1.1113 -1.0262 -0.5628
 1527SOL     OW13811   0.425   2.965   0.930 -0.4506  0.3829  0.8652
 1527SOL    HW113812   0.502   2.920   0.976 -1.6074 -1.3551  1.1429
 1527SOL    HW213813   0.357   2.897   0.904 -1.7028  1.8442  0.2142
 1528SOL     OW13814   2.972   2.485   2.112 -0.5783  0.5628  0.0317
 1528SOL    HW113815   3.023   2.538   2.043 -0.0172  0.8087  0.6327
 1528SOL    HW213816   2.996   2.518   2.203  0.4297 -1.2990  0.4584
 1529SOL     OW13817   8.844   2.132   0.631 -0.2278 -0.5705 -0.0792
 1529SOL    HW113818   8.821   2.131   0.728 -2.0002  0.1652 -0.4700
 1529SOL    HW213819   8.922   2.072   0.615 -2.2432 -3.6948  1.2501
 1530SOL     OW13820   1.645   6.469   1.097  0.3031  0.5729  0.4531
 1530SOL    HW113821   1.608   6.379   1.118  0.7109  0.2191 -0.2906
 1530SOL    HW213822   1.578   6.540   1.120  0.6690  0.2069  2.7087
 1531SOL     OW13823   9.010   3.508   0.477  0.9047 -0.4943 -0.0168
 1531SOL    HW113824   9.059   3.593   0.458  0.8890 -0.2154  1.1533
 1531SOL    HW213825   8.934   3.498   0.413 -0.0467  1.1506  0.8340
 1532SOL     OW13826   9.203   6.556   1.074  0.2926  0.5185  0.0424
 1532SOL    HW113827   9.275   6.534   1.139  0.2316  0.9454  0.2520
 1532SOL    HW213828   9.144   6.476   1.063 -0.4169  0.8326  1.4385
 1533SOL     OW13829   9.353   1.428   0.684  0.3559 -0.0622  0.0460
 1533SOL    HW113830   9.409   1.496   0.638  1.8277 -0.1957  1.5971
 1533SOL    HW213831   9.305   1.373   0.615  2.4114 -0.1851 -1.3582
 1534SOL     OW13832   0.370   7.917   1.024 -0.6707 -0.0809  0.2987
 1534SOL    HW113833   0.462   7.879   1.014  0.0953  1.9145 -0.6249
 1534SOL    HW213834   0.305   7.843   1.037  0.5272 -1.8634 -3.0491
 1535SOL     OW13835   1.415   0.091   1.959  0.0352 -0.3333 -0.1392
 1535SOL    HW113836   1.389   0.032   2.035 -0.8044 -0.5076 -0.5567
 1535SOL    HW213837   1.447   0.035   1.882  0.8687 -0.1598  0.0708
 1536SOL     OW13838   8.981   7.772   1.112  0.0511  0.2973  0.1820
 1536SOL    HW113839   8.993   7.701   1.182  0.2036  0.4521  0.3121
 1536SOL    HW213840   8.888   7.808   1.116  0.9113  2.3904  2.2691
 1537SOL     OW13841   9.407   8.876   1.882  0.3510 -0.4769  0.0377
 1537SOL    HW113842   9.350   8.795   1.897  1.3102 -0.9683  1.2197
 1537SOL    HW213843   9.460   8.864   1.798  0.7515 -1.2548  0.3881
 1538SOL     OW13844   9.596   6.726   0.286  0.1140 -0.6706 -0.1927
 1538SOL    HW113845   9.657   6.650   0.306 -0.0017 -0.6751  0.1581
 1538SOL    HW213846   9.512   6.693   0.244 -0.1269 -0.7879  0.3735
 1539SOL     OW13847   8.925   4.778   0.172  0.5628 -0.5469  0.1589
 1539SOL    HW113848   8.866   4.842   0.222  0.1599 -0.0904 -0.9070
 1539SOL    HW213849   8.992   4.739   0.236 -1.2602 -1.5330  1.5064
 1542SOL     OW13850   9.496   1.619   0.542  0.4320 -0.3550 -0.3237
 1542SOL    HW113851   9.507   1.569   0.456 -0.0055  0.7090 -1.0006
 1542SOL    HW213852   9.531   1.712   0.532  3.0505 -1.0490  1.5014
 1543SOL     OW13853   0.494   8.506   0.106 -0.4556 -0.5957 -0.6968
 1543SOL    HW113854   0.487   8.606   0.099  0.6889 -0.4976 -0.5294
 1543SOL    HW213855   0.481   8.466   0.015 -1.6484 -0.3519 -0.6481
 1546SOL     OW13856   9.530   0.001   0.302 -0.1187  0.1415  0.1090
 1546SOL    HW113857   9.616  -0.006   0.251  0.1970 -0.9898  0.7886
 1546SOL    HW213858   9.546   0.053   0.386 -0.3832  0.9893 -0.3518
 1548SOL     OW13859   1.712   7.730   1.032  0.2915  0.4935  0.2062
 1548SOL    HW113860   1.812   7.739   1.023  0.2616  0.5260 -0.1203
 1548SOL    HW213861   1.674   7.698   0.945 -0.0815  1.3387  0.0498
 1549SOL     OW13862   4.917   0.925   2.002  0.5565 -0.4620 -0.1917
 1549SOL    HW113863   4.874   1.015   1.992  0.7802 -0.1211  1.8261
 1549SOL    HW213864   4.874   0.860   1.939  0.5296  1.0971 -1.8155
 1551SOL     OW13865   0.051   6.216   0.079 -0.4947  0.5151 -0.2388
 1551SOL    HW113866  -0.002   6.196  -0.004  0.0459  0.2597 -0.5224
 1551SOL    HW213867   0.124   6.148   0.089  0.1516  1.2184 -0.1652
 1552SOL     OW13868   3.074   8.969   2.273 -0.3307  0.5862 -0.5289
 1552SOL    HW113869   3.166   8.972   2.313 -0.2203 -1.8560 -0.4957
 1552SOL    HW213870   3.072   8.901   2.200 -1.7746  1.6167 -1.4590
 1553SOL     OW13871   7.572   0.126   1.601 -0.2299  0.1016 -0.3353
 1553SOL    HW113872   7.502   0.138   1.530 -0.1961 -1.4096 -0.6538
 1553SOL    HW213873   7.548   0.181   1.681 -0.0901  2.1186 -1.6301
 1556SOL     OW13874   3.733   1.528   0.978 -0.0509 -0.4832 -0.8743
 1556SOL    HW113875   3.650   1.484   0.945  0.4215 -1.7631 -0.3966
 1556SOL    HW213876   3.709   1.615   1.022 -0.7532  0.8650 -3.7989
 1557SOL     OW13877   2.563   6.818   1.822  0.3481  0.7151 -0.0653
 1557SOL    HW113878   2.489   6.848   1.762  1.2129  0.9042 -1.0589
 1557SOL    HW213879   2.651   6.843   1.781  0.9698  0.1773  0.9250
 1559SOL     OW13880   0.061   2.183   0.665  0.0704  0.0852 -0.2786
 1559SOL    HW113881   0.038   2.137   0.751  0.6370  2.0520  0.9609
 1559SOL    HW213882   0.056   2.117   0.590 -2.8226 -1.1396  0.8920
 1560SOL     OW13883   2.617   4.118   1.153 -0.5099 -0.1052 -0.3233
 1560SOL    HW113884   2.689   4.177   1.192 -2.3512  0.3777  2.4652
 1560SOL    HW213885   2.549   4.175   1.107 -0.6713 -0.3397 -0.3727
 1561SOL     OW13886   9.609   1.129   0.801  0.1906  0.1078  0.0023
 1561SOL    HW113887   9.613   1.130   0.900 -0.6313  0.1791  0.0424
 1561SOL    HW213888   9.547   1.202   0.770 -2.2880 -2.1048 -0.4121
 1562SOL     OW13889   0.483   2.766   1.266  0.0518 -0.5683 -0.0291
 1562SOL    HW113890   0.466   2.845   1.325  0.8054 -1.3028  1.2163
 1562SOL    HW213891   0.396   2.722   1.244 -0.5362  1.5902 -2.1740
 1565SOL     OW13892   1.324   9.326   0.076  0.6283  0.0761  0.1951
 1565SOL    HW113893   1.316   9.227   0.082  1.4486 -0.1091 -1.4606
 1565SOL    HW213894   1.276   9.368   0.153 -0.2411 -1.5790  0.5861
 1566SOL     OW13895   2.115   5.402   0.655 -0.1786  0.1768 -0.3417
 1566SOL    HW113896   2.100   5.421   0.752  1.9435 -0.2152  0.0839
 1566SOL    HW213897   2.122   5.489   0.605  1.1912  0.4286  0.2669
 1568SOL     OW13898   2.518   8.568   1.626 -0.2040  0.0680  0.1324
 1568SOL    HW113899   2.418   8.576   1.634 -0.2766 -0.5981 -0.1066
 1568SOL    HW213900   2.542   8.536   1.535  0.3273  1.8651 -0.3812
 1569SOL     OW13901   8.682   3.329   0.137 -0.1130 -0.0320  0.5039
 1569SOL    HW113902   8.685   3.244   0.085  0.4658 -0.3287  1.0041
 1569SOL    HW213903   8.588   3.359   0.148 -0.1289  1.2724 -2.6942
 1570SOL     OW13904   2.752   6.081   1.326 -0.3550 -0.1346 -0.0425
 1570SOL    HW113905   2.770   6.064   1.229 -0.3790 -0.5933  0.0300
 1570SOL    HW213906   2.806   6.017   1.381 -1.6978 -1.0851  0.1989
 1571SOL     OW13907   3.500   0.789   1.377  0.3960 -0.1524 -0.1969
 1571SOL    HW113908   3.484   0.723   1.451 -1.0124  1.1779  0.7287
 1571SOL    HW213909   3.558   0.863   1.411  1.4887 -0.6191 -1.0517
 1573SOL     OW13910   8.928   7.554   1.611 -0.2533 -0.3670  0.4850
 1573SOL    HW113911   8.860   7.616   1.573 -0.4107  0.5967  2.2700
 1573SOL    HW213912   8.883   7.472   1.646 -0.4926  0.2016  1.5248
 1575SOL     OW13913   1.275   0.630   1.916  0.3525  0.2659  0.5570
 1575SOL    HW113914   1.224   0.701   1.868 -0.0100  1.4519  2.6106
 1575SOL    HW213915   1.367   0.665   1.938  0.4229 -0.1617  0.9438
 1576SOL     OW13916   4.250   0.698   0.359 -0.4913  0.3781 -0.1036
 1576SOL    HW113917   4.159   0.737   0.371 -0.8493 -0.2075 -0.8867
 1576SOL    HW213918   4.302   0.754   0.294 -1.4586 -1.1616 -2.2453
 1577SOL     OW13919   2.711   4.905   0.522  0.3427 -0.3631  0.4195
 1577SOL    HW113920   2.767   4.986   0.503 -0.3437  0.2402  0.9079
 1577SOL    HW213921   2.718   4.840   0.446  0.2641  0.5219 -0.3508
 1578SOL     OW13922   2.607   4.449   0.703  0.2015 -0.0325 -0.5077
 1578SOL    HW113923   2.519   4.483   0.735  0.4113  0.3647 -0.3440
 1578SOL    HW213924   2.671   4.525   0.696  0.5417 -0.3252 -0.5910
 1579SOL     OW13925   1.574   6.698   0.797  0.1871 -0.6174  0.0433
 1579SOL    HW113926   1.487   6.678   0.841  0.0933 -0.7423 -0.1958
 1579SOL    HW213927   1.599   6.623   0.736 -1.0569  0.7813 -2.2520
 1580SOL     OW13928   0.016   2.861   1.619 -0.4532  0.3562 -0.2141
 1580SOL    HW113929   0.108   2.822   1.626  0.1051  1.4183 -1.5916
 1580SOL    HW213930  -0.042   2.799   1.566  0.3267  1.1457 -2.0487
 1581SOL     OW13931   7.560   0.609   1.328  0.0160  0.4022 -0.0640
 1581SOL    HW113932   7.562   0.709   1.334 -1.5236  0.4419 -0.0090
 1581SOL    HW213933   7.577   0.581   1.233  0.6123  0.7045 -0.0497
 1582SOL     OW13934   0.764   7.678   1.268 -0.3872 -0.2808  0.6726
 1582SOL    HW113935   0.829   7.745   1.302 -1.2830  0.4350  0.9892
 1582SOL    HW213936   0.796   7.586   1.290  0.0046  0.1071  1.7184
 1583SOL     OW13937   0.209   3.588   0.529 -0.1567  0.0351  0.4629
 1583SOL    HW113938   0.190   3.678   0.490  0.8837  0.1820  0.2776
 1583SOL    HW213939   0.223   3.522   0.455  1.4064  0.2275  0.5721
 1584SOL     OW13940   0.469   2.976   2.164  0.3262  0.3185  0.0775
 1584SOL    HW113941   0.421   2.918   2.229  1.5056 -2.6029 -1.5735
 1584SOL    HW213942   0.519   2.919   2.098  0.1313  3.1921 -2.6764
 1586SOL     OW13943   2.289   3.661   0.725 -0.6904  0.3178  0.2390
 1586SOL    HW113944   2.190   3.663   0.709 -0.3434  1.6116 -1.9389
 1586SOL    HW213945   2.311   3.717   0.805 -1.9277 -1.8745  2.1835
 1588SOL     OW13946   9.243   5.645   0.173 -0.2886 -0.3644  0.6085
 1588SOL    HW113947   9.248   5.670   0.270 -1.3973  0.6630  0.4180
 1588SOL    HW213948   9.149   5.659   0.140  0.6901  2.0398 -1.3416
 1589SOL     OW13949   4.541   4.746   0.365 -0.5595  0.2022  0.3438
 1589SOL    HW113950   4.501   4.664   0.324  0.5857 -0.6645  0.9308
 1589SOL    HW213951   4.486   4.774   0.444 -1.1563  0.2051 -0.0713
 1590SOL     OW13952   2.141   3.386   1.657  0.0271 -0.5400  0.1000
 1590SOL    HW113953   2.175   3.339   1.576  0.9663  1.1189 -0.4825
 1590SOL    HW213954   2.216   3.402   1.721 -0.6411 -1.4970  1.1482
 1591SOL     OW13955   2.055   3.286   0.198  0.3283  0.6029 -0.0872
 1591SOL    HW113956   2.142   3.238   0.191  0.5651  1.0657 -0.3140
 1591SOL    HW213957   2.058   3.370   0.143  0.0574  1.0904  0.6329
 1592SOL     OW13958   1.089   3.984   2.205 -0.0052  0.2174  0.0600
 1592SOL    HW113959   0.990   3.996   2.215 -0.2902 -1.5757 -0.3795
 1592SOL    HW213960   1.136   4.034   2.278 -1.1717  1.9344 -0.3340
 1593SOL     OW13961   9.492   5.620   1.582 -0.1945  0.4302 -0.6338
 1593SOL    HW113962   9.497   5.715   1.552  0.4552 -0.0486 -2.0791
 1593SOL    HW213963   9.422   5.572   1.529  0.0125 -0.0857 -0.4367
 1594SOL     OW13964   9.155   8.033   1.528  0.2164  0.1007  0.5487
 1594SOL    HW113965   9.162   8.085   1.443  1.0889  0.8078  1.0454
 1594SOL    HW213966   9.163   7.935   1.507 -1.0287  0.1628 -0.3391
 1595SOL     OW13967   4.012   8.537   0.708 -0.6470  0.2479 -0.1584
 1595SOL    HW113968   3.992   8.482   0.627  1.6258  0.6905 -1.0657
 1595SOL    HW213969   4.057   8.622   0.679 -0.7831  0.8894  1.4989
 1596SOL     OW13970   9.818   0.218   0.637 -0.4300 -1.1323 -0.1869
 1596SOL    HW113971   9.917   0.212   0.621 -0.2217  1.3616  0.0617
 1596SOL    HW213972   9.792   0.150   0.706  1.8971  1.1065  3.1009
 1597SOL     OW13973   0.802   4.839   0.138  0.0357 -0.0881 -0.1719
 1597SOL    HW113974   0.900   4.822   0.146 -0.0018  0.2267  1.0361
 1597SOL    HW213975   0.752   4.772   0.192 -0.3529  0.6103  0.3320
 1598SOL     OW13976   3.112   5.512   1.041  0.1974 -0.4246  0.7162
 1598SOL    HW113977   3.100   5.413   1.056 -0.2772 -0.7654 -1.7801
 1598SOL    HW213978   3.203   5.529   1.005  0.7389  0.2210  2.3303
 1599SOL     OW13979   0.958   3.333   1.919 -0.4378 -0.1876 -0.2776
 1599SOL    HW113980   0.980   3.236   1.910 -0.2940 -0.0815 -1.1291
 1599SOL    HW213981   0.860   3.344   1.936 -0.4682 -0.4726 -0.2684
 1600SOL     OW13982   2.862   2.644   0.749 -0.1216  0.1446 -0.0913
 1600SOL    HW113983   2.849   2.651   0.848 -0.2008 -3.2444  0.1811
 1600SOL    HW213984   2.790   2.588   0.709  1.1884 -0.4455 -1.7230
 1602SOL     OW13985   4.353   0.577   1.187 -0.5065  0.3119 -0.0624
 1602SOL    HW113986   4.375   0.642   1.115  1.3928 -0.3595 -0.0999
 1602SOL    HW213987   4.351   0.484   1.150 -1.3607  0.1489  0.3740
 1603SOL     OW13988   2.719   5.287   2.118 -0.8437 -0.1817  0.3972
 1603SOL    HW113989   2.750   5.376   2.150 -0.5955  0.5497 -1.7468
 1603SOL    HW213990   2.621   5.279   2.131 -0.9063  0.5161  0.3759
 1604SOL     OW13991   2.938   5.543   1.362  0.4034  0.3333 -0.1481
 1604SOL    HW113992   2.923   5.599   1.281  0.7268  3.1715  1.6740
 1604SOL    HW213993   3.028   5.563   1.400  1.0490 -2.4211 -0.1756
 1605SOL     OW13994   1.373   6.104   1.861 -0.4260  0.0318 -0.4104
 1605SOL    HW113995   1.407   6.178   1.919 -0.1459  0.6270 -1.3230
 1605SOL    HW213996   1.450   6.046   1.832 -0.5976 -0.4091  0.0028
 1606SOL     OW13997   9.683   6.637   2.152 -0.0043  0.0565  0.3813
 1606SOL    HW113998   9.644   6.618   2.243 -1.4158 -1.3978 -0.4980
 1606SOL    HW213999   9.628   6.707   2.106  0.2825  0.2625  0.3477
 1607SOL     OW14000   2.474   6.011   0.652 -0.6464  0.1314 -0.0706
 1607SOL    HW114001   2.456   6.108   0.636 -2.6898 -0.5518 -2.0999
 1607SOL    HW214002   2.546   5.979   0.590 -0.2336  0.2362  0.3450
 1608SOL     OW14003   2.301   0.870   0.092 -0.2423  0.2407 -0.0098
 1608SOL    HW114004   2.363   0.941   0.058 -0.5018  0.5499  0.1613
 1608SOL    HW214005   2.323   0.850   0.188  0.4415 -0.5776 -0.3256
 1609SOL     OW14006   2.956   6.986   0.438 -0.2578 -0.2421 -0.1254
 1609SOL    HW114007   2.935   7.063   0.377 -0.0560 -0.1352 -0.0594
 1609SOL    HW214008   2.935   7.012   0.532 -1.6234 -0.7817 -0.2588
 1610SOL     OW14009   1.522   0.695   0.485  0.1687  0.4389  0.4986
 1610SOL    HW114010   1.508   0.664   0.578  0.1521 -0.4570  0.1995
 1610SOL    HW214011   1.554   0.619   0.428 -1.4095  0.5699 -0.6039
 1611SOL     OW14012   8.114   1.361   1.846 -0.3485 -0.0566 -0.0500
 1611SOL    HW114013   8.165   1.419   1.909 -1.1720 -0.5697  1.0888
 1611SOL    HW214014   8.075   1.418   1.774 -0.6082  0.7234  0.7000
 1612SOL     OW14015   4.313   4.277   0.126  0.6987  0.5496  0.1377
 1612SOL    HW114016   4.267   4.365   0.117 -2.5183 -1.0355  0.2052
 1612SOL    HW214017   4.322   4.235   0.035  0.0050 -0.1222  0.3798
 1613SOL     OW14018   0.243   8.428   1.152 -0.1440  0.0920  0.3563
 1613SOL    HW114019   0.226   8.442   1.249 -0.4176 -0.7829  0.4459
 1613SOL    HW214020   0.192   8.495   1.098 -0.5005  0.1668  0.7924
 1614SOL     OW14021   4.214   8.967   0.021 -0.4494 -0.5200 -0.2323
 1614SOL    HW114022   4.180   8.887   0.070  0.7195  0.1684  1.7645
 1614SOL    HW214023   4.138   9.031   0.007 -0.9918 -1.1357 -0.1542
 1615SOL     OW14024   2.961   9.571   0.477 -0.0632  0.5083 -0.2352
 1615SOL    HW114025   2.951   9.559   0.576  0.9008 -0.6027 -0.2522
 1615SOL    HW214026   2.886   9.523   0.431  1.6140 -2.3281 -0.1503
 1616SOL     OW14027   3.739   1.038   0.799 -0.1087 -0.6887  0.0478
 1616SOL    HW114028   3.711   1.102   0.871 -0.0207 -0.4211 -0.1552
 1616SOL    HW214029   3.658   0.994   0.760 -0.5658  2.4544 -2.7595
 1617SOL     OW14030   7.953   8.448   0.680  0.6463  0.4052  0.1404
 1617SOL    HW114031   7.918   8.369   0.729  1.0851  0.6322  0.8317
 1617SOL    HW214032   7.965   8.525   0.744  0.2904  1.0051 -0.5054
 1618SOL     OW14033   5.019   3.818   0.949  0.0754  0.2486  0.6868
 1618SOL    HW114034   5.034   3.721   0.969  0.2385  0.2887  0.7571
 1618SOL    HW214035   5.060   3.873   1.022  1.4009  0.4272 -0.1792
 1619SOL     OW14036   2.555   9.242   1.780  0.2212 -0.1472 -0.1691
 1619SOL    HW114037   2.561   9.323   1.722  0.0758  0.2177  0.3161
 1619SOL    HW214038   2.463   9.203   1.774  0.3039 -0.2968 -0.4352
 1620SOL     OW14039   4.451   3.053   1.631 -0.1109 -0.3105  0.2077
 1620SOL    HW114040   4.501   2.968   1.615 -1.8840 -1.5498  1.1095
 1620SOL    HW214041   4.396   3.074   1.550  2.0421  1.2111 -0.9007
 1621SOL     OW14042   9.513   9.071   0.817  0.0006 -0.4238 -0.1402
 1621SOL    HW114043   9.448   9.111   0.881 -2.4063 -0.7483 -2.3163
 1621SOL    HW214044   9.503   8.971   0.818 -0.3763 -0.4016 -1.3485
 1622SOL     OW14045   9.690   5.005   1.106 -0.2544  0.0369 -0.0049
 1622SOL    HW114046   9.788   5.005   1.129 -0.6541 -0.6958  1.8412
 1622SOL    HW214047   9.648   5.090   1.138 -0.2993  0.1587 -0.3925
 1623SOL     OW14048   4.215   2.744   1.160  0.2591  0.0638 -0.1834
 1623SOL    HW114049   4.208   2.644   1.167 -0.7538 -0.0208 -2.0268
 1623SOL    HW214050   4.191   2.785   1.248 -2.6410 -1.1966 -0.3382
 1624SOL     OW14051   9.491   8.006   2.311  0.2798 -0.6940 -0.3165
 1624SOL    HW114052   9.443   8.000   2.399 -1.7112 -0.8769 -1.3659
 1624SOL    HW214053   9.496   7.915   2.270  2.5567 -0.8508  0.2879
 1625SOL     OW14054   8.852   3.946   2.229 -0.0243  0.1135  0.1773
 1625SOL    HW114055   8.892   3.968   2.318  1.9668 -0.8649 -0.4395
 1625SOL    HW214056   8.813   3.854   2.231 -0.2245  0.1964  0.1208
 1626SOL     OW14057   0.611   7.758   1.022 -0.0085 -0.1199 -0.2554
 1626SOL    HW114058   0.558   7.676   1.003  0.2676 -0.1695 -0.8484
 1626SOL    HW214059   0.684   7.736   1.087 -0.2396 -0.2264 -0.0298
 1628SOL     OW14060   3.549   6.319   0.118 -0.3221  0.2045 -0.2672
 1628SOL    HW114061   3.470   6.381   0.121 -0.7206 -0.2632 -0.8752
 1628SOL    HW214062   3.517   6.226   0.102  0.2975 -0.1150  0.3394
 1629SOL     OW14063   0.878   3.391   1.532 -0.1405  0.2439 -0.1832
 1629SOL    HW114064   0.887   3.460   1.460  2.8022  0.9746  0.8065
 1629SOL    HW214065   0.856   3.435   1.619 -0.2405 -0.2689  0.0566
 1630SOL     OW14066   1.512   9.675   1.293  0.1303  0.1400 -0.1519
 1630SOL    HW114067   1.524   9.626   1.207 -0.3574  1.1730 -0.8198
 1630SOL    HW214068   1.455   9.621   1.355 -1.8250  0.5875 -1.5142
 1631SOL     OW14069   1.042   9.551   0.605  0.1997 -0.2073  0.5120
 1631SOL    HW114070   0.979   9.597   0.542  2.0573  0.9924 -0.5182
 1631SOL    HW214071   0.991   9.489   0.664 -1.7477 -0.3980 -1.3124
 1632SOL     OW14072   9.381   6.420   0.503 -0.3741  0.0157  0.3395
 1632SOL    HW114073   9.432   6.504   0.483 -1.1570  0.3355 -0.3342
 1632SOL    HW214074   9.439   6.341   0.481  0.2474  0.3712  0.6643
 1633SOL     OW14075   4.300   1.223   0.709 -0.1568  0.0395  0.0939
 1633SOL    HW114076   4.297   1.309   0.761 -0.9084 -0.2450  0.5221
 1633SOL    HW214077   4.392   1.184   0.716  0.1246  0.6953  0.0918
 1635SOL     OW14078   3.355   8.556   0.749 -0.3529  0.5991  0.2440
 1635SOL    HW114079   3.301   8.637   0.774  0.5375  0.7612  1.6712
 1635SOL    HW214080   3.293   8.478   0.735 -1.1137  1.2349 -0.0396
 1637SOL     OW14081   3.401   5.668   1.750  0.3758  0.7676  0.2408
 1637SOL    HW114082   3.454   5.691   1.668  1.5175  0.0160  0.7522
 1637SOL    HW214083   3.363   5.752   1.790  0.8320  1.2686 -0.3730
 1639SOL     OW14084   3.532   5.370   1.583  0.1402 -0.1733 -0.0021
 1639SOL    HW114085   3.525   5.270   1.578  1.9519 -0.4337  2.0787
 1639SOL    HW214086   3.482   5.403   1.663  2.2620  0.2397  1.1866
 1640SOL     OW14087   8.210   6.544   0.455 -0.4563 -0.1230  0.2615
 1640SOL    HW114088   8.117   6.519   0.481 -0.7525 -0.7956 -1.3826
 1640SOL    HW214089   8.221   6.643   0.461 -1.3066 -0.0316  0.3511
 1641SOL     OW14090   8.568   7.623   2.312 -0.3422 -0.1261 -0.1090
 1641SOL    HW114091   8.618   7.586   2.391 -0.6546 -0.9235 -0.2885
 1641SOL    HW214092   8.510   7.552   2.272 -0.7233  0.4723 -0.6305
 1642SOL     OW14093   3.650   8.370   1.220 -0.0497 -0.0214  0.4957
 1642SOL    HW114094   3.747   8.372   1.196 -0.1988 -0.1620 -0.1080
 1642SOL    HW214095   3.614   8.278   1.204 -0.5082  0.2759 -0.1525
 1646SOL     OW14096   9.948   2.166   1.842  0.6028  0.6480 -0.0651
 1646SOL    HW114097   9.891   2.245   1.863 -2.4684 -1.8695  1.4022
 1646SOL    HW214098   9.978   2.122   1.926  2.2131  0.1748 -0.8594
 1647SOL     OW14099   9.687   7.282   0.070 -0.6564  0.3390  0.1591
 1647SOL    HW114100   9.608   7.327   0.113 -2.6690 -1.9755 -1.0235
 1647SOL    HW214101   9.672   7.274  -0.028 -0.5413 -3.1608  0.3532
 1649SOL     OW14102   1.931   6.904   2.008  0.3284  0.0273  0.0125
 1649SOL    HW114103   1.923   6.834   2.079  1.4651 -0.2280 -0.0995
 1649SOL    HW214104   1.932   6.994   2.049  0.5940 -0.1061  0.3038
 1650SOL     OW14105   9.743   1.868   1.404  0.3316  0.1039 -0.6904
 1650SOL    HW114106   9.659   1.904   1.365  0.1313  1.0247  0.5448
 1650SOL    HW214107   9.745   1.768   1.395 -1.3831 -0.0156  0.2132
 1651SOL     OW14108   2.660   1.757   1.518 -0.0283 -0.0152  0.2106
 1651SOL    HW114109   2.644   1.667   1.478  0.3458 -0.0165  0.0682
 1651SOL    HW214110   2.657   1.826   1.446 -1.0850  0.1727  0.4287
 1652SOL     OW14111   1.237   9.032   0.095 -0.3832  0.0901 -0.6484
 1652SOL    HW114112   1.229   8.955   0.033 -0.2686 -1.2403  0.9606
 1652SOL    HW214113   1.146   9.061   0.125 -0.3081 -1.3526  1.0538
 1653SOL     OW14114   2.228   7.646   0.848  0.0729 -0.5372 -0.3771
 1653SOL    HW114115   2.236   7.563   0.794 -4.3733 -0.9553 -0.6053
 1653SOL    HW214116   2.236   7.726   0.787 -1.2203 -0.9361 -1.0944
 1654SOL     OW14117   3.117   8.597   0.137 -0.0403 -0.3564  0.6500
 1654SOL    HW114118   3.078   8.654   0.065  2.2468  0.0590 -0.2970
 1654SOL    HW214119   3.145   8.654   0.214  0.1393 -0.4736  0.6714
 1655SOL     OW14120   0.787   5.914   0.146  0.3275 -0.0636  0.0439
 1655SOL    HW114121   0.724   5.859   0.201  0.1828 -0.7355 -0.7825
 1655SOL    HW214122   0.868   5.936   0.200  0.8180 -1.9083  0.0936
 1656SOL     OW14123   8.141   0.347   2.065  0.8731 -0.1785 -0.4005
 1656SOL    HW114124   8.112   0.327   1.971 -0.4948  0.9604 -0.2424
 1656SOL    HW214125   8.097   0.282   2.127  0.1567  0.3295 -0.3611
 1658SOL     OW14126   4.336   0.848   0.129 -0.1501 -0.3237 -0.5237
 1658SOL    HW114127   4.246   0.884   0.154 -0.0937 -1.2717  1.1479
 1658SOL    HW214128   4.361   0.881   0.038 -0.9096  2.2670  0.1747
 1660SOL     OW14129   2.527   4.403   1.458 -0.1288  0.2527 -0.4355
 1660SOL    HW114130   2.512   4.498   1.483 -1.3403 -0.2466  0.8208
 1660SOL    HW214131   2.456   4.374   1.394 -1.6371 -0.6773  1.6057
 1661SOL     OW14132   8.106   2.587   0.327 -0.3564  0.0330  0.3161
 1661SOL    HW114133   8.170   2.647   0.279  0.0108 -0.3682  0.3119
 1661SOL    HW214134   8.107   2.607   0.425  0.4964 -0.6481  0.4485
 1663SOL     OW14135   8.534   9.002   1.100 -0.8023  0.5694  0.2969
 1663SOL    HW114136   8.464   8.983   1.031 -0.4220  2.0649 -0.5239
 1663SOL    HW214137   8.497   9.066   1.168 -0.5810  0.5319  0.4544
 1664SOL     OW14138   9.412   7.509   2.147 -0.3308  0.1045  0.0935
 1664SOL    HW114139   9.414   7.465   2.058 -2.4264 -0.1731  0.1588
 1664SOL    HW214140   9.482   7.469   2.206  1.2574  0.4908 -1.4978
 1665SOL     OW14141   1.101   8.273   1.433 -0.2953  0.3216 -0.8746
 1665SOL    HW114142   1.044   8.220   1.370 -1.1687  1.3239 -0.9311
 1665SOL    HW214143   1.177   8.314   1.383 -0.6942  0.6896 -1.1832
 1666SOL     OW14144   0.094   0.943   0.961 -0.2871 -0.1283  0.1235
 1666SOL    HW114145   0.097   0.879   1.037  1.3456 -0.7984 -0.4759
 1666SOL    HW214146   0.035   1.020   0.984 -0.6845 -0.8654  1.6215
 1667SOL     OW14147   1.799   4.511   0.339  0.2173 -0.5809 -0.2715
 1667SOL    HW114148   1.760   4.424   0.307  1.4442 -1.0587 -0.5002
 1667SOL    HW214149   1.761   4.586   0.284 -0.2453 -1.0448 -0.5983
 1668SOL     OW14150   1.508   8.259   1.148 -0.6868 -0.3207  0.2462
 1668SOL    HW114151   1.518   8.169   1.106 -3.3989  0.2105 -1.6298
 1668SOL    HW214152   1.585   8.317   1.121 -0.1592 -1.3260 -0.4471
 1669SOL     OW14153   1.566   9.458   0.563 -0.6690 -0.0765 -0.3860
 1669SOL    HW114154   1.590   9.486   0.470  2.5232  0.5113  0.5321
 1669SOL    HW214155   1.497   9.519   0.601 -0.4957  0.9183 -1.6651
 1670SOL     OW14156   4.070   0.147   1.288  0.1270 -0.0264  0.0207
 1670SOL    HW114157   4.158   0.155   1.334  0.4587 -0.7599 -0.4696
 1670SOL    HW214158   4.070   0.205   1.206  0.0928  0.1013  0.1108
 1671SOL     OW14159   3.408   5.467   0.387  0.3390  0.0039 -0.4468
 1671SOL    HW114160   3.463   5.518   0.453  0.5533 -1.5494  0.6005
 1671SOL    HW214161   3.468   5.414   0.327  0.0406 -1.1171  0.2233
 1672SOL     OW14162   1.977   1.055   1.234  0.4155  0.0850 -0.2574
 1672SOL    HW114163   2.035   0.984   1.195 -1.0071 -0.0541 -2.2397
 1672SOL    HW214164   1.918   1.015   1.304  1.8810 -0.0055  0.9366
 1673SOL     OW14165   1.335   8.140   1.901 -0.0360  0.1495  0.3163
 1673SOL    HW114166   1.237   8.153   1.886  0.4038  2.5402 -0.7504
 1673SOL    HW214167   1.367   8.208   1.968  0.5701 -1.8002  2.0596
 1674SOL     OW14168   0.011   1.762   2.297  0.4357 -0.1435  0.8124
 1674SOL    HW114169  -0.015   1.763   2.200  0.4274 -0.7478  0.8035
 1674SOL    HW214170   0.005   1.668   2.331  2.9810 -0.3605  0.7192
 1677SOL     OW14171   9.912   6.106   1.753 -0.2370 -0.1886 -0.1542
 1677SOL    HW114172   9.969   6.187   1.769  1.1042 -1.1427  0.0207
 1677SOL    HW214173   9.816   6.129   1.765  0.1761  1.2506  0.4272
 1678SOL     OW14174   4.538   1.359   2.108  0.8485 -0.1222  0.1140
 1678SOL    HW114175   4.447   1.319   2.106  0.5571  0.5540 -0.8765
 1678SOL    HW214176   4.600   1.303   2.053  1.0224 -0.5767  0.7792
 1679SOL     OW14177   0.421   9.987   1.825  0.3619  0.2752 -0.0459
 1679SOL    HW114178   0.405   9.958   1.731 -1.1532  2.0376 -0.3682
 1679SOL    HW214179   0.514  10.022   1.835 -0.1783  2.2063 -1.4848
 1681SOL     OW14180   0.624   6.131   1.935  0.1783 -0.1095  0.4780
 1681SOL    HW114181   0.682   6.106   1.858 -0.6966 -0.0587 -0.1984
 1681SOL    HW214182   0.679   6.181   2.002  0.5711  1.3253 -0.8847
 1685SOL     OW14183   4.043   9.180   0.755  0.2092  0.4415 -0.3185
 1685SOL    HW114184   4.070   9.104   0.814  2.4391  0.7625 -0.8751
 1685SOL    HW214185   4.072   9.267   0.796 -0.7995  0.8732 -0.5003
 1686SOL     OW14186   0.422   3.264   1.235 -0.0793  0.1882 -0.1070
 1686SOL    HW114187   0.417   3.292   1.139  0.5699  0.4091 -0.0791
 1686SOL    HW214188   0.495   3.196   1.246  1.6960  2.1560  0.6892
 1687SOL     OW14189   8.229   0.820   0.255 -0.4775 -0.0269  0.4034
 1687SOL    HW114190   8.208   0.723   0.247 -1.3576  0.1794  0.0422
 1687SOL    HW214191   8.196   0.868   0.173 -0.2721  0.6037  0.6848
 1688SOL     OW14192   0.565   0.507   1.232  0.0928  0.0432  0.3285
 1688SOL    HW114193   0.584   0.491   1.329  0.6685 -0.3311  0.1570
 1688SOL    HW214194   0.549   0.605   1.217  0.0053  0.1030  0.7959
 1690SOL     OW14195   0.576   1.887   1.619 -0.0212  0.0634 -0.5964
 1690SOL    HW114196   0.524   1.835   1.686  0.4773  0.3845  0.0437
 1690SOL    HW214197   0.636   1.952   1.666  1.0431 -0.3779 -1.3101
 1691SOL     OW14198   9.083   1.960   0.702 -0.0527 -0.6333  0.1355
 1691SOL    HW114199   9.109   2.039   0.647 -0.5123  0.5029  1.5172
 1691SOL    HW214200   9.157   1.893   0.701  0.4074 -0.1276 -0.9144
 1692SOL     OW14201   2.676   8.593   1.213  0.0432 -0.4496  0.2382
 1692SOL    HW114202   2.673   8.510   1.269  1.1144 -0.9240 -0.4103
 1692SOL    HW214203   2.629   8.577   1.127 -0.7601 -0.0149  0.5882
 1693SOL     OW14204   1.925   6.914   0.535  0.0824  0.0745  0.4964
 1693SOL    HW114205   1.882   6.925   0.625 -1.8896 -0.4117 -0.3609
 1693SOL    HW214206   1.858   6.881   0.469  1.6405 -0.1236 -1.0506
 1694SOL     OW14207   1.536   5.664   1.806  0.3702  0.0635  0.4697
 1694SOL    HW114208   1.590   5.620   1.735 -0.8180 -1.5061  0.4987
 1694SOL    HW214209   1.551   5.616   1.893 -0.0712  0.4398  0.7541
 1695SOL     OW14210   1.333   7.955   2.116 -0.2501  0.1969 -0.2751
 1695SOL    HW114211   1.328   8.005   2.029 -0.4251 -1.0420 -0.9977
 1695SOL    HW214212   1.351   8.019   2.191 -0.0886  1.2798 -1.2270
 1696SOL     OW14213   1.566   0.321   1.478  0.1669 -0.2305 -0.7854
 1696SOL    HW114214   1.602   0.251   1.539 -0.1182 -1.1271 -1.6359
 1696SOL    HW214215   1.482   0.359   1.516  1.3733  1.0943  0.6673
 1697SOL     OW14216   2.755   8.848   1.694  0.0467  0.0533 -0.3926
 1697SOL    HW114217   2.706   8.908   1.757 -1.3765  0.3414 -1.7342
 1697SOL    HW214218   2.833   8.897   1.655 -0.5339  0.7038 -0.7372
 1698SOL     OW14219   3.703   0.782   1.856 -0.5736 -0.3732  0.2413
 1698SOL    HW114220   3.748   0.694   1.867 -0.0183 -0.2981 -1.2928
 1698SOL    HW214221   3.773   0.854   1.847 -1.0098  0.3612  2.3803
 1699SOL     OW14222   8.885   4.982   1.640 -0.1200  0.4984  0.0966
 1699SOL    HW114223   8.864   5.076   1.666 -1.6170  0.5089 -1.0736
 1699SOL    HW214224   8.874   4.972   1.541  4.1311  0.1366 -0.4099
 1700SOL     OW14225   2.651   5.633   1.817 -0.1958 -0.0706 -0.0729
 1700SOL    HW114226   2.679   5.539   1.798 -0.5867 -0.2268  0.1050
 1700SOL    HW214227   2.731   5.688   1.837 -0.1311 -0.8609  1.9764
 1701SOL     OW14228   3.314   4.090   0.257  0.2580 -0.2502 -0.7841
 1701SOL    HW114229   3.219   4.122   0.256 -0.1451 -1.2864  1.6000
 1701SOL    HW214230   3.374   4.165   0.282 -0.3488 -0.4672  1.4568
 1702SOL     OW14231   4.305   0.363   0.944 -0.6984  0.1039 -0.4462
 1702SOL    HW114232   4.363   0.282   0.939  1.1527  1.5093 -2.3773
 1702SOL    HW214233   4.220   0.340   0.991  0.8143 -2.3381  1.1889
 1703SOL     OW14234   0.088   1.661   0.996 -0.3120  0.5389  0.5687
 1703SOL    HW114235   0.079   1.731   1.067  0.2373  1.6735 -0.4560
 1703SOL    HW214236   0.163   1.686   0.934 -0.2731 -0.8366  0.0433
 1704SOL     OW14237   8.355   3.823   0.438 -0.0929  0.2687  0.1712
 1704SOL    HW114238   8.303   3.893   0.488 -0.2220  0.1799  0.1638
 1704SOL    HW214239   8.360   3.740   0.494  0.6343  0.5075  0.4601
 1705SOL     OW14240   1.580   2.290   0.380  0.3712 -0.4989  0.1916
 1705SOL    HW114241   1.626   2.303   0.292 -0.6388 -0.8473 -0.4016
 1705SOL    HW214242   1.628   2.219   0.432 -0.6441 -2.3053 -1.2713
 1706SOL     OW14243   8.681   0.461   0.210  0.3349  0.7093  0.0805
 1706SOL    HW114244   8.771   0.475   0.169  0.0224  1.6577 -0.2793
 1706SOL    HW214245   8.666   0.363   0.225  1.3420  0.5350 -0.0394
 1707SOL     OW14246   3.170   8.787   2.005 -0.1508 -0.4212 -0.2109
 1707SOL    HW114247   3.238   8.861   2.007  0.6492 -1.1288 -0.6134
 1707SOL    HW214248   3.134   8.777   1.913 -1.8526  0.8638  0.2798
 1708SOL     OW14249   2.906   0.673   1.892  0.3512 -0.0580  0.6930
 1708SOL    HW114250   2.979   0.661   1.959  2.1202  0.6629 -1.0635
 1708SOL    HW214251   2.886   0.770   1.881 -0.3945 -0.2126  0.6458
 1709SOL     OW14252   9.733   1.853   0.538  0.1085  0.0436  0.2208
 1709SOL    HW114253   9.781   1.848   0.626 -0.5164 -0.5251  0.5365
 1709SOL    HW214254   9.783   1.801   0.469 -0.2669 -0.8987  0.6532
 1711SOL     OW14255   2.237   2.080   0.173 -0.3625  0.5886  0.1293
 1711SOL    HW114256   2.148   2.034   0.176  1.1372 -2.3164  1.4792
 1711SOL    HW214257   2.294   2.038   0.103  0.7846  0.7968  0.9179
 1712SOL     OW14258   1.498   8.762   1.026 -0.3761  0.0311 -0.5375
 1712SOL    HW114259   1.411   8.739   0.984 -1.4912 -0.3850  1.9215
 1712SOL    HW214260   1.573   8.739   0.964 -1.9081 -1.7363 -1.7586
 1713SOL     OW14261   1.853   9.108   2.069 -0.4239 -0.1666  0.3334
 1713SOL    HW114262   1.926   9.042   2.090 -0.8931  0.0086  2.6563
 1713SOL    HW214263   1.889   9.201   2.077 -1.0440 -0.0661  2.1434
 1714SOL     OW14264   0.013   5.123   0.149 -0.1340  0.2668  0.1243
 1714SOL    HW114265   0.007   5.031   0.186 -0.1376  0.2807  0.1582
 1714SOL    HW214266   0.013   5.120   0.049 -2.9998  0.4108  0.0864
 1716SOL     OW14267   4.363   8.632   2.052  0.4302  0.2426  0.0265
 1716SOL    HW114268   4.401   8.559   2.109 -1.4511 -1.4795 -0.8616
 1716SOL    HW214269   4.420   8.643   1.971  1.1193  0.2698  0.5061
 1717SOL     OW14270   1.280   8.322   1.047 -0.4682 -0.2947 -0.3137
 1717SOL    HW114271   1.375   8.297   1.066 -0.8801 -1.6878 -0.0325
 1717SOL    HW214272   1.259   8.305   0.951 -0.5960 -0.5080 -0.2477
 1718SOL     OW14273   0.412   5.839   1.701 -0.1079  0.3394 -0.2533
 1718SOL    HW114274   0.410   5.747   1.740 -0.8343  1.3907  2.2785
 1718SOL    HW214275   0.474   5.840   1.622 -0.4011 -2.3872 -0.5675
 1719SOL     OW14276   3.591   1.019   1.505 -0.3052 -0.1345  0.2962
 1719SOL    HW114277   3.626   1.111   1.521  1.0500 -0.7423  0.9620
 1719SOL    HW214278   3.491   1.019   1.511 -0.2240  0.9840  1.8952
 1720SOL     OW14279   8.549   0.683   2.163  0.1393 -0.0578  0.6152
 1720SOL    HW114280   8.480   0.755   2.153 -0.2925 -0.4845  0.5055
 1720SOL    HW214281   8.504   0.594   2.164  0.5890 -0.2873  1.6141
 1721SOL     OW14282   2.790   7.214   1.054  0.3113 -0.3795  0.5246
 1721SOL    HW114283   2.708   7.194   1.000  0.4490 -1.7180  0.7940
 1721SOL    HW214284   2.784   7.167   1.142  1.9880 -1.6193  0.0063
 1722SOL     OW14285   0.163   3.844   1.918 -0.1864 -0.2191 -0.4790
 1722SOL    HW114286   0.100   3.921   1.924 -0.7722 -0.7071 -0.3895
 1722SOL    HW214287   0.140   3.787   1.839  2.0333  1.2821 -2.2721
 1723SOL     OW14288   2.241   3.512   0.313  0.0374 -0.4061 -0.0310
 1723SOL    HW114289   2.193   3.447   0.372 -2.2973  1.7724  0.5400
 1723SOL    HW214290   2.289   3.579   0.370  1.4005 -0.8555 -0.6237
 1724SOL     OW14291   4.506   2.634   1.046 -0.2866 -0.0410 -0.8040
 1724SOL    HW114292   4.447   2.699   1.095  1.6449  0.6720  0.6483
 1724SOL    HW214293   4.598   2.639   1.084  0.1848 -2.7594 -1.5351
 1725SOL     OW14294   2.945   5.183   0.778  0.4181 -0.6119 -0.3944
 1725SOL    HW114295   3.011   5.252   0.749  0.0345  0.4494  1.2245
 1725SOL    HW214296   2.865   5.186   0.718  1.1434 -0.8510 -1.3986
 1726SOL     OW14297   4.149   2.531   0.433  0.0003 -0.1431 -0.2433
 1726SOL    HW114298   4.087   2.487   0.498 -2.0549  1.6786 -0.9021
 1726SOL    HW214299   4.228   2.569   0.482 -0.1183 -1.2158  0.8029
 1728SOL     OW14300   3.147   4.172   1.616  0.3822 -0.1041 -0.0925
 1728SOL    HW114301   3.068   4.124   1.655  0.3150 -1.2858 -1.6744
 1728SOL    HW214302   3.212   4.193   1.689  0.0122 -1.8347  0.7555
 1730SOL     OW14303   8.413   6.005   2.073  0.2168  0.0539  0.1209
 1730SOL    HW114304   8.482   5.971   2.136  1.1419  0.0748 -0.8666
 1730SOL    HW214305   8.401   5.940   1.998 -0.9885 -0.0476  0.3900
 1731SOL     OW14306   0.516   6.575   1.469  0.2248 -0.5349  0.1720
 1731SOL    HW114307   0.447   6.600   1.401  1.0734 -0.1613 -0.5560
 1731SOL    HW214308   0.568   6.657   1.495  0.5865 -0.8706  0.5022
 1732SOL     OW14309   9.638   9.240   0.565  0.0830 -0.4200  0.2871
 1732SOL    HW114310   9.546   9.227   0.527 -1.1570  1.7976  2.3724
 1732SOL    HW214311   9.641   9.200   0.657  1.3487 -0.8959  0.0360
 1733SOL     OW14312   9.494   2.234   0.983 -0.3373 -0.5121 -0.0733
 1733SOL    HW114313   9.418   2.296   0.999 -0.7569 -0.7381 -1.1028
 1733SOL    HW214314   9.481   2.188   0.894  0.5478 -1.1991  0.1440
 1735SOL     OW14315   1.661   7.868   1.559  0.3965 -0.1056 -0.3717
 1735SOL    HW114316   1.643   7.782   1.511  0.6960  0.0148 -0.7042
 1735SOL    HW214317   1.600   7.876   1.638  0.1508 -0.4747 -0.5245
 1736SOL     OW14318   8.431   1.796   1.993  0.0310 -0.6845 -0.0301
 1736SOL    HW114319   8.459   1.810   1.898  0.4582 -1.0995  0.0333
 1736SOL    HW214320   8.497   1.736   2.039 -0.9738 -1.6742  0.1206
 1737SOL     OW14321   0.671   4.555   2.125  0.4740 -0.1033  0.4098
 1737SOL    HW114322   0.656   4.609   2.208  1.8020 -1.7129  1.7094
 1737SOL    HW214323   0.632   4.464   2.136  0.3504 -0.2163 -0.8737
 1738SOL     OW14324   4.727   1.432   0.690 -0.4479  0.2127  0.3867
 1738SOL    HW114325   4.799   1.501   0.691  0.1211 -0.3354 -1.6403
 1738SOL    HW214326   4.659   1.455   0.620  0.3845 -1.8988 -1.1808
 1740SOL     OW14327   1.471   5.758   0.538 -0.2324 -0.1129 -0.1502
 1740SOL    HW114328   1.555   5.775   0.589 -0.3806 -1.6315  0.6270
 1740SOL    HW214329   1.459   5.829   0.468  1.8614 -0.0773 -0.4969
 1743SOL     OW14330   1.686   3.583   2.189 -0.5171  0.0801 -0.1713
 1743SOL    HW114331   1.592   3.588   2.224 -1.5110  1.1684 -2.8663
 1743SOL    HW214332   1.701   3.493   2.147 -0.1273 -0.3247  0.8171
 1744SOL     OW14333   3.245   9.123   1.436 -0.2759  0.2012 -0.0784
 1744SOL    HW114334   3.290   9.084   1.516 -0.9398  0.2718  0.3312
 1744SOL    HW214335   3.266   9.221   1.431  0.4156  0.0389 -0.4417
 1745SOL     OW14336   1.778   5.895   0.494 -0.0050 -0.6276 -0.5111
 1745SOL    HW114337   1.793   5.798   0.478 -2.0978 -0.5294 -3.4155
 1745SOL    HW214338   1.844   5.949   0.442 -0.1172 -0.4554 -0.4778
 1747SOL     OW14339   9.865   6.696   1.011 -0.3303 -0.5477  0.0203
 1747SOL    HW114340   9.898   6.681   0.918 -0.1475 -1.4805  0.2303
 1747SOL    HW214341   9.911   6.776   1.050  0.9182 -1.2173 -0.0563
 1748SOL     OW14342   1.423   1.661   0.119  0.0866 -0.0146  0.1292
 1748SOL    HW114343   1.522   1.649   0.126 -0.0305 -0.0144  2.0587
 1748SOL    HW214344   1.379   1.619   0.198 -1.3322  1.4153  0.1127
 1749SOL     OW14345   2.348   3.858   0.939  0.1868  0.0139 -0.2433
 1749SOL    HW114346   2.444   3.876   0.920  0.6217  0.1482  1.9601
 1749SOL    HW214347   2.295   3.942   0.931  1.0393  0.9259  3.0306
 1750SOL     OW14348   1.974   6.783   1.767 -0.4581 -0.1712 -0.3396
 1750SOL    HW114349   1.965   6.856   1.835  3.0105 -1.2173  1.3754
 1750SOL    HW214350   1.977   6.695   1.814 -0.6234 -1.1206 -2.0769
 1752SOL     OW14351   1.859   0.794   1.349  0.2225  0.4423  0.1327
 1752SOL    HW114352   1.879   0.698   1.331  1.1368  0.2746  1.9707
 1752SOL    HW214353   1.789   0.801   1.421 -0.5463  1.1502 -0.6665
 1753SOL     OW14354   1.284   3.515   2.105 -0.2930  0.5410  0.0053
 1753SOL    HW114355   1.299   3.417   2.116 -1.1682  0.6186  1.9145
 1753SOL    HW214356   1.353   3.552   2.042  0.1402 -1.2506 -0.6002
 1754SOL     OW14357   3.992   9.658   1.740  0.8165 -0.1686 -0.5400
 1754SOL    HW114358   3.983   9.718   1.819 -0.2179 -1.1683  0.1226
 1754SOL    HW214359   3.924   9.682   1.671  0.4989 -0.4965 -0.3376
 1755SOL     OW14360   4.176   9.583   0.130 -0.6601  0.1342  0.7747
 1755SOL    HW114361   4.215   9.645   0.199 -0.7910  1.3859 -0.2738
 1755SOL    HW214362   4.153   9.496   0.174  1.6509 -0.0124  1.8064
 1756SOL     OW14363   9.598   7.137   2.093 -0.0623  0.5315  0.0023
 1756SOL    HW114364   9.659   7.175   2.023 -1.6066  1.7840 -0.6898
 1756SOL    HW214365   9.507   7.177   2.083 -1.4394 -2.4270  0.0146
 1757SOL     OW14366   2.314   1.376   2.120  0.0521 -1.0487 -0.2492
 1757SOL    HW114367   2.262   1.347   2.039  1.7178 -0.1041 -1.6784
 1757SOL    HW214368   2.302   1.475   2.134  0.9677 -0.9401 -0.2181
 1758SOL     OW14369   1.500   9.161   1.708  0.0679  0.0407  0.4773
 1758SOL    HW114370   1.502   9.196   1.615 -0.8567  2.5938  1.3568
 1758SOL    HW214371   1.590   9.172   1.750  0.7206 -1.8959 -0.3434
 1759SOL     OW14372   0.617   9.588   0.204 -0.1793  0.1713 -0.2819
 1759SOL    HW114373   0.527   9.622   0.232 -0.2470 -0.4907  0.3526
 1759SOL    HW214374   0.671   9.662   0.166 -0.2211  1.0496  1.3079
 1760SOL     OW14375   2.765   7.415   2.013 -0.0718 -0.0498  0.4241
 1760SOL    HW114376   2.833   7.483   1.986  0.0559 -0.3302  0.0236
 1760SOL    HW214377   2.780   7.388   2.108  0.4895 -0.2341  0.2853
 1761SOL     OW14378   9.233   8.670   1.885  0.3647  0.2014 -0.2529
 1761SOL    HW114379   9.149   8.684   1.938  1.4996  2.3558  1.0362
 1761SOL    HW214380   9.210   8.667   1.788 -1.3365 -0.3940  0.1394
 1762SOL     OW14381   0.797   9.583   1.555 -0.3495  0.3190 -0.2593
 1762SOL    HW114382   0.793   9.486   1.532  0.4090  0.4548 -0.9895
 1762SOL    HW214383   0.731   9.633   1.499 -1.2138  0.1422  0.5894
 1763SOL     OW14384   1.423   2.411   0.035  0.3855 -0.0659 -0.0337
 1763SOL    HW114385   1.460   2.421  -0.057 -0.1105 -0.7983 -0.3146
 1763SOL    HW214386   1.394   2.500   0.070 -0.3592  0.0599 -0.9727
 1764SOL     OW14387   1.516   7.640   1.466  0.2297  0.0727 -0.2358
 1764SOL    HW114388   1.593   7.577   1.478  1.7984  1.9582 -0.1681
 1764SOL    HW214389   1.465   7.646   1.551  1.2027  0.3391  0.3380
 1765SOL     OW14390   3.458   2.506   0.151 -0.0564 -0.5778 -0.5474
 1765SOL    HW114391   3.434   2.602   0.143 -0.0025 -0.4590  0.6759
 1765SOL    HW214392   3.375   2.450   0.140 -0.1301 -0.3827 -0.9886
 1766SOL     OW14393   1.572   5.931   1.815 -0.1921  0.0197 -0.7833
 1766SOL    HW114394   1.532   5.842   1.796  1.0407 -0.2061 -2.4316
 1766SOL    HW214395   1.672   5.924   1.812 -0.0491  1.1009  0.7546
 1767SOL     OW14396   7.694   9.889   0.085  0.0808 -0.2341  0.1356
 1767SOL    HW114397   7.623   9.835   0.040  0.7958 -0.6147 -0.5465
 1767SOL    HW214398   7.666   9.908   0.180 -0.2895 -1.5828  0.3098
 1768SOL     OW14399   1.603   2.884   0.391  0.2832 -0.1857  0.2888
 1768SOL    HW114400   1.642   2.833   0.467 -0.1983  0.7587  1.1793
 1768SOL    HW214401   1.632   2.980   0.396 -0.7042  0.1394 -0.0273
 1769SOL     OW14402   8.720   7.613   1.463  0.4528 -0.3163 -0.1884
 1769SOL    HW114403   8.743   7.534   1.406 -0.3312 -0.4082 -0.3778
 1769SOL    HW214404   8.690   7.689   1.405  3.0259  0.7919 -0.1669
 1770SOL     OW14405   9.527   5.424   0.602  0.0379  0.1032 -0.1652
 1770SOL    HW114406   9.568   5.496   0.545 -1.1449  0.0242 -1.1453
 1770SOL    HW214407   9.554   5.334   0.567 -0.7458  0.0530 -0.6664
 1771SOL     OW14408   3.592   9.418   0.748 -0.7466 -0.0936 -0.4909
 1771SOL    HW114409   3.638   9.337   0.783  1.6483  0.5902 -1.9611
 1771SOL    HW214410   3.646   9.500   0.771 -1.5466  0.7877 -1.6639
 1773SOL     OW14411   1.982   1.719   2.164  0.0777  0.2539  0.1068
 1773SOL    HW114412   1.956   1.756   2.075  1.0140  0.0730 -0.2390
 1773SOL    HW214413   1.927   1.638   2.184 -0.7611  0.8128  0.0995
 1775SOL     OW14414   8.572   1.061   1.560  0.7879 -0.1722 -0.0769
 1775SOL    HW114415   8.513   0.997   1.609 -0.1053 -0.0592 -0.9959
 1775SOL    HW214416   8.604   1.020   1.475  1.2639  0.1202 -0.0411
 1776SOL     OW14417   9.307   5.907   1.223 -0.2977  0.3214  0.3464
 1776SOL    HW114418   9.214   5.918   1.257 -0.1355  1.3412  0.4560
 1776SOL    HW214419   9.335   5.989   1.174 -0.3125 -0.8950 -1.7476
 1777SOL     OW14420   1.873   7.017   1.632  0.3098 -0.2394  0.2112
 1777SOL    HW114421   1.905   6.930   1.670 -1.1892 -1.4365 -1.1842
 1777SOL    HW214422   1.837   7.074   1.706 -0.2576 -1.4965  0.9212
 1778SOL     OW14423   0.003   2.819   2.186  0.5555 -0.3495 -0.6683
 1778SOL    HW114424   0.026   2.739   2.241 -0.2404  0.1987  0.5037
 1778SOL    HW214425   0.010   2.797   2.089 -0.5891 -2.1315 -0.3720
 1779SOL     OW14426   0.280   1.928   1.445  0.3123  0.0864  0.4709
 1779SOL    HW114427   0.285   1.977   1.358  1.7230  0.3194  0.6726
 1779SOL    HW214428   0.233   1.985   1.513 -0.8512 -0.1236 -0.1433
 1780SOL     OW14429   2.461   5.564   0.329 -0.2425 -0.1785 -0.5284
 1780SOL    HW114430   2.409   5.498   0.275 -0.3751  0.9980 -1.8461
 1780SOL    HW214431   2.420   5.655   0.320  2.7647  1.0371 -2.6513
 1781SOL     OW14432   3.660   9.430   1.398  0.0110  0.2266  0.5419
 1781SOL    HW114433   3.727   9.357   1.409  2.1388  2.0368  0.0460
 1781SOL    HW214434   3.594   9.405   1.326  0.6003 -1.2467  0.4988
 1783SOL     OW14435   0.515   7.156   0.103  0.2864  0.3491 -0.1473
 1783SOL    HW114436   0.565   7.079   0.140  0.9779  0.2797 -1.1908
 1783SOL    HW214437   0.442   7.123   0.043  1.3792  0.5155 -1.5900
 1784SOL     OW14438   4.213   2.605   2.119 -0.2111  0.2814  0.5839
 1784SOL    HW114439   4.182   2.689   2.072 -1.0361 -0.9595 -1.1577
 1784SOL    HW214440   4.136   2.542   2.127  1.2904 -1.9829 -1.8575
 1785SOL     OW14441   3.156   3.797   1.975  0.3646 -0.4044  0.4847
 1785SOL    HW114442   3.113   3.707   1.976  0.0172 -0.2332  2.1321
 1785SOL    HW214443   3.169   3.829   2.069  2.2512  0.4327 -0.0368
 1786SOL     OW14444   3.930   1.024   2.066 -0.0661  0.2992 -0.0729
 1786SOL    HW114445   3.956   1.077   1.986 -0.3549  0.7089  0.1053
 1786SOL    HW214446   3.883   0.940   2.036  0.6655 -0.0156 -0.3612
 1787SOL     OW14447   3.657   2.709   0.388  0.8580  0.1158 -0.1778
 1787SOL    HW114448   3.587   2.737   0.455 -0.6043 -1.0925 -1.1563
 1787SOL    HW214449   3.644   2.761   0.304  2.4309  1.3263  0.3052
 1788SOL     OW14450   9.419   3.786   0.445 -0.0437 -0.3792 -0.6231
 1788SOL    HW114451   9.494   3.725   0.422  1.0106  0.5041  0.3834
 1788SOL    HW214452   9.410   3.856   0.374 -0.6972 -1.1943 -1.3453
 1789SOL     OW14453   3.714   9.939   0.152  0.1865  0.2227  0.1630
 1789SOL    HW114454   3.675   9.860   0.106 -0.1022 -0.2330  1.1643
 1789SOL    HW214455   3.708  10.019   0.093 -1.6267  0.0084  0.0405
 1790SOL     OW14456   1.182   5.861   2.190  0.4371 -0.7287 -0.0902
 1790SOL    HW114457   1.272   5.821   2.170 -0.0945 -1.4800 -1.0623
 1790SOL    HW214458   1.153   5.834   2.282  0.8166 -1.2198 -0.1089
 1791SOL     OW14459   0.132   6.613   1.647  0.0683 -0.6160  0.1623
 1791SOL    HW114460   0.181   6.682   1.701  0.3485 -0.5764 -0.1377
 1791SOL    HW214461   0.183   6.595   1.563 -0.7730 -0.1019 -0.4660
 1792SOL     OW14462   3.589   9.859   1.805 -0.3840  0.6349 -0.8534
 1792SOL    HW114463   3.660   9.905   1.752 -0.9886  2.7076  0.0982
 1792SOL    HW214464   3.523   9.926   1.838 -2.1252 -1.1146 -0.6961
 1793SOL     OW14465   9.835   1.046   2.126 -0.1961 -0.1754 -0.0160
 1793SOL    HW114466   9.883   0.992   2.056  1.5937 -0.0290  1.0864
 1793SOL    HW214467   9.758   0.992   2.161  1.2505 -1.8233  0.6873
 1796SOL     OW14468   1.395   2.194   0.656  0.2687  0.3669  0.0210
 1796SOL    HW114469   1.374   2.268   0.593  0.7454  0.3338 -0.1777
 1796SOL    HW214470   1.398   2.107   0.607 -1.4399  0.0403  0.4464
 1798SOL     OW14471   0.905   2.083   0.704  0.4934  0.3450 -0.1326
 1798SOL    HW114472   0.993   2.116   0.737  0.1008 -0.9012  2.2374
 1798SOL    HW214473   0.920   2.004   0.645  0.9855  0.4558 -0.1636
 1799SOL     OW14474   3.802   5.114   0.708 -0.4432 -0.2772 -0.7649
 1799SOL    HW114475   3.746   5.124   0.626  1.3163 -0.8527 -2.0679
 1799SOL    HW214476   3.842   5.202   0.733  0.0092 -0.3281 -1.2792
 1800SOL     OW14477   9.644   7.400   0.440  0.2352  0.1016 -0.1189
 1800SOL    HW114478   9.702   7.419   0.361 -1.2699 -0.1675 -1.3113
 1800SOL    HW214479   9.603   7.485   0.473  1.5205  0.3360  0.9118
 1801SOL     OW14480   4.340   2.649   0.600  0.2578  0.3503  0.1167
 1801SOL    HW114481   4.416   2.585   0.611 -0.2803 -0.1677  0.8867
 1801SOL    HW214482   4.305   2.675   0.691  0.4335  1.6790 -0.1974
 1802SOL     OW14483   8.613   2.405   2.121  0.4045  0.0289  0.0632
 1802SOL    HW114484   8.534   2.465   2.134 -0.1243 -0.9609  1.4963
 1802SOL    HW214485   8.600   2.352   2.037 -0.0997  0.4330 -0.1194
 1803SOL     OW14486   9.661   4.902   0.101 -0.5228 -0.0758  0.1409
 1803SOL    HW114487   9.704   4.974   0.155 -0.9382  0.4639 -0.2369
 1803SOL    HW214488   9.701   4.900   0.009 -3.4711  2.6036 -1.3042
 1804SOL     OW14489   0.864   8.890   1.660 -0.2710 -0.2791  0.2445
 1804SOL    HW114490   0.766   8.906   1.674 -0.5245 -2.0169  0.5397
 1804SOL    HW214491   0.877   8.813   1.598  0.9241  0.6880 -0.7459
 1807SOL     OW14492   2.387   2.212   0.588  0.0951  0.5961  0.5495
 1807SOL    HW114493   2.471   2.157   0.579  0.2725  0.8563  0.5898
 1807SOL    HW214494   2.408   2.296   0.638  0.2770  1.6471 -1.2474
 1808SOL     OW14495   8.235   7.147   1.430 -0.0375 -0.2787 -0.0262
 1808SOL    HW114496   8.302   7.216   1.402 -1.5617  1.0277 -0.5875
 1808SOL    HW214497   8.238   7.135   1.529 -0.5381  1.4961  0.2294
 1809SOL     OW14498   1.200   9.463   0.269 -0.4998 -0.1652 -0.3850
 1809SOL    HW114499   1.262   9.541   0.283 -1.6331  0.6062  0.5562
 1809SOL    HW214500   1.108   9.498   0.250 -1.5611 -1.2397  2.5361
 1810SOL     OW14501   0.869   4.402   1.847 -0.1657  0.4231 -0.2199
 1810SOL    HW114502   0.897   4.307   1.854  0.7680  0.6854 -0.4098
 1810SOL    HW214503   0.855   4.440   1.939  0.9817  0.5556 -0.0962
 1811SOL     OW14504   4.061   2.852   1.948  0.2036 -0.3705  0.3911
 1811SOL    HW114505   4.105   2.927   1.897  0.6597 -3.2809 -3.7745
 1811SOL    HW214506   4.002   2.800   1.886  1.1919 -4.4902  2.6977
 1812SOL     OW14507   3.589   1.031   1.207  0.3992 -0.0183  0.4624
 1812SOL    HW114508   3.521   0.972   1.164 -1.1961  0.2451  2.5333
 1812SOL    HW214509   3.620   0.989   1.293  0.3598  1.4346  1.2137
 1813SOL     OW14510   3.428   3.088   0.627 -0.0253 -0.1410 -0.1704
 1813SOL    HW114511   3.487   3.156   0.585 -0.3608  0.1660 -0.1492
 1813SOL    HW214512   3.333   3.105   0.601 -0.1928 -0.1729  0.4019
 1816SOL     OW14513   7.747   1.064   0.104 -0.3277  0.8594  0.2376
 1816SOL    HW114514   7.729   1.162   0.110  1.7975  1.2441  0.4978
 1816SOL    HW214515   7.780   1.041   0.013 -2.4976  0.0606 -0.3966
 1819SOL     OW14516   2.602   9.745   0.188 -0.3951  0.0031  0.1530
 1819SOL    HW114517   2.534   9.694   0.240 -0.6009  0.3964  0.2707
 1819SOL    HW214518   2.689   9.744   0.237 -0.4555 -0.0568  0.2579
 1820SOL     OW14519   8.937   0.516   0.125  0.4370 -0.5501 -0.0185
 1820SOL    HW114520   8.926   0.612   0.101  0.3964 -0.6246 -0.2981
 1820SOL    HW214521   9.018   0.506   0.183  0.8772 -0.4435 -0.5983
 1821SOL     OW14522   9.291   3.666   1.849  0.1548  0.6081  0.3919
 1821SOL    HW114523   9.348   3.743   1.879  3.1416 -0.6257 -1.8408
 1821SOL    HW214524   9.248   3.689   1.762  0.5835 -0.0069  0.0127
 1822SOL     OW14525   2.294   9.675   0.059  0.3007 -0.6940  0.2164
 1822SOL    HW114526   2.358   9.736   0.014 -1.2094  0.8452  0.1164
 1822SOL    HW214527   2.330   9.649   0.149  1.2731 -0.2661 -0.0422
 1824SOL     OW14528   3.312   0.709   0.163 -0.0567  0.1707  0.4495
 1824SOL    HW114529   3.317   0.662   0.074 -0.7975  1.1345 -0.1096
 1824SOL    HW214530   3.312   0.641   0.236 -0.5002 -0.6816 -0.3304
 1826SOL     OW14531   8.245   7.683   1.852 -0.6860  0.2548  0.1508
 1826SOL    HW114532   8.241   7.644   1.944 -0.0326 -0.9328 -0.3098
 1826SOL    HW214533   8.333   7.728   1.839  0.2820 -1.8286 -0.7544
 1827SOL     OW14534   8.774   4.299   0.711 -0.4257  0.2332  0.7357
 1827SOL    HW114535   8.809   4.205   0.714 -0.4183  0.2747  2.3017
 1827SOL    HW214536   8.847   4.363   0.734 -0.7893  0.5205  1.1014
 1828SOL     OW14537   0.623   1.842   0.691 -0.2568 -0.7465  0.1579
 1828SOL    HW114538   0.652   1.920   0.746 -0.4634 -0.3269 -0.3225
 1828SOL    HW214539   0.624   1.760   0.747  0.6707 -0.5250  0.4732
 1829SOL     OW14540   7.587   1.379   0.632 -0.4311 -1.0096  0.3532
 1829SOL    HW114541   7.521   1.306   0.650 -0.1702 -1.5812 -0.9726
 1829SOL    HW214542   7.646   1.354   0.555  0.7827 -0.1345  0.9617
 1830SOL     OW14543   0.081   4.016   1.525  0.2194  0.1563  0.1732
 1830SOL    HW114544   0.060   3.921   1.503  0.7672 -0.0580  0.5632
 1830SOL    HW214545   0.023   4.046   1.601  0.3379  0.0083  0.3209
 1831SOL     OW14546   2.300   8.566   0.325  0.4230 -0.0421 -0.3015
 1831SOL    HW114547   2.330   8.661   0.324  2.3503 -0.6269 -0.2843
 1831SOL    HW214548   2.309   8.529   0.418 -2.3375  0.3384  0.1807
 1833SOL     OW14549   8.521   8.107   0.107 -0.3719  0.3102 -0.1552
 1833SOL    HW114550   8.613   8.086   0.140 -0.1567 -0.5628 -1.2754
 1833SOL    HW214551   8.504   8.057   0.022 -2.1666 -0.1641  0.4525
 1834SOL     OW14552   9.690   9.005   2.072  0.8608  0.3288  0.2423
 1834SOL    HW114553   9.664   8.949   2.151 -0.1446 -0.4140 -0.6003
 1834SOL    HW214554   9.766   8.960   2.024  0.0585 -0.3231 -0.4305
 1835SOL     OW14555   9.615   9.837   1.644 -0.2633  0.4485  0.1901
 1835SOL    HW114556   9.639   9.816   1.549  0.0332  1.6169 -0.0013
 1835SOL    HW214557   9.524   9.878   1.648  0.0703  1.1794  0.3183
 1836SOL     OW14558   8.047   1.196   0.186  0.3664  0.1022 -0.0681
 1836SOL    HW114559   8.110   1.253   0.239  0.9929 -0.4530 -0.2024
 1836SOL    HW214560   7.965   1.248   0.165  1.0055  1.0138 -0.3376
 1837SOL     OW14561   3.424   4.077   0.687  0.1158  0.3718  0.6362
 1837SOL    HW114562   3.499   4.131   0.725 -0.7092  0.8365  1.6367
 1837SOL    HW214563   3.339   4.129   0.693 -0.6852 -0.9939  1.5633
 1839SOL     OW14564   2.964   3.136   1.793  0.1017 -0.7995 -0.0922
 1839SOL    HW114565   2.924   3.088   1.715  0.4542  1.5319 -1.7847
 1839SOL    HW214566   2.925   3.101   1.878 -2.1286 -1.7186 -1.4620
 1840SOL     OW14567   5.293   3.595   1.564  0.1972 -0.1958 -0.0541
 1840SOL    HW114568   5.370   3.659   1.565 -1.1669  1.4473  0.0571
 1840SOL    HW214569   5.277   3.562   1.471  0.3419  0.2922 -0.2501
 1841SOL     OW14570   9.781   0.603   1.375 -0.5272  0.5534 -0.5528
 1841SOL    HW114571   9.690   0.639   1.353 -0.0619  1.1233 -1.5648
 1841SOL    HW214572   9.798   0.614   1.473 -1.5919  0.3397 -0.3368
 1842SOL     OW14573   8.049   2.760   2.149 -0.0902 -0.2108  0.0531
 1842SOL    HW114574   8.118   2.829   2.124  0.7790 -1.4072 -0.8919
 1842SOL    HW214575   8.081   2.708   2.228 -0.2981 -0.2039  0.1422
 1843SOL     OW14576   1.138   6.423   1.685 -0.8418  0.1001  0.4028
 1843SOL    HW114577   1.127   6.490   1.759 -0.3900 -0.1967  0.7422
 1843SOL    HW214578   1.193   6.464   1.612 -1.8986  0.6472 -0.1008
 1845SOL     OW14579   1.355   3.879   0.072 -0.1256 -0.1932  0.1575
 1845SOL    HW114580   1.327   3.888  -0.023 -1.3449  1.1765  0.6295
 1845SOL    HW214581   1.308   3.801   0.114 -0.8932  0.2395  0.1049
 1846SOL     OW14582   1.611   1.780   2.274 -0.3138 -0.0858 -0.2699
 1846SOL    HW114583   1.701   1.824   2.277 -0.2991 -0.2087  1.4877
 1846SOL    HW214584   1.618   1.686   2.308 -1.1096 -0.0699 -0.0421
 1850SOL     OW14585   9.250   3.390   0.546  0.1450  0.0942 -0.1917
 1850SOL    HW114586   9.259   3.370   0.644  0.4072  0.7888 -0.0695
 1850SOL    HW214587   9.163   3.436   0.529 -0.9504 -2.0607 -0.6299
 1851SOL     OW14588   9.118   0.440   0.745  0.7061 -0.3417 -0.5974
 1851SOL    HW114589   9.027   0.415   0.711  0.2362  1.0462 -0.3962
 1851SOL    HW214590   9.126   0.539   0.750  1.8258 -0.4672  0.5157
 1853SOL     OW14591   2.045   0.554   0.502  0.1729  0.2269  0.3247
 1853SOL    HW114592   2.078   0.649   0.503 -0.1026  0.3273 -0.0249
 1853SOL    HW214593   2.058   0.514   0.593  1.3711  0.2214  0.1589
 1854SOL     OW14594   0.528   5.343   1.649 -0.6048  0.1693 -0.3863
 1854SOL    HW114595   0.554   5.247   1.661 -0.6965  0.1200 -0.5766
 1854SOL    HW214596   0.577   5.381   1.570  0.2749  0.5908  0.3618
 1855SOL     OW14597   4.661   9.874   1.492 -0.9011 -0.3599  0.0459
 1855SOL    HW114598   4.753   9.844   1.516 -0.9591 -0.5205  0.0698
 1855SOL    HW214599   4.666   9.953   1.431 -0.7348 -1.2513 -1.1044
 1856SOL     OW14600   3.559   9.750   0.008  0.0422 -0.0329  0.1007
 1856SOL    HW114601   3.554   9.742  -0.092  0.4627 -3.2172  0.2737
 1856SOL    HW214602   3.477   9.795   0.042 -0.7909 -0.2183 -1.5836
 1857SOL     OW14603   1.678   5.290   0.455  0.4312  0.0385 -0.5054
 1857SOL    HW114604   1.705   5.359   0.521 -0.2310  1.8239 -2.0610
 1857SOL    HW214605   1.580   5.273   0.461 -0.5158  3.5696 -4.0180
 1858SOL     OW14606   2.944   7.606   1.909  0.3566  0.3872  0.5215
 1858SOL    HW114607   2.891   7.690   1.915  0.4968  0.4343  1.1809
 1858SOL    HW214608   3.027   7.615   1.964  0.8145  0.1423 -0.1288
 1861SOL     OW14609   0.980   6.538   0.490 -0.4077  0.3110 -0.5556
 1861SOL    HW114610   0.997   6.453   0.440 -0.9081  0.5760 -1.1995
 1861SOL    HW214611   1.064   6.591   0.496 -0.4665  0.5555 -1.6748
 1862SOL     OW14612   9.425   5.424   0.140 -0.0446 -0.0377 -0.2174
 1862SOL    HW114613   9.407   5.363   0.217  1.6065  1.0993  1.1048
 1862SOL    HW214614   9.372   5.508   0.151  1.9331  1.0941  0.9159
 1863SOL     OW14615   7.923   8.841   1.418  0.0910 -0.6533  0.1125
 1863SOL    HW114616   7.897   8.874   1.328 -0.5752  0.4017  0.6760
 1863SOL    HW214617   7.849   8.784   1.455  0.6043 -1.5555 -0.2369
 1864SOL     OW14618   3.588   3.961   1.375  0.3293  0.4982 -0.3425
 1864SOL    HW114619   3.536   3.925   1.298  0.5433  1.3671 -0.9058
 1864SOL    HW214620   3.532   4.026   1.426  0.2909  0.1527  0.0586
 1865SOL     OW14621   2.643   7.001   0.558 -0.1381  0.0451 -0.2379
 1865SOL    HW114622   2.646   7.075   0.492 -2.1954  0.0537 -0.3449
 1865SOL    HW214623   2.614   6.917   0.513 -0.6896 -0.1508  0.4733
 1866SOL     OW14624   1.216   2.498   1.707 -0.0637 -0.8142 -0.2297
 1866SOL    HW114625   1.155   2.554   1.763  1.1185 -2.0919  2.4064
 1866SOL    HW214626   1.310   2.527   1.722  0.1850 -0.3875 -2.5074
 1867SOL     OW14627   2.228   0.205   1.503  0.0775  0.1324 -0.3950
 1867SOL    HW114628   2.157   0.273   1.522 -0.7726 -0.5855 -0.9409
 1867SOL    HW214629   2.234   0.189   1.405 -0.8322 -1.7105 -0.1793
 1868SOL     OW14630   2.681   8.672   0.232  0.2363  0.4423  0.1845
 1868SOL    HW114631   2.711   8.750   0.177  0.9430  0.0953  0.0614
 1868SOL    HW214632   2.612   8.620   0.182  0.2398  0.6210 -0.0055
 1869SOL     OW14633   1.658   6.500   0.018  0.6083  0.0061 -0.0892
 1869SOL    HW114634   1.580   6.511  -0.044  1.2977 -0.5458 -1.0601
 1869SOL    HW214635   1.721   6.577   0.005  0.5971  0.0550  0.1494
 1870SOL     OW14636   1.213   6.660   0.544 -0.0456 -0.8994  0.3163
 1870SOL    HW114637   1.179   6.682   0.635  0.7212  0.0983  0.3736
 1870SOL    HW214638   1.251   6.743   0.501  0.0706 -1.4640 -0.6983
 1871SOL     OW14639   9.993   1.250   2.086  0.0006  0.4066 -0.3070
 1871SOL    HW114640   9.931   1.173   2.100 -0.3583  0.3602 -2.0984
 1871SOL    HW214641   9.966   1.326   2.145 -0.5775 -0.2877  0.3261
 1872SOL     OW14642   8.401   3.579   0.030  0.1087 -0.0891  0.4946
 1872SOL    HW114643   8.395   3.490   0.073  4.5933 -1.0312 -0.6114
 1872SOL    HW214644   8.441   3.645   0.094 -2.8322  1.1045  1.1792
 1874SOL     OW14645   1.364   7.890   1.156  0.5592  1.0371  0.9380
 1874SOL    HW114646   1.436   7.945   1.113  0.7599 -0.4764 -0.7623
 1874SOL    HW214647   1.402   7.801   1.181  0.1468  1.5008  3.3077
 1875SOL     OW14648   9.826   1.753   1.104 -0.1788  0.0347  0.0113
 1875SOL    HW114649   9.734   1.792   1.116  0.2200  2.6880 -4.3994
 1875SOL    HW214650   9.890   1.801   1.164 -1.1749  0.2971  0.8764
 1876SOL     OW14651   9.649   2.204   2.160 -0.7400 -0.4437  0.0406
 1876SOL    HW114652   9.638   2.105   2.165 -0.1669 -0.4916  0.3632
 1876SOL    HW214653   9.562   2.248   2.185 -0.6715 -0.8468  1.0166
 1877SOL     OW14654   1.345   8.488   2.254  0.3885  0.2728 -0.1919
 1877SOL    HW114655   1.379   8.489   2.348  2.0521 -0.4004 -0.7695
 1877SOL    HW214656   1.320   8.580   2.227  1.1904  0.6900  0.4600
 1878SOL     OW14657   3.598   8.435   0.864  0.0191 -0.5392 -0.2829
 1878SOL    HW114658   3.562   8.449   0.956  0.7497 -1.1592  0.1010
 1878SOL    HW214659   3.541   8.484   0.798 -0.3923  0.0665  0.5170
 1882SOL     OW14660   8.726   1.355   1.522  0.2546 -0.3262 -0.3489
 1882SOL    HW114661   8.691   1.289   1.588 -0.0017  0.6334  0.4758
 1882SOL    HW214662   8.654   1.421   1.500  1.4815  1.5315  1.1889
 1883SOL     OW14663   2.427   4.605   1.111  0.5349  0.1056 -0.1955
 1883SOL    HW114664   2.516   4.590   1.153  0.0315  0.1169  0.8761
 1883SOL    HW214665   2.362   4.536   1.144 -1.0696  2.8532  2.6087
 1884SOL     OW14666   9.779   9.174   0.863  0.4008  0.1351  0.9640
 1884SOL    HW114667   9.738   9.240   0.926 -0.0796  1.0598 -0.2935
 1884SOL    HW214668   9.710   9.108   0.834 -0.2173  1.6238 -1.0648
 1886SOL     OW14669   0.592   4.390   1.325  0.1198  0.2059 -0.3772
 1886SOL    HW114670   0.565   4.452   1.251  0.3942 -1.0626 -1.5549
 1886SOL    HW214671   0.584   4.296   1.294  1.4795 -0.3102  0.7938
 1887SOL     OW14672   1.473   7.981   1.724 -0.5486 -0.7252  0.3193
 1887SOL    HW114673   1.466   8.007   1.628  3.0640 -0.2621  0.1085
 1887SOL    HW214674   1.453   8.060   1.782  0.5294 -0.1284 -0.1195
 1889SOL     OW14675   7.949   9.387   1.460 -0.2373 -0.0206 -0.0940
 1889SOL    HW114676   7.868   9.330   1.471 -2.2388  3.0827  2.3108
 1889SOL    HW214677   7.931   9.478   1.497  3.1161  1.9574 -2.9921
 1890SOL     OW14678   9.419   8.148   0.204 -0.3619 -0.1942 -0.0725
 1890SOL    HW114679   9.465   8.168   0.118 -0.5715 -0.1251 -0.1684
 1890SOL    HW214680   9.342   8.211   0.217  0.6754  0.8971  0.9686
 1891SOL     OW14681   0.065   8.660   1.254  0.2719  0.6880 -0.3124
 1891SOL    HW114682   0.092   8.755   1.268  0.5071  0.6042 -0.2059
 1891SOL    HW214683   0.069   8.611   1.341  1.3410  0.2751 -0.5878
 1892SOL     OW14684   2.248   5.031   0.890  0.4390  0.2202  0.1499
 1892SOL    HW114685   2.251   4.934   0.914  0.0845  0.4391  1.0656
 1892SOL    HW214686   2.154   5.064   0.895  0.7316  0.9256  1.0907
 1893SOL     OW14687   5.517   3.070   0.568 -0.3855 -0.1994 -0.1841
 1893SOL    HW114688   5.524   3.135   0.492  1.2870  0.4976  0.5249
 1893SOL    HW214689   5.594   3.005   0.564 -0.2587 -0.1374  0.9067
 1895SOL     OW14690   1.384   8.368   1.391  0.0179 -0.1924  0.4239
 1895SOL    HW114691   1.404   8.463   1.411  0.4986 -0.0794 -0.5776
 1895SOL    HW214692   1.415   8.345   1.299 -3.2450 -0.3600 -0.7164
 1896SOL     OW14693   0.439   8.284   1.953 -0.0154  0.0474  0.2463
 1896SOL    HW114694   0.468   8.304   2.047 -0.4848 -0.0340  0.4079
 1896SOL    HW214695   0.520   8.274   1.895  0.2619  1.1599  0.4183
 1897SOL     OW14696   2.474   6.547   0.089 -0.0369  0.3526 -0.3917
 1897SOL    HW114697   2.560   6.502   0.066 -0.2038 -1.8561  2.8758
 1897SOL    HW214698   2.492   6.636   0.131  0.9217 -1.2684  2.8627
 1898SOL     OW14699   1.197   1.155   1.122  0.3046  0.4026 -0.1271
 1898SOL    HW114700   1.103   1.125   1.102  0.4095 -0.4971  0.7014
 1898SOL    HW214701   1.198   1.254   1.137 -0.5956  0.3421  0.3499
 1899SOL     OW14702   8.702   4.090   1.437 -0.5894 -0.2897 -0.2521
 1899SOL    HW114703   8.749   4.114   1.522 -0.1021  0.0954 -0.6354
 1899SOL    HW214704   8.695   3.990   1.431  0.6524 -0.3713 -0.4581
 1901SOL     OW14705   4.768   9.963   2.256 -0.1501  0.2086  0.3442
 1901SOL    HW114706   4.719   9.880   2.228  0.9701 -0.9321  1.6710
 1901SOL    HW214707   4.818  10.000   2.178 -2.2120  0.7815 -0.7530
 1904SOL     OW14708   8.816   8.324   0.786  0.1342  0.1389  0.7507
 1904SOL    HW114709   8.782   8.237   0.750  0.8906  0.1117  0.0682
 1904SOL    HW214710   8.903   8.346   0.741  0.0666  1.1281  1.1008
 1905SOL     OW14711   1.692   2.483   1.842 -0.3745  0.1499  0.3964
 1905SOL    HW114712   1.700   2.583   1.846  0.0273  0.1666 -0.8680
 1905SOL    HW214713   1.751   2.442   1.912 -1.0838  0.8110  1.4045
 1906SOL     OW14714   3.334   6.304   0.619 -0.6448 -0.2185  0.4274
 1906SOL    HW114715   3.328   6.376   0.689 -3.7467 -0.1072  0.1234
 1906SOL    HW214716   3.306   6.341   0.531  1.0901 -0.9385 -0.4318
 1907SOL     OW14717   9.400   7.277   1.578  1.0897  0.8308  0.0768
 1907SOL    HW114718   9.378   7.287   1.481 -1.6125 -4.5815 -0.0337
 1907SOL    HW214719   9.323   7.309   1.633  1.3228  0.9156  0.3571
 1908SOL     OW14720   1.467   4.967   1.381  0.5347  0.1127 -0.0959
 1908SOL    HW114721   1.452   5.063   1.356  0.0775  0.0501 -0.0607
 1908SOL    HW214722   1.527   4.925   1.313 -0.7945 -0.0856 -1.1695
 1909SOL     OW14723   0.563   2.832   1.950 -0.1817  0.2723  0.1708
 1909SOL    HW114724   0.616   2.755   1.913  0.8920  1.4910 -0.8786
 1909SOL    HW214725   0.606   2.918   1.922 -2.4237  1.2726 -0.2317
 1910SOL     OW14726   9.330   6.091   0.038  0.0828 -0.8606 -0.2584
 1910SOL    HW114727   9.305   6.019  -0.026 -0.4837 -0.4535 -0.5018
 1910SOL    HW214728   9.406   6.060   0.096 -0.8776 -2.0589  0.3859
 1911SOL     OW14729   9.417   7.988   1.285 -0.1556  0.4558 -0.0661
 1911SOL    HW114730   9.388   8.067   1.339 -1.2077 -0.6932  1.0802
 1911SOL    HW214731   9.338   7.949   1.239  0.2759 -0.2614 -0.2002
 1912SOL     OW14732   8.463   9.474   0.886 -0.0717  0.4818  0.0255
 1912SOL    HW114733   8.441   9.563   0.848  2.0872  1.2279  0.4120
 1912SOL    HW214734   8.561   9.470   0.905 -0.2966 -1.6474  0.8710
 1913SOL     OW14735   0.598   4.618   1.551  0.3246  0.2156 -0.4315
 1913SOL    HW114736   0.622   4.527   1.587 -1.8016  0.2009  1.0335
 1913SOL    HW214737   0.582   4.680   1.627  0.4486  1.4779 -1.4300
 1915SOL     OW14738   2.016   2.222   1.423 -0.1648 -0.0954  0.2529
 1915SOL    HW114739   1.976   2.185   1.339 -0.8320  0.1736  0.4480
 1915SOL    HW214740   2.095   2.279   1.401 -0.8968  0.7273 -0.2686
 1916SOL     OW14741   3.327   9.483   2.057  0.1521  0.0505  0.7206
 1916SOL    HW114742   3.350   9.581   2.053 -1.5440  0.4883  1.3530
 1916SOL    HW214743   3.264   9.467   2.133 -0.3290 -1.3874  0.0319
 1917SOL     OW14744   3.353   5.902   1.896 -0.4270 -0.5418  0.3629
 1917SOL    HW114745   3.408   5.983   1.878 -2.4465  1.1477  1.5776
 1917SOL    HW214746   3.257   5.923   1.882 -0.8485 -3.2711 -1.1275
 1918SOL     OW14747   1.588   3.234   0.505  0.6222 -0.1537  0.0157
 1918SOL    HW114748   1.512   3.169   0.498  2.1529 -2.0005 -0.1156
 1918SOL    HW214749   1.558   3.325   0.476 -1.6916 -0.7064  0.6102
 1919SOL     OW14750   8.922   1.428   1.180  0.0553  0.0628 -0.2846
 1919SOL    HW114751   8.922   1.437   1.080  3.1518  0.5600 -0.2773
 1919SOL    HW214752   8.926   1.331   1.204  1.3262  0.0077 -0.6791
 1922SOL     OW14753   0.352   6.041   2.266  0.1599  0.5578 -0.4628
 1922SOL    HW114754   0.445   6.017   2.296  0.0264  0.0274 -0.4706
 1922SOL    HW214755   0.294   5.960   2.271 -0.0097  0.6076 -1.5947
 1923SOL     OW14756   2.126   1.092   1.790  0.0416 -0.1715  0.1498
 1923SOL    HW114757   2.148   1.079   1.887  1.6476  0.6854 -0.0814
 1923SOL    HW214758   2.051   1.158   1.782 -0.0490 -0.1884  0.8184
 1925SOL     OW14759   0.418   5.645   0.593  0.0285  0.2482  0.0496
 1925SOL    HW114760   0.395   5.714   0.525  3.2811  0.2632 -1.1594
 1925SOL    HW214761   0.437   5.688   0.681 -0.0357  0.6577 -0.1397
 1926SOL     OW14762   0.788   9.783   0.085  0.0271 -0.1938 -0.3015
 1926SOL    HW114763   0.730   9.842   0.142 -1.0830 -0.4639 -1.1321
 1926SOL    HW214764   0.807   9.830  -0.002  3.5061  1.1363  1.1179
 1927SOL     OW14765   8.512   0.734   0.991  0.0063  0.2962  0.4675
 1927SOL    HW114766   8.496   0.651   0.938 -0.4277  0.7711 -0.1470
 1927SOL    HW214767   8.459   0.809   0.953 -0.1304  0.6991  1.4322
 1928SOL     OW14768   8.029   0.304   1.800  0.2590  0.2676 -0.4065
 1928SOL    HW114769   7.995   0.363   1.726 -1.9880  0.1431  0.5208
 1928SOL    HW214770   7.953   0.259   1.845  1.4332  1.5951  3.0736
 1929SOL     OW14771   9.726   6.823   1.803 -0.0127  0.0628  0.2140
 1929SOL    HW114772   9.796   6.894   1.815  1.2158 -0.3235 -3.7229
 1929SOL    HW214773   9.768   6.733   1.816 -0.1354 -0.1062 -0.5141
 1930SOL     OW14774   2.695   5.654   0.228  0.2161 -0.1998  0.2031
 1930SOL    HW114775   2.633   5.589   0.272 -1.1735  0.7978 -0.2150
 1930SOL    HW214776   2.708   5.628   0.133  0.1314 -0.1937  0.1898
 1931SOL     OW14777   9.349   1.324   1.749 -0.1389  0.3391 -0.7466
 1931SOL    HW114778   9.261   1.370   1.755  0.0302  0.3936  1.9382
 1931SOL    HW214779   9.419   1.380   1.795  1.1844  0.0221 -2.3309
 1933SOL     OW14780   9.178   8.774   1.635  0.2446 -0.0560  0.1907
 1933SOL    HW114781   9.149   8.864   1.668  2.0328  0.8627 -0.7121
 1933SOL    HW214782   9.186   8.775   1.536  1.4536 -0.8632  0.2725
 1934SOL     OW14783   4.948   2.936   0.661 -0.2172 -0.1611  0.0682
 1934SOL    HW114784   4.905   2.931   0.571 -1.3449 -0.7008  0.6268
 1934SOL    HW214785   4.944   2.846   0.705  0.7188 -0.0079  0.4813
 1935SOL     OW14786   2.084   5.146   1.968 -0.0697  0.8192 -0.1368
 1935SOL    HW114787   2.074   5.233   1.919  1.5312  0.1310 -1.7267
 1935SOL    HW214788   2.147   5.158   2.045  1.5423  0.6695 -1.4104
 1936SOL     OW14789   9.554   5.646   2.175 -0.0939 -0.2222 -0.2682
 1936SOL    HW114790   9.601   5.734   2.181 -0.3054 -0.0189 -1.4638
 1936SOL    HW214791   9.547   5.618   2.080 -1.4806 -0.7487 -0.0291
 1937SOL     OW14792   2.260   6.124   1.537 -0.1904  0.3344  0.3441
 1937SOL    HW114793   2.303   6.210   1.509 -1.4333  0.2877 -1.8248
 1937SOL    HW214794   2.205   6.138   1.619  0.1453  1.4587  0.3801
 1938SOL     OW14795   8.694   1.828   0.617 -0.3084 -0.1913 -0.3174
 1938SOL    HW114796   8.604   1.799   0.650 -0.7322  0.4260 -0.9173
 1938SOL    HW214797   8.683   1.906   0.556  0.6911  0.2673  0.0853
 1939SOL     OW14798   3.701   3.741   0.261 -0.2608  0.3054 -0.0533
 1939SOL    HW114799   3.713   3.749   0.162 -1.1383 -0.8084 -0.2491
 1939SOL    HW214800   3.629   3.675   0.282  0.9921 -0.6455  1.3781
 1940SOL     OW14801   0.751   3.251   0.422 -0.4025 -0.1843  0.1566
 1940SOL    HW114802   0.773   3.247   0.519 -1.9094 -1.0182  0.4770
 1940SOL    HW214803   0.829   3.288   0.372  0.5931 -0.2709  1.6079
 1941SOL     OW14804   3.702   4.183   0.110 -0.4012  1.0139 -0.3535
 1941SOL    HW114805   3.672   4.128   0.032 -1.9240  0.0544  0.8854
 1941SOL    HW214806   3.704   4.126   0.192  0.3536  2.2268  0.4893
 1942SOL     OW14807   9.850   1.171   1.374 -0.3680  0.1208  0.1208
 1942SOL    HW114808   9.871   1.257   1.327 -0.0903 -0.0811 -0.1235
 1942SOL    HW214809   9.863   1.183   1.472  0.3484  0.1559  0.0213
 1944SOL     OW14810   7.914   0.461   1.562  0.2325  0.5863 -0.3901
 1944SOL    HW114811   8.001   0.489   1.521 -0.1558  1.4628 -0.6374
 1944SOL    HW214812   7.840   0.517   1.524 -0.3443  0.3217  0.3335
 1945SOL     OW14813   9.813   1.587   1.493 -0.5610 -0.0105  0.8199
 1945SOL    HW114814   9.744   1.537   1.441 -0.6133 -0.1491  1.0258
 1945SOL    HW214815   9.821   1.548   1.585  0.3762 -0.5152  0.5280
 1946SOL     OW14816   1.095   3.898   1.098 -0.8719  0.2054  0.0884
 1946SOL    HW114817   1.171   3.962   1.081  0.6898 -1.3244  1.1668
 1946SOL    HW214818   1.043   3.886   1.013 -1.1287  2.7828 -0.1808
 1947SOL     OW14819   3.082   5.241   1.107 -0.7106  0.4439  0.2075
 1947SOL    HW114820   2.990   5.251   1.145 -0.6577  0.0538  0.4395
 1947SOL    HW214821   3.090   5.151   1.064 -1.7897  2.0090 -3.4716
 1948SOL     OW14822   0.391   0.495   1.684  0.2516 -0.0735  0.2964
 1948SOL    HW114823   0.310   0.465   1.635  0.4992  0.6869 -0.6082
 1948SOL    HW214824   0.370   0.578   1.736  0.5131  0.2929 -0.1732
 1949SOL     OW14825   2.195   1.733   1.109  0.2526  0.2263  0.0392
 1949SOL    HW114826   2.259   1.708   1.181 -0.6238 -0.4087  0.6139
 1949SOL    HW214827   2.186   1.832   1.105  0.1271  0.2611  0.9778
 1950SOL     OW14828   1.831   3.532   0.183 -0.1345  0.5904  0.7256
 1950SOL    HW114829   1.797   3.454   0.235  1.2649 -0.6157 -0.1127
 1950SOL    HW214830   1.921   3.509   0.145 -0.6606  1.8229 -1.3129
 1951SOL     OW14831   9.823   0.350   1.299  0.5041  0.0460  0.5615
 1951SOL    HW114832   9.916   0.328   1.273  0.7441  0.0240  1.4045
 1951SOL    HW214833   9.817   0.448   1.321  0.1312  0.2223 -0.3146
 1952SOL     OW14834   1.049   9.705   0.198  0.2736  0.0090  0.0335
 1952SOL    HW114835   1.117   9.705   0.125 -0.1988 -1.2121 -0.4296
 1952SOL    HW214836   0.957   9.706   0.157  0.0095  0.2665  0.6256
 1953SOL     OW14837   1.230   0.390   1.791 -0.2927 -0.1560  0.4062
 1953SOL    HW114838   1.185   0.316   1.841 -1.4943  0.1840 -0.1708
 1953SOL    HW214839   1.248   0.465   1.854  0.2720 -0.6369  0.8304
 1954SOL     OW14840   1.975   7.631   1.323 -0.4164 -0.2835 -0.2577
 1954SOL    HW114841   2.058   7.605   1.372 -0.1091  0.7819 -0.1969
 1954SOL    HW214842   1.947   7.557   1.262  0.6009 -0.6267 -0.3091
 1955SOL     OW14843   0.036   6.493   0.979  0.0586  0.4611  0.4520
 1955SOL    HW114844  -0.035   6.554   1.014 -0.4280  0.5912 -0.7443
 1955SOL    HW214845   0.053   6.420   1.045 -0.2195  1.2022  1.3481
 1958SOL     OW14846   1.786   2.484   1.317  0.2589  0.4382  0.0459
 1958SOL    HW114847   1.804   2.539   1.236  0.9562 -0.1476 -0.1966
 1958SOL    HW214848   1.861   2.493   1.382  1.9341 -2.6917 -1.3448
 1959SOL     OW14849   1.878   6.040   0.035  0.5737 -0.1729 -0.1710
 1959SOL    HW114850   1.925   6.072  -0.048  1.3648 -4.2873 -1.4264
 1959SOL    HW214851   1.779   6.046   0.022  0.6988 -0.3993 -1.2369
 1960SOL     OW14852   9.479   8.831   2.134  0.5239  0.0755 -0.0842
 1960SOL    HW114853   9.471   8.739   2.094  2.0419  0.1847 -0.6682
 1960SOL    HW214854   9.478   8.898   2.060  1.6319  0.3866  0.1813
 1961SOL     OW14855   0.254   8.472   1.973 -0.1969 -0.4105 -0.4294
 1961SOL    HW114856   0.268   8.552   1.914 -1.8397 -0.3879 -0.8219
 1961SOL    HW214857   0.324   8.403   1.953  1.1780  0.8901 -0.1393
 1962SOL     OW14858   1.475   4.866   2.015  0.6822 -0.8054 -0.4989
 1962SOL    HW114859   1.553   4.812   2.046  0.2546 -0.7360  0.7450
 1962SOL    HW214860   1.390   4.818   2.036  0.2818  0.4666  0.9317
 1963SOL     OW14861   0.429   1.804   1.834 -0.4694  0.1729 -0.3989
 1963SOL    HW114862   0.502   1.745   1.870 -0.4690  1.1368  1.2143
 1963SOL    HW214863   0.380   1.846   1.910 -1.5216  0.9876 -1.5195
 1966SOL     OW14864   9.040   6.353   0.998 -0.9716 -0.1360 -0.1628
 1966SOL    HW114865   9.086   6.288   0.937 -2.4781 -1.7263  0.3503
 1966SOL    HW214866   8.949   6.373   0.962 -0.9471  0.8169  0.2929
 1967SOL     OW14867   2.014   5.151   0.978 -0.0834 -0.1779  0.3248
 1967SOL    HW114868   2.001   5.090   1.056  1.2844  1.2211  1.6877
 1967SOL    HW214869   1.934   5.147   0.919 -1.9367  0.0652  2.7328
 1969SOL     OW14870   9.336   4.780   0.966 -0.5203  0.4527 -0.6999
 1969SOL    HW114871   9.276   4.709   1.004 -1.2040  3.1954  3.7892
 1969SOL    HW214872   9.431   4.757   0.986 -0.7997  1.1882  1.6679
 1971SOL     OW14873   2.618   5.307   0.761  0.1676  0.8824 -0.2712
 1971SOL    HW114874   2.669   5.319   0.676  1.3820  0.5456  0.4044
 1971SOL    HW214875   2.564   5.223   0.755 -1.1509  1.7885 -1.3983
 1972SOL     OW14876   2.159   4.162   2.073 -0.0885  0.1028 -0.0196
 1972SOL    HW114877   2.256   4.186   2.068  0.0460 -0.2718  0.7325
 1972SOL    HW214878   2.142   4.082   2.015 -0.2639  1.1041 -1.3940
 1974SOL     OW14879   3.079   4.252   0.279  0.1651  0.1059  0.1856
 1974SOL    HW114880   2.982   4.233   0.297  0.5031 -0.9393  0.9364
 1974SOL    HW214881   3.086   4.330   0.217 -1.1975 -0.5467 -0.8258
 1975SOL     OW14882   0.168   7.773   0.215  0.5470 -0.2395  0.3234
 1975SOL    HW114883   0.128   7.861   0.240  0.1602 -0.3708  0.1902
 1975SOL    HW214884   0.267   7.779   0.215  0.5163  0.9013 -2.1064
 1976SOL     OW14885   1.382   9.883   0.990  0.2153 -0.2413 -0.3386
 1976SOL    HW114886   1.287   9.884   1.020  0.7245  0.3851  1.2944
 1976SOL    HW214887   1.390   9.927   0.900 -0.8946  0.5110 -0.0685
 1977SOL     OW14888   0.597   1.247   2.043 -0.2760  0.0597  0.5760
 1977SOL    HW114889   0.535   1.221   2.117 -1.1315  1.5615  0.3973
 1977SOL    HW214890   0.580   1.189   1.963 -0.1835 -0.7496  1.1354
 1978SOL     OW14891   4.305   4.908   1.312 -0.3488  0.0332  0.6007
 1978SOL    HW114892   4.289   4.947   1.402  1.3945  1.0915  0.4679
 1978SOL    HW214893   4.295   4.980   1.243 -0.8778 -0.5939  0.0139
 1979SOL     OW14894   1.320   5.486   1.286  0.4839  0.4160  0.6145
 1979SOL    HW114895   1.280   5.472   1.195  0.0298 -3.2503  1.3171
 1979SOL    HW214896   1.295   5.577   1.319  1.3609  2.1919 -3.2398
 1980SOL     OW14897   8.121   3.046   0.383  0.0098 -0.1066 -0.4301
 1980SOL    HW114898   8.119   2.958   0.430 -0.4652  0.1731  0.0755
 1980SOL    HW214899   8.047   3.050   0.316  1.0717 -0.7506 -1.6597
 1981SOL     OW14900   9.307   6.345   0.161  0.4557 -0.0388  0.9476
 1981SOL    HW114901   9.318   6.257   0.114 -1.0464 -0.3007  1.0685
 1981SOL    HW214902   9.213   6.354   0.194  0.3791  1.9624  0.2494
 1982SOL     OW14903   0.079   1.824   1.226  0.2369 -0.5104 -0.2426
 1982SOL    HW114904   0.089   1.899   1.292  1.8193  0.6968 -1.7909
 1982SOL    HW214905   0.095   1.737   1.272  0.6262  0.2535  1.1145
 1984SOL     OW14906   2.824   1.245   2.103 -0.2075 -0.3213  0.4302
 1984SOL    HW114907   2.724   1.246   2.094 -0.1134 -0.4727 -0.7792
 1984SOL    HW214908   2.852   1.159   2.145 -0.7372  0.7327  3.0317
 1985SOL     OW14909   2.931   7.131   0.194 -0.0627  0.0004  0.0000
 1985SOL    HW114910   2.974   7.221   0.190  0.4086 -0.2832 -1.5344
 1985SOL    HW214911   2.831   7.143   0.197 -0.0747  0.5450 -2.0464
 1987SOL     OW14912   2.722   8.643   0.500  0.2169 -0.0554 -0.0284
 1987SOL    HW114913   2.816   8.608   0.503 -0.0463 -0.8491 -0.8215
 1987SOL    HW214914   2.696   8.659   0.405 -0.8381 -0.9175  0.1052
 1988SOL     OW14915   1.665   2.357   1.610 -0.0268  0.0762 -0.0893
 1988SOL    HW114916   1.566   2.359   1.597 -0.0877 -2.4547 -0.2122
 1988SOL    HW214917   1.689   2.412   1.691 -1.6663 -0.4653  0.7804
 1991SOL     OW14918   9.899   5.153   2.018 -0.1634  0.0406 -0.1599
 1991SOL    HW114919   9.925   5.244   2.048 -0.3078  0.5249 -1.4505
 1991SOL    HW214920   9.977   5.091   2.027  0.4017  0.6571 -0.7234
 1992SOL     OW14921   1.168   5.627   0.885 -0.3954 -0.0956  0.0807
 1992SOL    HW114922   1.185   5.720   0.919  0.2151  0.0059 -0.4908
 1992SOL    HW214923   1.102   5.631   0.810  1.0340  0.0851 -1.1788
 1994SOL     OW14924   2.862   3.988   0.100  0.7139  0.2948  0.3893
 1994SOL    HW114925   2.885   4.006   0.195 -0.4742  0.6783  0.6202
 1994SOL    HW214926   2.784   4.045   0.074  1.1503  0.3224 -0.8682
 1995SOL     OW14927   1.503   5.135   0.937  0.0812 -0.3606  0.4711
 1995SOL    HW114928   1.494   5.048   0.890 -2.6647 -0.2260  0.6902
 1995SOL    HW214929   1.436   5.141   1.011 -0.0779  2.1029  0.1861
 1996SOL     OW14930   0.074   1.575   1.395  0.2751 -0.1224 -0.2059
 1996SOL    HW114931   0.138   1.533   1.459  0.0961  0.2905  0.2524
 1996SOL    HW214932  -0.009   1.602   1.444 -0.2685 -0.6908 -0.8043
 1997SOL     OW14933   0.917   8.118   1.263 -0.1541  0.2282 -0.2632
 1997SOL    HW114934   0.832   8.093   1.217 -0.7363  0.3085  0.7460
 1997SOL    HW214935   0.994   8.079   1.213 -0.7661  0.2719 -1.2688
 1998SOL     OW14936   8.038   0.261   0.594 -0.2937  0.0326 -0.0554
 1998SOL    HW114937   7.994   0.214   0.518 -0.0154 -0.5021  0.1055
 1998SOL    HW214938   8.052   0.196   0.669  1.0984  0.1088 -0.2471
 1999SOL     OW14939   2.457   0.758   1.756  0.2073 -0.5527  0.4696
 1999SOL    HW114940   2.459   0.800   1.846  0.6933  1.4629 -0.4562
 1999SOL    HW214941   2.540   0.704   1.741  0.5129 -0.1953  0.8976
 2000SOL     OW14942   3.209   8.512   1.692 -0.0081  0.0969  0.2832
 2000SOL    HW114943   3.208   8.449   1.615 -1.8333  0.5599 -0.0935
 2000SOL    HW214944   3.244   8.465   1.773 -1.2140 -1.3701 -0.0313
 2001SOL     OW14945   3.182   3.807   1.681 -0.2998  0.2617  0.6168
 2001SOL    HW114946   3.195   3.804   1.780  1.1675 -2.2510  0.3766
 2001SOL    HW214947   3.089   3.775   1.659 -0.9173  1.6027  1.2018
 2004SOL     OW14948   8.961   8.781   0.558 -0.2349 -0.2002 -0.0123
 2004SOL    HW114949   8.952   8.704   0.494  1.3059  0.7802 -1.4429
 2004SOL    HW214950   9.051   8.823   0.547 -2.7664  4.9624 -2.8996
 2005SOL     OW14951   4.114   3.400   1.499 -0.2892  0.2294 -0.3958
 2005SOL    HW114952   4.201   3.449   1.504  0.4581 -1.1783  0.7328
 2005SOL    HW214953   4.100   3.364   1.407  0.1430  0.7713 -0.6724
 2006SOL     OW14954   9.956   6.972   1.047 -0.3474  0.2812  0.0959
 2006SOL    HW114955  10.035   6.997   0.990 -0.7265  3.1709  0.7480
 2006SOL    HW214956   9.872   6.981   0.994 -0.3925 -1.0663 -0.0769
 2007SOL     OW14957   2.516   6.304   0.631  0.3569  0.5106 -0.5707
 2007SOL    HW114958   2.427   6.346   0.647 -0.9510 -3.0870  2.4290
 2007SOL    HW214959   2.574   6.317   0.712  0.0423 -2.9267  0.2964
 2009SOL     OW14960   8.656   6.032   1.560 -0.2184 -0.4626 -0.3487
 2009SOL    HW114961   8.724   5.978   1.609  0.4058  0.2891 -0.3681
 2009SOL    HW214962   8.566   6.015   1.599  0.0464 -1.1044 -0.0080
 2010SOL     OW14963   2.149   3.360   0.508  0.1100 -0.1932 -0.6744
 2010SOL    HW114964   2.112   3.284   0.456 -1.9378 -0.4104  1.0400
 2010SOL    HW214965   2.076   3.406   0.558  1.5057  2.1215 -0.6781
 2011SOL     OW14966   0.308   7.158   1.747  1.1007 -0.1674 -0.4664
 2011SOL    HW114967   0.242   7.204   1.687  0.5724  0.2999  0.4552
 2011SOL    HW214968   0.260   7.121   1.826  1.6819 -1.4537 -0.7127
 2012SOL     OW14969   8.405   7.043   0.449  0.3579 -0.0101  0.6726
 2012SOL    HW114970   8.327   7.105   0.441  1.1690  1.1507  1.5276
 2012SOL    HW214971   8.446   7.028   0.359  0.0031  0.4935  0.4275
 2013SOL     OW14972   9.021   8.925   1.178 -0.1963  0.2665  0.2537
 2013SOL    HW114973   8.964   8.981   1.118 -2.1613 -1.3340  0.5659
 2013SOL    HW214974   9.088   8.875   1.123 -1.0743 -0.1440 -0.4482
 2014SOL     OW14975   2.128   0.627   0.997  0.7648  0.0297 -0.2471
 2014SOL    HW114976   2.096   0.721   0.985 -2.1294 -0.6806  1.2875
 2014SOL    HW214977   2.183   0.621   1.081  0.1672  0.2092  0.1665
 2015SOL     OW14978   2.744   2.092   2.078  0.0197  0.4307  0.0214
 2015SOL    HW114979   2.739   2.182   2.123 -0.9047 -0.1901  1.2058
 2015SOL    HW214980   2.729   2.021   2.147  0.6854 -0.6332 -0.9266
 2016SOL     OW14981   4.337   8.841   1.683  0.0247 -0.6306 -0.8761
 2016SOL    HW114982   4.364   8.746   1.699  2.1808  0.2395  1.0061
 2016SOL    HW214983   4.412   8.890   1.639 -1.4388 -0.0086 -2.7392
 2017SOL     OW14984   3.783   1.917   2.170  0.0722 -0.3464  0.1636
 2017SOL    HW114985   3.743   1.949   2.084  0.7076  0.2510  0.0802
 2017SOL    HW214986   3.823   1.827   2.157 -2.0437 -1.3584  0.4854
 2018SOL     OW14987   9.151   4.359   0.096  0.2766 -0.0178  0.0052
 2018SOL    HW114988   9.131   4.441   0.043 -1.1127 -0.2535  0.1396
 2018SOL    HW214989   9.151   4.279   0.036  0.7301 -0.0270  0.0193
 2019SOL     OW14990   3.493   8.834   2.246 -0.3996 -0.0174 -0.3480
 2019SOL    HW114991   3.488   8.783   2.160 -0.7874  1.5312 -1.2851
 2019SOL    HW214992   3.587   8.867   2.259 -0.6396  0.9538 -0.9415
 2020SOL     OW14993   3.030   0.634   1.580 -0.1125 -0.4877 -0.6686
 2020SOL    HW114994   3.075   0.562   1.527 -0.1078 -1.2112  0.3162
 2020SOL    HW214995   3.098   0.703   1.606  0.6225 -1.9863  1.5055
 2022SOL     OW14996   9.345   7.623   0.235 -0.1509 -0.4866 -0.2183
 2022SOL    HW114997   9.338   7.719   0.211 -0.7870 -0.9836 -2.1486
 2022SOL    HW214998   9.259   7.577   0.211  1.0335 -2.0034 -1.6705
 2024SOL     OW14999   0.552   5.838   1.457 -0.3627 -0.0135  0.3091
 2024SOL    HW115000   0.504   5.840   1.369 -1.4345  0.7893  0.9035
 2024SOL    HW215001   0.634   5.897   1.452 -1.0229  0.9047  0.1849
 2025SOL     OW15002   1.621   8.876   1.243 -0.0349 -0.0136 -0.6449
 2025SOL    HW115003   1.561   8.850   1.167 -0.0117  0.0254 -0.6763
 2025SOL    HW215004   1.716   8.858   1.218 -0.0035  0.2990 -0.7472
 2027SOL     OW15005   1.362   5.466   0.009 -0.0726 -0.2034  0.1063
 2027SOL    HW115006   1.434   5.479  -0.060 -2.2618 -0.1831 -2.2737
 2027SOL    HW215007   1.389   5.510   0.094  1.9401  1.3988 -1.2961
 2028SOL     OW15008   9.418   1.237   0.187  0.1567 -1.2600  0.1897
 2028SOL    HW115009   9.327   1.233   0.230  0.4972  0.2611  1.1111
 2028SOL    HW215010   9.447   1.145   0.162 -2.0685 -1.6860 -1.0354
 2029SOL     OW15011   9.088   9.557   1.487  0.0170 -0.3124 -0.3100
 2029SOL    HW115012   9.129   9.615   1.558  0.7454 -0.6780 -0.4234
 2029SOL    HW215013   9.138   9.470   1.483 -0.2755 -0.4488 -0.9969
 2030SOL     OW15014   4.689   3.749   1.929 -0.1684 -0.3325 -0.0575
 2030SOL    HW115015   4.756   3.790   1.867  0.0554  2.0357  1.6332
 2030SOL    HW215016   4.737   3.704   2.005 -0.4650 -0.6816 -0.0778
 2031SOL     OW15017   2.726   6.468   2.072  0.4268 -0.0204 -0.1094
 2031SOL    HW115018   2.747   6.372   2.057  0.4644 -0.1273  0.6275
 2031SOL    HW215019   2.777   6.502   2.150 -1.0725  0.0730  0.8497
 2032SOL     OW15020   1.083   1.344   1.987 -0.4568  0.1706  0.1581
 2032SOL    HW115021   1.117   1.363   1.895  1.0517 -0.7803  0.5084
 2032SOL    HW215022   0.996   1.295   1.980  0.1602 -0.8193 -0.7697
 2034SOL     OW15023   1.482   3.842   0.836  0.1747 -0.6707 -0.4371
 2034SOL    HW115024   1.398   3.790   0.817  0.0661  0.0981 -2.2008
 2034SOL    HW215025   1.561   3.782   0.823 -0.0668 -1.2999  0.8753
 2035SOL     OW15026   1.485   9.200   0.500 -0.2107  0.8721 -0.2190
 2035SOL    HW115027   1.478   9.293   0.535 -1.0677  0.4955  0.6386
 2035SOL    HW215028   1.523   9.140   0.571  1.6431  0.8172 -1.2247
 2036SOL     OW15029   1.398   4.627   1.018 -0.3432  0.2123  0.1255
 2036SOL    HW115030   1.425   4.531   1.010  0.1405  0.3320  0.3149
 2036SOL    HW215031   1.389   4.651   1.115 -2.7201 -0.2687  0.0588
 2037SOL     OW15032   1.727   6.799   0.318  0.1195 -0.4081  0.1583
 2037SOL    HW115033   1.634   6.782   0.288  0.4604 -2.0816  0.0104
 2037SOL    HW215034   1.776   6.712   0.328  1.6753  0.4405  0.1798
 2040SOL     OW15035   8.453   9.236   0.264  0.0113 -0.3247 -0.3044
 2040SOL    HW115036   8.398   9.158   0.234  0.4100 -0.7885  0.1723
 2040SOL    HW215037   8.423   9.318   0.215 -1.9545 -0.3091  0.8578
 2041SOL     OW15038   1.286   6.153   1.276 -0.3647 -0.1582 -0.2972
 2041SOL    HW115039   1.329   6.093   1.344 -1.8841 -2.3092 -1.1739
 2041SOL    HW215040   1.294   6.248   1.305  1.5812 -0.8312  1.4306
 2042SOL     OW15041   8.895   1.878   1.138  0.4544 -0.7144 -0.1284
 2042SOL    HW115042   8.964   1.908   1.072  0.3582  2.4722  1.1351
 2042SOL    HW215043   8.815   1.842   1.089  0.9340  0.3397 -1.7260
 2043SOL     OW15044   2.623   4.994   1.997  0.3283  0.8423 -0.1383
 2043SOL    HW115045   2.707   4.953   1.960  0.5745 -1.6409  2.9705
 2043SOL    HW215046   2.647   5.076   2.051  0.8559 -0.1467  1.1598
 2045SOL     OW15047   2.453   5.241   2.097 -0.0415 -0.1039 -0.3689
 2045SOL    HW115048   2.361   5.245   2.137  0.4042  1.1930  0.5582
 2045SOL    HW215049   2.446   5.236   1.997 -1.1326 -1.2430 -0.2442
 2046SOL     OW15050   2.715   6.242   1.745 -0.2231 -0.0602 -0.2899
 2046SOL    HW115051   2.811   6.249   1.774 -0.5225  0.3394  0.6273
 2046SOL    HW215052   2.681   6.149   1.762 -0.1406 -0.0722 -0.1957
 2047SOL     OW15053   8.690   6.077   0.125 -0.1313  0.6185 -0.0926
 2047SOL    HW115054   8.719   6.163   0.166 -0.9692  0.6282  0.4860
 2047SOL    HW215055   8.658   6.015   0.197 -0.5340  0.2161 -0.6138
 2049SOL     OW15056   0.386   1.342   1.847 -0.2883  0.0247  0.1391
 2049SOL    HW115057   0.474   1.354   1.800 -0.0938 -1.3101  0.1482
 2049SOL    HW215058   0.376   1.413   1.916  0.5339  0.5217 -0.2390
 2050SOL     OW15059   9.583   4.256   0.208 -0.4972  0.1662 -0.1500
 2050SOL    HW115060   9.674   4.216   0.200 -0.5725  0.1537 -0.9507
 2050SOL    HW215061   9.536   4.216   0.287 -0.1237 -0.4485 -0.2347
 2051SOL     OW15062   7.685   1.134   1.334  0.3293 -0.2865  0.0035
 2051SOL    HW115063   7.730   1.206   1.387 -1.0208  2.2131 -2.1561
 2051SOL    HW215064   7.751   1.092   1.272  0.7919  0.0534  0.2618
 2052SOL     OW15065   3.894   1.277   1.838  0.0566  0.1019 -0.2020
 2052SOL    HW115066   3.963   1.349   1.827  1.3918 -0.9945  0.8929
 2052SOL    HW215067   3.824   1.309   1.903  1.7427 -0.3434  1.8912
 2053SOL     OW15068   2.637   5.990   0.347  0.4782 -0.1282 -0.3865
 2053SOL    HW115069   2.602   6.041   0.269  0.6676 -0.9594 -1.0185
 2053SOL    HW215070   2.719   5.939   0.320  0.9482  0.1308  0.5318
 2054SOL     OW15071   8.918   6.245   1.847  0.8656 -0.3860  0.0268
 2054SOL    HW115072   8.962   6.181   1.785  2.4327  0.7938 -0.1100
 2054SOL    HW215073   8.988   6.297   1.896 -0.3721  0.3404  1.0326
 2055SOL     OW15074   8.091   9.591   0.638  0.1506 -0.0577 -0.0160
 2055SOL    HW115075   7.992   9.582   0.633 -0.0783  2.5804 -1.2535
 2055SOL    HW215076   8.134   9.531   0.571 -0.7307  0.3530 -0.9636
 2056SOL     OW15077   2.654   8.893   1.167 -0.6078  0.3779  0.2367
 2056SOL    HW115078   2.668   8.936   1.256 -0.2517  0.0750  0.3270
 2056SOL    HW215079   2.611   8.804   1.179  0.2245 -0.0331  0.1618
 2057SOL     OW15080   9.138   4.300   1.572 -0.5024  0.2308 -0.2621
 2057SOL    HW115081   9.202   4.223   1.571  0.1099  0.7046  1.1177
 2057SOL    HW215082   9.186   4.383   1.544 -0.3288  0.7164  1.4651
 2061SOL     OW15083   9.682   0.965   1.812  0.0498  0.1037  0.6798
 2061SOL    HW115084   9.596   0.929   1.850 -0.4466  0.3007 -0.2607
 2061SOL    HW215085   9.680   0.960   1.713  1.0470  0.3169  0.6392
 2062SOL     OW15086   1.899   6.463   0.741 -0.2734 -0.2007 -0.1025
 2062SOL    HW115087   1.926   6.367   0.738  1.6059  0.2950  0.2145
 2062SOL    HW215088   1.802   6.471   0.720 -0.7721 -2.2970  1.3061
 2064SOL     OW15089   1.022   8.627   0.064  0.1562  0.1467 -0.3427
 2064SOL    HW115090   1.101   8.569   0.084 -0.0620 -0.1175 -0.2407
 2064SOL    HW215091   0.959   8.627   0.142 -0.0831  0.1287 -0.5329
 2065SOL     OW15092   9.988   0.180   0.922  0.3934 -0.5399 -0.0479
 2065SOL    HW115093   9.985   0.247   0.996 -1.1059 -0.2422 -0.3605
 2065SOL    HW215094  10.077   0.183   0.877  0.8247  0.2374  0.8590
 2066SOL     OW15095   3.641   2.859   0.131  0.7178  0.0305  1.0559
 2066SOL    HW115096   3.718   2.828   0.075  1.1319 -2.3596  2.8507
 2066SOL    HW215097   3.558   2.812   0.102  0.3186  1.1244  0.4176
 2067SOL     OW15098   4.247   2.989   1.028 -0.1895  0.2386 -0.5342
 2067SOL    HW115099   4.269   2.976   0.931 -0.7132  0.4065 -0.6776
 2067SOL    HW215100   4.226   2.901   1.070  3.5900 -0.3470  0.3226
 2068SOL     OW15101   0.106   0.235   0.556  0.3243 -0.3735 -0.2101
 2068SOL    HW115102   0.155   0.312   0.595  1.6669 -1.5078  0.4040
 2068SOL    HW215103   0.099   0.247   0.457 -1.0715  1.3938  0.0826
 2069SOL     OW15104   0.954   7.888   0.342 -0.3762 -0.3522  0.5419
 2069SOL    HW115105   0.999   7.889   0.253 -0.0103 -3.2591  0.6543
 2069SOL    HW215106   0.888   7.963   0.347  0.7765  0.8446 -1.5215
 2070SOL     OW15107   9.600   4.569   0.564  0.9123 -0.0735  0.4132
 2070SOL    HW115108   9.509   4.529   0.572  0.6263  0.0660 -1.7089
 2070SOL    HW215109   9.668   4.495   0.556  0.4158 -0.2620 -3.1824
 2071SOL     OW15110   1.924   5.033   1.247  0.1968  0.4492 -0.4377
 2071SOL    HW115111   1.937   4.934   1.236  1.3798  0.5374  0.0026
 2071SOL    HW215112   1.906   5.054   1.343  0.6706  0.7206 -0.4027
 2072SOL     OW15113   8.895   0.575   2.258 -0.6853  0.1692  0.1467
 2072SOL    HW115114   8.833   0.653   2.245 -0.9525 -0.1587 -0.5691
 2072SOL    HW215115   8.972   0.604   2.315 -0.3922  1.1777 -0.7308
 2075SOL     OW15116   2.094   3.957   1.924 -0.7932  0.0026 -0.3990
 2075SOL    HW115117   2.050   3.989   1.840  2.3642 -1.0568 -2.5986
 2075SOL    HW215118   2.086   3.857   1.929  1.9413 -0.3119 -1.3118
 2077SOL     OW15119   0.477   0.352   1.924 -0.0579  0.7038 -0.0210
 2077SOL    HW115120   0.439   0.393   1.841 -0.1183  0.2192 -0.2342
 2077SOL    HW215121   0.403   0.332   1.988  0.0179  1.3375  0.2667
 2078SOL     OW15122   8.776   2.970   0.974 -0.4152  0.4095 -0.4625
 2078SOL    HW115123   8.837   2.902   1.014  0.4624  1.4329 -0.0351
 2078SOL    HW215124   8.777   2.961   0.875 -0.4667 -0.3391 -0.3962
 2079SOL     OW15125   9.770   9.645   1.761  0.0660 -0.3153 -1.0415
 2079SOL    HW115126   9.744   9.548   1.764  1.0352 -0.5427  0.4682
 2079SOL    HW215127   9.700   9.696   1.712  0.0149 -1.9204 -2.7172
 2080SOL     OW15128   4.114   0.979   0.195  0.0239  0.8129 -0.1203
 2080SOL    HW115129   4.063   1.005   0.114  1.5212 -0.8854 -1.6456
 2080SOL    HW215130   4.166   1.058   0.228 -1.8614  1.9595  0.1971
 2082SOL     OW15131   9.639   6.569   1.116 -0.3262 -0.2602 -0.0569
 2082SOL    HW115132   9.728   6.613   1.107 -1.2023  1.4797 -0.3435
 2082SOL    HW215133   9.626   6.505   1.039  1.0265 -1.2027  0.4767
 2084SOL     OW15134   0.806   9.626   0.460 -0.2016  0.1245  0.1231
 2084SOL    HW115135   0.788   9.568   0.381  0.1555  1.6390 -1.1010
 2084SOL    HW215136   0.721   9.668   0.491 -0.0735  0.9762 -0.6375
 2085SOL     OW15137   0.847   7.140   1.640 -0.0777 -0.7448 -0.1957
 2085SOL    HW115138   0.916   7.206   1.612 -0.8042 -1.2585 -3.3568
 2085SOL    HW215139   0.798   7.175   1.720  1.8124  0.9573  0.2677
 2086SOL     OW15140   1.850   3.736   1.997  0.1601  0.3037 -0.2033
 2086SOL    HW115141   1.938   3.691   1.982 -0.2531 -0.0111 -1.7535
 2086SOL    HW215142   1.809   3.701   2.082  2.8059  2.5385  2.1062
 2087SOL     OW15143   0.987   0.937   1.861  0.0168 -0.3898 -0.1641
 2087SOL    HW115144   1.075   0.903   1.830  0.4719  2.0372 -1.6487
 2087SOL    HW215145   0.926   0.950   1.783 -0.5420  1.0098  0.4729
 2088SOL     OW15146   0.009   6.729   0.484  0.3499 -0.2884 -0.5612
 2088SOL    HW115147   0.003   6.631   0.465  0.5642 -0.0623 -1.8061
 2088SOL    HW215148  -0.029   6.747   0.575 -2.5380 -1.1182 -1.5311
 2090SOL     OW15149   2.988   2.833   1.687 -0.4634 -0.3321  0.3666
 2090SOL    HW115150   2.899   2.838   1.732 -1.8554 -2.7694 -1.9093
 2090SOL    HW215151   2.993   2.748   1.634  1.7840  1.5052 -2.5159
 2091SOL     OW15152   4.144   0.101   0.301 -0.4615 -0.6486  0.0392
 2091SOL    HW115153   4.179   0.191   0.275  0.6053 -1.1004 -0.1454
 2091SOL    HW215154   4.100   0.058   0.222 -2.4112  0.3682  0.5605
 2092SOL     OW15155   3.838   5.336   1.052  0.0412  0.2869  0.2597
 2092SOL    HW115156   3.877   5.304   1.139 -1.3609 -4.9701 -0.8997
 2092SOL    HW215157   3.747   5.373   1.068  0.3345  0.6177  1.2149
 2093SOL     OW15158   1.407   9.455   1.440 -0.4325 -0.0358 -0.3873
 2093SOL    HW115159   1.489   9.439   1.496 -0.3785 -0.6658 -0.6509
 2093SOL    HW215160   1.390   9.376   1.381  0.1195  1.0584 -2.0380
 2094SOL     OW15161   4.302   9.621   0.801 -0.1555 -0.5438  0.5250
 2094SOL    HW115162   4.346   9.564   0.732  0.1171 -0.0083  0.2529
 2094SOL    HW215163   4.332   9.592   0.892  0.8214 -0.1348  0.3387
 2096SOL     OW15164   2.400   5.778   1.794  0.7773 -0.2192 -0.2951
 2096SOL    HW115165   2.486   5.727   1.789  1.6914  1.4835 -3.2180
 2096SOL    HW215166   2.331   5.722   1.841  2.4570 -3.0824 -1.0834
 2098SOL     OW15167   2.531   1.052   0.035 -0.5387 -0.2364  0.0689
 2098SOL    HW115168   2.513   1.106  -0.047  0.3825 -1.5262 -1.0163
 2098SOL    HW215169   2.621   1.074   0.071 -0.1135 -1.0872 -0.4398
 2102SOL     OW15170   0.744   2.042   0.289 -0.3488 -0.9245  0.1144
 2102SOL    HW115171   0.759   2.129   0.335 -2.5883 -0.4158 -0.0758
 2102SOL    HW215172   0.761   1.967   0.354  0.5650 -0.3341  0.5691
 2105SOL     OW15173   1.225   5.514   1.942  0.6451 -0.4225  0.3858
 2105SOL    HW115174   1.229   5.567   1.857 -1.3424 -1.9926 -0.7312
 2105SOL    HW215175   1.279   5.431   1.932 -0.2583 -1.0053  0.3865
 2106SOL     OW15176   9.420   7.700   1.362  0.1848 -0.1580  0.2764
 2106SOL    HW115177   9.429   7.789   1.316  1.3450  0.6366  1.9893
 2106SOL    HW215178   9.326   7.690   1.396 -0.5046 -0.4726 -1.6299
 2107SOL     OW15179   0.354   9.208   0.558 -0.1265  0.1557 -0.5523
 2107SOL    HW115180   0.317   9.252   0.476 -0.6579 -0.1045 -0.4577
 2107SOL    HW215181   0.287   9.142   0.593 -1.1967  2.4265  1.8335
 2108SOL     OW15182   3.478   9.162   0.427  0.3305  0.0641 -0.1609
 2108SOL    HW115183   3.420   9.154   0.508  1.1841  0.0452  0.4611
 2108SOL    HW215184   3.421   9.167   0.345 -0.5187 -1.0264  0.3527
 2109SOL     OW15185   0.439   4.707   1.322 -0.1857 -0.1093 -0.3763
 2109SOL    HW115186   0.486   4.795   1.334 -1.1131  0.3095  0.1698
 2109SOL    HW215187   0.464   4.645   1.396  0.7724 -0.4423 -0.9730
 2110SOL     OW15188   2.237   8.077   1.676  0.1184 -0.2203  0.3414
 2110SOL    HW115189   2.247   8.134   1.594 -1.3537  1.3496  1.1955
 2110SOL    HW215190   2.296   7.997   1.669  0.7227  0.3754 -1.8213
 2111SOL     OW15191   9.294   9.190   0.997 -0.6354 -0.5710  0.3146
 2111SOL    HW115192   9.270   9.267   1.057  0.5009 -0.8337  1.1220
 2111SOL    HW215193   9.234   9.191   0.917 -0.8126  1.0017  0.4394
 2113SOL     OW15194   4.235   1.875   0.434  0.3200  0.0761 -0.4605
 2113SOL    HW115195   4.229   1.934   0.354 -1.0871 -0.3356 -0.6814
 2113SOL    HW215196   4.146   1.832   0.449  0.8025 -0.4640  0.8516
 2114SOL     OW15197   1.600   4.153   0.127 -0.0203 -0.0441 -0.3356
 2114SOL    HW115198   1.500   4.149   0.131  0.0563 -0.9136  1.2865
 2114SOL    HW215199   1.629   4.186   0.037 -1.7911  1.3290 -0.4213
 2115SOL     OW15200   8.792   4.015   1.029 -0.4916 -0.0594  0.4093
 2115SOL    HW115201   8.718   4.081   1.041 -0.6729 -0.1549 -0.1610
 2115SOL    HW215202   8.855   4.047   0.959 -0.3762 -0.3168  0.3946
 2116SOL     OW15203   9.988   7.845   0.884 -0.0880 -0.1476  0.0172
 2116SOL    HW115204   9.928   7.920   0.910 -0.3056 -0.0221 -0.8133
 2116SOL    HW215205  10.062   7.880   0.826  3.3277  0.4515  4.5024
 2117SOL     OW15206   1.026   1.623   2.051 -0.6565 -0.2536  0.3424
 2117SOL    HW115207   1.109   1.660   2.092 -0.1457 -0.4264 -0.5088
 2117SOL    HW215208   1.046   1.532   2.014 -1.5813 -0.8720  1.3372
 2118SOL     OW15209   2.347   8.831   0.402  0.1009  0.2210  0.4703
 2118SOL    HW115210   2.427   8.885   0.377  0.4063 -0.8286 -0.8637
 2118SOL    HW215211   2.282   8.889   0.452  1.2788  1.3113  0.7619
 2119SOL     OW15212   4.431   4.218   1.528 -0.0864  0.7723  0.0799
 2119SOL    HW115213   4.349   4.200   1.583 -0.7643 -1.2777 -1.5315
 2119SOL    HW215214   4.512   4.214   1.586 -0.8829 -0.3314  1.1458
 2120SOL     OW15215   2.473   3.163   2.166 -0.0520 -0.8873 -0.0489
 2120SOL    HW115216   2.445   3.258   2.153  0.4844 -0.5341  1.2466
 2120SOL    HW215217   2.481   3.118   2.077 -2.7119 -0.4354 -0.5565
 2121SOL     OW15218   2.421   5.783   1.218  0.2926  0.4259 -0.3120
 2121SOL    HW115219   2.408   5.882   1.219  0.8829  0.5025 -0.5680
 2121SOL    HW215220   2.398   5.747   1.128 -0.7057  0.2230  0.0136
 2122SOL     OW15221   8.942   6.780   0.571 -0.0940 -0.7468 -0.1754
 2122SOL    HW115222   9.014   6.844   0.598 -0.8889  0.0011  0.1991
 2122SOL    HW215223   8.891   6.818   0.493 -0.6241 -0.8863  0.1018
 2124SOL     OW15224   3.852   8.924   0.631  0.1502 -0.5539  0.4826
 2124SOL    HW115225   3.782   8.912   0.702 -0.6278 -1.5157 -0.4217
 2124SOL    HW215226   3.825   8.998   0.569 -0.4986 -1.4551 -0.3415
 2125SOL     OW15227   0.581   5.484   1.411 -0.3046 -0.1475  0.5670
 2125SOL    HW115228   0.606   5.392   1.381  0.5607 -0.3209  1.7867
 2125SOL    HW215229   0.599   5.549   1.337  2.3470 -0.4965  0.8381
 2126SOL     OW15230   1.124   7.046   0.323 -0.4505 -0.4557 -0.8319
 2126SOL    HW115231   1.135   7.084   0.231  2.0300  0.6926 -0.1178
 2126SOL    HW215232   1.214   7.032   0.364 -1.5207 -0.7798  1.4937
 2127SOL     OW15233   0.874   3.628   1.109  0.1032  0.3856  0.2895
 2127SOL    HW115234   0.812   3.580   1.047 -1.1789  0.5692  1.4089
 2127SOL    HW215235   0.863   3.727   1.098  0.7986  0.4237 -0.0966
 2128SOL     OW15236   3.761   4.904   2.269  0.2016 -0.6596  0.5717
 2128SOL    HW115237   3.768   4.998   2.237  1.2278 -1.1230 -0.5813
 2128SOL    HW215238   3.801   4.897   2.361 -0.7362  0.2029  1.0591
 2130SOL     OW15239   2.871   9.305   1.480 -0.3274  0.8600  0.3270
 2130SOL    HW115240   2.792   9.285   1.421  3.0984 -0.4382 -4.0933
 2130SOL    HW215241   2.889   9.403   1.480 -0.9321  0.9728  0.0192
 2131SOL     OW15242   9.578   4.333   1.692  0.0845 -0.1129 -0.0673
 2131SOL    HW115243   9.539   4.413   1.738  0.1609 -0.3589  0.4251
 2131SOL    HW215244   9.519   4.254   1.708 -0.0651 -0.1270 -0.6748
 2132SOL     OW15245   2.111   3.951   2.286  0.0295 -0.1261 -0.0449
 2132SOL    HW115246   2.028   3.898   2.269 -0.4051  0.9238 -1.2704
 2132SOL    HW215247   2.132   4.006   2.206  1.6985 -0.0823  0.4111
 2133SOL     OW15248   7.999   9.401   1.749 -0.2158  0.4263 -0.2578
 2133SOL    HW115249   7.923   9.382   1.686 -0.9064 -0.6575  0.8695
 2133SOL    HW215250   8.066   9.327   1.742 -1.9029 -1.5130  2.6398
 2134SOL     OW15251   1.727   6.865   1.451 -0.4312  0.1506 -0.6548
 2134SOL    HW115252   1.756   6.913   1.534  0.7423 -0.7745 -0.5041
 2134SOL    HW215253   1.686   6.777   1.477  0.6293 -0.4771 -1.0778
 2135SOL     OW15254   8.260   7.442   2.034  0.1954  0.0247  0.2738
 2135SOL    HW115255   8.216   7.427   1.946  0.4906 -2.7211  0.5473
 2135SOL    HW215256   8.191   7.442   2.106  0.0532  1.3511  0.1427
 2136SOL     OW15257   3.116   6.176   0.737  0.4310 -0.0859  0.1045
 2136SOL    HW115258   3.115   6.260   0.790 -0.5308  0.7587 -1.2318
 2136SOL    HW215259   3.200   6.171   0.683  0.6398 -0.1406  0.4375
 2137SOL     OW15260   3.336   0.499   0.374  0.8580 -0.1090  0.6799
 2137SOL    HW115261   3.430   0.468   0.388  1.6258  1.8267 -0.1377
 2137SOL    HW215262   3.289   0.501   0.462  1.5222 -1.2498  1.0721
 2138SOL     OW15263   4.750   2.708   0.514  0.4916 -0.3234  0.0337
 2138SOL    HW115264   4.664   2.755   0.528  1.2699  0.6329  1.6677
 2138SOL    HW215265   4.774   2.710   0.417 -0.8807  0.1744 -0.2948
 2139SOL     OW15266   0.126   5.067   1.645 -0.7217 -0.1247 -0.3458
 2139SOL    HW115267   0.035   5.106   1.639 -0.1596  1.5161  1.4242
 2139SOL    HW215268   0.195   5.139   1.636  0.3699 -1.0546  0.3295
 2141SOL     OW15269   1.761   9.031   0.547 -0.1051  0.4892 -0.2165
 2141SOL    HW115270   1.689   8.964   0.529  1.5289 -1.1856 -0.6793
 2141SOL    HW215271   1.820   8.999   0.621 -0.8009  2.6260  1.2897
 2142SOL     OW15272   1.402   8.070   1.460  0.2259  0.3001  0.2923
 2142SOL    HW115273   1.480   8.050   1.402  0.7168  0.5754  0.8523
 2142SOL    HW215274   1.370   8.163   1.442  0.8517  0.6563  0.9940
 2143SOL     OW15275   8.439   3.009   0.069  0.1988 -0.1571  0.3722
 2143SOL    HW115276   8.384   3.070   0.012  1.5398  0.8084  0.0843
 2143SOL    HW215277   8.535   3.037   0.065  1.0664 -3.0513 -0.7764
 2145SOL     OW15278   0.948   4.010   0.705  0.0016 -0.5193 -0.7192
 2145SOL    HW115279   1.014   4.071   0.661 -1.0329  0.1820 -1.3201
 2145SOL    HW215280   0.858   4.054   0.707 -0.8085 -2.0913 -1.3615
 2146SOL     OW15281   9.218   1.396   1.205 -0.8859  0.5951 -0.1799
 2146SOL    HW115282   9.126   1.434   1.197 -0.5888  1.6516  1.1625
 2146SOL    HW215283   9.217   1.317   1.266 -0.8200  0.9567  0.2966
 2147SOL     OW15284   3.826   1.865   1.564 -0.3874  0.6037  0.6869
 2147SOL    HW115285   3.789   1.785   1.516  1.6625 -0.8692  1.4879
 2147SOL    HW215286   3.833   1.845   1.662  0.7778  1.5020  0.8000
 2149SOL     OW15287   0.286   9.944   0.739 -0.4065  0.5222 -0.2821
 2149SOL    HW115288   0.258  10.024   0.792 -2.2108 -0.3220  0.0621
 2149SOL    HW215289   0.319   9.873   0.802 -0.4235  0.3651 -0.4497
 2150SOL     OW15290   8.820   2.060   1.336  0.1158 -0.5819 -0.0754
 2150SOL    HW115291   8.814   2.145   1.284 -0.6744 -0.2971  0.4693
 2150SOL    HW215292   8.852   1.986   1.276 -0.5917 -0.2184 -0.9036
 2151SOL     OW15293   1.223   8.939   1.343  0.7334 -0.1636 -0.1863
 2151SOL    HW115294   1.221   8.842   1.319  1.9852 -0.0290 -0.8427
 2151SOL    HW215295   1.234   8.948   1.442 -0.9661 -0.6858  0.0769
 2152SOL     OW15296   9.799   4.157   0.046 -0.0103  1.5057 -0.5055
 2152SOL    HW115297   9.870   4.202   0.099  1.6240 -1.3585 -0.1823
 2152SOL    HW215298   9.796   4.060   0.069 -1.2212  0.7536 -3.5449
 2153SOL     OW15299   0.538   1.650   0.935 -0.3665  0.0966  1.0080
 2153SOL    HW115300   0.449   1.626   0.975 -1.8874 -1.1183 -2.8715
 2153SOL    HW215301   0.593   1.567   0.925 -0.3061  0.2576 -0.0449
 2154SOL     OW15302   8.817   8.729   1.307 -0.5243  0.5052  0.7422
 2154SOL    HW115303   8.878   8.689   1.376  0.4190  0.6664  0.0115
 2154SOL    HW215304   8.856   8.815   1.273  0.0400 -0.5760 -1.4480
 2155SOL     OW15305   2.820   5.311   1.184 -1.0761  0.2596  0.1536
 2155SOL    HW115306   2.761   5.373   1.132 -1.7559 -0.7202 -0.2493
 2155SOL    HW215307   2.850   5.357   1.268  0.2620  1.9409 -1.2225
 2156SOL     OW15308   0.372   4.746   0.234  0.3025  0.2574 -0.1016
 2156SOL    HW115309   0.445   4.734   0.301  0.9479  0.6465 -0.7346
 2156SOL    HW215310   0.408   4.790   0.152 -0.5542  0.0831 -0.5805
 2157SOL     OW15311   7.413   9.507   2.304  0.1016  0.7165 -0.2346
 2157SOL    HW115312   7.512   9.490   2.312 -0.1938 -1.9657 -1.8254
 2157SOL    HW215313   7.369   9.485   2.391  0.8780  2.0626  0.5326
 2158SOL     OW15314   4.616   4.447   2.117 -0.1227  0.0862  0.2065
 2158SOL    HW115315   4.580   4.359   2.087  1.0082 -1.2691  2.6792
 2158SOL    HW215316   4.716   4.442   2.120 -0.0083  1.7474 -0.4925
 2160SOL     OW15317   2.248   9.909   0.605  0.0232  0.3653 -0.0811
 2160SOL    HW115318   2.271   9.949   0.693  1.8438  0.8771 -0.7670
 2160SOL    HW215319   2.196   9.824   0.619 -0.3321  0.8294  1.4515
 2162SOL     OW15320   3.795   9.844   1.188 -0.5978  0.1931 -0.5015
 2162SOL    HW115321   3.795   9.756   1.141 -0.2402  0.5446 -1.1781
 2162SOL    HW215322   3.859   9.841   1.264  0.5788  0.3459 -1.4648
 2163SOL     OW15323   4.200   4.032   0.993  0.3133  0.4787 -0.2285
 2163SOL    HW115324   4.150   3.995   1.071 -1.1662  0.2892 -1.2438
 2163SOL    HW215325   4.246   4.116   1.020 -1.2401  1.1079  0.5424
 2164SOL     OW15326   9.811   7.237   0.727  0.4696 -0.1698  0.1249
 2164SOL    HW115327   9.742   7.227   0.656  0.7030  0.5075 -0.2011
 2164SOL    HW215328   9.796   7.323   0.777  1.1531  0.0426 -0.0342
 2165SOL     OW15329   0.019   2.687   0.435 -0.3087  0.3951 -0.1812
 2165SOL    HW115330   0.025   2.603   0.488 -1.7176 -0.1311 -0.8086
 2165SOL    HW215331   0.052   2.764   0.489  3.1920 -0.8637 -0.4011
 2166SOL     OW15332   9.289   1.245   0.881  0.1445 -0.1344  0.4894
 2166SOL    HW115333   9.326   1.328   0.840  1.2500 -0.4826  0.7681
 2166SOL    HW215334   9.204   1.220   0.835  1.2845 -0.4430 -1.5179
 2167SOL     OW15335   8.420   7.414   2.243  0.2395 -0.0081  0.1207
 2167SOL    HW115336   8.386   7.337   2.297 -0.2416  0.2595  0.2036
 2167SOL    HW215337   8.382   7.410   2.151  0.1632  0.1615  0.1435
 2168SOL     OW15338   2.279   2.767   1.139 -0.5281  0.3206 -0.1586
 2168SOL    HW115339   2.360   2.790   1.193 -0.5346 -3.9274  1.8155
 2168SOL    HW215340   2.197   2.798   1.188 -0.3183  0.9759 -0.2096
 2169SOL     OW15341   2.588   2.433   1.715 -0.2802 -0.2086  0.3472
 2169SOL    HW115342   2.536   2.464   1.795  0.3395  1.2081  0.1971
 2169SOL    HW215343   2.683   2.461   1.724  0.4419 -2.6215  0.5117
 2170SOL     OW15344   4.498   9.485   2.127  0.3885 -0.0351 -0.3737
 2170SOL    HW115345   4.441   9.404   2.140  1.5852 -0.8616 -0.2313
 2170SOL    HW215346   4.507   9.534   2.213  1.8204 -1.2015  0.1644
 2171SOL     OW15347   1.593   5.489   2.044 -0.0653 -0.7525 -0.5731
 2171SOL    HW115348   1.516   5.468   2.104 -0.9877 -0.6420 -1.6987
 2171SOL    HW215349   1.633   5.404   2.008  1.7720 -0.9165  1.7511
 2172SOL     OW15350   0.475   6.486   2.220 -0.3101  0.2066  0.1635
 2172SOL    HW115351   0.410   6.560   2.235 -0.5335 -0.3020  1.8140
 2172SOL    HW215352   0.426   6.401   2.201 -0.1320 -0.1597  1.3282
 2174SOL     OW15353   3.984   2.398   2.236  0.2746  0.2005 -0.5397
 2174SOL    HW115354   3.919   2.336   2.193  0.7430 -1.1904  0.7062
 2174SOL    HW215355   3.955   2.492   2.222 -0.3596 -0.2813 -2.6087
 2175SOL     OW15356   1.841   7.194   1.834  0.1315 -0.1799 -0.0781
 2175SOL    HW115357   1.923   7.213   1.781 -0.4688  1.7614 -0.3330
 2175SOL    HW215358   1.796   7.279   1.859 -3.0273 -1.2384 -1.8205
 2176SOL     OW15359   9.374   7.666   0.534 -0.3963  0.0031  0.1424
 2176SOL    HW115360   9.329   7.753   0.553 -1.2257 -0.7501  1.7997
 2176SOL    HW215361   9.339   7.628   0.449  0.6021  1.6795 -1.0492
 2177SOL     OW15362   8.654   9.491   2.134 -0.5054 -0.1289 -0.3144
 2177SOL    HW115363   8.663   9.542   2.219  1.6174  1.6945 -1.5763
 2177SOL    HW215364   8.636   9.395   2.155 -3.1764  0.8379  2.1129
 2178SOL     OW15365   1.343   2.882   0.227  0.4700 -0.4521 -0.0730
 2178SOL    HW115366   1.266   2.945   0.228 -0.3305 -1.3878 -1.0777
 2178SOL    HW215367   1.425   2.928   0.261 -0.6764  0.3480  1.6439
 2179SOL     OW15368   9.317   4.483   1.462  0.4839 -0.3197  0.3555
 2179SOL    HW115369   9.317   4.439   1.372 -0.7663  0.3507  0.0218
 2179SOL    HW215370   9.411   4.509   1.486  0.8411 -0.5996 -0.7120
 2180SOL     OW15371   9.370   9.687   2.218 -0.2563  0.3878 -0.3950
 2180SOL    HW115372   9.416   9.610   2.173 -0.3131 -0.1090  0.3852
 2180SOL    HW215373   9.428   9.768   2.212 -0.3964  0.4082 -1.6226
 2181SOL     OW15374   0.874   4.348   1.382  0.0400 -0.0674 -0.2608
 2181SOL    HW115375   0.789   4.374   1.338 -1.5646 -1.9481  1.6154
 2181SOL    HW215376   0.917   4.273   1.331 -2.1275 -2.6631  1.5922
 2182SOL     OW15377   8.114   0.030   0.042  0.0411  0.2883  0.2163
 2182SOL    HW115378   8.039  -0.008  -0.011 -1.5930  1.7003  1.4780
 2182SOL    HW215379   8.101   0.129   0.053  1.1920  0.2736  1.9001
 2183SOL     OW15380   1.375   3.064   1.448  0.4264 -0.9601  0.3256
 2183SOL    HW115381   1.315   3.032   1.375  1.8510  0.0942 -1.3376
 2183SOL    HW215382   1.328   3.134   1.501 -0.0681 -0.6379 -0.5348
 2184SOL     OW15383   7.678   0.942   0.691 -0.6018 -0.3023 -0.0832
 2184SOL    HW115384   7.760   0.999   0.688 -1.0485  0.3722  0.4419
 2184SOL    HW215385   7.658   0.908   0.599 -1.3582  1.8641 -0.7381
 2185SOL     OW15386   3.747   2.282   1.407 -0.5453 -0.3149  0.2726
 2185SOL    HW115387   3.828   2.225   1.423 -0.0779  0.4170  0.5562
 2185SOL    HW215388   3.745   2.310   1.311 -0.3149 -0.1045  0.3298
 2187SOL     OW15389   4.051   4.278   1.415 -0.2239  0.3927 -0.4127
 2187SOL    HW115390   4.050   4.230   1.503  1.2093 -0.9357 -1.0969
 2187SOL    HW215391   4.137   4.328   1.405 -0.9531  1.6518 -0.4900
 2190SOL     OW15392   2.511   2.067   0.329 -0.6811  0.2303  0.3166
 2190SOL    HW115393   2.467   2.154   0.307 -1.8407 -0.3912  0.1378
 2190SOL    HW215394   2.543   2.023   0.245  1.7384  1.4266  0.5834
 2191SOL     OW15395   9.678   3.413   1.331 -0.1353  0.1034 -0.2769
 2191SOL    HW115396   9.704   3.507   1.353  3.5666 -0.8753 -0.1377
 2191SOL    HW215397   9.642   3.409   1.238  1.1039  1.4671 -0.8337
 2192SOL     OW15398   1.994   7.927   0.754  0.7485 -0.0916 -0.0621
 2192SOL    HW115399   1.907   7.973   0.735  1.7317  2.2267  0.8189
 2192SOL    HW215400   1.978   7.852   0.818 -0.7186 -0.2296 -0.5657
 2193SOL     OW15401   3.108   9.441   1.645  0.0272  0.6653 -0.0594
 2193SOL    HW115402   3.204   9.427   1.670 -0.0112  3.5220  1.8233
 2193SOL    HW215403   3.050   9.389   1.708  0.2406  1.0327  0.4430
 2194SOL     OW15404   1.729   9.533   0.768  0.1425  0.2032  0.3044
 2194SOL    HW115405   1.809   9.476   0.785 -1.4543 -1.9623  0.7767
 2194SOL    HW215406   1.672   9.490   0.697 -1.3545  0.9428  1.0338
 2195SOL     OW15407   9.214   7.877   0.637 -0.0669  0.0212 -0.3988
 2195SOL    HW115408   9.280   7.878   0.712  0.2277  0.8072 -0.6613
 2195SOL    HW215409   9.121   7.885   0.675  0.0029 -0.8307 -0.0463
 2196SOL     OW15410   4.461   3.645   1.833 -0.2901  0.8684 -0.3196
 2196SOL    HW115411   4.492   3.576   1.767 -0.6805  0.3772  0.0124
 2196SOL    HW215412   4.541   3.696   1.867  0.0331  0.3515 -0.3026
 2197SOL     OW15413   4.653   3.601   1.258 -0.2011 -0.5970  0.4029
 2197SOL    HW115414   4.683   3.529   1.321  0.3156 -0.3547  0.4302
 2197SOL    HW215415   4.632   3.560   1.169  2.2595 -0.4612 -0.2575
 2198SOL     OW15416   9.212   3.777   0.857 -0.2727  0.1569  0.6926
 2198SOL    HW115417   9.294   3.733   0.819 -0.9174 -2.3430  2.0954
 2198SOL    HW215418   9.211   3.766   0.956 -1.8228  1.0458  0.7951
 2200SOL     OW15419   3.930   4.521   1.592  0.2762  0.6189  0.1160
 2200SOL    HW115420   3.948   4.528   1.690  1.9910 -0.3792 -0.0922
 2200SOL    HW215421   3.870   4.442   1.574 -0.7141  1.2976  0.4280
 2201SOL     OW15422   3.492   3.281   0.276 -0.4988 -0.2909  0.0371
 2201SOL    HW115423   3.477   3.331   0.361  0.8322  0.2919 -0.0674
 2201SOL    HW215424   3.558   3.330   0.219 -0.6961 -1.1417 -0.9378
 2202SOL     OW15425   3.466   2.798   2.126  0.1812 -0.0534  0.5370
 2202SOL    HW115426   3.466   2.713   2.178  0.8989 -0.1310  0.4090
 2202SOL    HW215427   3.525   2.865   2.171  0.6258 -0.0474 -0.0534
 2204SOL     OW15428   2.415   3.244   0.588 -0.1817  0.1993 -0.3516
 2204SOL    HW115429   2.349   3.319   0.589 -0.9142 -0.4093 -1.9083
 2204SOL    HW215430   2.384   3.171   0.649 -0.7929  0.0491 -0.8415
 2205SOL     OW15431   1.594   1.712   0.403 -0.3040  0.3957 -0.2035
 2205SOL    HW115432   1.632   1.709   0.495 -0.1519 -0.8823 -0.2985
 2205SOL    HW215433   1.659   1.756   0.341  0.1649  0.0477  0.0360
 2206SOL     OW15434   0.650   6.153   0.129 -0.1754  0.8046 -0.4572
 2206SOL    HW115435   0.604   6.187   0.211  0.3644 -0.4772  0.3877
 2206SOL    HW215436   0.710   6.077   0.153  2.4367  2.4607 -1.5211
 2207SOL     OW15437   7.870   0.517   0.647 -0.2308  0.3834  0.4954
 2207SOL    HW115438   7.882   0.423   0.616 -0.3179  0.2080  0.9799
 2207SOL    HW215439   7.805   0.564   0.587 -1.9664 -0.5538  1.5613
 2208SOL     OW15440   3.486   4.992   2.318 -0.4605  0.3586  0.1967
 2208SOL    HW115441   3.580   4.973   2.288 -0.9005  2.4300 -2.6859
 2208SOL    HW215442   3.425   4.922   2.282 -0.5044  0.9640 -0.9229
 2210SOL     OW15443   8.257   0.150   0.896  0.2571  0.0723  0.4774
 2210SOL    HW115444   8.297   0.206   0.823  0.1979 -0.1150  0.3017
 2210SOL    HW215445   8.161   0.132   0.876  0.4659 -0.6975  0.1739
 2211SOL     OW15446   2.774   6.323   1.051  0.1228  0.6493  0.2182
 2211SOL    HW115447   2.871   6.330   1.076 -0.1984  1.8781  1.1328
 2211SOL    HW215448   2.721   6.393   1.100 -1.3103 -0.3475  0.1251
 2212SOL     OW15449   9.957   4.630   0.355 -0.2646  0.3545  0.0447
 2212SOL    HW115450   9.889   4.564   0.322  1.8552 -1.9985  0.2343
 2212SOL    HW215451   9.937   4.654   0.450 -2.3787  1.8141 -0.7303
 2213SOL     OW15452   7.951   0.702   0.041 -0.4339 -0.0770 -0.1161
 2213SOL    HW115453   8.002   0.619   0.020  0.2416 -0.3284  2.3362
 2213SOL    HW215454   7.949   0.761  -0.040 -0.6462 -2.3134 -1.7711
 2214SOL     OW15455   8.706   7.560   0.174  0.3686 -0.4300  0.2870
 2214SOL    HW115456   8.644   7.509   0.114 -0.1787  1.3607 -0.7014
 2214SOL    HW215457   8.652   7.608   0.244  0.7738 -0.2538  0.4790
 2215SOL     OW15458   2.794   5.745   1.486  0.6057 -0.1065  0.6018
 2215SOL    HW115459   2.695   5.736   1.486  0.5298  0.6915 -0.4103
 2215SOL    HW215460   2.835   5.670   1.434  0.5318 -0.3347  0.8697
 2217SOL     OW15461   4.943   9.983   2.006  0.8581 -0.3488 -0.2685
 2217SOL    HW115462   4.983  10.042   1.937 -0.2147  1.5159  0.6710
 2217SOL    HW215463   4.919   9.895   1.965 -0.2746  0.9198 -2.4066
 2219SOL     OW15464   1.030   4.184   0.143  0.6884 -0.4811  0.3764
 2219SOL    HW115465   0.980   4.126   0.079  2.7548 -1.3610 -0.4748
 2219SOL    HW215466   1.008   4.158   0.237 -2.9627  1.3237  0.1198
 2220SOL     OW15467   9.744   6.352   0.576 -0.6994  0.1410  0.2832
 2220SOL    HW115468   9.690   6.290   0.633  0.6484 -2.6439 -1.4036
 2220SOL    HW215469   9.792   6.300   0.506 -0.4101  3.2489 -1.9065
 2221SOL     OW15470   9.896   8.612   1.042  0.0484  0.5777  0.6486
 2221SOL    HW115471   9.965   8.631   1.111 -1.6038 -0.3047  2.5871
 2221SOL    HW215472   9.864   8.517   1.052 -1.0245  0.7984 -0.5852
 2222SOL     OW15473   1.325   6.566   0.913 -0.0929  0.4234  0.2324
 2222SOL    HW115474   1.350   6.498   0.982  1.1435  1.7723  1.1381
 2222SOL    HW215475   1.240   6.612   0.940 -1.0983 -0.9289 -0.5318
 2223SOL     OW15476   0.416   5.834   0.395  0.1937 -0.4881 -0.1598
 2223SOL    HW115477   0.389   5.867   0.305  0.7808  1.8119  0.4521
 2223SOL    HW215478   0.357   5.875   0.464 -0.0985 -2.0416  0.5117
 2225SOL     OW15479   3.911   2.950   2.150  0.0651 -0.2934 -0.3875
 2225SOL    HW115480   3.961   2.922   2.068  0.5618 -0.8041  0.0840
 2225SOL    HW215481   3.974   2.954   2.227 -0.8765 -2.2797  0.5102
 2227SOL     OW15482   3.573   5.884   0.648  0.0620  0.5827  0.3419
 2227SOL    HW115483   3.587   5.946   0.725 -1.4713  0.3785  0.7988
 2227SOL    HW215484   3.504   5.922   0.587  0.4513  0.2013 -0.3475
 2229SOL     OW15485   9.045   9.066   1.415 -0.4161  0.2313  0.1714
 2229SOL    HW115486   9.025   9.013   1.496  0.5805  0.5370  0.6307
 2229SOL    HW215487   9.039   9.008   1.334 -0.5011 -0.2957  0.5558
 2230SOL     OW15488   8.844   3.184   0.538  0.0217 -0.4129 -0.4084
 2230SOL    HW115489   8.938   3.217   0.541 -0.5562  1.2520  0.0587
 2230SOL    HW215490   8.822   3.154   0.445  1.2669 -1.6160 -0.3194
 2231SOL     OW15491   3.567   9.015   0.020  0.0703  0.4198  0.2466
 2231SOL    HW115492   3.553   8.971   0.109  1.0048 -0.3660  0.0183
 2231SOL    HW215493   3.536   8.953  -0.053  1.0770  0.2850 -0.0658
 2232SOL     OW15494   1.988   9.956   0.313 -0.1181 -0.1349  0.6738
 2232SOL    HW115495   1.930   9.937   0.234  0.4455 -0.9769  0.4538
 2232SOL    HW215496   2.052  10.029   0.291 -1.2732  1.0143  1.0153
 2233SOL     OW15497   2.982   8.369   0.125  0.3275  0.3772 -0.3430
 2233SOL    HW115498   3.041   8.297   0.161 -0.6042 -0.1502  0.1753
 2233SOL    HW215499   3.028   8.457   0.134  1.2543 -0.0883 -0.4625
 2234SOL     OW15500   4.646   0.454   0.260 -0.1492 -0.4384 -0.2243
 2234SOL    HW115501   4.583   0.431   0.335 -1.1141  1.7717 -0.3137
 2234SOL    HW215502   4.594   0.496   0.185  1.7052  3.8352  0.7471
 2235SOL     OW15503   9.877   7.993   2.231 -0.2520 -0.5756 -0.2802
 2235SOL    HW115504   9.843   8.083   2.202  1.7319  0.1273 -0.5485
 2235SOL    HW215505   9.835   7.922   2.175  0.2383  0.4235 -1.9763
 2236SOL     OW15506   3.245   9.116   0.941 -0.4199  0.4585  0.0407
 2236SOL    HW115507   3.248   9.122   0.841  0.4410  1.2076  0.1038
 2236SOL    HW215508   3.333   9.084   0.975 -0.3286  1.3036  0.6198
 2237SOL     OW15509   2.710   3.853   1.496  0.6737  0.1661 -0.3338
 2237SOL    HW115510   2.765   3.936   1.484 -1.3859  1.5703 -0.3732
 2237SOL    HW215511   2.633   3.873   1.557 -1.6740 -0.8433 -2.8450
 2240SOL     OW15512   2.501   1.163   0.398 -0.0411 -0.1857 -0.1148
 2240SOL    HW115513   2.423   1.134   0.454 -1.2977  1.2398 -1.1063
 2240SOL    HW215514   2.532   1.253   0.427  0.9611 -0.5417 -0.0379
 2241SOL     OW15515   2.947   8.558   0.376  0.3325 -0.4371  0.2123
 2241SOL    HW115516   3.006   8.498   0.431  2.4131  0.1123 -1.3434
 2241SOL    HW215517   2.906   8.505   0.302  1.3027 -0.2076 -0.5063
 2242SOL     OW15518   1.646   4.968   1.611  0.7273 -0.4222 -0.1445
 2242SOL    HW115519   1.587   4.948   1.533 -0.5748  1.3718  0.3482
 2242SOL    HW215520   1.591   4.975   1.694  1.6553  0.9712  0.3738
 2244SOL     OW15521   4.809   3.387   1.666 -0.5392  0.3198 -0.7329
 2244SOL    HW115522   4.758   3.419   1.746  0.5966 -2.0816  1.0283
 2244SOL    HW215523   4.903   3.420   1.672  0.5861 -3.0383  0.9961
 2246SOL     OW15524   9.281   0.731   1.401 -0.4234  0.3087 -0.1377
 2246SOL    HW115525   9.233   0.799   1.456 -0.9512  0.1388 -0.3815
 2246SOL    HW215526   9.360   0.773   1.357  0.7584  0.1312  1.7798
 2247SOL     OW15527   1.971   5.957   2.057 -0.5617 -0.1929 -0.4255
 2247SOL    HW115528   1.995   5.895   2.131  0.6900  3.6090  2.5338
 2247SOL    HW215529   2.054   5.992   2.014 -1.1645  0.8159 -0.7986
 2248SOL     OW15530   9.753   9.826   1.073  0.0737  0.3242 -0.0500
 2248SOL    HW115531   9.682   9.756   1.063 -0.3109  0.6193  0.5806
 2248SOL    HW215532   9.788   9.825   1.166 -1.3400  2.2902  0.5314
 2249SOL     OW15533   8.648   0.291   0.572  0.0202 -0.0089 -0.2449
 2249SOL    HW115534   8.610   0.204   0.605  1.4481 -0.3178  0.6309
 2249SOL    HW215535   8.589   0.366   0.601 -0.4551 -0.5703  0.2524
 2250SOL     OW15536   2.953   1.016   2.209 -0.0452  0.7463 -0.2457
 2250SOL    HW115537   3.005   0.981   2.288 -0.6404  0.9019  0.2194
 2250SOL    HW215538   3.016   1.040   2.136  0.5122  0.5282  0.1574
 2252SOL     OW15539   9.850   0.245   1.865 -0.0773  0.3083  0.3589
 2252SOL    HW115540   9.807   0.209   1.782  1.5582  0.4434 -0.5788
 2252SOL    HW215541   9.854   0.345   1.859  2.3115  0.1993 -0.5990
 2253SOL     OW15542   2.587   6.228   0.187 -0.1935 -0.3054  0.7138
 2253SOL    HW115543   2.527   6.246   0.110  1.6222  1.2671 -0.3871
 2253SOL    HW215544   2.563   6.290   0.263 -1.7939 -1.6603  1.3350
 2255SOL     OW15545   0.798   0.896   1.664 -0.1928  0.7252 -0.1216
 2255SOL    HW115546   0.851   0.813   1.645 -1.6940 -0.4646  0.8065
 2255SOL    HW215547   0.834   0.971   1.609  0.2615 -0.8718 -2.0586
 2256SOL     OW15548   2.754   7.179   1.809 -0.4067  0.1803  0.1769
 2256SOL    HW115549   2.752   7.116   1.886 -1.1385  0.8643  0.7245
 2256SOL    HW215550   2.766   7.273   1.843  3.1480  0.1317 -0.7558
 2257SOL     OW15551   3.179   9.657   0.183 -0.1015  0.8050  0.2088
 2257SOL    HW115552   3.223   9.590   0.124 -2.7751  0.8495 -1.9707
 2257SOL    HW215553   3.170   9.621   0.275  0.1139 -1.1263 -0.5184
 2258SOL     OW15554   3.311   4.416   1.539  0.5510 -0.2190  0.3770
 2258SOL    HW115555   3.270   4.507   1.553  1.5581  0.3120 -0.0465
 2258SOL    HW215556   3.261   4.348   1.592 -0.3162  0.5648  0.5714
 2259SOL     OW15557   0.898   8.586   2.001 -0.4691 -0.4975  0.3984
 2259SOL    HW115558   0.817   8.574   1.945  0.2688  0.8115 -0.9676
 2259SOL    HW215559   0.875   8.642   2.081 -1.1913 -1.2002  0.6913
 2260SOL     OW15560   3.488   8.348   0.576  0.5693 -0.2505 -0.6812
 2260SOL    HW115561   3.513   8.319   0.669  1.2142 -0.1901 -0.8321
 2260SOL    HW215562   3.474   8.448   0.576  1.8455 -0.0647 -0.9214
 2261SOL     OW15563   2.066   6.636   1.108  0.0278  0.0250  0.1877
 2261SOL    HW115564   2.155   6.599   1.137  0.8128  1.1413 -0.7602
 2261SOL    HW215565   2.007   6.560   1.079  0.1607 -0.8622  2.1148
 2262SOL     OW15566   8.382   2.515   2.150 -0.0473  0.1880 -0.6884
 2262SOL    HW115567   8.334   2.478   2.230  0.5843  2.1662  0.6565
 2262SOL    HW215568   8.316   2.553   2.086 -0.4493  0.1196 -0.3171
 2263SOL     OW15569   8.391   1.381   0.071 -0.6800 -0.7558 -0.2514
 2263SOL    HW115570   8.477   1.405   0.117  0.0040 -1.4648 -1.1377
 2263SOL    HW215571   8.353   1.463   0.028 -0.6942 -0.3412  0.5483
 2264SOL     OW15572   3.667   3.188   2.036  0.2180 -0.4085 -0.4203
 2264SOL    HW115573   3.760   3.223   2.029  0.2348  0.6195  3.8854
 2264SOL    HW215574   3.659   3.125   2.113 -2.9590  0.7280  0.2917
 2265SOL     OW15575   4.241   9.529   1.789 -0.0740 -0.3534 -0.5066
 2265SOL    HW115576   4.279   9.533   1.881 -2.6540 -2.4468  0.7331
 2265SOL    HW215577   4.162   9.591   1.783 -0.4907 -0.9179 -0.9859
 2266SOL     OW15578   1.748   6.914   0.753 -0.4809  0.3137  0.2293
 2266SOL    HW115579   1.695   6.994   0.780 -0.3105  0.0650  1.3385
 2266SOL    HW215580   1.689   6.833   0.755  0.1704 -0.1368  2.5064
 2267SOL     OW15581   4.768   2.781   0.245 -0.2330 -0.3671  0.3864
 2267SOL    HW115582   4.790   2.759   0.150  0.8855  1.6378  0.1523
 2267SOL    HW215583   4.670   2.801   0.253 -0.1452  0.4242 -0.5339
 2268SOL     OW15584   0.787   5.689   1.596 -0.0146 -0.1803  0.7278
 2268SOL    HW115585   0.775   5.591   1.612  0.0992 -0.5581 -1.3241
 2268SOL    HW215586   0.698   5.735   1.599 -0.2070 -0.5383  0.5472
 2269SOL     OW15587   2.195   4.829   1.371 -0.6633  0.1433  0.2209
 2269SOL    HW115588   2.233   4.916   1.402  0.7003 -0.5670  0.5738
 2269SOL    HW215589   2.249   4.754   1.408 -1.0400 -0.8191 -1.1541
 2270SOL     OW15590   9.660   8.531   0.478 -0.2669 -0.4560  0.3248
 2270SOL    HW115591   9.610   8.498   0.557  1.0541 -2.0576  0.5156
 2270SOL    HW215592   9.608   8.510   0.395 -0.3697 -1.2740  0.5860
 2271SOL     OW15593   0.640   1.229   0.705  0.6580  0.7059 -0.0161
 2271SOL    HW115594   0.579   1.149   0.699 -2.8368  3.2711 -0.4166
 2271SOL    HW215595   0.696   1.235   0.623  0.9481 -1.2962  0.0089
 2272SOL     OW15596   7.626   0.205   0.784 -0.5691 -0.8072  0.6341
 2272SOL    HW115597   7.597   0.132   0.847 -1.6263  0.8875  2.1507
 2272SOL    HW215598   7.656   0.284   0.837 -1.5738  0.6825 -0.9917
 2273SOL     OW15599   2.798   5.395   0.294 -0.3656  0.9240 -0.2707
 2273SOL    HW115600   2.841   5.433   0.212  0.5342 -0.7291 -0.5884
 2273SOL    HW215601   2.720   5.339   0.268 -0.2047  0.5633  0.0163
 2274SOL     OW15602   1.711   8.955   0.145  0.0246  0.1406  0.7443
 2274SOL    HW115603   1.702   8.962   0.046  0.9330  0.9786  0.7175
 2274SOL    HW215604   1.634   8.999   0.190 -0.3600 -0.1971  0.4154
 2275SOL     OW15605   9.017   5.727   1.095 -0.4767 -0.1804  0.5922
 2275SOL    HW115606   9.026   5.824   1.117 -0.2297  0.1057 -0.7566
 2275SOL    HW215607   8.957   5.716   1.016  1.6038 -0.9339 -0.9249
 2277SOL     OW15608   9.893   4.698   1.015  0.3224  0.1537  0.7165
 2277SOL    HW115609   9.929   4.791   1.017 -0.5134  0.5211 -0.2870
 2277SOL    HW215610   9.829   4.689   0.938  0.5238 -1.2955  0.6991
 2278SOL     OW15611   3.265   5.349   0.022 -0.3336  0.0865 -0.7415
 2278SOL    HW115612   3.363   5.366   0.012  0.0381 -1.4109  0.2428
 2278SOL    HW215613   3.247   5.306   0.110 -1.7491 -0.6561 -1.3717
 2279SOL     OW15614   3.497   8.767   1.703  0.1141 -0.2286  0.1603
 2279SOL    HW115615   3.407   8.776   1.660  0.0097 -1.7219  0.0325
 2279SOL    HW215616   3.568   8.770   1.632 -0.0132 -1.9077 -0.0552
 2282SOL     OW15617   0.148   1.668   1.970 -0.1191 -0.1269 -0.4187
 2282SOL    HW115618   0.176   1.745   1.912 -0.1430  0.1027 -0.1251
 2282SOL    HW215619   0.228   1.627   2.012  0.0859 -1.3934 -1.9758
 2283SOL     OW15620   9.795   4.454   1.831 -0.4870  0.0126  0.6838
 2283SOL    HW115621   9.801   4.554   1.828 -0.0901 -0.0351 -1.4834
 2283SOL    HW215622   9.722   4.423   1.769 -0.6281 -1.0359  1.3576
 2284SOL     OW15623   3.797   9.132   0.125 -0.2685 -0.1204 -0.1412
 2284SOL    HW115624   3.710   9.090   0.100 -0.3759  0.8650 -1.5337
 2284SOL    HW215625   3.781   9.225   0.157  0.3879  0.6651 -2.0023
 2285SOL     OW15626   1.088   7.701   1.904  0.0958  0.0640  0.2845
 2285SOL    HW115627   1.018   7.720   1.835 -1.5421 -1.8637  1.3748
 2285SOL    HW215628   1.179   7.711   1.862 -0.8183  1.3474 -1.4740
 2286SOL     OW15629   2.999   3.466   0.504 -0.0168 -0.3168  1.0534
 2286SOL    HW115630   3.098   3.466   0.497  0.0510 -0.4347  1.9013
 2286SOL    HW215631   2.972   3.470   0.601 -0.8338  1.6256  0.7838
 2287SOL     OW15632   7.705   9.950   0.366 -0.0770 -0.1417 -0.4588
 2287SOL    HW115633   7.787  10.004   0.383  0.3055 -0.9661  0.4023
 2287SOL    HW215634   7.656   9.936   0.452 -2.1975  2.0016 -1.2489
 2288SOL     OW15635   3.148   9.932   1.437  0.1711 -0.2343 -0.3603
 2288SOL    HW115636   3.195  10.014   1.470 -0.9885  0.4714 -0.4529
 2288SOL    HW215637   3.125   9.943   1.340 -0.6527 -0.3649 -0.1837
 2289SOL     OW15638   7.698   9.162   1.821 -0.0592  0.0422 -0.4392
 2289SOL    HW115639   7.786   9.129   1.855 -0.7813 -1.3189  0.1560
 2289SOL    HW215640   7.695   9.262   1.827  0.4702 -0.0496  1.9906
 2290SOL     OW15641   9.459   0.976   0.161  0.2744 -0.6471  0.1013
 2290SOL    HW115642   9.370   0.934   0.182 -0.4156  0.4172 -0.6576
 2290SOL    HW215643   9.519   0.966   0.240 -0.5035 -1.4317  0.6065
 2291SOL     OW15644   1.373   4.861   0.899 -0.3199  0.4703 -0.0422
 2291SOL    HW115645   1.318   4.913   0.964  0.1976 -0.2276  0.9692
 2291SOL    HW215646   1.370   4.764   0.922 -0.5856  0.1460 -1.4028
 2292SOL     OW15647   3.039   9.705   1.591 -0.1863 -0.0011 -0.0204
 2292SOL    HW115648   3.085   9.617   1.600 -1.0669 -0.2856  1.9488
 2292SOL    HW215649   3.047   9.755   1.677 -2.7383  0.3331  0.0511
 2293SOL     OW15650   2.392   7.822   1.952 -0.8611 -0.7221  0.5132
 2293SOL    HW115651   2.334   7.868   2.020 -0.6803  0.2051  0.0524
 2293SOL    HW215652   2.466   7.774   1.999 -0.9375 -0.3742  0.9984
 2294SOL     OW15653   3.168   2.877   0.194 -0.5426  0.8474 -0.8195
 2294SOL    HW115654   3.116   2.833   0.266  1.2601 -0.6815 -0.4086
 2294SOL    HW215655   3.112   2.884   0.111 -1.3102 -1.0284 -0.4801
 2295SOL     OW15656   9.691   7.030   1.001  0.1567 -0.4543 -0.2658
 2295SOL    HW115657   9.639   6.968   1.059  2.4370 -1.1697  1.0658
 2295SOL    HW215658   9.688   6.997   0.907 -0.7113 -1.2036  0.0136
 2297SOL     OW15659   4.879   1.494   1.934 -0.3222  0.1015  0.0387
 2297SOL    HW115660   4.810   1.523   1.868  0.1212 -0.0845 -0.5154
 2297SOL    HW215661   4.969   1.494   1.890 -0.0425 -0.1599  0.6048
 2299SOL     OW15662   0.877   2.397   1.862  0.2590  0.5826  0.0833
 2299SOL    HW115663   0.808   2.388   1.790 -0.1185  1.4085  0.3354
 2299SOL    HW215664   0.915   2.490   1.860  0.4455  0.5195  0.7741
 2300SOL     OW15665   4.240   3.672   0.812  0.2165 -0.4162  0.4726
 2300SOL    HW115666   4.330   3.657   0.851  0.2689  1.2044  1.0179
 2300SOL    HW215667   4.239   3.641   0.717  1.2072 -0.8654  0.6030
 2301SOL     OW15668   9.807   6.771   1.456  0.5942  0.2969  0.4338
 2301SOL    HW115669   9.732   6.830   1.425  0.3373  0.2231  0.9066
 2301SOL    HW215670   9.862   6.819   1.523  1.5182  0.6767 -0.5794
 2302SOL     OW15671   2.299   1.088   0.610 -0.5865 -0.0438 -0.1284
 2302SOL    HW115672   2.310   1.119   0.705 -0.2777 -0.0185 -0.1742
 2302SOL    HW215673   2.279   0.990   0.610 -1.6208  0.1613  0.0190
 2303SOL     OW15674   0.427   1.846   0.263 -0.2843 -0.3387 -0.1006
 2303SOL    HW115675   0.460   1.884   0.177 -1.0617  0.1486 -0.1855
 2303SOL    HW215676   0.428   1.746   0.258  1.1967 -0.3364 -0.0879
 2305SOL     OW15677   0.176   7.709   1.360  0.1901 -0.5383  0.2482
 2305SOL    HW115678   0.256   7.649   1.355  0.3054 -0.3554 -0.1744
 2305SOL    HW215679   0.123   7.701   1.276 -0.7429 -1.3466  0.9121
 2306SOL     OW15680   1.703   5.219   1.168 -0.2566  0.0277  0.1141
 2306SOL    HW115681   1.711   5.276   1.087  0.2603  0.9013  0.7636
 2306SOL    HW215682   1.778   5.152   1.170 -0.8977 -0.7062 -0.6801
 2309SOL     OW15683   3.191   1.213   2.131  0.3613  0.0240 -0.2557
 2309SOL    HW115684   3.173   1.264   2.215  0.1303 -2.2381  1.0948
 2309SOL    HW215685   3.289   1.217   2.110  0.5694 -0.2063  0.6526
 2310SOL     OW15686   8.418   1.114   0.041 -0.1992  0.2372  0.4010
 2310SOL    HW115687   8.335   1.057   0.048 -0.7358  0.8926 -0.5948
 2310SOL    HW215688   8.396   1.207   0.068  0.1516  0.4783 -0.1431
 2311SOL     OW15689   2.775   0.332   0.068  0.1921  0.1148  0.2374
 2311SOL    HW115690   2.677   0.352   0.081 -0.2084 -1.0040 -0.9627
 2311SOL    HW215691   2.828   0.416   0.081 -0.7341  0.3616  2.7714
 2312SOL     OW15692   1.094   3.086   0.711  0.0810 -0.0330  0.3607
 2312SOL    HW115693   1.019   3.053   0.654  1.5704  0.8087 -2.1555
 2312SOL    HW215694   1.094   3.036   0.797 -2.5804 -0.9345 -0.1013
 2313SOL     OW15695   8.929   0.786   0.088  0.2311 -0.2740  0.6118
 2313SOL    HW115696   9.009   0.816   0.140  0.1072  0.3101  0.4588
 2313SOL    HW215697   8.926   0.833  -0.000  0.9870 -1.9847 -0.3487
 2314SOL     OW15698   0.240   4.654   1.588  0.4623 -0.3563  0.5430
 2314SOL    HW115699   0.258   4.577   1.527 -0.7340 -0.8776  0.8272
 2314SOL    HW215700   0.141   4.671   1.592  0.8180  2.5011 -1.1097
 2316SOL     OW15701   2.457   1.836   2.105  0.1264 -0.1319  0.2066
 2316SOL    HW115702   2.537   1.785   2.073  1.8719  3.0902 -0.7883
 2316SOL    HW215703   2.477   1.934   2.105 -3.0533  0.6200  2.2121
 2317SOL     OW15704   8.961   8.629   1.510  0.5037  0.1143  0.2941
 2317SOL    HW115705   8.932   8.534   1.502 -0.2024  0.1009  2.5149
 2317SOL    HW215706   9.046   8.635   1.562  0.0338  0.7295  1.0257
 2318SOL     OW15707   0.496   0.157   2.260  0.2596 -0.0535  0.2315
 2318SOL    HW115708   0.580   0.176   2.310 -0.2387 -0.4723  1.2419
 2318SOL    HW215709   0.485   0.058   2.249 -1.0480 -0.1111  1.7939
 2319SOL     OW15710   1.855   8.746   1.604  0.6138  0.5854 -0.7505
 2319SOL    HW115711   1.772   8.698   1.634  0.8247  1.3891  1.1542
 2319SOL    HW215712   1.831   8.838   1.575  1.0505  1.4375  1.4930
 2321SOL     OW15713   1.398   6.688   1.582 -0.2729  0.4194  0.1449
 2321SOL    HW115714   1.392   6.768   1.641 -0.5436  1.2763 -1.0065
 2321SOL    HW215715   1.371   6.714   1.489  4.0876  0.1548 -1.3300
 2322SOL     OW15716   1.033   6.316   2.211  0.7451 -0.0877  0.7779
 2322SOL    HW115717   1.046   6.238   2.149 -0.0386 -0.9879  1.7439
 2322SOL    HW215718   0.980   6.387   2.164 -0.1079 -0.8882  0.5333
 2323SOL     OW15719   9.026   1.522   0.032  0.2804 -0.2033 -0.0219
 2323SOL    HW115720   9.034   1.504  -0.066  2.0682  1.2488 -0.1602
 2323SOL    HW215721   8.950   1.585   0.048 -1.2714 -1.9739 -0.2520
 2324SOL     OW15722   1.129   4.484   0.845  0.1235  0.4910  0.3283
 2324SOL    HW115723   1.102   4.477   0.941 -0.5505  0.1705  0.1164
 2324SOL    HW215724   1.211   4.428   0.830 -0.9269 -1.0512  0.2778
 2326SOL     OW15725   4.146   1.543   0.110  0.3436 -0.4141 -0.6825
 2326SOL    HW115726   4.215   1.614   0.102  0.7961 -0.8494 -0.6988
 2326SOL    HW215727   4.098   1.533   0.023 -0.3901  0.5341 -0.3989
 2327SOL     OW15728   3.045   6.289   1.147 -0.0956 -0.2411  0.3695
 2327SOL    HW115729   3.068   6.258   1.239  1.4242  1.2564  0.5195
 2327SOL    HW215730   3.126   6.330   1.105 -1.1585  0.3706 -1.1052
 2328SOL     OW15731   0.737   8.500   1.359 -0.0244  0.4110 -0.3497
 2328SOL    HW115732   0.646   8.531   1.388 -0.7736 -0.9728 -1.1582
 2328SOL    HW215733   0.746   8.512   1.260  0.2520 -0.4651 -0.4369
 2329SOL     OW15734   3.248   2.438   2.292 -0.1033 -0.2056  0.5623
 2329SOL    HW115735   3.265   2.357   2.236  0.2551  0.9463 -1.0135
 2329SOL    HW215736   3.334   2.489   2.303 -0.4739  0.3323  0.9804
 2331SOL     OW15737   0.386   3.929   2.086  0.1822 -0.2545  0.3033
 2331SOL    HW115738   0.471   3.877   2.080  0.0720 -0.3534 -0.4760
 2331SOL    HW215739   0.320   3.892   2.020 -0.8106 -0.8222  1.6009
 2332SOL     OW15740   2.204   9.643   0.896 -0.0561 -0.4199  0.2005
 2332SOL    HW115741   2.227   9.562   0.949 -1.2703 -0.8608  0.0553
 2332SOL    HW215742   2.182   9.617   0.802 -2.1081 -0.1321  0.5811
 2333SOL     OW15743   2.408   7.009   0.736  0.4108 -0.4104 -0.8816
 2333SOL    HW115744   2.378   6.914   0.736  3.0011 -1.2708  1.1792
 2333SOL    HW215745   2.482   7.020   0.670  0.1432  0.1918 -1.0862
 2334SOL     OW15746   8.927   1.967   0.330  0.1470  0.0577  0.4240
 2334SOL    HW115747   8.998   2.030   0.360  1.1687 -0.2836 -1.2567
 2334SOL    HW215748   8.891   1.996   0.242 -0.4107 -0.8880  0.3357
 2335SOL     OW15749   2.693   7.487   1.031  0.7800  0.5616 -0.0961
 2335SOL    HW115750   2.776   7.502   1.084  0.9120  0.0869 -0.1606
 2335SOL    HW215751   2.644   7.407   1.067 -0.5261  1.8351  1.0035
 2336SOL     OW15752   1.150   9.309   0.537  0.1641 -0.0665 -0.2869
 2336SOL    HW115753   1.213   9.286   0.463 -0.3039  0.5876 -0.8856
 2336SOL    HW215754   1.137   9.408   0.541  0.3180 -0.0780  0.7795
 2338SOL     OW15755   1.360   2.743   1.820  0.4906  0.3496  0.3376
 2338SOL    HW115756   1.274   2.793   1.822 -0.8191 -1.7682 -0.7897
 2338SOL    HW215757   1.426   2.791   1.761 -0.7534  0.7059 -0.7903
 2339SOL     OW15758   3.190   4.226   0.723  0.3170 -0.0506  0.0032
 2339SOL    HW115759   3.155   4.285   0.796  1.5916  1.0573 -0.2666
 2339SOL    HW215760   3.188   4.277   0.636  1.8956 -0.2346 -0.1463
 2340SOL     OW15761   1.357   6.850   0.406  0.2525 -0.0445 -0.3139
 2340SOL    HW115762   1.386   6.943   0.386 -0.7428  0.1129 -1.0648
 2340SOL    HW215763   1.405   6.786   0.345  0.0649  0.0902 -0.6073
 2341SOL     OW15764   4.194   3.056   0.363  0.1500 -0.0483  0.0616
 2341SOL    HW115765   4.202   3.003   0.279 -0.4566  0.6779 -0.4594
 2341SOL    HW215766   4.119   3.018   0.419  0.0703 -0.0708 -0.0609
 2343SOL     OW15767   3.972   9.370   0.966 -0.1136  0.1521 -0.4584
 2343SOL    HW115768   3.998   9.354   1.061 -1.0727  0.5332 -0.1213
 2343SOL    HW215769   4.027   9.445   0.929 -0.5951  0.8437  0.1976
 2344SOL     OW15770   3.320   1.076   1.555  0.5332 -0.2390  0.1948
 2344SOL    HW115771   3.289   1.114   1.468 -1.6619  1.2485  1.5836
 2344SOL    HW215772   3.336   1.150   1.620 -2.4450 -1.5244  2.4971
 2345SOL     OW15773   9.276   2.272   0.553 -0.0142  0.3362 -0.2550
 2345SOL    HW115774   9.239   2.360   0.583  1.7668  0.8929  0.3777
 2345SOL    HW215775   9.358   2.251   0.606  1.0969 -0.4221 -2.2314
 2346SOL     OW15776   2.118   4.822   0.577  0.0216  0.1247 -0.4144
 2346SOL    HW115777   2.095   4.840   0.672  1.0617  1.4503 -0.3947
 2346SOL    HW215778   2.177   4.741   0.572 -2.0673 -1.4481 -0.1920
 2347SOL     OW15779   2.521   3.515   1.213  0.0594 -0.4450 -0.6014
 2347SOL    HW115780   2.582   3.594   1.206  0.4247 -0.8001 -1.4767
 2347SOL    HW215781   2.428   3.543   1.188  0.4479 -0.5948 -2.2909
 2348SOL     OW15782   0.468   4.233   1.668  0.1926 -0.6888  0.4254
 2348SOL    HW115783   0.549   4.267   1.620 -0.6662  0.1462 -0.4499
 2348SOL    HW215784   0.470   4.264   1.763 -0.0827  0.9998 -0.1076
 2349SOL     OW15785   3.606   3.297   0.614  0.2869  0.1727 -0.4920
 2349SOL    HW115786   3.655   3.278   0.700  0.0940 -1.1246 -0.6658
 2349SOL    HW215787   3.657   3.257   0.538  1.9226  3.6764 -1.3209
 2350SOL     OW15788   8.311   0.271   1.778 -0.1243  0.4085  0.1953
 2350SOL    HW115789   8.287   0.174   1.788 -0.8749  0.2476 -2.4736
 2350SOL    HW215790   8.227   0.326   1.777  0.2373  0.9717  0.7913
 2352SOL     OW15791   1.600   8.998   2.161 -0.1541 -0.4758  0.2566
 2352SOL    HW115792   1.677   9.046   2.118  0.2467 -0.1615  1.3075
 2352SOL    HW215793   1.635   8.931   2.226 -0.7792  0.2000  1.2936
 2354SOL     OW15794   2.838   8.046   0.322 -0.1017 -0.1018  0.2556
 2354SOL    HW115795   2.761   8.107   0.338  0.8135  0.6370  2.0609
 2354SOL    HW215796   2.895   8.042   0.404  1.1793 -1.5032 -0.6607
 2356SOL     OW15797   9.042   0.946   1.388  0.3345  0.2191 -1.0176
 2356SOL    HW115798   8.942   0.948   1.385  0.2887  1.7355  0.9344
 2356SOL    HW215799   9.077   0.924   1.297 -1.7885 -1.6762 -1.4299
 2357SOL     OW15800   1.799   4.313   1.406  0.7073 -0.4943 -0.0422
 2357SOL    HW115801   1.839   4.222   1.405 -1.0069 -1.2893  0.8180
 2357SOL    HW215802   1.702   4.306   1.382  0.3222  0.9749  1.0250
 2358SOL     OW15803   3.156   5.058   1.423 -0.6159  0.2924 -0.1207
 2358SOL    HW115804   3.211   5.122   1.478  0.0561 -1.1049  0.8649
 2358SOL    HW215805   3.059   5.074   1.442 -0.4232  0.4245  0.8081
 2360SOL     OW15806   9.256   0.516   1.642 -0.1244 -0.2482 -0.0695
 2360SOL    HW115807   9.196   0.495   1.565  0.8537 -1.8685 -0.4253
 2360SOL    HW215808   9.203   0.561   1.715 -0.6086  3.2857 -2.5040
 2361SOL     OW15809   1.287   7.720   1.710 -0.2788 -0.1068  0.6870
 2361SOL    HW115810   1.384   7.741   1.722  0.6470 -2.5030 -2.1363
 2361SOL    HW215811   1.251   7.772   1.632 -0.2164 -2.1309 -0.7326
 2364SOL     OW15812   2.353   9.139   2.097  0.0397  0.5278 -0.8367
 2364SOL    HW115813   2.305   9.184   2.173 -0.4341 -1.3236  0.0035
 2364SOL    HW215814   2.417   9.072   2.134 -0.7219 -0.9159 -2.0808
 2365SOL     OW15815   3.930   8.649   1.511  0.0933  0.1841 -0.2529
 2365SOL    HW115816   4.002   8.658   1.443  0.8576  0.6022  0.6053
 2365SOL    HW215817   3.946   8.713   1.586 -0.6985 -0.3211  0.3560
 2366SOL     OW15818   3.261   4.702   0.205  0.5121 -0.1792  0.1629
 2366SOL    HW115819   3.192   4.710   0.276  0.7059 -1.3370  0.4965
 2366SOL    HW215820   3.296   4.793   0.182 -1.0432  0.4034  0.0517
 2367SOL     OW15821   3.488   0.679   2.257  0.2177  0.1841  0.5686
 2367SOL    HW115822   3.475   0.763   2.205 -1.5571 -0.4158 -0.0072
 2367SOL    HW215823   3.454   0.691   2.350  0.9438  0.4326  0.8022
 2368SOL     OW15824   1.634   6.424   0.681 -0.1668  0.4803 -0.5426
 2368SOL    HW115825   1.539   6.417   0.651 -0.1006  1.2727 -0.9440
 2368SOL    HW215826   1.659   6.341   0.732 -0.7882 -0.1234 -1.2170
 2369SOL     OW15827   0.314   2.165   2.295 -0.2495  0.0483 -0.1887
 2369SOL    HW115828   0.293   2.068   2.293 -1.0028  0.2178 -2.2643
 2369SOL    HW215829   0.266   2.211   2.220 -0.7772  2.2059  1.4159
 2370SOL     OW15830   1.059   0.468   1.603 -0.2801  0.0241 -0.2060
 2370SOL    HW115831   0.972   0.420   1.613 -1.5605  2.5223  1.1345
 2370SOL    HW215832   1.109   0.464   1.689  0.1469  0.0749 -0.4509
 2371SOL     OW15833   2.585   0.886   1.227  0.9342 -0.2217  0.3465
 2371SOL    HW115834   2.504   0.827   1.235 -0.2769  1.5076  1.1827
 2371SOL    HW215835   2.627   0.874   1.137 -1.8467  0.8627 -1.1468
 2372SOL     OW15836   4.700   8.917   1.476 -0.3601 -0.0030 -0.0590
 2372SOL    HW115837   4.648   8.998   1.449  1.5706  0.7810 -1.5017
 2372SOL    HW215838   4.745   8.934   1.564  1.2805  1.0769 -1.0886
 2373SOL     OW15839   0.078   5.879   0.115 -0.2118 -0.0066  0.4604
 2373SOL    HW115840   0.022   5.847   0.192 -1.1754 -1.8745 -0.9715
 2373SOL    HW215841   0.170   5.841   0.122 -0.8888 -1.8378 -0.3726
 2374SOL     OW15842   0.879   1.111   2.286  0.2952 -0.6903 -0.1804
 2374SOL    HW115843   0.786   1.129   2.317  1.0042  1.6120  0.7020
 2374SOL    HW215844   0.889   1.141   2.191  0.4881  0.2748  0.1423
 2375SOL     OW15845   9.809   3.875   0.151  0.2036 -0.3016 -0.3349
 2375SOL    HW115846   9.712   3.856   0.161 -0.2716  2.1186 -0.2283
 2375SOL    HW215847   9.860   3.789   0.157 -2.0238 -1.7856 -2.0338
 2376SOL     OW15848   0.695   7.719   0.277  0.0772  0.2560 -0.5061
 2376SOL    HW115849   0.666   7.648   0.343 -0.8973  1.0967 -0.0166
 2376SOL    HW215850   0.792   7.738   0.290  1.3514 -3.6591 -3.1436
 2377SOL     OW15851   2.777   9.919   0.784 -0.0560 -0.5589  0.6629
 2377SOL    HW115852   2.685   9.953   0.802  0.0614  0.3835 -0.4932
 2377SOL    HW215853   2.843   9.994   0.789  0.6539 -1.2216  1.4435
 2378SOL     OW15854   1.717   9.678   1.442  0.0325  0.1457  0.2759
 2378SOL    HW115855   1.632   9.686   1.389  0.2874  1.0382 -0.0134
 2378SOL    HW215856   1.787   9.735   1.400  1.2698 -1.8550 -0.4449
 2379SOL     OW15857   8.862   2.417   0.528 -0.6031 -0.0515 -0.3543
 2379SOL    HW115858   8.850   2.328   0.572 -0.1625  1.2023  2.4226
 2379SOL    HW215859   8.929   2.410   0.455 -0.3615 -1.9393  0.0362
 2380SOL     OW15860   1.338   1.485   0.816 -0.4173  0.2560  0.3813
 2380SOL    HW115861   1.253   1.442   0.786  0.1188 -1.1663  0.8721
 2380SOL    HW215862   1.331   1.584   0.804 -1.6126  0.0334 -0.8860
 2381SOL     OW15863   4.429   4.633   1.327 -0.2302 -0.3063 -0.2694
 2381SOL    HW115864   4.419   4.732   1.322 -1.0127 -0.3670  0.0213
 2381SOL    HW215865   4.522   4.607   1.300 -0.1202  0.4772 -0.6433
 2383SOL     OW15866   1.231   2.231   0.071 -0.1525  0.0489  0.6271
 2383SOL    HW115867   1.298   2.292   0.028 -0.4837 -0.7891 -1.1482
 2383SOL    HW215868   1.276   2.174   0.139  0.6303  0.5617  0.5463
 2384SOL     OW15869   9.746   0.770   0.494 -0.0810  0.0483  0.1018
 2384SOL    HW115870   9.733   0.714   0.576 -2.2269  0.3994  0.0378
 2384SOL    HW215871   9.843   0.777   0.473  0.5020  0.1617  2.7531
 2385SOL     OW15872   9.584   1.939   2.202  0.2871 -0.0358  0.0926
 2385SOL    HW115873   9.578   1.866   2.270  3.5548  0.4017  0.9533
 2385SOL    HW215874   9.614   1.900   2.115 -0.9230 -0.1296 -0.2986
 2386SOL     OW15875   0.810   4.032   2.215  0.0011  0.2135 -0.4251
 2386SOL    HW115876   0.757   4.041   2.300  1.2685 -0.3005  0.4341
 2386SOL    HW215877   0.778   3.952   2.164  2.0094 -1.9661  1.6254
 2388SOL     OW15878   8.661   6.996   1.829 -0.0312  0.1213 -0.0590
 2388SOL    HW115879   8.605   6.949   1.760  0.6030 -0.3144 -0.2727
 2388SOL    HW215880   8.722   6.930   1.873  0.3626  0.6162  0.1305
 2389SOL     OW15881   7.928   8.528   2.027  0.4378 -0.5224 -0.3471
 2389SOL    HW115882   7.854   8.587   2.059  0.2732 -0.9986  0.1431
 2389SOL    HW215883   7.946   8.547   1.930  1.4125  1.3979  0.1803
 2390SOL     OW15884   9.946   5.195   0.438  0.4655  0.1322  0.1666
 2390SOL    HW115885  10.020   5.134   0.466  0.2107 -0.9097 -1.4062
 2390SOL    HW215886   9.981   5.262   0.372  0.1014 -0.1330 -0.3009
 2392SOL     OW15887   9.214   9.994   1.347  0.4880  0.1142  0.0406
 2392SOL    HW115888   9.134  10.051   1.364 -0.4562 -1.1959  0.0797
 2392SOL    HW215889   9.253  10.018   1.258 -2.1624 -1.6780 -1.7329
 2395SOL     OW15890   2.650   1.076   1.398 -0.1188  0.0516  0.2290
 2395SOL    HW115891   2.615   1.011   1.331 -0.2127  0.5442 -0.2035
 2395SOL    HW215892   2.715   1.030   1.458 -0.1218 -0.4196 -0.1261
 2396SOL     OW15893   4.421   3.385   0.044  0.4762  0.1189  0.1286
 2396SOL    HW115894   4.325   3.383   0.015  0.1965  1.3385  0.9358
 2396SOL    HW215895   4.468   3.304   0.009 -0.9809 -0.7640  0.1873
 2399SOL     OW15896   2.407   8.102   1.951 -0.0483  0.5379 -0.3475
 2399SOL    HW115897   2.346   8.023   1.958 -1.0781  1.2875 -0.6472
 2399SOL    HW215898   2.496   8.080   1.990 -0.3266 -0.7749 -0.4476
 2400SOL     OW15899   2.368   5.641   0.993  0.7618 -0.4862  0.6712
 2400SOL    HW115900   2.438   5.671   0.929  0.7020  0.0237  0.8468
 2400SOL    HW215901   2.350   5.543   0.979  1.7566 -0.7079  0.8647
 2401SOL     OW15902   0.208   5.920   1.494  0.0527  0.0698 -0.3485
 2401SOL    HW115903   0.285   5.882   1.546  0.1807 -0.7232 -1.0948
 2401SOL    HW215904   0.123   5.906   1.545  0.4706  1.5460  0.7828
 2402SOL     OW15905   4.579   3.971   0.126 -0.3468 -0.3299 -0.5710
 2402SOL    HW115906   4.645   4.030   0.171 -0.0708 -1.5858  0.7127
 2402SOL    HW215907   4.584   3.879   0.165 -0.1620 -1.4443 -3.1195
 2403SOL     OW15908   3.253   8.139   2.302  0.1938 -0.1639  0.3490
 2403SOL    HW115909   3.259   8.142   2.203 -1.9810 -1.1474  0.1692
 2403SOL    HW215910   3.200   8.217   2.335  1.7142  0.6857  0.8230
 2404SOL     OW15911   1.843   1.207   1.682 -0.0483  0.5459  0.1334
 2404SOL    HW115912   1.812   1.140   1.750  1.9380  0.5333  1.0954
 2404SOL    HW215913   1.827   1.299   1.717 -1.6261  0.5802 -0.6413
 2405SOL     OW15914   2.702   8.127   0.025  0.1645 -0.6239  0.2789
 2405SOL    HW115915   2.765   8.187   0.074  0.4288  0.6380 -1.5456
 2405SOL    HW215916   2.752   8.050  -0.014  0.4207 -0.1758 -0.2877
 2406SOL     OW15917   9.326   1.214   2.132  0.6430 -0.1984  0.4624
 2406SOL    HW115918   9.238   1.228   2.086  0.0388  0.4227  1.7906
 2406SOL    HW215919   9.339   1.284   2.201  2.1408 -0.3685  0.3652
 2407SOL     OW15920   3.742   8.699   0.488  0.3082  0.3669  0.0873
 2407SOL    HW115921   3.806   8.624   0.470 -0.6332 -1.0921  2.5648
 2407SOL    HW215922   3.782   8.760   0.557 -0.4900  0.0645  0.8199
 2408SOL     OW15923   3.617   0.729   0.868 -0.2921  0.0890  0.5504
 2408SOL    HW115924   3.598   0.767   0.959  0.1559  1.8125 -0.0540
 2408SOL    HW215925   3.584   0.792   0.798 -0.1938 -1.0045 -0.4997
 2409SOL     OW15926   9.056   8.621   1.109  0.0150  0.1138  0.0887
 2409SOL    HW115927   9.030   8.532   1.146 -1.9787  0.2138 -0.9829
 2409SOL    HW215928   9.006   8.637   1.024  3.4347  0.4791 -1.9374
 2411SOL     OW15929   0.318   1.994   2.046  0.3782 -0.4995  0.1398
 2411SOL    HW115930   0.307   2.059   1.970  2.5045  1.1423  1.1788
 2411SOL    HW215931   0.409   2.005   2.086  0.0841 -2.8642  1.5513
 2412SOL     OW15932   1.309   0.223   0.721 -1.0625  0.2026 -0.4032
 2412SOL    HW115933   1.387   0.258   0.773  0.2837 -1.7983 -1.0313
 2412SOL    HW215934   1.295   0.280   0.639  0.9402 -0.5287 -1.2795
 2413SOL     OW15935   0.631   8.993   0.499  0.1600 -0.4719 -0.5102
 2413SOL    HW115936   0.543   8.950   0.520 -0.1114 -0.2289 -1.1413
 2413SOL    HW215937   0.622   9.093   0.507 -0.0270 -0.3570 -2.0532
 2414SOL     OW15938   9.159   7.350   1.678  0.5406 -0.2792 -0.2906
 2414SOL    HW115939   9.121   7.438   1.651  0.7221 -0.4730 -1.1717
 2414SOL    HW215940   9.105   7.276   1.637  1.6343 -0.5594 -1.2340
 2416SOL     OW15941   0.242   5.776   1.997  0.5084  0.5600 -0.4658
 2416SOL    HW115942   0.338   5.804   1.986 -0.0003  2.2202 -0.8693
 2416SOL    HW215943   0.184   5.837   1.943 -0.6916 -1.1453 -1.1403
 2417SOL     OW15944   3.562   6.141   0.752  0.0499 -0.0521 -0.4522
 2417SOL    HW115945   3.540   6.114   0.846  0.7653 -0.7082 -0.4707
 2417SOL    HW215946   3.478   6.172   0.706 -0.0209  1.7361  0.8704
 2418SOL     OW15947   2.956   1.255   0.963 -0.4484 -0.1675 -0.1407
 2418SOL    HW115948   2.996   1.234   1.052  0.7918 -1.9076 -1.0760
 2418SOL    HW215949   2.942   1.354   0.955  1.4307  0.2313  1.1698
 2420SOL     OW15950   1.213   7.901   0.182 -0.4268 -0.3064  0.5426
 2420SOL    HW115951   1.254   7.983   0.222  2.7079 -0.8328 -1.3247
 2420SOL    HW215952   1.235   7.822   0.239  0.2019 -0.4081  0.1752
 2421SOL     OW15953   0.160   2.616   1.298 -0.0351  0.2459  0.0014
 2421SOL    HW115954   0.185   2.642   1.391 -0.1238 -0.1894  0.1466
 2421SOL    HW215955   0.136   2.698   1.246  0.3165  0.5231  0.2693
 2422SOL     OW15956   4.441   1.686   2.033 -0.2494 -0.0229  0.2691
 2422SOL    HW115957   4.494   1.752   2.086 -0.3843  0.8897 -0.7064
 2422SOL    HW215958   4.449   1.595   2.074 -0.2010  0.6275  1.7356
 2423SOL     OW15959   2.590   2.781   0.437 -0.1328  0.4007 -0.1646
 2423SOL    HW115960   2.630   2.689   0.433 -2.0702 -0.5725  2.0140
 2423SOL    HW215961   2.522   2.791   0.365  1.8420  1.0417 -2.0004
 2424SOL     OW15962   8.036   2.248   2.218 -0.2733  0.2943  0.0590
 2424SOL    HW115963   7.980   2.165   2.222 -0.5926  0.5341  0.8234
 2424SOL    HW215964   8.021   2.295   2.131  0.8860 -1.1109 -0.9211
 2426SOL     OW15965   8.599   8.357   0.482  0.3028 -0.2342 -0.3829
 2426SOL    HW115966   8.595   8.365   0.581  0.8372 -0.9467 -0.3013
 2426SOL    HW215967   8.594   8.448   0.440 -0.4383  0.0304  0.2744
 2427SOL     OW15968   4.412   3.271   1.795 -0.6402  0.0469 -0.2164
 2427SOL    HW115969   4.436   3.349   1.737  2.8543 -0.8477 -0.1316
 2427SOL    HW215970   4.436   3.186   1.747 -1.2887 -0.8314  1.0057
 2428SOL     OW15971   9.758   7.769   2.087  0.2255 -0.7018 -0.3630
 2428SOL    HW115972   9.666   7.729   2.087 -0.5780  1.1112  0.0689
 2428SOL    HW215973   9.806   7.743   2.004 -0.9350 -1.1041 -0.9096
 2429SOL     OW15974   9.955   4.759   1.305  0.1291 -0.0712 -0.4669
 2429SOL    HW115975   9.933   4.732   1.212 -0.8373  0.7881 -0.4958
 2429SOL    HW215976  10.045   4.803   1.306 -0.1475  0.5232 -1.1150
 2431SOL     OW15977   0.603   5.689   0.217 -0.0616 -0.3078 -0.2359
 2431SOL    HW115978   0.518   5.736   0.241 -0.7774 -0.7898 -1.7831
 2431SOL    HW215979   0.603   5.597   0.256 -0.7769 -0.7284 -1.2132
 2432SOL     OW15980   4.477   9.082   1.592  0.5268  0.3485 -0.0829
 2432SOL    HW115981   4.457   9.125   1.680  0.9752  0.3247  0.0304
 2432SOL    HW215982   4.425   9.128   1.520 -0.3384 -0.0457  0.2808
 2433SOL     OW15983   9.109   1.464   1.751  0.0658  0.4756  0.2728
 2433SOL    HW115984   9.066   1.445   1.662  1.4444  0.7551 -0.4738
 2433SOL    HW215985   9.088   1.558   1.778 -0.2324  0.4413  0.1606
 2434SOL     OW15986   1.474   0.257   0.027  0.0704  0.5480 -0.4765
 2434SOL    HW115987   1.537   0.197   0.076  1.0105  1.4163 -0.6124
 2434SOL    HW215988   1.388   0.208   0.010  0.9133 -0.8518 -0.8084
 2435SOL     OW15989   8.095   6.848   2.237 -0.3350 -0.2379 -0.7043
 2435SOL    HW115990   8.061   6.755   2.224  0.5552 -0.5331 -0.9528
 2435SOL    HW215991   8.028   6.913   2.202 -1.4956 -0.7262  0.5561
 2436SOL     OW15992   2.671   3.326   2.009 -0.3532  0.4162 -0.1627
 2436SOL    HW115993   2.723   3.248   2.044  0.1181  1.0325  0.5474
 2436SOL    HW215994   2.693   3.341   1.912  2.0330  1.6191  0.5057
 2437SOL     OW15995   9.582   5.356   0.894 -0.0778 -0.3347 -0.7815
 2437SOL    HW115996   9.540   5.368   0.804 -1.5434 -1.9165 -0.3326
 2437SOL    HW215997   9.547   5.273   0.936  1.8254 -0.4810  0.5812
 2439SOL     OW15998   3.435   6.070   0.025 -0.0266 -0.3436  0.1666
 2439SOL    HW115999   3.379   6.055  -0.056 -0.2568  1.0563  0.0496
 2439SOL    HW216000   3.436   5.987   0.081 -1.4209 -0.6944 -0.3112
 2440SOL     OW16001   8.577   9.243   0.787  0.1126 -0.0025 -0.2514
 2440SOL    HW116002   8.605   9.290   0.703  0.3882  0.8827  0.3268
 2440SOL    HW216003   8.519   9.304   0.842  0.2013 -0.4535  0.3552
 2441SOL     OW16004   1.013   7.597   0.031 -0.5110 -0.0180 -0.3134
 2441SOL    HW116005   0.918   7.596  -0.002 -0.9603 -1.2005  0.9779
 2441SOL    HW216006   1.017   7.559   0.123  0.8899  2.1964  0.5903
 2442SOL     OW16007   0.877   8.524   0.668 -0.1708  0.5820  0.4242
 2442SOL    HW116008   0.939   8.485   0.600 -1.1768 -0.9896  0.4040
 2442SOL    HW216009   0.797   8.563   0.623 -0.4546  0.2675  0.6595
 2443SOL     OW16010   2.220   8.581   2.094  0.4215 -0.2971 -0.0350
 2443SOL    HW116011   2.236   8.489   2.058  0.0756 -1.5292  2.8518
 2443SOL    HW216012   2.122   8.596   2.105  0.4483  0.6144 -0.9153
 2444SOL     OW16013   2.020   8.233   1.780  0.0077 -0.5401 -0.2134
 2444SOL    HW116014   1.927   8.213   1.752  0.2330  0.9792 -2.1884
 2444SOL    HW216015   2.085   8.179   1.727  0.2675 -1.8638  1.4040
 2445SOL     OW16016   8.701   0.671   0.384  0.3536 -0.2660  0.2186
 2445SOL    HW116017   8.694   0.619   0.299  1.0380  1.2866 -0.8002
 2445SOL    HW216018   8.641   0.629   0.453  0.0327 -1.7222 -0.9154
 2447SOL     OW16019   0.579   4.703   0.726  0.9261  0.4068 -0.6025
 2447SOL    HW116020   0.653   4.673   0.786 -0.1385  1.1101  1.1071
 2447SOL    HW216021   0.562   4.801   0.741 -0.4865  0.2007 -0.7963
 2451SOL     OW16022   4.375   0.664   1.420 -0.8766  0.0335  0.5943
 2451SOL    HW116023   4.371   0.631   1.325  0.2253  0.9896  0.2149
 2451SOL    HW216024   4.290   0.713   1.441 -0.9089  0.2652 -0.0560
 2453SOL     OW16025   1.621   3.658   1.074  0.1413  0.0839 -0.2137
 2453SOL    HW116026   1.682   3.611   1.138 -0.0783 -0.2799 -0.2706
 2453SOL    HW216027   1.531   3.616   1.077 -0.3458  1.1448  0.4643
 2454SOL     OW16028   1.630   0.911   1.204  0.0973  0.5722 -0.1116
 2454SOL    HW116029   1.656   0.986   1.265  2.8137  0.1714 -0.6951
 2454SOL    HW216030   1.711   0.854   1.186 -1.4470 -1.2743 -1.3630
 2455SOL     OW16031   0.441   9.930   0.498 -0.9089 -0.5071  0.2593
 2455SOL    HW116032   0.389   9.924   0.413 -1.3019  0.9913  0.3908
 2455SOL    HW216033   0.379   9.947   0.575 -0.4237 -0.5846  0.6709
 2456SOL     OW16034   9.251   3.656   1.562  0.0889 -0.3659  0.1085
 2456SOL    HW116035   9.160   3.674   1.524 -0.2027 -2.7094 -0.3839
 2456SOL    HW216036   9.311   3.620   1.490  0.2718 -2.4809  1.2753
 2457SOL     OW16037   8.004   7.822   1.825  0.1917  0.1436  0.1603
 2457SOL    HW116038   7.936   7.758   1.862 -1.0390  0.8846 -0.7704
 2457SOL    HW216039   8.095   7.783   1.835 -0.3340 -0.7315  1.7376
 2458SOL     OW16040   1.502   6.871   1.980 -0.3643  0.0692 -0.0409
 2458SOL    HW116041   1.524   6.773   1.973  1.5424  0.4248  0.7155
 2458SOL    HW216042   1.565   6.915   2.044 -2.0774  1.5479  0.6567
 2459SOL     OW16043   1.681   6.139   0.574  0.4197 -0.4060  0.2379
 2459SOL    HW116044   1.589   6.164   0.543 -0.3155 -2.6382  0.5008
 2459SOL    HW216045   1.708   6.053   0.531  1.7636 -0.5597  1.3703
 2461SOL     OW16046   3.888   1.454   0.171 -0.0463  0.5245 -0.4343
 2461SOL    HW116047   3.818   1.525   0.180  0.0957  0.6578 -0.3608
 2461SOL    HW216048   3.978   1.496   0.181  0.0120  0.2061  0.4286
 2462SOL     OW16049   4.794   3.477   0.533 -0.4986  0.1370  0.5562
 2462SOL    HW116050   4.747   3.450   0.450 -0.3451 -0.1709  0.5679
 2462SOL    HW216051   4.733   3.532   0.590 -0.6345  0.2647  0.2861
 2463SOL     OW16052   3.737   2.394   0.109 -0.4479  0.0318  0.6172
 2463SOL    HW116053   3.651   2.443   0.123 -0.4071  0.0657  0.7463
 2463SOL    HW216054   3.718   2.297   0.094 -0.5696  0.1784 -0.2084
 2464SOL     OW16055   0.750   0.435   0.893  0.0349 -0.6166 -0.1408
 2464SOL    HW116056   0.675   0.498   0.872  0.0621 -0.6857 -0.4358
 2464SOL    HW216057   0.799   0.412   0.810  0.1626 -0.8564  0.0010
 2465SOL     OW16058   3.786   6.180   0.626 -0.0862  0.4984  0.1587
 2465SOL    HW116059   3.703   6.140   0.663  0.6122  0.4687  1.7093
 2465SOL    HW216060   3.858   6.110   0.623  0.0917  0.7076 -0.5129
 2466SOL     OW16061   4.281   3.568   0.268  0.3062  0.3971 -0.1389
 2466SOL    HW116062   4.271   3.632   0.344  0.7266  1.3040 -0.8401
 2466SOL    HW216063   4.313   3.480   0.302 -0.8099  0.3766  0.9030
 2468SOL     OW16064   2.431   2.744   0.168  0.1639  0.0134 -0.2215
 2468SOL    HW116065   2.508   2.680   0.171  0.4887  0.4026 -0.2028
 2468SOL    HW216066   2.357   2.710   0.226  0.9180  0.3994  1.0081
 2471SOL     OW16067   0.225   2.324   2.077 -0.2882 -0.1999 -0.2173
 2471SOL    HW116068   0.163   2.344   2.153 -0.2659  0.1718 -0.2986
 2471SOL    HW216069   0.187   2.358   1.992 -0.6641 -1.2795 -0.4909
 2472SOL     OW16070   0.979   6.001   0.300  0.2629 -0.0760 -0.4082
 2472SOL    HW116071   1.042   6.021   0.375  1.3519  0.6822 -1.5106
 2472SOL    HW216072   0.976   6.078   0.236 -0.2873 -0.8971 -1.4114
 2474SOL     OW16073   8.881   3.124   1.921 -0.0333 -0.0779  0.1264
 2474SOL    HW116074   8.920   3.159   1.836  1.3412 -0.2080  0.6894
 2474SOL    HW216075   8.853   3.029   1.908 -1.1050  0.3219 -0.5692
 2475SOL     OW16076   8.991   1.546   0.947 -0.4806  0.2340 -0.1051
 2475SOL    HW116077   8.933   1.607   0.893 -0.4636 -0.8533 -1.3666
 2475SOL    HW216078   9.087   1.568   0.930 -0.4779 -0.0111 -0.4181
 2476SOL     OW16079   8.844   1.459   0.262 -1.0274  0.3087  0.4064
 2476SOL    HW116080   8.855   1.548   0.307 -1.4431 -0.5738  2.3171
 2476SOL    HW216081   8.915   1.448   0.193  0.2091  1.3565  1.4690
 2477SOL     OW16082   1.200   3.794   1.763  0.5220  0.0367  0.1226
 2477SOL    HW116083   1.204   3.872   1.824  2.6926  0.5371 -0.6045
 2477SOL    HW216084   1.160   3.716   1.811 -0.2761  1.1735  1.3235
 2478SOL     OW16085   3.577   1.641   2.017 -0.1892 -0.0124  0.3109
 2478SOL    HW116086   3.519   1.710   2.059 -2.6686 -0.9993 -1.3226
 2478SOL    HW216087   3.520   1.564   1.986  1.6066  0.0578 -3.5541
 2479SOL     OW16088   4.403   9.245   1.785 -0.2374 -0.1837  0.0049
 2479SOL    HW116089   4.376   9.241   1.881 -0.5830  0.4754 -0.0613
 2479SOL    HW216090   4.455   9.329   1.768 -1.2098  0.3001 -0.6446
 2480SOL     OW16091   3.319   7.485   0.224  0.3533 -0.2800 -0.4392
 2480SOL    HW116092   3.396   7.491   0.161  0.3585 -0.3393 -0.4391
 2480SOL    HW216093   3.312   7.569   0.277 -1.4548  1.0040 -2.6030
 2481SOL     OW16094   0.728   2.114   1.344 -0.3786 -0.0273 -0.1535
 2481SOL    HW116095   0.793   2.061   1.399 -1.0071 -0.5721  0.0735
 2481SOL    HW216096   0.650   2.140   1.401 -1.0394 -0.6080 -0.7803
 2482SOL     OW16097   1.845   7.449   0.126 -0.1943 -0.2410  0.2717
 2482SOL    HW116098   1.784   7.453   0.047  0.1618 -1.7213 -0.0848
 2482SOL    HW216099   1.896   7.535   0.133 -0.2284 -0.0957 -1.1127
 2483SOL     OW16100   9.890   6.213   0.383 -0.3106 -0.1566 -0.0866
 2483SOL    HW116101   9.939   6.242   0.300 -0.8717  1.4601  0.1296
 2483SOL    HW216102   9.943   6.143   0.430  0.5639 -0.2712 -1.2262
 2484SOL     OW16103   4.053   4.038   0.047 -0.6281 -0.1950  0.3769
 2484SOL    HW116104   4.149   4.012   0.052 -0.4423  0.1709 -1.1730
 2484SOL    HW216105   4.046   4.134   0.022 -1.4092 -0.3381  0.0365
 2485SOL     OW16106   8.633   2.111   0.470 -0.4851  0.2695  0.1491
 2485SOL    HW116107   8.705   2.149   0.528 -0.2639  0.6895 -0.3967
 2485SOL    HW216108   8.664   2.109   0.375 -1.0289  0.0441 -0.0269
 2486SOL     OW16109   5.065   3.384   0.500 -1.1316 -0.0732 -0.5575
 2486SOL    HW116110   4.969   3.388   0.527 -0.7175  0.4267  0.8765
 2486SOL    HW216111   5.092   3.472   0.462 -1.5333 -0.5727 -2.0707
 2487SOL     OW16112   0.325   2.698   0.576 -0.0371  0.1590  0.2019
 2487SOL    HW116113   0.393   2.650   0.631 -0.1540 -0.8251 -0.4975
 2487SOL    HW216114   0.326   2.795   0.599  0.9880  0.0083  0.8262
 2488SOL     OW16115   0.550   4.309   2.154 -0.0422  0.1091 -0.2186
 2488SOL    HW116116   0.555   4.257   2.069  1.0022  1.5264 -1.0580
 2488SOL    HW216117   0.460   4.351   2.162 -0.0710  0.1550 -0.7470
 2489SOL     OW16118   2.792   1.539   1.825 -0.0718 -0.1554 -0.1948
 2489SOL    HW116119   2.747   1.480   1.757  0.2775 -0.0773 -0.4977
 2489SOL    HW216120   2.867   1.489   1.868  0.6339  0.2763 -0.9117
 2491SOL     OW16121   0.531   6.867   1.916  0.3027 -0.1390  0.2271
 2491SOL    HW116122   0.588   6.838   1.840 -2.2534 -2.4360 -0.8729
 2491SOL    HW216123   0.557   6.817   1.999 -0.2310 -1.3458 -0.3221
 2493SOL     OW16124   3.483   2.418   1.158  0.0255 -0.1876 -0.1137
 2493SOL    HW116125   3.450   2.464   1.075 -1.0266  1.5097  1.1994
 2493SOL    HW216126   3.579   2.392   1.147 -0.2579 -0.4573 -2.0508
 2495SOL     OW16127   4.299   9.225   1.223 -0.1103 -0.4273 -0.4711
 2495SOL    HW116128   4.390   9.234   1.182 -1.2865 -1.3003 -3.3595
 2495SOL    HW216129   4.308   9.218   1.322  2.8324  1.5712 -0.5332
 2496SOL     OW16130   9.421   8.546   2.040 -0.0183  0.1936 -0.5283
 2496SOL    HW116131   9.335   8.563   1.992  0.8125  0.6303 -1.8881
 2496SOL    HW216132   9.488   8.509   1.976  1.3557  1.5186  0.0984
 2497SOL     OW16133   1.682   2.616   0.865 -0.0743  0.2583  0.4426
 2497SOL    HW116134   1.637   2.530   0.839 -0.5325  0.3178  1.0329
 2497SOL    HW216135   1.623   2.693   0.841  0.0406  0.3721  0.5261
 2498SOL     OW16136   0.330   2.988   0.590 -0.2466 -0.1692  0.5087
 2498SOL    HW116137   0.305   3.078   0.627  0.2881  0.6373 -1.0230
 2498SOL    HW216138   0.408   2.999   0.529 -1.3324 -1.4156 -1.1196
 2499SOL     OW16139   2.531   6.900   0.161 -0.3989  0.1040  0.0096
 2499SOL    HW116140   2.546   6.861   0.252 -1.0158  2.0800  0.9765
 2499SOL    HW216141   2.619   6.915   0.117  0.1296  2.6647  1.8181
 2500SOL     OW16142   9.221   2.532   0.627  0.1475  0.0964  0.5878
 2500SOL    HW116143   9.285   2.591   0.676 -1.5053  2.2423  0.2063
 2500SOL    HW216144   9.127   2.562   0.645 -0.6282 -1.1157 -1.3050
 2501SOL     OW16145   4.052   8.749   0.094 -0.0064 -0.0446  0.3919
 2501SOL    HW116146   3.979   8.763   0.160  0.8555 -0.9599  1.5573
 2501SOL    HW216147   4.018   8.694   0.017 -0.5553 -0.4014  0.8917
 2502SOL     OW16148   0.171   0.699   1.824 -0.2709  0.4123  0.0733
 2502SOL    HW116149   0.207   0.661   1.909 -0.5379  1.9265  0.8801
 2502SOL    HW216150   0.102   0.769   1.845  1.8417  2.9661 -1.3147
 2503SOL     OW16151   8.893   4.336   1.399 -0.3529 -0.1762 -0.3003
 2503SOL    HW116152   8.831   4.258   1.386  0.6566 -1.1582  0.7104
 2503SOL    HW216153   8.976   4.305   1.444  0.9203  1.1356 -1.7245
 2504SOL     OW16154   3.094   2.681   1.961 -0.3883  0.3467 -0.2371
 2504SOL    HW116155   3.124   2.769   2.000 -0.2672  0.6708 -1.0560
 2504SOL    HW216156   3.049   2.697   1.874  0.8812 -0.5303 -1.0682
 2506SOL     OW16157   0.249   2.765   0.892 -0.1610  0.1898 -0.7728
 2506SOL    HW116158   0.273   2.681   0.843  0.0626 -0.7826  0.9649
 2506SOL    HW216159   0.150   2.769   0.906 -0.0860 -0.2124 -0.1094
 2508SOL     OW16160   0.138   3.066   0.308  0.0837 -0.0559 -0.7734
 2508SOL    HW116161   0.213   3.107   0.360 -1.8094  0.8394  1.2740
 2508SOL    HW216162   0.051   3.098   0.343 -1.3567 -2.8428 -1.6600
 2509SOL     OW16163   4.268   3.669   1.543 -0.0975 -0.3802 -0.0740
 2509SOL    HW116164   4.170   3.667   1.560  0.4004 -0.0116  3.1746
 2509SOL    HW216165   4.299   3.764   1.535  0.3698 -0.3677  1.6077
 2510SOL     OW16166   8.674   9.366   0.561  0.2920 -0.8870  0.0688
 2510SOL    HW116167   8.704   9.324   0.475 -2.8518 -1.3155 -0.8594
 2510SOL    HW216168   8.679   9.466   0.553 -0.2801 -0.9219 -0.7102
 2511SOL     OW16169   3.603   9.289   0.199  0.2413  0.2438 -0.1859
 2511SOL    HW116170   3.550   9.316   0.119 -1.0903  0.8026  0.8665
 2511SOL    HW216171   3.551   9.309   0.282  2.7666  2.4675  0.9680
 2512SOL     OW16172   3.750   8.425   1.551 -0.1193 -0.1713 -0.0985
 2512SOL    HW116173   3.720   8.445   1.644 -1.6861  1.2127 -0.8797
 2512SOL    HW216174   3.828   8.483   1.528  0.0770 -0.2977  0.2331
 2513SOL     OW16175   1.858   8.250   1.484 -0.3812  0.1761  0.4005
 2513SOL    HW116176   1.812   8.331   1.447  1.4395  1.2601  0.4238
 2513SOL    HW216177   1.825   8.233   1.577 -0.8762  0.8135  0.3501
 2514SOL     OW16178   9.958   9.269   0.408 -0.1340  0.1310  0.4836
 2514SOL    HW116179   9.986   9.205   0.480  1.0092 -0.1410 -0.1927
 2514SOL    HW216180   9.934   9.357   0.449  0.5383 -0.0152  1.2004
 2515SOL     OW16181   8.716   6.382   1.979 -0.6778 -0.0547  0.8188
 2515SOL    HW116182   8.775   6.332   1.916  1.1719 -0.5313  2.8694
 2515SOL    HW216183   8.636   6.326   2.001 -0.2432 -0.7821  0.5774
 2517SOL     OW16184   9.157   6.635   2.116  0.4844  0.2239  0.0410
 2517SOL    HW116185   9.187   6.623   2.211  0.7801 -0.0938 -0.0887
 2517SOL    HW216186   9.058   6.644   2.113  0.4791  0.3221  0.3880
 2518SOL     OW16187   4.448   1.939   2.249  0.0218 -0.4442 -0.4366
 2518SOL    HW116188   4.354   1.957   2.280  0.5882 -0.5469  1.4139
 2518SOL    HW216189   4.486   1.863   2.302  1.0172 -0.6662 -1.4545
 2520SOL     OW16190   3.385   4.881   0.425  0.2284  0.0382  0.1632
 2520SOL    HW116191   3.327   4.923   0.496 -0.5341 -2.0410  0.8117
 2520SOL    HW216192   3.480   4.877   0.458  0.0806  0.1365  0.6110
 2521SOL     OW16193   0.800   4.989   1.479 -0.5043 -0.2942 -0.0807
 2521SOL    HW116194   0.865   5.027   1.545  0.3584 -0.2036 -0.9694
 2521SOL    HW216195   0.828   4.896   1.454 -0.8169 -0.3214 -0.3277
 2522SOL     OW16196   2.831   7.438   1.275  0.1831  0.2559 -0.0705
 2522SOL    HW116197   2.885   7.442   1.191 -0.4307  4.3399 -0.3918
 2522SOL    HW216198   2.890   7.417   1.353  1.3287 -0.2305 -1.0694
 2528SOL     OW16199   0.495   0.897   0.740  0.3322  0.2982 -0.4221
 2528SOL    HW116200   0.417   0.921   0.683 -0.5179 -0.9479  0.1784
 2528SOL    HW216201   0.495   0.954   0.823 -0.3121 -0.1198 -0.1266
 2529SOL     OW16202   2.979   5.943   1.451  0.5259 -0.1941  0.6445
 2529SOL    HW116203   3.054   5.906   1.396 -0.1943  0.5368 -0.8702
 2529SOL    HW216204   2.907   5.875   1.458  0.2421  0.0242 -0.0826
 2530SOL     OW16205   0.702   7.016   0.222  0.1725  0.5949 -0.0226
 2530SOL    HW116206   0.747   7.039   0.136  1.1658  1.8161  0.8169
 2530SOL    HW216207   0.770   6.992   0.291 -0.5001  1.4486  0.9657
 2531SOL     OW16208   9.059   1.987   1.444 -0.2792 -0.2846  0.5542
 2531SOL    HW116209   8.970   2.028   1.430  0.7655  2.0443  0.6005
 2531SOL    HW216210   9.096   2.014   1.533  1.9848  1.7519 -0.9215
 2532SOL     OW16211   9.389   3.582   0.032  0.1836 -0.2789  1.3661
 2532SOL    HW116212   9.351   3.507   0.086  0.5120 -1.4530 -0.0107
 2532SOL    HW216213   9.489   3.574   0.030  0.1616 -0.3702  0.4164
 2533SOL     OW16214   4.782   2.955   1.350 -0.2478  0.1483  0.3247
 2533SOL    HW116215   4.750   3.010   1.272 -2.1078  0.4105  1.2521
 2533SOL    HW216216   4.789   3.013   1.431  3.3068  0.2459  0.0148
 2534SOL     OW16217   9.426   5.974   2.178  0.4490  0.5650 -0.4259
 2534SOL    HW116218   9.519   5.961   2.211  0.4665 -0.2707 -0.7759
 2534SOL    HW216219   9.415   5.928   2.090  0.0575  1.7218 -0.9862
 2535SOL     OW16220   1.291   9.156   1.879 -0.1645 -0.3511 -0.0232
 2535SOL    HW116221   1.373   9.142   1.824  0.6995 -0.5690  1.3312
 2535SOL    HW216222   1.275   9.254   1.890  0.6886 -0.3078  0.8675
 2536SOL     OW16223   0.366   3.699   0.798 -0.5496  0.3305 -0.3124
 2536SOL    HW116224   0.403   3.611   0.767 -0.0991  0.9206 -1.4760
 2536SOL    HW216225   0.395   3.716   0.892 -0.3834 -0.6262 -0.1850
 2537SOL     OW16226   9.020   5.063   0.956  0.5440 -0.2099  0.7683
 2537SOL    HW116227   9.076   5.094   0.880  0.3272 -2.0667 -0.1662
 2537SOL    HW216228   9.078   5.029   1.030  0.6867 -1.9872 -0.1355
 2538SOL     OW16229   9.498   3.128   2.198  0.2947  0.2065 -0.2618
 2538SOL    HW116230   9.503   3.033   2.228 -1.2112  0.9118  2.4068
 2538SOL    HW216231   9.445   3.134   2.114  1.5257 -1.4482 -1.1852
 2539SOL     OW16232   9.322   6.967   1.867  0.2303 -0.3554  0.2640
 2539SOL    HW116233   9.387   6.918   1.809  0.4383 -0.3503  0.4937
 2539SOL    HW216234   9.351   6.961   1.963  0.3774  0.3951  0.2714
 2540SOL     OW16235   0.541   8.386   2.220  0.0191  0.1255  0.2399
 2540SOL    HW116236   0.620   8.448   2.226  0.8464 -0.7838 -1.0101
 2540SOL    HW216237   0.524   8.345   2.310  0.5528  0.8297  0.6705
 2541SOL     OW16238   9.918   8.933   1.178  0.5410  0.1859  0.3354
 2541SOL    HW116239  10.018   8.939   1.170  0.5822  0.6325  1.0684
 2541SOL    HW216240   9.878   8.915   1.089  1.4573 -2.5003  0.4158
 2542SOL     OW16241   9.103   8.878   0.875  0.1856 -0.7842 -0.0845
 2542SOL    HW116242   9.072   8.953   0.817  0.8606 -1.0180 -0.7469
 2542SOL    HW216243   9.040   8.801   0.867  0.0051 -0.6343 -0.1121
 2543SOL     OW16244   8.380   7.392   0.780  0.0667 -0.4800 -0.3309
 2543SOL    HW116245   8.472   7.433   0.786 -0.7596  1.2872  0.6789
 2543SOL    HW216246   8.376   7.310   0.837  0.4683  0.5303  1.1760
 2544SOL     OW16247   4.163   3.687   1.079 -0.2346 -0.1203 -0.3988
 2544SOL    HW116248   4.185   3.671   0.983  0.3751 -1.9156  0.0139
 2544SOL    HW216249   4.199   3.611   1.134 -0.6152  0.8659  1.2368
 2546SOL     OW16250   2.649   6.577   1.416  0.1153 -0.3676 -0.4719
 2546SOL    HW116251   2.629   6.512   1.489 -0.4157 -1.4872 -1.5849
 2546SOL    HW216252   2.747   6.576   1.396  0.1355 -0.7020 -0.3581
 2547SOL     OW16253   7.961   9.035   1.880  0.0848 -0.1706  0.1497
 2547SOL    HW116254   7.961   9.057   1.783 -1.6667 -1.1226 -0.0795
 2547SOL    HW216255   8.032   9.089   1.926  0.4792  0.7818 -1.5299
 2548SOL     OW16256   2.379   0.357   1.860 -0.3328  0.3663 -0.3868
 2548SOL    HW116257   2.463   0.402   1.892 -0.8073  1.7243 -1.0143
 2548SOL    HW216258   2.396   0.259   1.848  1.0751  0.5773 -0.1947
 2549SOL     OW16259   3.740   1.726   1.813 -0.2916  0.7099 -0.3215
 2549SOL    HW116260   3.689   1.714   1.899  0.5363 -0.2862  0.0438
 2549SOL    HW216261   3.680   1.704   1.736 -1.0317  1.5697 -0.0074
 2550SOL     OW16262   2.406   1.829   0.577 -0.1284 -0.0875  0.3192
 2550SOL    HW116263   2.401   1.906   0.513 -2.0379 -0.0868  0.4319
 2550SOL    HW216264   2.363   1.855   0.663  1.3583 -0.4944  1.1913
 2551SOL     OW16265   9.811   8.327   1.067 -0.2645 -0.0054  0.4732
 2551SOL    HW116266   9.851   8.261   1.130  0.0958  0.1338  0.3899
 2551SOL    HW216267   9.728   8.288   1.026 -0.6758  0.0216  1.2648
 2552SOL     OW16268   0.446   2.498   1.408 -0.7591  0.8514  0.0311
 2552SOL    HW116269   0.441   2.454   1.319 -2.2577 -0.2794  0.6608
 2552SOL    HW216270   0.385   2.452   1.472 -0.0467  1.9349  1.5303
 2553SOL     OW16271   3.918   1.425   1.226  0.3065 -0.0734  0.1161
 2553SOL    HW116272   4.013   1.453   1.209  0.1904  0.5244  0.4554
 2553SOL    HW216273   3.865   1.436   1.142 -0.3564  3.2600  0.9247
 2555SOL     OW16274   1.117   2.582   2.122 -0.2792  0.0247 -0.3112
 2555SOL    HW116275   1.024   2.616   2.136 -0.1634  0.6225 -0.9769
 2555SOL    HW216276   1.155   2.553   2.210 -1.1839 -0.4605 -0.0712
 2556SOL     OW16277   4.499   0.191   1.195  0.0324  0.4520 -0.2472
 2556SOL    HW116278   4.415   0.196   1.248 -1.5623 -3.0184 -2.2736
 2556SOL    HW216279   4.486   0.238   1.107  0.6327  0.9612 -0.0675
 2557SOL     OW16280   9.605   3.016   0.756 -0.0200  0.4227 -0.1221
 2557SOL    HW116281   9.616   3.054   0.664 -0.0974  0.1268 -0.2558
 2557SOL    HW216282   9.509   2.989   0.769 -0.2099  1.3512  0.3925
 2558SOL     OW16283   0.054   2.508   0.199 -0.5814 -0.1400 -0.5316
 2558SOL    HW116284   0.143   2.464   0.183  0.1832  1.3151 -0.3984
 2558SOL    HW216285   0.054   2.552   0.288 -1.6038 -0.5173 -0.3442
 2560SOL     OW16286   1.053   0.271   0.858  0.8658 -0.1308  0.4037
 2560SOL    HW116287   1.145   0.245   0.831  1.2210 -0.8571  2.2433
 2560SOL    HW216288   1.008   0.317   0.782  2.6233 -0.0584 -0.6229
 2561SOL     OW16289   8.581   0.436   0.968  0.0098  0.4111  0.1334
 2561SOL    HW116290   8.615   0.345   0.993 -0.8557 -0.2040 -0.8735
 2561SOL    HW216291   8.657   0.500   0.963  0.4715  0.0494  2.1468
 2562SOL     OW16292   1.431   8.880   0.664  0.3195 -0.4802  0.1170
 2562SOL    HW116293   1.379   8.800   0.693  0.2153 -0.0372  1.1759
 2562SOL    HW216294   1.487   8.857   0.585 -2.1029 -0.7252 -1.5430
 2564SOL     OW16295   9.137   4.189   1.045 -0.1011  0.3045 -0.1367
 2564SOL    HW116296   9.215   4.130   1.066  1.7006  2.5436 -0.3433
 2564SOL    HW216297   9.099   4.163   0.956 -0.1458 -1.3621  0.3473
 2565SOL     OW16298   3.476   4.177   1.507  0.5499  0.2741  0.2238
 2565SOL    HW116299   3.491   4.140   1.599 -1.2258 -2.1854 -0.4180
 2565SOL    HW216300   3.415   4.255   1.513 -0.1218 -0.3024  1.0943
 2566SOL     OW16301   1.863   0.282   1.110  0.0058  0.4366 -0.3483
 2566SOL    HW116302   1.792   0.252   1.174  0.2314  1.4226  0.3855
 2566SOL    HW216303   1.820   0.320   1.028 -0.3017  0.3016 -0.2524
 2567SOL     OW16304   8.507   8.558   1.091  0.5185 -0.2627  0.2165
 2567SOL    HW116305   8.525   8.624   1.165  1.2209 -1.2941  0.9804
 2567SOL    HW216306   8.416   8.520   1.102 -0.3692  1.4637 -0.9265
 2568SOL     OW16307   0.263   9.933   0.272 -0.5890 -0.0522  0.4351
 2568SOL    HW116308   0.210   9.992   0.332 -0.9028  1.0470 -0.8819
 2568SOL    HW216309   0.222   9.933   0.180  0.7574 -0.4452 -0.1828
 2569SOL     OW16310   9.388   1.692   1.953 -0.5010  0.2761 -0.0946
 2569SOL    HW116311   9.423   1.630   1.882 -1.9510  0.7451 -1.2422
 2569SOL    HW216312   9.306   1.653   1.994 -1.2010  1.2477 -0.5520
 2570SOL     OW16313   2.914   1.993   1.884  0.1031  0.3893  0.2105
 2570SOL    HW116314   2.863   1.913   1.854  0.7209 -0.5780  1.6469
 2570SOL    HW216315   2.861   2.043   1.952  1.6720 -1.5572  2.9764
 2572SOL     OW16316   1.326   3.316   0.246 -0.0541  0.1958  0.0988
 2572SOL    HW116317   1.272   3.391   0.285 -0.0446  0.7207 -0.8632
 2572SOL    HW216318   1.278   3.230   0.259 -0.2807  0.4306  0.8236
 2574SOL     OW16319   0.226   4.596   0.434 -0.4234  0.0035  0.1843
 2574SOL    HW116320   0.264   4.644   0.355  0.4286 -0.3485  0.3737
 2574SOL    HW216321   0.126   4.600   0.431 -0.3937  0.0629 -0.8659
 2575SOL     OW16322   2.372   1.559   0.587  0.3584 -0.6997  0.0855
 2575SOL    HW116323   2.317   1.530   0.665  2.1437  0.0555  1.6669
 2575SOL    HW216324   2.354   1.655   0.567  1.9379 -0.1314  1.3468
 2576SOL     OW16325   0.046   9.094   0.594 -0.1265 -0.7450 -0.0227
 2576SOL    HW116326   0.014   9.003   0.622  0.1642 -1.2856 -1.4205
 2576SOL    HW216327   0.018   9.161   0.662  0.3893 -2.0085  1.4632
 2577SOL     OW16328   4.598   3.502   0.209  0.1419 -0.3678  0.2502
 2577SOL    HW116329   4.680   3.491   0.154 -0.2727 -0.6955 -0.3068
 2577SOL    HW216330   4.517   3.491   0.151 -0.2945  0.2289  0.7384
 2579SOL     OW16331   2.661   6.895   1.095 -0.0198 -0.0459 -0.0046
 2579SOL    HW116332   2.697   6.836   1.022  1.9451 -1.9362  2.4135
 2579SOL    HW216333   2.590   6.955   1.057  2.0554  0.1786 -3.8344
 2581SOL     OW16334   4.421   3.472   1.618 -0.3792  0.3150 -0.0601
 2581SOL    HW116335   4.382   3.558   1.587 -0.3930  0.6416  0.8299
 2581SOL    HW216336   4.439   3.413   1.540 -0.0540  1.2567 -0.7054
 2582SOL     OW16337   7.984   0.091   0.376  0.2085 -0.0597  0.3852
 2582SOL    HW116338   8.042   0.013   0.399  0.5955  0.0616 -0.1690
 2582SOL    HW216339   8.037   0.157   0.323  0.3449  1.3397  2.2256
 2583SOL     OW16340   2.369   5.848   0.365  0.1922 -0.2320 -0.1683
 2583SOL    HW116341   2.322   5.843   0.453 -0.4784 -1.5510 -0.5842
 2583SOL    HW216342   2.459   5.889   0.377  0.2556 -0.7682  1.2008
 2584SOL     OW16343   2.408   6.276   1.035 -0.2189  0.3813  0.0900
 2584SOL    HW116344   2.486   6.275   1.099 -1.0833 -0.6270  1.1568
 2584SOL    HW216345   2.390   6.182   1.005  0.6107  0.9385 -2.1830
 2585SOL     OW16346   8.578   2.591   0.227 -0.0490  0.6510 -0.1589
 2585SOL    HW116347   8.555   2.630   0.316 -2.0400 -1.8987  0.5075
 2585SOL    HW216348   8.674   2.609   0.206  0.3782  1.4996  2.3800
 2586SOL     OW16349   1.429   5.204   0.484  0.1680 -0.5288  0.4550
 2586SOL    HW116350   1.438   5.129   0.550 -0.6855  0.9621  2.3066
 2586SOL    HW216351   1.334   5.234   0.480  0.9012  2.0728  1.6043
 2587SOL     OW16352   0.463   0.211   0.319  0.0491  0.1072  0.1952
 2587SOL    HW116353   0.479   0.218   0.417  1.2470  0.0182  0.0163
 2587SOL    HW216354   0.369   0.238   0.298  0.3162  1.8136  1.1574
 2589SOL     OW16355   8.370   8.326   2.101 -0.2257 -0.2806  0.0870
 2589SOL    HW116356   8.428   8.336   2.021 -0.3984 -1.4843 -0.1983
 2589SOL    HW216357   8.277   8.305   2.073 -1.3674  3.9142  0.4627
 2590SOL     OW16358   2.806   0.348   1.309  0.3776 -0.0027  0.6607
 2590SOL    HW116359   2.726   0.376   1.362  0.4327  1.1272  0.1592
 2590SOL    HW216360   2.880   0.322   1.372 -0.3180 -0.9163  1.1235
 2591SOL     OW16361   3.404   1.023   1.862 -0.1242 -0.2150  0.5484
 2591SOL    HW116362   3.456   0.956   1.808 -0.1388 -1.3131  1.8834
 2591SOL    HW216363   3.398   1.108   1.810  1.9587 -0.4556 -0.1639
 2593SOL     OW16364   2.573   0.757   0.056 -0.1451 -0.0060  0.2673
 2593SOL    HW116365   2.531   0.834   0.008 -0.4382 -0.3389 -0.0083
 2593SOL    HW216366   2.672   0.766   0.053 -0.1974  1.3125  1.7754
 2594SOL     OW16367   0.793   3.922   0.413  0.6864  0.2328  0.6298
 2594SOL    HW116368   0.746   3.902   0.499  2.4421 -3.0563  0.9183
 2594SOL    HW216369   0.880   3.967   0.432  0.5570  0.5447  0.4907
 2596SOL     OW16370   9.551   8.767   0.788 -0.2355  0.3986  0.4703
 2596SOL    HW116371   9.505   8.800   0.705 -1.2959  0.0692  0.9154
 2596SOL    HW216372   9.537   8.668   0.797  2.4345 -0.1201 -0.5524
 2598SOL     OW16373   0.962   0.711   1.551  0.0144  0.2241  0.2311
 2598SOL    HW116374   0.928   0.729   1.458  1.2448  1.1765 -0.0532
 2598SOL    HW216375   0.996   0.617   1.557 -0.7322 -0.0628 -0.0856
 2601SOL     OW16376   8.260   8.368   1.179  0.3196 -0.4690 -0.4654
 2601SOL    HW116377   8.261   8.332   1.086  0.6406 -0.3265 -0.5160
 2601SOL    HW216378   8.331   8.323   1.233  0.8155  0.1935 -0.5648
 2602SOL     OW16379   0.315   5.156   1.340  0.7466  0.4023  0.1480
 2602SOL    HW116380   0.288   5.246   1.376  0.1825  0.2907  0.0072
 2602SOL    HW216381   0.329   5.163   1.241 -0.0005  0.1677  0.0274
 2603SOL     OW16382   4.145   8.250   0.094  0.6910 -0.0710  0.3850
 2603SOL    HW116383   4.123   8.200   0.178 -0.0976  1.4099  1.0808
 2603SOL    HW216384   4.151   8.348   0.115  0.4697  0.3052 -1.2980
 2605SOL     OW16385   4.672   8.863   0.087  0.4448  0.0209  0.4990
 2605SOL    HW116386   4.754   8.892   0.037  0.0210  0.0280 -0.1914
 2605SOL    HW216387   4.616   8.943   0.108 -0.0205 -0.1277 -0.1612
 2606SOL     OW16388   4.226   1.032   1.945 -0.6386  0.0826 -0.2473
 2606SOL    HW116389   4.232   0.953   1.885 -0.1431  0.7286 -1.0554
 2606SOL    HW216390   4.169   1.009   2.024 -1.8218 -0.5876 -1.2644
 2607SOL     OW16391   3.597   4.412   1.777  0.3203 -0.4371 -0.1556
 2607SOL    HW116392   3.542   4.331   1.796  1.7222 -1.5427 -0.7226
 2607SOL    HW216393   3.560   4.459   1.697  0.5994 -1.5788 -0.9774
 2609SOL     OW16394   9.963   6.340   0.751  0.2505  0.4076  0.3394
 2609SOL    HW116395   9.957   6.413   0.819  0.7552  1.3562 -0.6182
 2609SOL    HW216396   9.899   6.359   0.676  1.2968  0.5527 -0.5368
 2611SOL     OW16397   3.795   0.253   2.012 -0.2889  0.4703 -0.8059
 2611SOL    HW116398   3.895   0.256   2.003 -0.1521 -0.6505  0.2242
 2611SOL    HW216399   3.768   0.289   2.101 -0.5793 -1.9015  0.1005
 2613SOL     OW16400   8.352   8.070   1.877  0.0382  0.8555 -0.0021
 2613SOL    HW116401   8.275   8.128   1.847  0.5536  1.9637  0.7888
 2613SOL    HW216402   8.438   8.117   1.857  0.4360  0.7552  1.4602
 2614SOL     OW16403   7.967   9.926   1.484  0.7937  0.3223  0.0036
 2614SOL    HW116404   7.903  10.001   1.502  0.7869 -0.1081  1.8804
 2614SOL    HW216405   8.048   9.961   1.438  0.3118  1.2862 -0.1299
 2615SOL     OW16406   3.183   4.007   0.945 -0.1298  0.1585  0.1698
 2615SOL    HW116407   3.168   3.916   0.984  3.3670 -0.4201  0.3234
 2615SOL    HW216408   3.137   4.013   0.856  0.2425 -2.0740 -0.2072
 2616SOL     OW16409   3.461   0.814   1.113 -0.1013  0.6055  0.1886
 2616SOL    HW116410   3.394   0.747   1.083 -0.1799  0.5204  0.5494
 2616SOL    HW216411   3.505   0.782   1.198 -0.7634  1.4052  0.8466
 2617SOL     OW16412   9.780   8.814   2.276  0.0089 -0.1271 -0.4546
 2617SOL    HW116413   9.756   8.740   2.212  0.7397 -0.8544  0.1022
 2617SOL    HW216414   9.748   8.790   2.368  0.8085 -0.0448 -0.1506
 2618SOL     OW16415   9.724   7.819   0.699 -0.8843 -0.1542  0.0180
 2618SOL    HW116416   9.806   7.785   0.652 -1.8639 -2.1288 -0.3165
 2618SOL    HW216417   9.731   7.918   0.712  1.1297 -0.1665 -0.8351
 2619SOL     OW16418   9.152   0.170   0.675  0.1382  0.2025  0.3818
 2619SOL    HW116419   9.053   0.156   0.679  0.2422 -0.8801 -0.6306
 2619SOL    HW216420   9.173   0.266   0.696 -1.1528  0.5408  0.1946
 2620SOL     OW16421   9.461   5.869   1.493  0.0501 -0.4395  0.0793
 2620SOL    HW116422   9.441   5.961   1.524  0.2393 -0.8598  1.4964
 2620SOL    HW216423   9.409   5.849   1.410  0.2863  1.0600 -0.4402
 2621SOL     OW16424   7.347   9.147   2.218  0.3334 -0.5591 -0.5189
 2621SOL    HW116425   7.291   9.179   2.295  0.3074  0.6861 -1.0562
 2621SOL    HW216426   7.373   9.224   2.161  0.1579 -1.5007 -1.9057
 2623SOL     OW16427   3.864   9.410   0.616  0.4444  0.4530  0.4298
 2623SOL    HW116428   3.948   9.377   0.659  0.4929  1.1981  0.9097
 2623SOL    HW216429   3.807   9.456   0.684 -0.5375 -0.3963  0.1949
 2624SOL     OW16430   1.717   1.625   1.907 -0.1009 -0.3601  0.0095
 2624SOL    HW116431   1.705   1.537   1.954  0.0176  0.5144  1.6912
 2624SOL    HW216432   1.628   1.669   1.897 -0.0557 -0.3011 -0.1327
 2626SOL     OW16433   0.693   5.000   0.858  0.0544 -0.2520 -0.1455
 2626SOL    HW116434   0.744   4.995   0.943 -1.1538 -1.4079  0.5179
 2626SOL    HW216435   0.629   5.078   0.862  1.4565  0.9614 -0.8275
 2628SOL     OW16436   2.299   6.761   0.770 -0.3216  0.0210 -0.2861
 2628SOL    HW116437   2.204   6.730   0.773 -0.5564  0.7461 -0.1013
 2628SOL    HW216438   2.332   6.774   0.864  0.2068 -0.9782 -0.3342
 2630SOL     OW16439   0.757   2.939   1.456 -0.2012 -0.4050 -0.3214
 2630SOL    HW116440   0.758   2.861   1.520 -0.2357 -0.3416 -0.2432
 2630SOL    HW216441   0.840   2.993   1.469 -0.6089  0.0926  0.2700
 2631SOL     OW16442   0.794   6.412   0.185 -0.0183 -0.0880  0.2020
 2631SOL    HW116443   0.719   6.416   0.119  0.0323 -1.8440  0.0249
 2631SOL    HW216444   0.823   6.505   0.207 -2.1278  0.6248  0.1485
 2632SOL     OW16445   0.408   8.636   0.845 -0.1988  0.3559 -0.1180
 2632SOL    HW116446   0.323   8.666   0.886  1.1688  2.1335  1.5200
 2632SOL    HW216447   0.405   8.538   0.829 -2.0903  0.2138  1.0273
 2634SOL     OW16448   0.762   6.191   0.801 -0.5763 -0.1890 -0.9141
 2634SOL    HW116449   0.791   6.286   0.792  1.2180 -0.5475  0.7638
 2634SOL    HW216450   0.793   6.139   0.721  0.5841  0.1455 -0.6995
 2636SOL     OW16451   4.495   4.200   1.048 -0.1022 -0.2049  0.5442
 2636SOL    HW116452   4.546   4.221   1.130  0.6733  0.2470 -0.0542
 2636SOL    HW216453   4.448   4.282   1.015  1.1988  0.1076 -0.5780
 2637SOL     OW16454   1.488   0.363   0.860  0.0125  0.3294  0.2936
 2637SOL    HW116455   1.482   0.445   0.804 -2.7887 -0.6945 -0.9789
 2637SOL    HW216456   1.474   0.388   0.956  0.3554  1.4840  0.0590
 2638SOL     OW16457   8.820   8.858   1.649 -0.1091 -0.0133  0.1315
 2638SOL    HW116458   8.818   8.778   1.589 -0.5427 -0.2674  0.4805
 2638SOL    HW216459   8.761   8.842   1.728 -0.9383  1.0435 -0.2645
 2639SOL     OW16460   1.797   3.725   0.878  0.5661  0.1430  0.5926
 2639SOL    HW116461   1.863   3.790   0.917  1.0512 -0.1871  0.3364
 2639SOL    HW216462   1.741   3.686   0.951 -2.6333  3.9743  0.3431
 2640SOL     OW16463   4.233   4.471   1.229 -0.1175  0.2120 -0.4924
 2640SOL    HW116464   4.314   4.519   1.261 -0.8697  2.7785 -2.2968
 2640SOL    HW216465   4.259   4.398   1.166  1.0057 -1.5414  1.9335
 2641SOL     OW16466   9.587   6.338   0.918  0.1845  0.4238  0.5715
 2641SOL    HW116467   9.591   6.255   0.862  0.8210 -0.0953  1.3796
 2641SOL    HW216468   9.596   6.418   0.859  0.3583 -0.1024 -0.1253
 2642SOL     OW16469   4.589   8.675   1.532  0.3686 -0.0012  0.6468
 2642SOL    HW116470   4.598   8.769   1.501  0.2694 -0.1433  0.1723
 2642SOL    HW216471   4.639   8.614   1.470 -0.1324 -0.3266  0.5557
 2644SOL     OW16472   1.132   6.330   1.053  0.7621 -0.1138  0.9539
 2644SOL    HW116473   1.086   6.419   1.054  2.8665  1.1398 -2.7790
 2644SOL    HW216474   1.076   6.263   1.102 -3.8371  1.8624 -1.2613
 2645SOL     OW16475   2.005   9.552   1.395 -0.0969 -0.0658  0.1159
 2645SOL    HW116476   1.910   9.543   1.426 -0.4208  0.4474 -0.7259
 2645SOL    HW216477   2.065   9.554   1.475 -0.6356 -2.0855  0.6052
 2646SOL     OW16478   1.455   6.256   1.587 -0.1852  0.4515 -0.5321
 2646SOL    HW116479   1.386   6.228   1.653 -0.8237 -0.1565 -1.4476
 2646SOL    HW216480   1.412   6.274   1.499  0.7083  0.8672 -0.8917
 2647SOL     OW16481   7.532   9.957   0.900 -0.8311 -0.1669  0.1082
 2647SOL    HW116482   7.602   9.887   0.908 -1.0867 -0.3813  0.4820
 2647SOL    HW216483   7.509   9.993   0.991 -0.1898  0.9033 -0.1450
 2648SOL     OW16484   3.114   5.916   2.257  0.3944  0.2737  0.3025
 2648SOL    HW116485   3.075   6.008   2.261 -0.0508  0.0292  1.9426
 2648SOL    HW216486   3.042   5.850   2.235  0.3913  0.1361  0.7145
 2649SOL     OW16487   4.126   3.908   1.231 -0.4822  0.0354 -0.5723
 2649SOL    HW116488   4.142   3.823   1.180 -1.2461  1.1275 -2.6786
 2649SOL    HW216489   4.033   3.908   1.268  0.5222 -1.3759  2.1047
 2650SOL     OW16490   3.303   4.403   0.116  0.5861 -0.0529  0.0467
 2650SOL    HW116491   3.276   4.499   0.119  3.2804  0.8087 -1.3801
 2650SOL    HW216492   3.364   4.383   0.192  2.0192  0.0387 -1.0604
 2651SOL     OW16493   9.342   7.312   1.315  0.4918 -0.0940  0.1552
 2651SOL    HW116494   9.327   7.377   1.240 -1.9901 -0.0866  0.6182
 2651SOL    HW216495   9.333   7.218   1.279 -1.5394 -0.0823  0.5658
 2652SOL     OW16496   4.201   0.589   1.791  0.0983  0.0797  0.1052
 2652SOL    HW116497   4.193   0.685   1.763  1.0019 -0.0182 -0.5079
 2652SOL    HW216498   4.253   0.539   1.723  0.7220 -0.5800  1.0543
 2653SOL     OW16499   9.051   4.808   1.761 -0.0003  0.1310  0.6693
 2653SOL    HW116500   9.001   4.860   1.693 -0.5538 -1.1070  0.1107
 2653SOL    HW216501   9.072   4.866   1.840 -2.1745  0.6975  0.8451
 2654SOL     OW16502   2.617   9.277   1.269 -0.1129  0.3641  0.2360
 2654SOL    HW116503   2.630   9.248   1.174  2.3434 -1.9261  1.2015
 2654SOL    HW216504   2.555   9.214   1.315  0.1307  0.4078  0.6250
 2655SOL     OW16505   3.307   2.501   1.953  0.2968  0.5019  0.0752
 2655SOL    HW116506   3.296   2.440   2.031  0.4543  0.0875 -0.2245
 2655SOL    HW216507   3.225   2.558   1.944  0.7842  1.4206  1.2781
 2656SOL     OW16508   4.333   3.954   0.015 -0.0452  0.2791  0.1172
 2656SOL    HW116509   4.421   3.969   0.060  1.1641 -1.5242 -1.5617
 2656SOL    HW216510   4.302   3.860   0.033 -1.5026  0.8217  0.4799
 2658SOL     OW16511   1.223   0.869   1.777 -0.3067 -0.0737  0.2903
 2658SOL    HW116512   1.222   0.881   1.678  0.7360 -1.6328  0.0728
 2658SOL    HW216513   1.297   0.925   1.816 -1.0382  0.9306  0.2578
 2659SOL     OW16514   2.531   2.909   0.934  0.0800 -0.2770 -0.6878
 2659SOL    HW116515   2.579   2.938   0.851  2.2583  1.9337  1.2311
 2659SOL    HW216516   2.479   2.987   0.971  2.7324  0.1638  2.3679
 2660SOL     OW16517   3.980   0.787   0.328 -0.1806 -0.2054  0.4564
 2660SOL    HW116518   3.886   0.813   0.349 -0.1481 -0.1575  0.5461
 2660SOL    HW216519   4.031   0.868   0.299 -0.4110 -0.3967 -0.5048
 2661SOL     OW16520   4.113   1.971   1.026 -0.1134  0.0570  0.9597
 2661SOL    HW116521   4.085   1.879   1.053 -2.6302  0.0993 -1.3925
 2661SOL    HW216522   4.060   2.038   1.077  0.1766  0.1937  1.0828
 2662SOL     OW16523   4.539   0.885   0.632  0.0082 -0.0999  0.2574
 2662SOL    HW116524   4.531   0.975   0.676 -1.1367 -0.1417  0.1621
 2662SOL    HW216525   4.535   0.896   0.533  0.0703 -0.2384  0.2401
 2663SOL     OW16526   1.115   6.817   0.127 -0.3141 -0.5789 -0.4503
 2663SOL    HW116527   1.171   6.740   0.159  0.9159  0.9108  1.0618
 2663SOL    HW216528   1.114   6.889   0.197 -1.1774  0.9180 -1.9712
 2664SOL     OW16529   0.437   3.587   1.078 -0.4505  0.5421  0.4823
 2664SOL    HW116530   0.361   3.529   1.108  1.8092 -1.5319  2.3918
 2664SOL    HW216531   0.460   3.652   1.150 -1.0932  1.9326 -0.5357
 2666SOL     OW16532   3.969   0.917   0.728 -0.1045  0.4959 -0.4751
 2666SOL    HW116533   3.877   0.953   0.747 -0.2543  0.4131 -1.0279
 2666SOL    HW216534   3.972   0.819   0.747  0.5535  0.9482  1.9046
 2668SOL     OW16535   0.874   3.455   0.067 -0.5122  0.4485 -0.0978
 2668SOL    HW116536   0.823   3.475   0.151  0.0846  0.3946  0.2847
 2668SOL    HW216537   0.848   3.366   0.032  1.2107 -0.7477  1.5501
 2669SOL     OW16538   2.648   2.112   0.576 -0.6428  0.0188  0.0314
 2669SOL    HW116539   2.748   2.112   0.577 -0.6327  1.5224  0.0672
 2669SOL    HW216540   2.616   2.075   0.489 -0.0719 -1.1937  0.3273
 2670SOL     OW16541   1.166   3.741   0.252  0.1398 -0.5045 -0.3074
 2670SOL    HW116542   1.178   3.798   0.334  0.6860  1.1204 -1.4880
 2670SOL    HW216543   1.074   3.755   0.215  0.8514  1.0140 -1.5941
 2671SOL     OW16544   1.709   7.416   0.371 -0.0371 -0.3412 -0.1412
 2671SOL    HW116545   1.733   7.409   0.274  1.2331 -0.3406  0.1574
 2671SOL    HW216546   1.754   7.497   0.410 -0.4221 -0.4253  0.4743
 2672SOL     OW16547   9.322   5.214   1.252 -0.2156  0.6727  0.7126
 2672SOL    HW116548   9.303   5.283   1.322 -0.4922  0.0328  1.2839
 2672SOL    HW216549   9.353   5.130   1.297  0.5940  0.5925 -0.0076
 2674SOL     OW16550   8.886   8.994   0.277 -0.3689  0.6395 -0.0493
 2674SOL    HW116551   8.862   8.970   0.183  0.7778 -2.9099  0.4961
 2674SOL    HW216552   8.982   8.971   0.294 -1.1611 -0.8467  2.6069
 2675SOL     OW16553   3.410   9.846   2.286  0.3284  0.2631 -0.1514
 2675SOL    HW116554   3.455   9.795   2.359  0.2878  0.3320 -0.0792
 2675SOL    HW216555   3.406   9.789   2.204  0.7667  0.3431 -0.2321
 2676SOL     OW16556   3.687   0.435   2.214 -0.0332  0.4528  0.4696
 2676SOL    HW116557   3.738   0.459   2.297 -2.5601 -2.1151  2.9046
 2676SOL    HW216558   3.613   0.500   2.200  1.0472  1.5142 -0.4398
 2677SOL     OW16559   0.098   3.167   0.051 -0.3766 -0.5415  0.1378
 2677SOL    HW116560   0.115   3.126   0.141 -1.8598  0.9926  1.1456
 2677SOL    HW216561   0.105   3.097  -0.020 -1.0927 -2.1549  1.6431
 2678SOL     OW16562   9.098   2.315   1.207 -0.6725 -0.0558  0.0342
 2678SOL    HW116563   9.153   2.392   1.239 -0.6319  0.3283 -0.9279
 2678SOL    HW216564   9.145   2.230   1.229 -1.5403  0.1177  2.6338
 2679SOL     OW16565   0.722   2.642   1.275  0.0071  0.0849  0.4043
 2679SOL    HW116566   0.804   2.701   1.275 -0.4034  0.6688 -0.7370
 2679SOL    HW216567   0.641   2.698   1.293 -0.2388 -0.3547  0.6615
 2680SOL     OW16568   1.718   7.441   1.541  0.3595  0.2737  0.0435
 2680SOL    HW116569   1.810   7.411   1.515 -0.0649 -0.5605 -0.5091
 2680SOL    HW216570   1.662   7.361   1.564 -0.2316  0.7798  0.3762
 2681SOL     OW16571   0.202   0.308   0.244  0.4042  0.0079 -0.1127
 2681SOL    HW116572   0.211   0.384   0.179 -0.3747  1.8691  1.8723
 2681SOL    HW216573   0.186   0.223   0.195 -0.2983  1.3973 -2.3516
 2682SOL     OW16574   1.769   7.426   1.941 -0.4238  0.2890 -0.3216
 2682SOL    HW116575   1.858   7.464   1.917  0.3432 -1.4580 -0.3250
 2682SOL    HW216576   1.741   7.459   2.031  0.3860  0.5562 -0.1662
 2683SOL     OW16577   2.588   7.151   1.559  0.2831 -0.5750  0.7455
 2683SOL    HW116578   2.490   7.149   1.576  0.2109 -0.0240  0.3751
 2683SOL    HW216579   2.634   7.202   1.632  0.4061 -1.7031  1.4669
 2685SOL     OW16580   1.127   2.860   1.771  0.1950  0.2726  0.1840
 2685SOL    HW116581   1.123   2.882   1.674 -1.5464 -0.7643 -0.0130
 2685SOL    HW216582   1.075   2.927   1.824 -1.1961 -0.6937  0.0792
 2686SOL     OW16583   9.313   2.504   1.335 -0.6233 -0.2660 -0.3483
 2686SOL    HW116584   9.342   2.429   1.394  1.2915  0.5462 -0.2303
 2686SOL    HW216585   9.380   2.517   1.262  0.4705  3.0399  1.1829
 2688SOL     OW16586   9.528   4.567   1.790 -0.4750  0.4346 -0.5673
 2688SOL    HW116587   9.438   4.596   1.824 -0.9515 -0.5158 -1.0052
 2688SOL    HW216588   9.578   4.647   1.756 -1.4887  0.8553 -1.0859
 2689SOL     OW16589   1.534   8.592   1.417  0.2573 -0.1901 -0.4713
 2689SOL    HW116590   1.522   8.669   1.355 -0.2538 -0.2955 -0.5013
 2689SOL    HW216591   1.526   8.622   1.512 -1.2612 -0.4375 -0.5148
 2690SOL     OW16592   9.835   1.884   1.676  0.0501 -0.3905  0.2048
 2690SOL    HW116593   9.760   1.924   1.729 -0.2426  0.1209 -0.5870
 2690SOL    HW216594   9.800   1.854   1.587  1.1775  1.6472 -0.9582
 2691SOL     OW16595   4.106   1.718   1.135  0.5464 -0.5114 -0.0148
 2691SOL    HW116596   4.093   1.721   1.234  1.2652  0.5499  0.0534
 2691SOL    HW216597   4.103   1.622   1.105  0.2598 -0.8401  1.0154
 2693SOL     OW16598   2.380   0.720   1.277 -0.7728  0.3861  0.3856
 2693SOL    HW116599   2.364   0.716   1.375 -2.2735  0.5663  0.1487
 2693SOL    HW216600   2.379   0.628   1.238  0.2562  0.2783  0.5993
 2694SOL     OW16601   0.933   1.103   1.057  0.3429 -0.2832  1.2055
 2694SOL    HW116602   0.903   1.027   0.999  1.5291 -1.2690  1.8804
 2694SOL    HW216603   0.855   1.165   1.072 -0.6003 -1.2773  0.5600
 2695SOL     OW16604   1.259   9.011   1.606 -0.2625  0.6416  0.1279
 2695SOL    HW116605   1.346   9.042   1.643  0.0005  2.7784 -2.1207
 2695SOL    HW216606   1.186   9.073   1.635 -0.3859  1.1054 -1.1179
 2696SOL     OW16607   8.299   6.791   0.525 -0.3748  0.2102 -0.5680
 2696SOL    HW116608   8.281   6.879   0.482 -0.5403  0.3372 -0.2398
 2696SOL    HW216609   8.398   6.774   0.526 -0.4665 -0.6232 -2.6501
 2697SOL     OW16610   4.721   1.245   1.442  0.1326 -0.3933 -0.1110
 2697SOL    HW116611   4.800   1.185   1.430  2.7525  3.1737 -1.7883
 2697SOL    HW216612   4.692   1.280   1.353 -0.4942  1.7485  0.8981
 2698SOL     OW16613   0.993   1.182   0.441  0.2950 -0.1432  0.0109
 2698SOL    HW116614   1.057   1.257   0.459 -0.1110  0.4804 -1.0419
 2698SOL    HW216615   1.014   1.141   0.352 -0.1550 -0.5627  0.0948
 2699SOL     OW16616   0.070   3.532   0.751  0.2703 -0.1316  0.3050
 2699SOL    HW116617   0.042   3.608   0.810 -0.9705  0.8506 -1.4820
 2699SOL    HW216618   0.135   3.566   0.683  0.5054 -0.9123  0.1386
 2701SOL     OW16619   3.520   1.280   0.209 -0.0293 -0.3150 -0.6192
 2701SOL    HW116620   3.447   1.319   0.266 -0.3693  1.4848 -2.2529
 2701SOL    HW216621   3.609   1.306   0.246 -0.2177 -1.3551  0.5863
 2702SOL     OW16622   2.304   6.496   1.147 -0.3206 -0.0378 -0.1493
 2702SOL    HW116623   2.316   6.472   1.243 -1.2989  0.4585  0.0964
 2702SOL    HW216624   2.340   6.422   1.090 -0.1417 -0.5308  0.5961
 2703SOL     OW16625   1.976   5.776   0.074 -0.4729  0.2635  0.1056
 2703SOL    HW116626   1.928   5.863   0.075 -0.1301  0.4649 -1.1689
 2703SOL    HW216627   2.074   5.791   0.085 -0.7009 -0.1848  3.3555
 2704SOL     OW16628   2.623   8.040   2.090  0.0993  0.4379 -0.8935
 2704SOL    HW116629   2.648   7.966   2.152  0.0645  1.2595  0.1123
 2704SOL    HW216630   2.701   8.101   2.077 -0.0685  0.5875 -1.2199
 2705SOL     OW16631   2.588   9.309   2.058  0.3539 -0.2713 -0.0030
 2705SOL    HW116632   2.609   9.334   1.963 -0.3542 -1.8143 -0.5862
 2705SOL    HW216633   2.491   9.290   2.066  0.3202  0.3762  1.1741
 2708SOL     OW16634   2.422   2.039   1.577  0.0962 -0.2392 -0.0064
 2708SOL    HW116635   2.489   2.031   1.650  1.3352  0.0428 -1.0877
 2708SOL    HW216636   2.460   2.094   1.503 -1.0657 -0.6756 -0.9508
 2709SOL     OW16637   3.515   5.617   0.632  0.1994  0.6207 -0.0508
 2709SOL    HW116638   3.501   5.716   0.642 -1.4755  0.2771  1.2413
 2709SOL    HW216639   3.452   5.568   0.692  1.7020 -1.2359  0.0685
 2710SOL     OW16640   8.139   0.296   0.266 -0.4426 -0.3934 -0.1047
 2710SOL    HW116641   8.212   0.344   0.313  0.9736  1.8661 -4.3547
 2710SOL    HW216642   8.072   0.362   0.232  0.5618 -1.4682 -4.4412
 2711SOL     OW16643   2.101   6.233   1.736 -0.6929 -0.1565  0.4095
 2711SOL    HW116644   2.121   6.324   1.701  1.4445 -1.1126 -0.9955
 2711SOL    HW216645   2.018   6.198   1.693 -0.9217  0.7082  0.1436
 2712SOL     OW16646   2.950   8.143   2.266 -0.2720  0.1525  0.0072
 2712SOL    HW116647   2.884   8.128   2.339  0.3261  0.9264  0.7276
 2712SOL    HW216648   2.994   8.232   2.279 -0.2453  0.3491 -1.3658
 2714SOL     OW16649   3.917   4.870   0.707 -0.5032 -0.0464  0.2579
 2714SOL    HW116650   3.964   4.845   0.622 -0.9016 -1.3862  0.4157
 2714SOL    HW216651   3.879   4.962   0.699  1.3346  0.6788 -0.2165
 2716SOL     OW16652   3.299   8.369   1.917 -0.1630  0.3521 -0.1032
 2716SOL    HW116653   3.393   8.336   1.910 -0.6006 -0.6437 -1.6016
 2716SOL    HW216654   3.236   8.292   1.904 -1.1914  1.4668 -1.8062
 2717SOL     OW16655   0.505   1.407   1.212  0.4796  0.9367  0.0226
 2717SOL    HW116656   0.490   1.484   1.273  0.8247  2.6309 -1.9791
 2717SOL    HW216657   0.438   1.411   1.137  1.1651 -0.1156 -0.6553
 2718SOL     OW16658   0.836   2.808   0.271  0.0165  0.0926  0.2531
 2718SOL    HW116659   0.765   2.738   0.262 -0.6831  0.8849 -0.5307
 2718SOL    HW216660   0.920   2.766   0.304 -0.2354 -1.2023 -0.7081
 2719SOL     OW16661   8.567   2.420   0.618 -0.2164  0.6072 -0.1822
 2719SOL    HW116662   8.526   2.339   0.659  0.0568  0.1422 -0.8060
 2719SOL    HW216663   8.657   2.396   0.581 -0.5005  0.9867 -1.1298
 2720SOL     OW16664   3.830   1.122   0.232 -0.1239 -0.1426  0.9303
 2720SOL    HW116665   3.919   1.150   0.197 -1.1567 -0.0010 -1.7037
 2720SOL    HW216666   3.760   1.136   0.161 -2.1531 -0.7489  2.7518
 2721SOL     OW16667   4.856   8.695   2.211 -0.2782  0.0556  0.4924
 2721SOL    HW116668   4.774   8.667   2.261 -0.6435 -0.4959 -0.3978
 2721SOL    HW216669   4.890   8.618   2.157 -0.2436  0.8237 -0.5898
 2723SOL     OW16670   3.772   0.430   0.925  0.2105  0.2070  0.8904
 2723SOL    HW116671   3.803   0.400   0.835  2.0879  1.9762  0.9271
 2723SOL    HW216672   3.681   0.471   0.917  0.9600  1.6493 -0.4520
 2724SOL     OW16673   9.509   2.043   1.617  0.4553 -0.2310  0.6860
 2724SOL    HW116674   9.552   2.128   1.586  0.2624 -0.3242  0.1608
 2724SOL    HW216675   9.482   2.052   1.713  0.7842  0.1637  0.7416
 2725SOL     OW16676   9.509   7.867   1.799 -0.6637 -0.2218 -0.0712
 2725SOL    HW116677   9.544   7.946   1.748 -2.4808 -0.0394 -1.0676
 2725SOL    HW216678   9.485   7.794   1.736 -0.3098 -1.0618  0.7544
 2726SOL     OW16679   2.373   1.144   0.883 -0.7683 -0.2175  0.0061
 2726SOL    HW116680   2.380   1.044   0.892 -1.2835 -0.2211  0.3370
 2726SOL    HW216681   2.460   1.185   0.910  0.1047 -0.6996 -1.9934
 2727SOL     OW16682   3.442   0.467   1.203  0.7243  0.1281  0.1634
 2727SOL    HW116683   3.406   0.481   1.295 -1.3303  1.3332 -0.8066
 2727SOL    HW216684   3.425   0.372   1.175 -0.4116  0.2931  0.2696
 2729SOL     OW16685   4.612   1.495   2.314  0.1530 -0.3389 -0.1519
 2729SOL    HW116686   4.579   1.589   2.322  1.0221 -0.0507  0.1188
 2729SOL    HW216687   4.567   1.450   2.237  0.2137  0.5088 -0.6867
 2730SOL     OW16688   4.215   0.996   0.885  0.3591  0.0558  0.1533
 2730SOL    HW116689   4.128   0.961   0.848  0.8319 -1.4629  0.4527
 2730SOL    HW216690   4.258   1.056   0.817 -0.2577 -0.2854 -0.5529
 2731SOL     OW16691   0.472   6.815   1.054 -0.3149 -0.1287 -0.0056
 2731SOL    HW116692   0.430   6.838   0.966 -0.8952 -3.2992 -0.6157
 2731SOL    HW216693   0.570   6.835   1.050 -0.3530 -0.1560 -1.3557
 2732SOL     OW16694   2.345   4.630   1.521  0.4143 -0.4789 -0.6759
 2732SOL    HW116695   2.415   4.657   1.587  0.4559  0.4895 -1.1096
 2732SOL    HW216696   2.256   4.625   1.566  0.5089 -0.2097 -0.4545
 2733SOL     OW16697   8.593   8.204   2.216 -0.4967 -0.0111  0.4670
 2733SOL    HW116698   8.567   8.109   2.199  1.3341 -0.4789  0.1716
 2733SOL    HW216699   8.527   8.265   2.173 -0.5156 -1.1681 -1.1835
 2734SOL     OW16700   4.067   3.289   1.236  0.0289 -0.2369  0.1101
 2734SOL    HW116701   4.022   3.205   1.208 -2.8243  1.1798  0.2322
 2734SOL    HW216702   4.051   3.360   1.168  1.1134  0.6378  0.7419
 2735SOL     OW16703   2.627   0.659   0.784  0.1914 -0.2970 -0.3796
 2735SOL    HW116704   2.578   0.648   0.697  0.3978 -0.4605 -0.4757
 2735SOL    HW216705   2.710   0.603   0.782 -0.0944 -0.7439  0.1381
 2738SOL     OW16706   8.805   5.195   0.252 -0.1431  0.4391  0.1462
 2738SOL    HW116707   8.743   5.209   0.174 -0.1276  0.5662  0.1577
 2738SOL    HW216708   8.775   5.115   0.305  0.2324 -0.0472 -0.3684
 2740SOL     OW16709   8.622   9.237   1.823  0.3515 -0.0856 -0.6184
 2740SOL    HW116710   8.702   9.253   1.764 -0.5328  0.0885 -1.8035
 2740SOL    HW216711   8.559   9.176   1.776  0.5607 -1.6030  1.0375
 2741SOL     OW16712   9.768   2.247   0.947  0.3113  0.1110  0.1692
 2741SOL    HW116713   9.789   2.335   0.904  0.8499  0.0779  0.3704
 2741SOL    HW216714   9.670   2.228   0.936  0.5415 -0.1888 -1.5931
 2742SOL     OW16715   3.467   6.049   0.455  0.1917 -0.0792  0.7631
 2742SOL    HW116716   3.380   6.060   0.407  0.3499  0.1696  0.5359
 2742SOL    HW216717   3.511   6.138   0.466  0.3640 -0.1906  0.9819
 2743SOL     OW16718   8.180   1.066   0.380 -0.2485 -0.2703  0.3799
 2743SOL    HW116719   8.210   0.978   0.345 -1.8921 -1.1005  1.0217
 2743SOL    HW216720   8.106   1.101   0.323  0.5573  0.8188 -0.0178
 2744SOL     OW16721   9.073   2.799   1.785  0.3074 -0.3522 -0.4166
 2744SOL    HW116722   9.044   2.875   1.727  0.9371 -0.0386 -0.3235
 2744SOL    HW216723   9.128   2.735   1.731 -0.6213 -0.9906 -0.6140
 2746SOL     OW16724   4.105   1.832   1.707  0.1653  0.5893 -0.0483
 2746SOL    HW116725   4.184   1.772   1.712 -0.3973 -0.0520  1.4621
 2746SOL    HW216726   4.135   1.926   1.690  1.2487  0.3714  0.6408
 2747SOL     OW16727   9.917   7.031   2.164  0.0433 -0.0598 -0.2805
 2747SOL    HW116728   9.934   6.942   2.122 -0.6022 -1.0759  1.5542
 2747SOL    HW216729   9.830   7.029   2.213  1.5295  0.5428  2.5086
 2748SOL     OW16730   2.467   0.194   0.303  0.5714 -0.6890 -0.3907
 2748SOL    HW116731   2.505   0.286   0.307  0.0666 -0.4706 -0.6698
 2748SOL    HW216732   2.517   0.140   0.235 -0.1553 -0.1591 -1.3383
 2749SOL     OW16733   2.275   9.447   1.050  0.4684  0.3200  0.1903
 2749SOL    HW116734   2.284   9.352   1.020 -1.2421 -0.3384  1.6557
 2749SOL    HW216735   2.315   9.455   1.142  0.0337  0.8667  0.3289
 2750SOL     OW16736   8.245   2.415   0.534 -0.0749 -0.2203  0.4742
 2750SOL    HW116737   8.208   2.434   0.443 -0.3045  2.4224  1.0614
 2750SOL    HW216738   8.194   2.340   0.576 -0.8428 -0.5727 -1.0548
 2751SOL     OW16739   1.904   9.611   0.251  0.2124  0.4483 -0.4105
 2751SOL    HW116740   1.882   9.534   0.192  1.3003 -0.1050 -0.0931
 2751SOL    HW216741   1.904   9.695   0.196 -0.9136  0.2371 -0.7659
 2753SOL     OW16742   8.956   8.140   0.579 -0.6917  0.4607  0.1115
 2753SOL    HW116743   9.053   8.153   0.559 -0.3120  0.3667  1.8019
 2753SOL    HW216744   8.945   8.057   0.633 -1.6563  0.7648  0.3853
 2754SOL     OW16745   4.477   3.032   1.184  0.0612  0.1380  0.1466
 2754SOL    HW116746   4.435   3.042   1.275  0.2501 -1.9868  0.4852
 2754SOL    HW216747   4.405   3.019   1.116  0.0658 -2.0608  0.5301
 2756SOL     OW16748   9.236   3.450   2.224  0.0818  0.3365 -0.4719
 2756SOL    HW116749   9.194   3.416   2.139  0.8129  2.7715 -1.8432
 2756SOL    HW216750   9.189   3.533   2.254  0.5247  0.0967  0.9395
 2758SOL     OW16751   4.732   4.182   0.221 -0.5989 -0.0897 -0.4127
 2758SOL    HW116752   4.802   4.190   0.149  0.4674 -0.8864  0.5296
 2758SOL    HW216753   4.713   4.273   0.259  0.8962 -0.0382  0.2353
 2759SOL     OW16754   1.179   5.748   0.420 -0.0926  0.1303  0.1366
 2759SOL    HW116755   1.126   5.733   0.504  1.7109 -0.0279  1.2834
 2759SOL    HW216756   1.188   5.662   0.370 -1.1607  0.2219 -0.2185
 2760SOL     OW16757   1.619   3.624   0.690  0.1397  0.6148  0.2215
 2760SOL    HW116758   1.600   3.690   0.617  0.4341  1.5070  0.9487
 2760SOL    HW216759   1.695   3.656   0.746  0.4784 -0.4881  0.4042
 2761SOL     OW16760   3.966   2.485   1.516 -0.5571 -0.3359  0.0513
 2761SOL    HW116761   3.969   2.434   1.602 -1.6845 -1.3729 -0.5081
 2761SOL    HW216762   3.885   2.543   1.514 -0.4331 -0.1691 -0.2373
 2764SOL     OW16763   0.288   9.470   2.253  0.6030  0.1877 -0.4902
 2764SOL    HW116764   0.333   9.398   2.305  0.7924 -0.2244 -1.2255
 2764SOL    HW216765   0.246   9.535   2.316  0.7734 -0.3470  0.1752
 2766SOL     OW16766   0.257   2.072   0.954  0.0060  0.2184 -0.0069
 2766SOL    HW116767   0.159   2.088   0.944  0.0130  0.6443  0.5564
 2766SOL    HW216768   0.285   1.998   0.894 -0.7930 -0.3891  0.3567
 2767SOL     OW16769   9.346   6.601   1.917  0.1080 -0.4979  0.1340
 2767SOL    HW116770   9.284   6.621   1.993 -0.8049  0.3649 -0.8156
 2767SOL    HW216771   9.389   6.686   1.887  0.6338 -0.8725 -0.1818
 2768SOL     OW16772   0.544   5.231   0.148  0.1389 -0.0250 -0.1896
 2768SOL    HW116773   0.621   5.179   0.185 -1.6817 -1.9629  1.0045
 2768SOL    HW216774   0.529   5.205   0.053  0.6175 -0.0556 -0.2589
 2769SOL     OW16775   1.131   9.868   0.573  0.1857  0.1849  0.2321
 2769SOL    HW116776   1.055   9.920   0.615 -0.1906 -0.6939  0.6517
 2769SOL    HW216777   1.105   9.772   0.567  0.5995  0.1630 -1.2154
 2770SOL     OW16778   4.204   1.223   0.352  0.2077 -0.3769 -0.0498
 2770SOL    HW116779   4.124   1.249   0.406  0.9053  0.1577  0.7423
 2770SOL    HW216780   4.188   1.243   0.256 -0.0401  1.1470  0.2969
 2772SOL     OW16781   2.327   7.219   1.705  0.6328 -0.0302  0.0242
 2772SOL    HW116782   2.325   7.123   1.677 -0.6553  0.9235 -3.3919
 2772SOL    HW216783   2.237   7.247   1.736  0.3074  0.7621 -1.5778
 2773SOL     OW16784   2.211   0.112   0.333 -0.3303  0.0862  0.1624
 2773SOL    HW116785   2.290   0.165   0.305 -1.2437  0.5973 -1.4960
 2773SOL    HW216786   2.174   0.150   0.418  1.6162 -0.6120  1.3415
 2774SOL     OW16787   8.949   7.534   0.297 -0.2030 -0.0405 -0.6454
 2774SOL    HW116788   8.863   7.543   0.247 -0.3591 -0.5327 -0.4776
 2774SOL    HW216789   8.981   7.624   0.326 -0.4291  0.1856 -1.0995
 2776SOL     OW16790   0.149   8.694   0.937  0.7070  0.2637  0.0415
 2776SOL    HW116791   0.153   8.793   0.922 -1.1308  0.3899  0.2363
 2776SOL    HW216792   0.054   8.666   0.952  1.4284 -1.2064  2.2080
 2778SOL     OW16793   2.192   7.763   0.515  0.3422  0.1746  0.3936
 2778SOL    HW116794   2.131   7.750   0.593  0.5097 -0.0213  0.4913
 2778SOL    HW216795   2.167   7.699   0.442  0.3238  0.2112  0.3680
 2779SOL     OW16796   2.581   8.795   1.439  0.6597 -0.3359  0.4699
 2779SOL    HW116797   2.617   8.785   1.532  0.8608  0.0959  0.4368
 2779SOL    HW216798   2.553   8.705   1.405  0.4433 -0.4713  1.0048
 2780SOL     OW16799   2.779   2.585   0.359  0.2611  0.2071 -1.0041
 2780SOL    HW116800   2.801   2.488   0.371 -1.2297 -0.1643 -1.1933
 2780SOL    HW216801   2.712   2.595   0.287  0.2316  1.3720 -0.8216
 2781SOL     OW16802   1.040   8.837   1.874 -0.3356 -0.2441 -0.6831
 2781SOL    HW116803   1.068   8.752   1.920 -0.5899  0.2273  0.3563
 2781SOL    HW216804   0.984   8.815   1.794 -0.9961 -1.0372 -0.0076
 2782SOL     OW16805   9.080   7.760   1.746  0.1672 -0.5457  0.0248
 2782SOL    HW116806   9.093   7.768   1.845 -1.4084  1.6010  0.0954
 2782SOL    HW216807   9.000   7.704   1.727 -0.6620  0.6393  0.0152
 2784SOL     OW16808   0.697   0.040   1.152  0.2061 -0.1628 -0.1005
 2784SOL    HW116809   0.767   0.108   1.135  0.5803 -0.1261  1.5685
 2784SOL    HW216810   0.739  -0.046   1.182 -0.4711 -0.0461  1.2135
 2785SOL     OW16811   0.582   2.417   0.449 -0.2618  0.2364  0.2796
 2785SOL    HW116812   0.501   2.362   0.471  1.5256 -1.8536  1.9912
 2785SOL    HW216813   0.605   2.476   0.527 -0.6446  1.4787 -0.5399
 2786SOL     OW16814   4.443   1.715   0.370 -0.6196  0.6134 -0.6838
 2786SOL    HW116815   4.371   1.760   0.423 -0.7855 -0.4474  0.0038
 2786SOL    HW216816   4.519   1.778   0.357 -0.9318  1.1594  0.1129
 2787SOL     OW16817   9.434   2.934   1.267  0.6443  0.7970  0.7056
 2787SOL    HW116818   9.401   2.916   1.360 -0.0336 -0.6794  0.1855
 2787SOL    HW216819   9.358   2.964   1.210  0.6386 -0.3434  0.0983
 2788SOL     OW16820   3.637   1.777   0.707  0.1497 -0.0658 -0.2118
 2788SOL    HW116821   3.700   1.699   0.704 -0.3501 -0.4114 -2.1236
 2788SOL    HW216822   3.689   1.860   0.728  1.0688 -0.5374 -0.5593
 2790SOL     OW16823   4.191   9.624   2.064 -0.3061  0.1053 -0.2389
 2790SOL    HW116824   4.129   9.700   2.045 -1.2316 -0.8481 -1.1313
 2790SOL    HW216825   4.164   9.579   2.149 -1.0891 -0.5379 -0.8173
 2791SOL     OW16826   1.318   6.034   0.094 -0.1376 -0.3349  0.2679
 2791SOL    HW116827   1.270   6.058   0.009 -0.4231  0.8712  0.7633
 2791SOL    HW216828   1.386   6.105   0.115  0.5160 -1.0557  0.6047
 2793SOL     OW16829   1.238   7.851   1.478  0.2688  0.4576 -0.3512
 2793SOL    HW116830   1.291   7.935   1.470  1.1922 -0.2925 -2.6377
 2793SOL    HW216831   1.177   7.842   1.400 -1.7515  0.2861  1.2220
 2794SOL     OW16832   9.172   5.714   1.565  0.2098 -0.3628  0.5336
 2794SOL    HW116833   9.144   5.622   1.592  1.5516 -1.3158 -1.2266
 2794SOL    HW216834   9.103   5.755   1.507 -1.1537  0.4171  2.6339
 2795SOL     OW16835   2.220   4.093   0.977 -0.3672  0.4039 -0.5667
 2795SOL    HW116836   2.150   4.106   1.047 -0.1496 -2.3170  0.2051
 2795SOL    HW216837   2.207   4.161   0.905 -0.7955  3.0567  1.9119
 2796SOL     OW16838   1.974   7.073   1.352  0.3263 -0.0928  0.4255
 2796SOL    HW116839   1.932   6.994   1.397 -2.7694  0.4556 -1.3965
 2796SOL    HW216840   1.991   7.052   1.256  0.1405  1.2075  0.1002
 2797SOL     OW16841   2.888   8.789   1.288 -0.1608 -0.0428 -0.1074
 2797SOL    HW116842   2.930   8.829   1.207 -0.6067 -0.8945 -0.7696
 2797SOL    HW216843   2.818   8.723   1.260  1.6725 -2.5055  0.9172
 2798SOL     OW16844   1.265   1.767   0.718  0.3221 -0.3142 -0.2068
 2798SOL    HW116845   1.259   1.801   0.812  0.6662 -2.5429  0.6517
 2798SOL    HW216846   1.313   1.834   0.661 -1.6670  1.9993  0.6971
 2799SOL     OW16847   9.691   8.522   1.812 -0.1903  0.2331  0.4697
 2799SOL    HW116848   9.627   8.544   1.739 -0.4431 -1.0166  0.2979
 2799SOL    HW216849   9.778   8.568   1.796 -0.6332  0.9208  0.0266
 2800SOL     OW16850   0.739   8.170   2.180  0.6789 -0.1815 -0.2065
 2800SOL    HW116851   0.658   8.225   2.200  1.1311  0.6952 -0.7055
 2800SOL    HW216852   0.813   8.231   2.149  1.1494 -1.0851 -0.8902
 2801SOL     OW16853   2.070   6.531   1.650 -0.0138 -0.4588 -0.5131
 2801SOL    HW116854   2.078   6.612   1.593  0.3542 -0.8774 -1.0530
 2801SOL    HW216855   1.974   6.517   1.675 -0.0738  0.1524 -0.4017
 2802SOL     OW16856   9.322   7.209   2.096  0.1105 -0.5827 -0.0212
 2802SOL    HW116857   9.289   7.259   2.176  2.6184 -0.2422  0.8671
 2802SOL    HW216858   9.286   7.116   2.097 -1.1683 -0.0930  0.6166
 2803SOL     OW16859   8.098   1.712   1.799  0.3370  0.2286  0.2169
 2803SOL    HW116860   8.039   1.650   1.747 -1.3808 -0.3235  2.7598
 2803SOL    HW216861   8.189   1.714   1.757 -0.7033 -0.9511 -2.2004
 2804SOL     OW16862   8.993   5.686   0.093  0.7086  0.5895 -0.4167
 2804SOL    HW116863   8.945   5.682   0.181  2.5309 -0.9100  0.5582
 2804SOL    HW216864   8.928   5.669   0.019 -0.9395  2.3462  0.5835
 2805SOL     OW16865   2.316   9.406   2.231  0.3460  0.1870  0.3032
 2805SOL    HW116866   2.371   9.477   2.185  2.0507 -0.6098  1.0640
 2805SOL    HW216867   2.354   9.388   2.321 -0.1927 -1.5666  0.1981
 2806SOL     OW16868   0.731   7.470   2.017  0.0506  0.0607  0.3986
 2806SOL    HW116869   0.824   7.467   2.053  0.8139  0.8486 -1.4899
 2806SOL    HW216870   0.703   7.565   2.005 -0.3717 -0.1860 -0.6137
 2807SOL     OW16871   0.543   0.497   2.218 -0.2062  0.1933 -0.0140
 2807SOL    HW116872   0.477   0.509   2.145  1.2824  1.4740 -1.1901
 2807SOL    HW216873   0.626   0.455   2.182 -0.3834 -1.4504  1.4482
 2808SOL     OW16874   9.326   8.302   1.348 -0.0505  0.0494  0.1914
 2808SOL    HW116875   9.227   8.301   1.366  0.0192 -1.0311  0.5752
 2808SOL    HW216876   9.360   8.396   1.351 -1.4337  0.6693 -2.0223
 2809SOL     OW16877   2.827   0.934   1.871 -0.0831 -0.2197  0.0511
 2809SOL    HW116878   2.808   0.925   1.773 -1.6305  0.7633  0.2303
 2809SOL    HW216879   2.900   1.002   1.885  0.1187 -0.3419 -0.4134
 2810SOL     OW16880   7.113   9.605   1.647 -0.1685 -0.1612 -0.1111
 2810SOL    HW116881   7.049   9.571   1.578  0.8332 -1.3375 -0.4850
 2810SOL    HW216882   7.129   9.534   1.716 -0.2119  0.5642  0.6544
 2811SOL     OW16883   0.735   4.623   1.278 -0.1500 -0.9743  0.3535
 2811SOL    HW116884   0.680   4.572   1.343 -0.7380 -0.3505  0.3445
 2811SOL    HW216885   0.696   4.714   1.264  1.4807 -0.1368  1.1623
 2812SOL     OW16886   4.218   2.178   0.590  0.2327  0.2232  0.2582
 2812SOL    HW116887   4.186   2.115   0.661  0.8091 -0.0927  0.2439
 2812SOL    HW216888   4.282   2.130   0.530  0.0104  0.5860 -0.2686
 2814SOL     OW16889   0.031   3.242   2.056 -0.2211 -0.5396 -0.0076
 2814SOL    HW116890  -0.066   3.258   2.036 -0.0340 -0.9149 -1.2024
 2814SOL    HW216891   0.038   3.191   2.142 -1.0446  0.2389  0.5352
 2815SOL     OW16892   2.626   0.099   0.091  0.5922 -0.2418 -0.1135
 2815SOL    HW116893   2.625   0.056   0.000 -3.6415  0.8266 -0.6591
 2815SOL    HW216894   2.687   0.178   0.089  1.9725 -1.2889 -1.4472
 2816SOL     OW16895   9.240   0.798   0.220 -0.1102 -1.1498  0.2419
 2816SOL    HW116896   9.297   0.721   0.191  0.0031 -1.0557  0.2124
 2816SOL    HW216897   9.218   0.787   0.317  1.3345 -0.3403  0.6817
 2817SOL     OW16898   3.100   5.997   1.806  0.2033 -0.7090 -0.0666
 2817SOL    HW116899   3.049   5.989   1.720 -1.6076 -0.2981  0.9507
 2817SOL    HW216900   3.042   6.039   1.876  1.2899 -2.0037  1.6685
 2818SOL     OW16901   4.663   3.095   0.602 -0.2498  0.6516 -0.0637
 2818SOL    HW116902   4.703   3.180   0.638  0.5357  0.4341 -0.3970
 2818SOL    HW216903   4.717   3.064   0.523 -1.2133  0.4560 -0.6515
 2820SOL     OW16904   0.377   5.242   1.913  0.5066  0.5698 -0.1127
 2820SOL    HW116905   0.337   5.249   2.004  0.5002  0.6052 -0.1182
 2820SOL    HW216906   0.473   5.270   1.917  1.6139 -3.0665  0.6449
 2821SOL     OW16907   8.187   8.582   1.550 -0.4120 -0.2128  0.3378
 2821SOL    HW116908   8.188   8.667   1.497 -0.8892 -0.0045  0.6613
 2821SOL    HW216909   8.269   8.578   1.608  1.0665 -1.2904 -1.7432
 2822SOL     OW16910   1.080   1.275   0.024  0.1009 -0.0729 -0.1355
 2822SOL    HW116911   1.173   1.245   0.002 -0.4487 -1.6684 -0.3074
 2822SOL    HW216912   1.085   1.359   0.078  1.7079 -1.2531  1.6041
 2823SOL     OW16913   2.876   1.971   0.842 -0.1221 -0.5629  0.2591
 2823SOL    HW116914   2.903   1.946   0.935  0.2264 -2.1761 -0.2750
 2823SOL    HW216915   2.785   1.934   0.823 -2.2123  3.6275  1.5460
 2824SOL     OW16916   2.606   5.647   0.814  0.3508 -0.5240 -0.0940
 2824SOL    HW116917   2.617   5.562   0.866 -0.3969 -0.0835  0.7983
 2824SOL    HW216918   2.672   5.649   0.739 -0.2983 -2.3472 -0.7407
 2825SOL     OW16919   8.152   0.019   1.883 -0.4776 -0.1154  0.3508
 2825SOL    HW116920   8.160   0.031   1.982  0.3026  0.6816  0.1918
 2825SOL    HW216921   8.055   0.023   1.857 -0.6338  0.3690  0.9899
 2826SOL     OW16922   4.323   4.800   0.526  0.2506 -0.1907 -0.2878
 2826SOL    HW116923   4.251   4.758   0.470  0.4013 -0.3774 -0.3436
 2826SOL    HW216924   4.300   4.895   0.545  0.2369 -0.1081 -0.7295
 2827SOL     OW16925   3.342   5.327   1.189  0.4912  0.1184  0.2022
 2827SOL    HW116926   3.257   5.277   1.171  1.6340 -1.8055 -0.0143
 2827SOL    HW216927   3.325   5.398   1.257 -1.1427 -0.6743  0.6474
 2828SOL     OW16928   4.816   8.923   0.545 -0.2947 -0.1586  0.5729
 2828SOL    HW116929   4.754   8.962   0.613 -0.3498  1.7533 -0.5237
 2828SOL    HW216930   4.778   8.838   0.509 -2.3327  1.0292 -0.1385
 2829SOL     OW16931   2.873   5.078   2.206 -0.8592 -0.1460 -0.0423
 2829SOL    HW116932   2.808   5.152   2.191 -0.3974  0.1925 -0.3771
 2829SOL    HW216933   2.876   5.020   2.125  0.0458  0.4497 -0.4347
 2830SOL     OW16934   3.444   4.952   1.364 -0.1799 -0.1523 -0.0154
 2830SOL    HW116935   3.346   4.937   1.355 -0.4284  0.4027  1.6773
 2830SOL    HW216936   3.476   5.008   1.287 -0.7075 -2.4489 -1.9482
 2831SOL     OW16937   2.833   4.225   1.834 -0.2443  0.2334  0.3450
 2831SOL    HW116938   2.783   4.256   1.753  0.7867 -0.2884 -0.4920
 2831SOL    HW216939   2.898   4.154   1.809  1.1945  1.1685  1.3622
 2832SOL     OW16940   9.665   7.142   0.519 -0.3260  0.8459 -0.3441
 2832SOL    HW116941   9.692   7.067   0.459 -0.2872 -1.2290  2.1830
 2832SOL    HW216942   9.644   7.223   0.464  1.2352 -0.5000 -3.0144
 2833SOL     OW16943   1.641   7.899   0.190  0.3010  0.2221 -0.4520
 2833SOL    HW116944   1.556   7.882   0.140  0.0805 -0.8216  0.2803
 2833SOL    HW216945   1.685   7.981   0.152 -0.1224 -0.2470 -2.0222
 2834SOL     OW16946   0.405   7.462   1.255 -0.4363 -0.4664 -0.4208
 2834SOL    HW116947   0.411   7.377   1.203 -0.6746 -0.4913 -0.4040
 2834SOL    HW216948   0.485   7.470   1.314 -0.1691 -0.4437 -0.7806
 2835SOL     OW16949   2.483   9.002   0.923 -0.1102 -0.1646 -0.2290
 2835SOL    HW116950   2.544   8.958   0.988 -1.2651  0.9626  1.6527
 2835SOL    HW216951   2.538   9.050   0.853  1.1290 -1.1467  0.0600
 2836SOL     OW16952   0.089   6.726   1.243  0.1677 -0.2528  0.1210
 2836SOL    HW116953   0.029   6.647   1.256 -1.1407  0.4740 -1.3667
 2836SOL    HW216954   0.049   6.807   1.287 -0.5488  0.5030 -1.8807
 2839SOL     OW16955   3.366   9.417   1.763  0.6092  0.4458 -0.7130
 2839SOL    HW116956   3.463   9.396   1.746  0.6568 -0.5028  0.6617
 2839SOL    HW216957   3.356   9.452   1.857 -0.2822  1.2757 -1.1101
 2841SOL     OW16958   3.742   0.903   2.248  0.0006  0.0954 -0.3229
 2841SOL    HW116959   3.748   0.823   2.188  1.9599 -0.0732  0.0763
 2841SOL    HW216960   3.799   0.976   2.212 -1.0947  1.0191 -0.2055
 2844SOL     OW16961   2.137   8.159   1.418  0.0040 -0.2208 -0.1510
 2844SOL    HW116962   2.050   8.198   1.449 -0.3317 -0.0585 -1.2728
 2844SOL    HW216963   2.121   8.101   1.338  0.7567 -1.2166  0.4028
 2846SOL     OW16964   9.130   2.089   0.440  0.3239 -0.3888  0.0659
 2846SOL    HW116965   9.173   2.171   0.479  1.0287  0.0439 -1.5776
 2846SOL    HW216966   9.199   2.018   0.428 -0.0532 -0.8087  0.3543
 2847SOL     OW16967   7.583   0.345   0.553 -0.2474 -0.0822  0.2576
 2847SOL    HW116968   7.543   0.430   0.587 -0.5931  0.3120 -1.1202
 2847SOL    HW216969   7.603   0.285   0.630 -0.9298  0.8413  1.1667
 2848SOL     OW16970   0.967   6.546   1.092 -0.1235  0.3105  0.3770
 2848SOL    HW116971   0.923   6.576   1.177 -1.5524 -2.0953  0.5256
 2848SOL    HW216972   0.900   6.543   1.019 -0.3810 -3.8520  0.7166
 2849SOL     OW16973   8.843   9.805   2.236 -0.2132 -0.4381 -0.1544
 2849SOL    HW116974   8.886   9.892   2.263  1.4348 -1.0705 -0.6360
 2849SOL    HW216975   8.763   9.824   2.179  0.6334  0.7588 -0.9850
 2850SOL     OW16976   8.224   9.245   1.646 -0.4774  0.1350 -0.1883
 2850SOL    HW116977   8.147   9.191   1.610  1.0544 -2.2171 -0.0479
 2850SOL    HW216978   8.266   9.296   1.572 -2.4567  1.8422 -0.1824
 2851SOL     OW16979   2.804   8.953   0.157 -0.2844  0.0739 -0.1860
 2851SOL    HW116980   2.866   9.001   0.096 -1.5364  3.0738  0.7932
 2851SOL    HW216981   2.856   8.907   0.229  0.9068  1.2204 -0.3061
 2852SOL     OW16982   2.305   6.657   0.501 -0.0805 -0.0407 -0.5269
 2852SOL    HW116983   2.208   6.655   0.478  0.1838  1.0790 -1.8080
 2852SOL    HW216984   2.316   6.688   0.596 -0.9422  0.6639 -0.6461
 2853SOL     OW16985   2.535   3.387   0.253 -0.0126  0.1598  0.0343
 2853SOL    HW116986   2.517   3.294   0.285  1.3789 -0.3654 -0.6812
 2853SOL    HW216987   2.451   3.426   0.217 -0.1193 -1.6428 -1.7426
 2855SOL     OW16988   9.305   0.359   0.944  0.1481 -0.0646 -0.6202
 2855SOL    HW116989   9.244   0.378   0.867 -1.7033  0.5159  0.9580
 2855SOL    HW216990   9.341   0.445   0.979 -1.6545 -0.0295  1.2410
 2856SOL     OW16991   9.294   7.883   0.227 -0.5320 -0.1024  0.1042
 2856SOL    HW116992   9.215   7.888   0.287  0.7122 -0.9904  1.8328
 2856SOL    HW216993   9.354   7.961   0.245 -2.0380  1.8295 -2.7557
 2857SOL     OW16994   0.023   6.940   1.612  0.1333  0.0152 -0.6944
 2857SOL    HW116995   0.096   6.894   1.662 -0.2671 -0.8137 -0.8594
 2857SOL    HW216996   0.053   6.959   1.519  0.1406 -0.3298 -0.7636
 2858SOL     OW16997   3.075   4.409   0.887 -1.0757  0.6677 -0.0181
 2858SOL    HW116998   3.016   4.371   0.959 -0.4469 -0.4425 -0.0736
 2858SOL    HW216999   3.132   4.482   0.925 -1.1541  0.4759  0.4726
 2860SOL     OW17000   4.110   4.489   0.693 -0.2844 -0.6472  0.2693
 2860SOL    HW117001   4.193   4.469   0.640  0.0075  0.2280  0.3820
 2860SOL    HW217002   4.132   4.557   0.763 -1.1850 -0.1446  0.0656
 2861SOL     OW17003   1.589   7.616   0.800  0.2583 -0.1757 -1.0716
 2861SOL    HW117004   1.525   7.640   0.726  0.1754 -3.7062 -2.2304
 2861SOL    HW217005   1.546   7.550   0.861  1.2549  0.7821  0.6966
 2862SOL     OW17006   2.221   2.241   1.654 -0.0064 -0.0806 -0.0152
 2862SOL    HW117007   2.299   2.182   1.633  0.7350 -0.0158  2.3997
 2862SOL    HW217008   2.143   2.215   1.597  0.7634 -2.3680 -0.0860
 2863SOL     OW17009   2.571   9.524   0.920  0.4680  0.4274 -0.0152
 2863SOL    HW117010   2.486   9.512   0.971  1.6793 -1.3967  1.6569
 2863SOL    HW217011   2.629   9.590   0.967  1.3088 -0.7671  0.6670
 2864SOL     OW17012   8.524   2.743   2.210 -0.3117 -0.2807  0.2631
 2864SOL    HW117013   8.450   2.680   2.186  0.7816 -0.5575 -2.5573
 2864SOL    HW217014   8.594   2.694   2.263 -0.1959 -1.0655 -0.6090
 2865SOL     OW17015   0.664   4.735   1.890  0.1732  0.7475  0.7300
 2865SOL    HW117016   0.599   4.808   1.911 -1.7827 -0.6801 -0.1682
 2865SOL    HW217017   0.670   4.672   1.967 -1.1227 -0.2477  0.0489
 2866SOL     OW17018   1.598   3.623   0.024 -0.2796  0.2822 -0.8275
 2866SOL    HW117019   1.604   3.637  -0.075  0.8036 -0.1414 -0.8308
 2866SOL    HW217020   1.688   3.599   0.059 -1.1213 -1.9483 -0.1037
 2867SOL     OW17021   2.103   0.745   2.211  0.4113  0.1336  0.4000
 2867SOL    HW117022   2.083   0.671   2.146 -0.3485  1.7739 -1.2784
 2867SOL    HW217023   2.034   0.746   2.283 -2.5762  2.3579 -2.3695
 2868SOL     OW17024   0.699   1.601   0.267 -0.3250  0.3312  0.0277
 2868SOL    HW117025   0.653   1.526   0.316  0.0596  0.1164  0.0686
 2868SOL    HW217026   0.661   1.609   0.175  0.5492 -0.8004 -0.4470
 2869SOL     OW17027   4.157   5.310   0.231 -0.0060  0.4800 -0.3358
 2869SOL    HW117028   4.220   5.233   0.225  0.5487  0.7835  1.3239
 2869SOL    HW217029   4.138   5.331   0.327 -2.1519  0.8013 -0.7904
 2870SOL     OW17030   2.023   2.018   0.829  0.2690  0.0572  0.1302
 2870SOL    HW117031   1.945   1.959   0.806  2.0237 -2.2797 -0.0397
 2870SOL    HW217032   2.043   2.009   0.927  0.8015  0.0573  0.0189
 2871SOL     OW17033   0.366   9.001   1.760 -0.1114 -1.0580 -0.2374
 2871SOL    HW117034   0.400   9.095   1.755  0.2819 -1.1893 -0.1081
 2871SOL    HW217035   0.337   8.982   1.854 -0.4012 -0.9968 -0.3137
 2873SOL     OW17036   9.506   2.105   0.735 -0.2393  0.1209  0.0202
 2873SOL    HW117037   9.518   2.012   0.769 -0.2725 -0.0042 -0.3083
 2873SOL    HW217038   9.532   2.109   0.638  0.7006  0.6718  0.2891
 2874SOL     OW17039   2.017   6.973   0.865  0.2006  0.4491 -0.5329
 2874SOL    HW117040   2.096   6.916   0.845  0.4476 -0.4058  2.6940
 2874SOL    HW217041   1.934   6.929   0.829  1.0312  0.8206 -2.9567
 2875SOL     OW17042   0.046   5.423   0.285  0.1632 -0.7697  0.2187
 2875SOL    HW117043   0.115   5.421   0.213 -0.4394 -0.8067 -0.3644
 2875SOL    HW217044   0.015   5.517   0.299  0.5178 -0.7155  0.6657
 2876SOL     OW17045   0.446   1.119   1.270  0.3118 -0.5004  0.3419
 2876SOL    HW117046   0.448   1.219   1.264  0.1224 -0.5218 -0.1285
 2876SOL    HW217047   0.351   1.089   1.276  0.3340 -0.6827 -0.1559
 2879SOL     OW17048   3.786   3.443   0.114  0.0899  0.2194  0.2341
 2879SOL    HW117049   3.810   3.346   0.116 -0.5157 -0.0057 -1.9133
 2879SOL    HW217050   3.868   3.499   0.124  0.8043 -0.5323 -1.3271
 2880SOL     OW17051   8.562   9.520   1.308  0.0792 -0.3740  0.0967
 2880SOL    HW117052   8.586   9.580   1.232  2.4926  1.7391  2.4157
 2880SOL    HW217053   8.641   9.462   1.331  0.2765  0.7989  2.5485
 2881SOL     OW17054   8.766   9.851   0.339 -0.0267  0.1249 -0.3462
 2881SOL    HW117055   8.855   9.807   0.331  0.1064  0.2016  0.7249
 2881SOL    HW217056   8.765   9.935   0.285  0.0098 -0.7108 -1.6792
 2882SOL     OW17057   2.564   9.657   0.509  0.2902 -0.0694 -0.7950
 2882SOL    HW117058   2.590   9.706   0.592 -0.6385  1.2274 -1.2737
 2882SOL    HW217059   2.611   9.568   0.507  0.6702  0.0897  0.8803
 2884SOL     OW17060   4.032   1.163   0.591  0.0470 -0.6174  0.1242
 2884SOL    HW117061   4.128   1.185   0.606 -0.5504 -0.5760  4.5977
 2884SOL    HW217062   4.010   1.077   0.638 -1.7810 -1.4571 -2.1637
 2885SOL     OW17063   8.043   0.041   0.779 -0.3806  0.4231 -0.0910
 2885SOL    HW117064   7.969  -0.012   0.819  0.1201 -0.3216 -0.1368
 2885SOL    HW217065   8.112  -0.021   0.741  0.5061  1.1004  0.3827
 2886SOL     OW17066   0.239   6.644   0.764 -0.5206  0.1021  0.9105
 2886SOL    HW117067   0.183   6.581   0.818 -2.4397  0.5747 -0.5251
 2886SOL    HW217068   0.324   6.597   0.738 -1.9890 -1.9944 -0.2893
 2887SOL     OW17069   8.735   9.502   0.959  0.2327  0.3920 -0.1184
 2887SOL    HW117070   8.767   9.482   1.051  1.3852  0.1423 -0.5574
 2887SOL    HW217071   8.722   9.601   0.949  0.7685  0.4891  0.1110
 2888SOL     OW17072   0.133   8.960   0.881 -0.6755 -0.5466 -0.1575
 2888SOL    HW117073   0.170   9.053   0.873  0.6193 -1.0932 -0.5853
 2888SOL    HW217074   0.074   8.941   0.803  0.3633 -0.6700 -0.9193
 2890SOL     OW17075   8.647   5.890   0.351  0.0282 -0.0854  0.0146
 2890SOL    HW117076   8.739   5.895   0.388 -0.1299  0.9793  0.2829
 2890SOL    HW217077   8.590   5.960   0.394 -0.4868  0.3218 -1.2984
 2891SOL     OW17078   1.254   4.722   2.175 -0.8696  0.0513  0.5731
 2891SOL    HW117079   1.157   4.734   2.195 -1.0268 -0.9901  0.4555
 2891SOL    HW217080   1.307   4.733   2.259 -1.1311  0.0577  0.7365
 2893SOL     OW17081   0.346   7.444   0.085 -0.0555 -0.1523  0.4966
 2893SOL    HW117082   0.394   7.531   0.096 -0.8040  0.1055  1.8286
 2893SOL    HW217083   0.342   7.420  -0.012  1.1952  0.6974  0.2258
 2894SOL     OW17084   2.085   7.342   1.757  0.1801 -0.1859  0.4338
 2894SOL    HW117085   2.054   7.361   1.664  1.2741 -0.2638  0.0475
 2894SOL    HW217086   2.077   7.424   1.813 -0.2622 -0.0792  0.2146
 2895SOL     OW17087   8.746   8.535   2.060 -0.2625  0.2615 -0.3027
 2895SOL    HW117088   8.652   8.563   2.041 -0.1846  0.5848 -0.2197
 2895SOL    HW217089   8.757   8.517   2.157 -1.1513 -3.2718 -0.7863
 2896SOL     OW17090   3.023   7.918   2.108  0.0909  0.0839 -0.6228
 2896SOL    HW117091   2.966   7.949   2.032 -0.8890 -0.5262 -0.1528
 2896SOL    HW217092   3.038   7.994   2.171 -1.4515 -0.1003  0.0045
 2897SOL     OW17093   9.081   7.875   0.395  0.2529 -0.7323  0.1163
 2897SOL    HW117094   8.982   7.875   0.413  0.0587 -0.4563 -0.9371
 2897SOL    HW217095   9.130   7.871   0.482 -0.6950 -2.6126  0.6160
 2898SOL     OW17096   2.091   4.713   2.259 -0.5415 -0.8549 -0.0994
 2898SOL    HW117097   2.156   4.713   2.183  0.4329  0.6363  0.7057
 2898SOL    HW217098   2.139   4.698   2.345 -1.1198  1.1092  0.5912
 2899SOL     OW17099   9.409   7.337   0.124  0.5948  0.1555  0.3562
 2899SOL    HW117100   9.325   7.389   0.136  0.1952 -0.1216 -1.1344
 2899SOL    HW217101   9.393   7.241   0.144  0.1376 -0.1646 -1.4190
 2901SOL     OW17102   9.652   3.598   0.282  0.4769 -0.3064  0.6375
 2901SOL    HW117103   9.749   3.580   0.302  0.9513 -0.6566 -1.8469
 2901SOL    HW217104   9.596   3.566   0.359  2.0815 -3.2553  0.6672
 2902SOL     OW17105   3.124   6.512   2.124 -0.2067 -0.2405  0.7351
 2902SOL    HW117106   3.047   6.518   2.189 -0.9996 -0.9443 -0.1241
 2902SOL    HW217107   3.188   6.587   2.142 -0.9188  0.1583  1.6884
 2903SOL     OW17108   9.929   4.448   1.068 -0.3177 -0.4102  0.6537
 2903SOL    HW117109   9.863   4.387   1.024 -0.5209  1.2680 -1.4501
 2903SOL    HW217110   9.906   4.543   1.047  2.8405  0.2207 -0.2501
 2904SOL     OW17111   8.694   1.102   0.819 -0.4970 -0.0867  0.0860
 2904SOL    HW117112   8.609   1.076   0.864  0.0540 -1.2036  0.5001
 2904SOL    HW217113   8.679   1.105   0.720 -1.1821  0.3571  0.2037
 2905SOL     OW17114   8.838   3.703   1.590  0.4242  0.6062 -0.0023
 2905SOL    HW117115   8.836   3.610   1.626 -1.1736  0.1312 -1.2925
 2905SOL    HW217116   8.896   3.760   1.648  1.0436 -1.0833  1.0518
 2906SOL     OW17117   4.302   3.108   1.411 -0.6438  0.4414 -0.2471
 2906SOL    HW117118   4.332   3.203   1.401 -1.0635  0.4502 -1.5422
 2906SOL    HW217119   4.202   3.105   1.418 -0.5436  0.1981  1.3328
 2908SOL     OW17120   8.770   0.832   2.224  0.1952 -0.2536 -0.4128
 2908SOL    HW117121   8.689   0.776   2.205 -0.5272  0.3881  0.7276
 2908SOL    HW217122   8.807   0.866   2.137  1.0892 -3.0647 -1.2049
 2909SOL     OW17123   8.943   1.589   2.292 -0.3450 -0.1283  0.3674
 2909SOL    HW117124   8.947   1.492   2.319 -0.8450 -0.1397  0.3959
 2909SOL    HW217125   8.988   1.644   2.362  1.3569 -0.4922 -0.4083
 2910SOL     OW17126   0.809   7.498   1.678 -0.4059 -0.4985 -0.2019
 2910SOL    HW117127   0.799   7.405   1.711 -1.2285 -0.8126 -1.3015
 2910SOL    HW217128   0.745   7.558   1.726 -0.1946 -0.5758  0.1800
 2911SOL     OW17129   2.575   7.638   2.068  0.8600 -0.4884  0.2483
 2911SOL    HW117130   2.637   7.705   2.110  0.4421 -1.1128  1.9162
 2911SOL    HW217131   2.625   7.554   2.048  0.5928 -0.9475  1.4793
 2912SOL     OW17132   9.789   2.103   0.203  0.7968 -0.6560  0.2447
 2912SOL    HW117133   9.835   2.085   0.116  0.9509 -0.2137  0.2276
 2912SOL    HW217134   9.691   2.089   0.193  0.7935 -0.4482 -0.0489
 2913SOL     OW17135   9.772   5.535   2.299 -0.1396 -0.2366 -0.3665
 2913SOL    HW117136   9.687   5.555   2.252 -0.3020 -0.3720 -0.1317
 2913SOL    HW217137   9.829   5.476   2.242  0.1964  0.6085 -0.9171
 2914SOL     OW17138   8.635   2.466   1.548 -0.3741 -0.0426 -0.6598
 2914SOL    HW117139   8.635   2.554   1.595 -0.9735 -1.2222  1.6031
 2914SOL    HW217140   8.701   2.404   1.591  0.3654 -0.5840 -2.5083
 2915SOL     OW17141   9.779   4.717   1.760  0.2026  0.1882  0.6981
 2915SOL    HW117142   9.779   4.762   1.850 -1.0659  1.7640 -0.0526
 2915SOL    HW217143   9.851   4.756   1.703 -0.2594  0.5757  0.3769
 2916SOL     OW17144   0.476   8.393   1.478 -0.4044  0.2109 -0.0170
 2916SOL    HW117145   0.399   8.354   1.529  0.0530 -1.8106 -0.8180
 2916SOL    HW217146   0.494   8.337   1.397  0.8199  1.6420 -0.7515
 2917SOL     OW17147   9.771   3.799   1.726  0.0349  0.4519 -0.0176
 2917SOL    HW117148   9.818   3.761   1.806 -1.1247  0.8922  0.8876
 2917SOL    HW217149   9.794   3.896   1.716 -0.7777  0.7072  0.5174
 2919SOL     OW17150   4.468   0.985   1.669  0.4640 -0.3894  0.0922
 2919SOL    HW117151   4.530   0.973   1.591  0.8149 -0.3930  0.3722
 2919SOL    HW217152   4.432   1.078   1.667  2.1845  0.3264  1.1618
 2920SOL     OW17153   4.640   8.926   1.875  0.1027  0.3995  0.0405
 2920SOL    HW117154   4.712   8.952   1.810  1.9579  0.1290  1.9128
 2920SOL    HW217155   4.662   8.964   1.965 -2.6562  1.1383  0.4346
 2921SOL     OW17156   7.757   9.195   1.491 -0.6958  0.4051  0.5054
 2921SOL    HW117157   7.702   9.145   1.424  0.7153  0.3992 -0.6895
 2921SOL    HW217158   7.701   9.264   1.536 -1.5949  0.6500 -0.9579
 2923SOL     OW17159   4.773   3.607   2.155 -0.0478 -0.3617 -0.4161
 2923SOL    HW117160   4.868   3.619   2.181 -0.1727 -1.2032  0.4464
 2923SOL    HW217161   4.714   3.618   2.235 -0.4307 -3.0101 -0.3041
 2925SOL     OW17162   9.815   7.467   0.240 -0.9635 -0.2685  0.1037
 2925SOL    HW117163   9.903   7.441   0.280 -0.9885  0.7812  0.8534
 2925SOL    HW217164   9.799   7.413   0.157 -1.0855 -2.8045  1.7008
 2926SOL     OW17165   1.271   2.034   1.552 -0.2526 -0.3137 -0.0524
 2926SOL    HW117166   1.347   1.973   1.528  0.3621  0.4395 -0.0127
 2926SOL    HW217167   1.243   2.085   1.471  1.6904  2.0851  0.7327
 2927SOL     OW17168   0.757   8.105   0.547 -0.2847 -0.0889 -0.0289
 2927SOL    HW117169   0.845   8.142   0.516  0.0226 -0.3705  0.5086
 2927SOL    HW217170   0.713   8.056   0.472  0.2982 -0.4710 -0.1246
 2928SOL     OW17171   8.563   8.321   1.920 -0.1330 -0.1331  0.1753
 2928SOL    HW117172   8.561   8.399   1.858 -0.0381 -1.2633 -1.2585
 2928SOL    HW217173   8.657   8.295   1.939 -0.1557  0.3748  1.0096
 2929SOL     OW17174   3.006   0.861   0.401  0.1104 -0.0317  0.0992
 2929SOL    HW117175   3.062   0.822   0.475 -1.4586  0.6502  1.6801
 2929SOL    HW217176   2.954   0.938   0.436 -3.0641 -1.6294 -0.9123
 2931SOL     OW17177   1.197   6.299   0.771 -0.4593  0.0106 -0.1874
 2931SOL    HW117178   1.188   6.303   0.870 -0.2459  0.1717 -0.1732
 2931SOL    HW217179   1.219   6.391   0.736 -3.5718  0.6309 -0.6877
 2932SOL     OW17180   3.804   9.240   1.159  0.3476  0.2128  0.4491
 2932SOL    HW117181   3.816   9.253   1.061 -2.5212  0.5885  0.0994
 2932SOL    HW217182   3.806   9.329   1.205 -1.3715  0.3411  0.3140
 2933SOL     OW17183   0.716   4.166   0.714 -0.5151 -0.8069  0.5802
 2933SOL    HW117184   0.717   4.244   0.652 -0.5420 -0.6661  0.7563
 2933SOL    HW217185   0.665   4.190   0.797  2.8250  0.3844  2.4058
 2934SOL     OW17186   2.295   3.144   0.213  0.5743 -0.1725  0.5663
 2934SOL    HW117187   2.387   3.108   0.230  0.8718 -0.3831 -1.4676
 2934SOL    HW217188   2.293   3.195   0.128 -2.0562 -3.5027 -1.5359
 2935SOL     OW17189   9.742   9.120   0.275 -0.9403  0.4053 -0.0849
 2935SOL    HW117190   9.819   9.112   0.211 -0.8230  0.0316  0.0982
 2935SOL    HW217191   9.771   9.173   0.355 -0.5484 -0.6420  0.4742
 2936SOL     OW17192   3.634   5.168   0.517  0.5754  0.1401 -0.2750
 2936SOL    HW117193   3.634   5.123   0.427 -2.2514 -0.6381  0.0800
 2936SOL    HW217194   3.653   5.265   0.505 -1.0955  0.3071 -1.9012
 2937SOL     OW17195   1.459   9.038   0.873 -0.4200 -0.0059  0.2972
 2937SOL    HW117196   1.460   8.991   0.785 -1.2092  1.1435 -0.3344
 2937SOL    HW217197   1.457   8.971   0.947  0.0369 -0.9711 -0.5624
 2938SOL     OW17198   8.806   3.441   1.669 -0.0260 -0.0583  0.0512
 2938SOL    HW117199   8.868   3.364   1.677  0.2709 -0.0677 -1.9421
 2938SOL    HW217200   8.711   3.409   1.677  0.1256 -0.5017  0.0857
 2941SOL     OW17201   9.034   0.339   1.512 -0.0327  0.5528 -0.2535
 2941SOL    HW117202   8.952   0.392   1.493 -0.0254  0.0088 -1.8913
 2941SOL    HW217203   9.102   0.356   1.440  0.8570  0.1233  0.4755
 2942SOL     OW17204   9.936   8.494   0.055 -0.1751  0.6488 -0.0117
 2942SOL    HW117205   9.991   8.516   0.136  0.6044  0.4117 -0.4777
 2942SOL    HW217206   9.995   8.490  -0.026 -1.0265  1.3467 -0.6720
 2945SOL     OW17207   9.912   0.459   2.307  0.2224  0.2831 -0.1731
 2945SOL    HW117208   9.972   0.399   2.255 -0.1516  0.6472 -1.0386
 2945SOL    HW217209   9.822   0.416   2.319  0.1087  0.4618 -0.3737
 2947SOL     OW17210   2.069   3.165   1.311 -0.0505 -0.4663 -0.0394
 2947SOL    HW117211   2.089   3.142   1.215  0.3563 -0.3460  0.0154
 2947SOL    HW217212   2.013   3.092   1.351 -0.4120 -0.4082 -0.4325
 2948SOL     OW17213   9.052   8.323   1.416  0.1212  0.2071  0.4662
 2948SOL    HW117214   9.017   8.317   1.322  2.2503 -0.8350 -0.2999
 2948SOL    HW217215   8.975   8.333   1.479 -1.2629  2.7719 -1.5006
 2949SOL     OW17216   8.917   2.622   0.670  0.1602 -0.1435  0.0382
 2949SOL    HW117217   8.849   2.690   0.643 -1.2116 -1.5951 -0.2351
 2949SOL    HW217218   8.911   2.543   0.609  1.0474 -0.9369  0.9724
 2950SOL     OW17219   9.737   6.278   1.195  0.7219 -0.3446 -0.0138
 2950SOL    HW117220   9.673   6.308   1.124  1.5475 -0.6756 -0.9129
 2950SOL    HW217221   9.728   6.179   1.208  0.1562 -0.1936  0.7710
 2951SOL     OW17222   3.468   2.283   1.516  0.2530 -0.1479 -0.3479
 2951SOL    HW117223   3.472   2.186   1.543  0.9270  0.2219  0.9387
 2951SOL    HW217224   3.543   2.303   1.453 -0.8202 -0.8270 -1.8403
 2952SOL     OW17225   9.437   1.945   1.347  0.2415 -0.1778  0.2095
 2952SOL    HW117226   9.364   2.003   1.312 -1.1627 -1.2354  1.3342
 2952SOL    HW217227   9.445   1.959   1.446 -0.1629 -1.9544  0.4958
 2954SOL     OW17228   3.627   3.942   2.187  0.0837  0.5825 -0.1166
 2954SOL    HW117229   3.661   3.858   2.144 -0.6676  1.1680 -1.9259
 2954SOL    HW217230   3.703   4.004   2.206  0.7859 -0.9288  2.2723
 2955SOL     OW17231   2.461   2.702   2.003  0.3033  0.4740  0.0236
 2955SOL    HW117232   2.558   2.679   1.992  0.2913  1.7077 -3.2251
 2955SOL    HW217233   2.451   2.775   2.070  1.6473  0.5526  0.1411
 2956SOL     OW17234   9.249   9.696   1.699  0.1062  0.3778 -0.1006
 2956SOL    HW117235   9.305   9.750   1.636  1.1200 -1.6559 -0.9738
 2956SOL    HW217236   9.307   9.635   1.752 -1.0517 -0.0948  0.6457
 2957SOL     OW17237   2.218   5.276   2.243  0.3987 -0.7993  0.9027
 2957SOL    HW117238   2.238   5.272   2.341  1.4619  0.9125  0.7774
 2957SOL    HW217239   2.140   5.337   2.227  0.3090 -0.9727  0.6782
 2958SOL     OW17240   9.117   2.021   0.979 -0.1574 -0.3399 -0.2411
 2958SOL    HW117241   9.175   1.946   1.013 -0.2664 -0.0765  0.5201
 2958SOL    HW217242   9.103   2.009   0.880  2.0939  0.1836 -0.6639
 2959SOL     OW17243   8.132   1.908   0.883 -0.2651  0.2121  0.0124
 2959SOL    HW117244   8.139   1.917   0.982  0.2798 -0.1622  0.0064
 2959SOL    HW217245   8.198   1.969   0.839 -0.0563 -0.1037 -0.1102
 2960SOL     OW17246   0.304   0.781   0.122 -0.1144 -0.0971 -0.1718
 2960SOL    HW117247   0.334   0.798   0.028 -0.8808 -0.6984 -0.5295
 2960SOL    HW217248   0.366   0.718   0.166  0.6695  0.7634 -0.0316
 2962SOL     OW17249   3.130   0.521   0.570  0.7472 -0.6573 -0.4869
 2962SOL    HW117250   3.141   0.620   0.571 -1.2921 -0.3907 -1.9318
 2962SOL    HW217251   3.056   0.496   0.508  0.6343 -3.0363  0.5540
 2963SOL     OW17252   4.261   4.014   0.562 -0.0726  0.3356  0.1957
 2963SOL    HW117253   4.285   4.058   0.648 -0.1108 -0.4453  0.6086
 2963SOL    HW217254   4.258   4.083   0.489  0.2759  0.9444  0.7509
 2964SOL     OW17255   5.086   3.896   1.494  0.3180  0.2741 -0.9879
 2964SOL    HW117256   5.071   3.817   1.434  0.9013  0.2293 -1.0805
 2964SOL    HW217257   5.174   3.886   1.541  0.5757  1.0519 -1.2933
 2965SOL     OW17258   3.924   3.539   1.148 -0.2765 -0.0120 -0.4057
 2965SOL    HW117259   3.983   3.611   1.112  1.3419 -1.9621 -1.7639
 2965SOL    HW217260   3.849   3.522   1.085 -0.8208  0.6529  0.0520
 2966SOL     OW17261   9.412   1.582   1.109  0.3286 -0.0194  0.2974
 2966SOL    HW117262   9.474   1.533   1.048  1.8871  1.2443  0.8328
 2966SOL    HW217263   9.337   1.521   1.135  1.1749 -1.4877 -0.5902
 2967SOL     OW17264   0.648   9.269   0.555  0.2808  0.0104  0.4793
 2967SOL    HW117265   0.556   9.288   0.522  0.2806 -1.2651 -0.2989
 2967SOL    HW217266   0.676   9.340   0.619 -1.7152 -0.2233  1.6659
 2968SOL     OW17267   3.165   5.282   0.494 -0.4861  0.0359 -0.5111
 2968SOL    HW117268   3.233   5.347   0.461 -2.5173  0.6787 -3.6593
 2968SOL    HW217269   3.104   5.328   0.559  0.3081  0.2314  0.1095
 2970SOL     OW17270   8.105   9.641   2.061 -0.4420  0.7357  0.0352
 2970SOL    HW117271   8.049   9.567   2.098  0.1617  0.3088  0.0974
 2970SOL    HW217272   8.200   9.612   2.058 -0.0625  1.8300  0.9363
 2971SOL     OW17273   1.531   6.233   0.157 -0.1474 -0.2103 -0.0243
 2971SOL    HW117274   1.593   6.310   0.170  1.3848 -1.5933  0.9644
 2971SOL    HW217275   1.575   6.162   0.102 -0.5708 -1.5171  1.2918
 2972SOL     OW17276   3.890   0.636   1.426  0.3092  0.8682 -0.2773
 2972SOL    HW117277   3.815   0.602   1.483  1.2819  1.2118  1.2223
 2972SOL    HW217278   3.872   0.612   1.330 -0.8104 -0.6494  0.2914
 2973SOL     OW17279   1.780   7.032   0.195  0.2883 -0.0974  0.2662
 2973SOL    HW117280   1.810   7.110   0.249 -1.0053 -0.1342  1.0656
 2973SOL    HW217281   1.771   6.952   0.255  3.1501 -1.3081 -0.8161
 2974SOL     OW17282   1.035   5.582   0.597  0.4077 -0.1379  0.3227
 2974SOL    HW117283   0.971   5.507   0.611 -0.1964  0.3497  0.1786
 2974SOL    HW217284   1.129   5.546   0.596  0.0566 -1.0405 -0.8995
 2975SOL     OW17285   4.022   1.039   1.565 -0.3534  0.0259 -0.5278
 2975SOL    HW117286   3.987   1.085   1.483  1.3960 -0.3833 -1.5225
 2975SOL    HW217287   4.014   0.940   1.553  0.1971 -0.0419 -0.3284
 2976SOL     OW17288   8.552   7.040   0.222  0.3434 -0.0502 -0.0096
 2976SOL    HW117289   8.557   7.137   0.246 -0.5204 -0.2917  1.1532
 2976SOL    HW217290   8.622   7.020   0.152  0.3060  1.4621 -0.5029
 2977SOL     OW17291   1.875   6.574   0.266  0.0138  0.2055 -0.2570
 2977SOL    HW117292   1.940   6.549   0.194  0.9823  0.9409  0.3415
 2977SOL    HW217293   1.822   6.493   0.292  0.6567 -0.4006 -0.7956
 2978SOL     OW17294   9.573   1.218   0.487  0.6485 -0.5065 -0.0766
 2978SOL    HW117295   9.637   1.275   0.538  0.5544 -1.2108  0.8265
 2978SOL    HW217296   9.525   1.274   0.420  1.1294  0.3149  0.2607
 2979SOL     OW17297   1.266   3.690   0.850 -0.4230  0.0500  0.6231
 2979SOL    HW117298   1.268   3.615   0.784 -3.0559  1.6800 -1.4238
 2979SOL    HW217299   1.172   3.725   0.857  0.7488  3.1128  1.5924
 2980SOL     OW17300   8.369   0.514   1.172  0.0116 -0.0407 -0.5632
 2980SOL    HW117301   8.420   0.505   1.087  2.0103 -0.7260  0.6871
 2980SOL    HW217302   8.384   0.606   1.210 -0.1941 -0.0225 -0.5264
 2981SOL     OW17303   1.665   5.379   0.188  0.0866 -0.7086  0.2302
 2981SOL    HW117304   1.583   5.429   0.217  0.0949 -1.4782  1.6380
 2981SOL    HW217305   1.704   5.331   0.266  3.1053  1.3325  0.0687
 2982SOL     OW17306   7.452   0.212   2.115  0.3235  0.7904 -0.4444
 2982SOL    HW117307   7.550   0.231   2.114  0.4822  0.0575  0.2970
 2982SOL    HW217308   7.429   0.153   2.037  0.7718 -0.4180  0.3253
 2983SOL     OW17309   2.127   8.780   0.689 -0.5372  0.6124 -0.3047
 2983SOL    HW117310   2.088   8.703   0.638 -0.4316  0.7285 -0.5643
 2983SOL    HW217311   2.199   8.746   0.749 -0.7063  0.4630 -0.1861
 2986SOL     OW17312   7.982   1.502   1.639 -0.1409  0.7276  0.0552
 2986SOL    HW117313   8.045   1.546   1.575  1.3281 -1.2027  0.1110
 2986SOL    HW217314   7.929   1.432   1.590  0.2423 -0.0326  0.7248
 2987SOL     OW17315   8.751   2.579   1.042 -0.1698  0.4632 -0.0810
 2987SOL    HW117316   8.690   2.577   1.121  0.1401 -0.2921  0.1351
 2987SOL    HW217317   8.696   2.571   0.958 -0.5324  1.6180  0.0278
 2988SOL     OW17318   4.085   1.450   0.707  0.1848 -0.2890 -0.1675
 2988SOL    HW117319   4.180   1.457   0.739 -0.2652 -1.5467  1.4944
 2988SOL    HW217320   4.074   1.365   0.656 -0.3600 -0.7981  0.7841
 2991SOL     OW17321   9.038   1.288   2.308  0.0895  0.1954 -0.1178
 2991SOL    HW117322   9.007   1.242   2.391 -1.4642  1.8884  0.2878
 2991SOL    HW217323   9.007   1.236   2.228  1.4765 -1.3651  0.3349
 2992SOL     OW17324   4.219   2.070   0.221  0.4232 -0.3926 -0.3336
 2992SOL    HW117325   4.316   2.092   0.205  0.3374 -1.0184 -1.8129
 2992SOL    HW217326   4.164   2.153   0.206  0.6191 -0.3187 -0.6643
 2994SOL     OW17327   4.790   2.998   0.904 -0.1664  0.4374 -1.2199
 2994SOL    HW117328   4.843   3.010   0.821  1.5858 -0.4821 -0.2643
 2994SOL    HW217329   4.791   2.901   0.930 -0.3828  0.7772  0.0725
 2995SOL     OW17330   1.835   6.160   0.821  0.1198 -0.0547  0.4459
 2995SOL    HW117331   1.760   6.172   0.756 -0.4682  0.1880  1.1603
 2995SOL    HW217332   1.842   6.064   0.846  2.4406 -0.7026 -2.4406
 2996SOL     OW17333   2.879   3.895   1.105 -0.4770 -0.1501  0.0473
 2996SOL    HW117334   2.971   3.856   1.111 -0.8045 -1.2680 -1.8352
 2996SOL    HW217335   2.878   3.985   1.150  1.7732  0.3013 -0.7190
 2997SOL     OW17336   7.927   8.249   0.871 -0.1749 -0.0383  0.6679
 2997SOL    HW117337   7.910   8.154   0.842 -0.2695 -0.0303  0.6977
 2997SOL    HW217338   7.932   8.252   0.971  0.4787 -0.1249  0.6403
 2998SOL     OW17339   0.337   6.954   1.253 -0.2672  0.2098  0.1882
 2998SOL    HW117340   0.432   6.947   1.284  0.0218  0.9445 -0.4984
 2998SOL    HW217341   0.325   6.899   1.171  0.1363  1.8067 -0.9800
 2999SOL     OW17342   1.927   7.267   0.793  0.0956  0.0127  0.1363
 2999SOL    HW117343   1.829   7.279   0.777  0.1563  1.8656  0.9229
 2999SOL    HW217344   1.941   7.202   0.867 -0.4733 -1.4991 -1.0636
 3000SOL     OW17345   3.057   2.780   0.630  0.0185  0.4591  0.2471
 3000SOL    HW117346   3.094   2.838   0.702 -0.6422  2.5609 -1.0555
 3000SOL    HW217347   2.985   2.721   0.668  0.0341  1.1790  1.4009
 3001SOL     OW17348   4.704   0.689   1.235  0.0112  0.2843 -0.3028
 3001SOL    HW117349   4.629   0.705   1.171 -0.6172  2.1759  0.8548
 3001SOL    HW217350   4.730   0.593   1.232 -0.2171  0.2630 -3.1314
 3002SOL     OW17351   1.207   9.358   1.099 -0.0279 -1.0127 -0.5513
 3002SOL    HW117352   1.164   9.292   1.161  0.0786 -2.4537 -1.9687
 3002SOL    HW217353   1.137   9.416   1.058 -0.2657 -1.1147 -0.2943
 3003SOL     OW17354   9.551   3.168   0.511 -0.5240  0.0774  0.3914
 3003SOL    HW117355   9.633   3.144   0.460 -0.2990 -1.4297  1.4519
 3003SOL    HW217356   9.478   3.103   0.489 -2.1609  2.7121 -2.2832
 3005SOL     OW17357   9.221   2.086   1.242 -0.0566  0.1759 -0.1879
 3005SOL    HW117358   9.167   2.070   1.159  0.7799  1.9866 -1.1102
 3005SOL    HW217359   9.174   2.045   1.320 -2.3038  0.9037 -1.1094
 3006SOL     OW17360   2.000   5.807   2.271  0.0253 -0.0815  0.0789
 3006SOL    HW117361   1.917   5.760   2.242 -0.5751  0.2521  1.2275
 3006SOL    HW217362   2.059   5.743   2.321 -0.8197  0.3653  1.6962
 3007SOL     OW17363   1.834   1.810   1.360 -0.0078 -0.2279 -0.0892
 3007SOL    HW117364   1.817   1.813   1.262  1.5011  0.6594 -0.3373
 3007SOL    HW217365   1.763   1.861   1.408 -0.0377  0.4219 -0.8172
 3008SOL     OW17366   1.423   7.105   1.414  0.1201  0.3200  0.0927
 3008SOL    HW117367   1.459   7.183   1.364  0.9782  0.3260  0.7144
 3008SOL    HW217368   1.419   7.127   1.512  0.5942 -0.5031  0.2990
 3009SOL     OW17369   3.869   4.783   1.510  0.2056 -0.1096 -0.1136
 3009SOL    HW117370   3.875   4.779   1.610 -0.2424 -0.3673 -0.0930
 3009SOL    HW217371   3.890   4.693   1.472 -1.6669 -0.5578 -0.1312
 3010SOL     OW17372   0.755   7.041   0.819 -0.1994  0.1630  0.5699
 3010SOL    HW117373   0.815   7.100   0.874 -0.1626 -0.5437  1.3061
 3010SOL    HW217374   0.719   6.968   0.877  0.5168 -1.0943 -0.5547
 3011SOL     OW17375   1.689   3.912   1.878  0.2841 -0.0298 -0.1632
 3011SOL    HW117376   1.746   3.846   1.927 -1.2641 -0.8070  0.6356
 3011SOL    HW217377   1.636   3.864   1.807  3.7161  1.3058 -3.8353
 3012SOL     OW17378   8.502   3.848   0.958 -0.5891  0.3087  0.1303
 3012SOL    HW117379   8.483   3.944   0.937  1.5597  1.0530  1.3852
 3012SOL    HW217380   8.564   3.811   0.888  0.3006  0.4835  0.8190
 3013SOL     OW17381   3.368   8.603   2.045  0.0212  0.0951 -0.0568
 3013SOL    HW117382   3.292   8.663   2.019 -0.3892 -0.9221 -1.2466
 3013SOL    HW217383   3.357   8.514   2.001  0.2145 -1.1321  2.2773
 3014SOL     OW17384   3.212   9.522   0.403 -0.1529 -0.7032 -0.2175
 3014SOL    HW117385   3.118   9.525   0.436  0.3800  0.2434  1.2571
 3014SOL    HW217386   3.271   9.484   0.474  0.7069 -0.4680 -0.8014
 3015SOL     OW17387   2.825   8.175   0.607  0.2859  0.7155  0.0454
 3015SOL    HW117388   2.843   8.078   0.624 -0.7515  0.1621 -1.8761
 3015SOL    HW217389   2.752   8.184   0.540  2.2420  2.7741 -1.9043
 3016SOL     OW17390   9.565   6.533   0.739  0.3650  0.0079  0.6119
 3016SOL    HW117391   9.599   6.526   0.645  1.3536 -0.2598  0.9821
 3016SOL    HW217392   9.539   6.627   0.759  0.1297  0.0609  0.0705
 3017SOL     OW17393   9.818   9.461   0.572 -0.7098 -0.1590 -0.2310
 3017SOL    HW117394   9.742   9.396   0.567 -0.9723 -0.1920  3.0994
 3017SOL    HW217395   9.782   9.554   0.563 -0.6288 -0.3168 -2.5131
 3018SOL     OW17396   1.172   1.431   1.185 -0.3721 -0.4981  0.2152
 3018SOL    HW117397   1.123   1.502   1.133  2.2803 -0.3858 -2.2320
 3018SOL    HW217398   1.171   1.455   1.282 -3.6439  0.3744  0.0426
 3019SOL     OW17399   3.047   5.419   0.688  0.1756  0.2510 -0.0167
 3019SOL    HW117400   3.013   5.511   0.669 -0.4780 -0.3422 -1.8367
 3019SOL    HW217401   3.129   5.425   0.745  0.1051  1.9468 -0.0673
 3020SOL     OW17402   0.675   2.056   0.842  0.4178  0.6760  0.0631
 3020SOL    HW117403   0.661   2.060   0.941  0.4743  1.4934  0.0475
 3020SOL    HW217404   0.771   2.074   0.821  0.4317  0.3760 -0.1334
 3021SOL     OW17405   7.917   9.439   1.136  0.6194  0.1807 -0.5115
 3021SOL    HW117406   7.963   9.449   1.225  1.3547  0.9949 -0.9796
 3021SOL    HW217407   7.866   9.353   1.135  2.4450 -0.9285 -0.1228
 3022SOL     OW17408   1.400   9.673   0.659 -0.1149 -0.3357  0.1105
 3022SOL    HW117409   1.429   9.752   0.714  1.0136 -0.2124 -0.6383
 3022SOL    HW217410   1.346   9.611   0.716  0.2102  0.2715  1.0960
 3023SOL     OW17411   3.995   4.697   0.069 -0.9066  0.4486  0.1346
 3023SOL    HW117412   3.956   4.721   0.157 -2.5292 -0.9105 -0.1991
 3023SOL    HW217413   4.011   4.781   0.016 -2.4284  1.0926  0.6686
 3024SOL     OW17414   1.890   5.087   1.538  0.0888  0.0584 -0.4075
 3024SOL    HW117415   1.806   5.057   1.582  0.0517 -1.5736 -1.5687
 3024SOL    HW217416   1.895   5.187   1.542 -1.4406  0.1220  0.4861
 3025SOL     OW17417   9.665   9.469   1.292  0.2895  0.0710  0.5385
 3025SOL    HW117418   9.601   9.477   1.369 -0.3483  1.1334 -0.0831
 3025SOL    HW217419   9.617   9.431   1.213 -0.1690  2.8373 -0.5763
 3026SOL     OW17420   2.759   9.938   1.195 -0.4636 -0.1009 -0.5148
 3026SOL    HW117421   2.696   9.966   1.267 -0.2922  0.1905 -0.4764
 3026SOL    HW217422   2.837  10.000   1.193 -0.4654 -0.1059 -0.9489
 3027SOL     OW17423   8.993   3.558   1.424  0.0822 -0.2051  0.7279
 3027SOL    HW117424   8.949   3.478   1.382  0.4511  0.5911 -1.2735
 3027SOL    HW217425   8.923   3.620   1.459 -0.4330  0.6046 -1.5995
 3029SOL     OW17426   4.828   2.130   0.756  0.3497  0.0801 -0.3137
 3029SOL    HW117427   4.770   2.205   0.787  0.5149  0.5976 -1.2173
 3029SOL    HW217428   4.908   2.122   0.815 -1.0850 -1.2567  1.5324
 3030SOL     OW17429   3.228   9.044   1.984  0.0781 -0.4357 -0.2319
 3030SOL    HW117430   3.134   9.022   1.958 -0.0248 -1.0133  0.6156
 3030SOL    HW217431   3.228   9.109   2.060  0.3806  1.0702 -1.4909
 3032SOL     OW17432   8.008   8.642   1.106 -0.2735 -0.2564  0.6513
 3032SOL    HW117433   8.000   8.544   1.124  0.8419 -0.7687 -1.5048
 3032SOL    HW217434   8.098   8.674   1.134 -0.2686 -0.0580  0.4155
 3033SOL     OW17435   1.338   0.316   0.447 -0.1470 -0.1968  0.3514
 3033SOL    HW117436   1.431   0.339   0.417 -0.9720  0.9232 -1.4130
 3033SOL    HW217437   1.299   0.249   0.383 -1.6012  1.5257 -0.5893
 3034SOL     OW17438   0.554   1.350   0.371  0.1198  0.0462  0.1862
 3034SOL    HW117439   0.513   1.319   0.285 -0.6286 -0.3464  0.6684
 3034SOL    HW217440   0.611   1.278   0.409 -0.5319 -0.2428  0.6275
 3035SOL     OW17441   8.249   7.146   1.738 -0.1597 -0.3530  0.0377
 3035SOL    HW117442   8.333   7.196   1.720  0.6612 -1.9753 -0.7072
 3035SOL    HW217443   8.193   7.197   1.803  0.2511  1.9474 -1.3811
 3036SOL     OW17444   9.856   9.935   1.302 -0.2931  0.0974 -0.5651
 3036SOL    HW117445   9.818  10.025   1.323 -0.0447 -0.0268  0.4689
 3036SOL    HW217446   9.927   9.945   1.232 -1.6294  0.4339 -1.8976
 3037SOL     OW17447   2.632   1.226   0.968 -0.3869 -0.2879 -0.0216
 3037SOL    HW117448   2.676   1.245   1.056 -1.1845  1.6498 -0.0078
 3037SOL    HW217449   2.700   1.231   0.895  0.0275 -0.5834  0.3409
 3038SOL     OW17450   8.575   2.671   0.505  0.4049  0.6681 -1.0459
 3038SOL    HW117451   8.558   2.588   0.558  2.1906  0.5686 -0.5796
 3038SOL    HW217452   8.516   2.744   0.538  1.8352  0.7615  1.4859
 3040SOL     OW17453   2.794   9.661   1.747  0.2166  0.0370  0.5118
 3040SOL    HW117454   2.748   9.750   1.752 -2.0520 -1.0406 -0.8041
 3040SOL    HW217455   2.886   9.674   1.709 -0.0676  1.8286  0.3844
 3041SOL     OW17456   2.991   7.593   1.627  0.1166 -0.1687  0.2634
 3041SOL    HW117457   2.969   7.585   1.725 -0.0016  0.2509  0.2727
 3041SOL    HW217458   2.983   7.689   1.599 -1.3846 -0.5087 -0.5174
 3042SOL     OW17459   1.721   8.438   1.044  0.3079  0.5045 -0.1621
 3042SOL    HW117460   1.763   8.363   0.994 -3.0700  0.0652 -2.5212
 3042SOL    HW217461   1.737   8.524   0.995 -0.9586  0.4175 -0.7545
 3043SOL     OW17462   0.425   2.339   1.162  0.0276 -0.1771 -0.4216
 3043SOL    HW117463   0.325   2.330   1.168  0.1251 -0.9035  0.1204
 3043SOL    HW217464   0.461   2.265   1.105  0.4752 -1.1623  1.1369
 3044SOL     OW17465   0.442   2.205   0.795  0.0271 -0.6189  0.1781
 3044SOL    HW117466   0.533   2.168   0.815  0.0346 -0.4236  0.5078
 3044SOL    HW217467   0.380   2.182   0.870 -0.1083 -0.4497  0.1177
 3045SOL     OW17468   1.907   2.146   1.193 -0.3912  0.4142  0.0885
 3045SOL    HW117469   1.824   2.091   1.191 -0.2767  0.2699 -0.7151
 3045SOL    HW217470   1.906   2.212   1.117  1.6019 -1.6175 -1.7736
 3047SOL     OW17471   0.754   5.092   0.203 -0.3658  0.2078 -0.1130
 3047SOL    HW117472   0.845   5.133   0.197  0.5975 -1.5533  1.8248
 3047SOL    HW217473   0.759   4.997   0.174 -1.6958  0.2529 -0.4830
 3048SOL     OW17474   4.357   4.391   0.940 -0.2153 -0.7549  0.0605
 3048SOL    HW117475   4.259   4.405   0.956 -0.5124 -1.0265 -1.4360
 3048SOL    HW217476   4.392   4.464   0.882  0.3778 -0.9101  0.2162
 3049SOL     OW17477   9.983   2.057   0.891 -0.6061  0.5464  0.3988
 3049SOL    HW117478   9.939   1.982   0.842  0.4267  0.5681 -0.5991
 3049SOL    HW217479   9.920   2.133   0.899 -0.9537  0.3631 -0.4932
 3050SOL     OW17480   1.336   1.619   0.380 -0.1194  0.1392  0.4045
 3050SOL    HW117481   1.274   1.665   0.443 -0.1445 -0.1939  0.6230
 3050SOL    HW217482   1.430   1.648   0.399 -0.1219  0.0017  0.6256
 3051SOL     OW17483   1.094   9.234   1.606  0.5908  0.4182  0.5796
 3051SOL    HW117484   1.022   9.234   1.536  0.8349  1.9215  0.2961
 3051SOL    HW217485   1.053   9.224   1.696  0.0089  1.3514  0.4249
 3052SOL     OW17486   0.714   5.817   2.158 -0.4726  0.0315 -0.6775
 3052SOL    HW117487   0.799   5.854   2.122 -1.9971  3.8355 -0.5210
 3052SOL    HW217488   0.639   5.834   2.094 -1.5173 -1.5704  0.0528
 3053SOL     OW17489   9.141   7.422   0.135  0.0524  0.0012 -0.2873
 3053SOL    HW117490   9.101   7.395   0.048  0.5490 -0.5495 -0.3439
 3053SOL    HW217491   9.068   7.442   0.200 -0.3314 -1.6172 -0.1959
 3055SOL     OW17492   8.883   4.604   1.398  0.3408 -0.8010  0.6793
 3055SOL    HW117493   8.891   4.507   1.421  1.3686 -0.5741  1.3161
 3055SOL    HW217494   8.961   4.654   1.438  0.2304  0.1570 -0.2946
 3056SOL     OW17495   2.760   1.214   1.189  0.0174  0.3278  0.4422
 3056SOL    HW117496   2.858   1.210   1.211 -0.0929  1.7060  1.2310
 3056SOL    HW217497   2.708   1.170   1.262 -0.0157  0.5976  0.5846
 3057SOL     OW17498   2.850   3.607   1.121  0.1031 -0.1606 -0.0534
 3057SOL    HW117499   2.911   3.614   1.200  0.2086  0.4992 -0.1956
 3057SOL    HW217500   2.843   3.695   1.075 -0.4989 -0.3743 -0.3847
 3059SOL     OW17501   2.050   7.175   0.564  0.3674 -0.5193 -0.4603
 3059SOL    HW117502   2.007   7.211   0.647  1.3079  0.1455 -0.2517
 3059SOL    HW217503   2.040   7.075   0.562 -0.0618 -0.4915  0.2246
 3060SOL     OW17504   4.137   4.985   0.868  0.2358  0.6417 -0.0457
 3060SOL    HW117505   4.043   4.997   0.836 -0.4064 -0.7647  1.3014
 3060SOL    HW217506   4.155   4.888   0.884  0.6635  1.2506  3.4381
 3061SOL     OW17507   1.590   7.689   1.768  0.1403  0.0607  0.3113
 3061SOL    HW117508   1.660   7.618   1.763 -0.2769 -0.3547  0.1943
 3061SOL    HW217509   1.569   7.708   1.863 -1.1385 -1.4015  0.3549
 3062SOL     OW17510   2.870   9.599   1.395  0.4200 -0.1825  0.2347
 3062SOL    HW117511   2.889   9.622   1.299  1.6535 -1.2251  0.2222
 3062SOL    HW217512   2.943   9.635   1.453 -0.8874  1.4045  0.9167
 3063SOL     OW17513   1.834   1.472   0.901 -0.4401  0.5633 -0.5054
 3063SOL    HW117514   1.860   1.392   0.954  1.8808  1.2617 -0.5274
 3063SOL    HW217515   1.745   1.457   0.859  0.1319 -2.1366 -0.8172
 3064SOL     OW17516   8.830   7.348   1.744 -0.0231  0.2430 -0.3883
 3064SOL    HW117517   8.909   7.288   1.735  0.6387  1.0028  0.2403
 3064SOL    HW217518   8.764   7.307   1.807  0.1372 -0.1150 -0.4540
 3065SOL     OW17519   3.256   9.406   1.392 -0.0163 -0.9106 -0.0388
 3065SOL    HW117520   3.222   9.484   1.339  0.4713  0.1829  1.2138
 3065SOL    HW217521   3.226   9.415   1.487  0.9459 -1.7003  0.3493
 3066SOL     OW17522   3.084   6.197   1.401 -0.8891  0.1610  0.0188
 3066SOL    HW117523   3.020   6.121   1.412 -1.4663  0.6363 -0.0758
 3066SOL    HW217524   3.124   6.219   1.490  0.5080 -1.3263 -0.2270
 3067SOL     OW17525   0.346   6.738   2.246 -0.2908 -0.0541 -0.2906
 3067SOL    HW117526   0.311   6.780   2.329 -1.9408  0.7486 -1.3665
 3067SOL    HW217527   0.426   6.790   2.213 -0.0487  0.0232  0.4200
 3069SOL     OW17528   1.273   0.029   1.352  0.4374 -0.0797  0.0443
 3069SOL    HW117529   1.303   0.095   1.421  0.6754 -0.1403  0.0001
 3069SOL    HW217530   1.350   0.006   1.293  0.4751 -0.7446  0.3436
 3070SOL     OW17531   8.489   9.074   1.653  0.0970  0.1702 -0.3499
 3070SOL    HW117532   8.483   8.978   1.625  1.2474  0.3129 -1.0975
 3070SOL    HW217533   8.413   9.125   1.613 -0.0804 -0.2726 -0.5851
 3071SOL     OW17534   2.319   6.037   0.891  0.2640 -0.5123 -0.1014
 3071SOL    HW117535   2.370   5.987   0.820  0.1944 -0.3179 -0.2887
 3071SOL    HW217536   2.260   6.105   0.847 -0.4068 -0.9630  0.0958
 3073SOL     OW17537   0.179   0.378   1.539  0.2900 -0.1229  0.1515
 3073SOL    HW117538   0.113   0.318   1.584  2.7341 -2.7610  0.4166
 3073SOL    HW217539   0.184   0.354   1.442 -0.3732  1.2232 -0.2158
 3074SOL     OW17540   9.143   4.877   0.051  0.3531  0.5656 -0.2574
 3074SOL    HW117541   9.138   4.882  -0.048  1.2701 -1.3558 -0.4303
 3074SOL    HW217542   9.057   4.843   0.088  0.5966 -0.3593 -0.5379
 3076SOL     OW17543   0.612   2.518   2.195  0.0759 -0.1617  0.2078
 3076SOL    HW117544   0.549   2.460   2.144  1.3991 -0.7485 -0.8029
 3076SOL    HW217545   0.700   2.471   2.203  0.9814  1.4541 -0.0853
 3078SOL     OW17546   9.806   3.685   0.940  0.1999  0.0474  0.4336
 3078SOL    HW117547   9.800   3.783   0.956 -0.4035 -0.0758  0.9780
 3078SOL    HW217548   9.868   3.644   1.007  0.1039 -0.0087  0.4878
 3079SOL     OW17549   0.331   3.189   2.286 -0.2578 -1.0098 -0.3650
 3079SOL    HW117550   0.392   3.118   2.323  0.1349 -0.0761  0.8244
 3079SOL    HW217551   0.240   3.151   2.273  0.2413 -2.0577 -0.8650
 3080SOL     OW17552   9.351   9.305   2.122  0.1117 -0.4539 -0.6931
 3080SOL    HW117553   9.361   9.282   2.025 -1.4329  0.3410 -1.0664
 3080SOL    HW217554   9.438   9.293   2.169  0.9600 -0.4895 -2.2560
 3082SOL     OW17555   2.471   8.571   1.019  0.4213  0.4391 -0.4725
 3082SOL    HW117556   2.435   8.641   0.958  0.1619  0.8119  0.1018
 3082SOL    HW217557   2.397   8.533   1.075  0.8248  0.8808  0.3812
 3083SOL     OW17558   9.815   4.544   2.102 -0.2640 -0.3119  0.6909
 3083SOL    HW117559   9.784   4.469   2.044  1.0981 -0.8620  0.6493
 3083SOL    HW217560   9.854   4.506   2.186  0.6118  0.3429  0.5806
 3084SOL     OW17561   4.317   2.317   2.211 -0.2333 -0.8693 -0.0426
 3084SOL    HW117562   4.240   2.272   2.166 -0.9969 -0.7323  1.1019
 3084SOL    HW217563   4.287   2.405   2.248 -0.2059 -1.9323  2.6127
 3085SOL     OW17564   9.879   1.515   0.486  0.0149  0.0186  0.6744
 3085SOL    HW117565   9.858   1.584   0.416 -0.2504 -1.6428 -0.9294
 3085SOL    HW217566   9.975   1.489   0.479  0.0158 -0.0667  1.0042
 3086SOL     OW17567   4.162   9.331   0.285  0.2551 -0.1409  0.2219
 3086SOL    HW117568   4.090   9.278   0.329  0.8756 -0.6682  0.6138
 3086SOL    HW217569   4.251   9.299   0.316  0.6794  0.1361 -0.6698
 3087SOL     OW17570   3.921   2.498   1.103  0.0268 -0.2395 -0.1633
 3087SOL    HW117571   3.959   2.503   1.011 -2.4851 -0.4342 -1.2441
 3087SOL    HW217572   3.995   2.486   1.169  1.7865 -1.0383 -2.2249
 3088SOL     OW17573   1.015   6.219   1.846 -0.5631 -0.4666 -0.1539
 3088SOL    HW117574   1.067   6.299   1.817 -1.5285  0.2659  0.1365
 3088SOL    HW217575   1.073   6.162   1.905  0.0577  0.1064 -0.1957
 3089SOL     OW17576   1.675   3.910   1.233 -0.2846  0.0415 -0.3560
 3089SOL    HW117577   1.616   3.872   1.305 -0.0577 -0.6776 -0.5518
 3089SOL    HW217578   1.659   3.862   1.147  1.3486 -0.8790 -0.1617
 3090SOL     OW17579   5.068   2.181   0.873  0.6158  0.2800  0.3555
 3090SOL    HW117580   5.165   2.176   0.849  1.2320  2.3022  2.2889
 3090SOL    HW217581   5.042   2.276   0.887 -1.0610 -0.4132  2.1353
 3091SOL     OW17582   4.071   0.518   2.026 -0.3134 -0.2693 -0.2735
 3091SOL    HW117583   4.144   0.538   1.961 -0.7837  0.5487 -0.5535
 3091SOL    HW217584   4.067   0.419   2.041  2.3890 -0.1693  1.5409
 3092SOL     OW17585   9.599   3.833   1.336 -0.5084 -0.5478 -0.3124
 3092SOL    HW117586   9.524   3.816   1.272 -0.9262  1.7385 -0.4797
 3092SOL    HW217587   9.562   3.862   1.424  0.1701  0.2515 -0.2877
 3093SOL     OW17588   1.750   9.954   0.993 -0.1336 -0.1098  0.1318
 3093SOL    HW117589   1.676   9.906   1.040  0.2990 -0.3190  0.5978
 3093SOL    HW217590   1.714  10.037   0.951 -0.3370  0.5453  1.5949
 3094SOL     OW17591   2.730   5.340   1.833  0.0175  0.8154 -0.4764
 3094SOL    HW117592   2.749   5.254   1.786 -3.1487 -0.4069  0.3241
 3094SOL    HW217593   2.725   5.324   1.931 -1.6597  1.6760 -0.3970
 3095SOL     OW17594   3.150   9.871   2.084  0.0902 -0.1103 -0.2567
 3095SOL    HW117595   3.190   9.959   2.110  0.2861 -0.0217 -0.8623
 3095SOL    HW217596   3.135   9.869   1.986 -0.9127 -0.3438 -0.1026
 3096SOL     OW17597   0.624   8.084   0.034 -0.5301  0.5104  0.0830
 3096SOL    HW117598   0.660   8.171   0.000 -0.2044  0.8403  1.2482
 3096SOL    HW217599   0.533   8.098   0.072 -0.6142  0.2802 -0.0346
 3097SOL     OW17600   8.276   2.768   1.390 -0.1692  0.0719 -1.3443
 3097SOL    HW117601   8.185   2.733   1.411  0.4129 -0.9179 -0.4445
 3097SOL    HW217602   8.276   2.808   1.298 -1.6329  0.5427 -1.1541
 3098SOL     OW17603   9.774   6.404   1.940  0.4626 -0.3370  0.4840
 3098SOL    HW117604   9.812   6.471   1.878 -1.4259  1.3274  1.0709
 3098SOL    HW217605   9.798   6.428   2.034  2.1934 -2.1085  0.5387
 3099SOL     OW17606   9.021   3.919   2.004 -0.3996  0.7202 -0.1410
 3099SOL    HW117607   9.083   3.995   1.985 -0.8688  0.9729 -0.6756
 3099SOL    HW217608   8.950   3.949   2.068 -0.3747  0.6292 -0.0712
 3101SOL     OW17609   0.653   2.369   1.650 -0.5649 -0.3412 -0.1363
 3101SOL    HW117610   0.566   2.370   1.601 -0.0930  0.7156 -0.9572
 3101SOL    HW217611   0.689   2.276   1.653 -2.5071 -1.0713  1.6166
 3103SOL     OW17612   8.289   6.143   0.499  0.1081 -0.2234 -0.1436
 3103SOL    HW117613   8.246   6.186   0.420  0.6279  2.1069  0.7784
 3103SOL    HW217614   8.254   6.185   0.583  1.2379 -1.0611  0.7772
 3104SOL     OW17615   8.755   7.873   1.348 -0.2104 -0.3311 -0.0229
 3104SOL    HW117616   8.680   7.938   1.337 -0.2379 -0.2407  0.6796
 3104SOL    HW217617   8.808   7.897   1.429 -0.6904 -1.6441  0.6863
 3105SOL     OW17618   8.836   2.694   1.881 -0.7293 -0.6881  0.0144
 3105SOL    HW117619   8.927   2.730   1.859 -0.3001 -0.9376  1.3478
 3105SOL    HW217620   8.769   2.733   1.818 -0.0141  1.1300  0.3349
 3106SOL     OW17621   8.834   8.974   0.021 -0.4759  0.0433  0.0027
 3106SOL    HW117622   8.792   8.893  -0.019 -2.3286  0.9588  0.0366
 3106SOL    HW217623   8.906   9.007  -0.040 -1.3239 -0.2578 -1.1907
 3107SOL     OW17624   9.747   2.695   1.686 -0.1747 -0.1969 -0.7106
 3107SOL    HW117625   9.808   2.667   1.611  0.2701 -1.9633  0.2999
 3107SOL    HW217626   9.653   2.700   1.652  0.1965  0.2963 -1.6998
 3108SOL     OW17627   9.377   6.295   1.371 -0.2198  0.6513 -0.0347
 3108SOL    HW117628   9.407   6.389   1.353  0.3613  0.2510 -1.1981
 3108SOL    HW217629   9.320   6.264   1.295 -0.1180 -0.0604  0.1806
 3109SOL     OW17630   3.165   8.087   0.863 -0.1478 -0.4235  0.0251
 3109SOL    HW117631   3.195   8.041   0.780  1.1430  0.7240 -0.1597
 3109SOL    HW217632   3.245   8.116   0.916 -0.9530 -0.2790  1.1886
 3110SOL     OW17633   4.141   2.663   1.590  0.4708  0.3878  0.7230
 3110SOL    HW117634   4.076   2.596   1.554  0.5401  0.7824 -0.1586
 3110SOL    HW217635   4.098   2.714   1.665 -0.4300  0.9798 -0.1709
 3111SOL     OW17636   0.293   3.315   1.466 -0.1429  0.4142  0.0378
 3111SOL    HW117637   0.366   3.307   1.399 -0.7844  2.2800 -0.9140
 3111SOL    HW217638   0.303   3.243   1.535  1.2065 -0.7955 -1.3821
 3112SOL     OW17639   9.569   4.250   2.032 -0.4373  0.1257 -0.5524
 3112SOL    HW117640   9.527   4.339   2.012  1.7374  1.6211  1.3887
 3112SOL    HW217641   9.537   4.217   2.121  0.0183 -0.2938 -0.5441
 3113SOL     OW17642   9.910   0.157   0.303 -0.8960 -0.8801 -0.2418
 3113SOL    HW117643   9.906   0.168   0.204 -0.2348  0.3107 -0.1411
 3113SOL    HW217644   9.881   0.242   0.348  3.0841  0.1808  0.5472
 3114SOL     OW17645   2.332   5.199   0.458 -0.7482  0.4347  0.3156
 3114SOL    HW117646   2.405   5.186   0.525 -0.6931  1.2789  0.4275
 3114SOL    HW217647   2.266   5.265   0.493 -1.5184 -0.2516  0.1705
 3115SOL     OW17648   1.610   0.475   0.363 -0.4620  0.5363  0.2729
 3115SOL    HW117649   1.681   0.414   0.399  1.0681  2.1168  0.0325
 3115SOL    HW217650   1.601   0.460   0.264 -1.9698 -1.1337  0.6438
 3116SOL     OW17651   2.588   8.854   0.014 -0.1846 -0.4402  0.0261
 3116SOL    HW117652   2.653   8.907   0.069 -0.2100 -0.1547 -0.2167
 3116SOL    HW217653   2.495   8.889   0.029 -0.0777  0.3410 -0.9919
 3117SOL     OW17654   7.600   8.969   2.000  0.4176  0.2628  0.4703
 3117SOL    HW117655   7.627   9.031   1.926  1.1673  1.1582  1.4774
 3117SOL    HW217656   7.599   9.019   2.087 -0.5573 -0.7550  1.0573
 3119SOL     OW17657   2.137   5.893   1.064 -0.2678  0.4453 -0.3163
 3119SOL    HW117658   2.186   5.950   0.998 -0.1192  1.1926  0.4408
 3119SOL    HW217659   2.067   5.948   1.109 -0.1014  0.0321  0.4386
 3120SOL     OW17660   3.302   4.381   1.240  0.0217 -0.2866 -0.5586
 3120SOL    HW117661   3.367   4.452   1.211  3.1079 -2.6364  0.3835
 3120SOL    HW217662   3.294   4.383   1.340  0.8108 -1.8134 -0.4580
 3121SOL     OW17663   9.193   5.375   0.543  0.5314  0.3500 -0.4206
 3121SOL    HW117664   9.231   5.452   0.593  1.3204 -1.9575  2.7104
 3121SOL    HW217665   9.266   5.329   0.492 -0.2614  2.6667 -3.8091
 3122SOL     OW17666   8.950   6.926   0.959 -0.1971  0.1454  0.4301
 3122SOL    HW117667   8.895   6.843   0.969 -1.7728  1.1068 -0.0062
 3122SOL    HW217668   8.971   6.965   1.049 -1.6654  0.6754  0.5536
 3123SOL     OW17669   0.719   4.364   1.638  0.6962 -0.0152  0.2952
 3123SOL    HW117670   0.774   4.371   1.722  1.0179  1.0498  0.0011
 3123SOL    HW217671   0.777   4.333   1.563  0.4640 -0.7331  0.4161
 3124SOL     OW17672   3.641   3.632   0.774  0.1246 -0.1117  0.4042
 3124SOL    HW117673   3.583   3.658   0.696  0.7263  0.5436  0.1641
 3124SOL    HW217674   3.705   3.706   0.793  1.9600 -1.4725 -0.3555
 3125SOL     OW17675   8.893   9.386   0.763  0.2800  0.0816 -0.2862
 3125SOL    HW117676   8.864   9.402   0.857  0.9013 -0.0058 -0.0790
 3125SOL    HW217677   8.821   9.337   0.713  0.2329 -0.4779  0.3317
 3127SOL     OW17678   3.881   3.557   2.028  0.6213 -0.6221  0.5771
 3127SOL    HW117679   3.884   3.460   2.053  0.9085 -0.5659  0.7598
 3127SOL    HW217680   3.968   3.600   2.051 -0.3876  0.2631  2.8640
 3128SOL     OW17681   1.496   0.641   0.769  0.3585  0.1623 -0.0759
 3128SOL    HW117682   1.401   0.641   0.736 -0.6169 -0.1595  2.6336
 3128SOL    HW217683   1.517   0.731   0.808  0.9026 -0.0160  0.0367
 3129SOL     OW17684   1.828   2.192   0.585 -0.6617 -0.9481 -0.5142
 3129SOL    HW117685   1.912   2.241   0.610 -0.4980 -2.0866  1.2741
 3129SOL    HW217686   1.751   2.230   0.636 -1.0537 -0.6058 -1.3560
 3130SOL     OW17687   8.882   4.278   2.291 -0.2150  0.3653 -0.0275
 3130SOL    HW117688   8.898   4.211   2.363 -2.3989 -0.2315 -0.0385
 3130SOL    HW217689   8.832   4.356   2.329  0.9572  1.2831 -0.3451
 3131SOL     OW17690   1.192   8.615   1.924  0.1905  0.0190 -0.0556
 3131SOL    HW117691   1.238   8.526   1.924  0.7920  0.3170 -1.5230
 3131SOL    HW217692   1.237   8.676   1.859 -1.6386  0.6523 -0.7553
 3134SOL     OW17693   0.217   9.647   1.893 -0.4742 -0.2230  0.7739
 3134SOL    HW117694   0.228   9.555   1.932 -1.8974 -0.9093 -0.4005
 3134SOL    HW217695   0.306   9.693   1.894  0.4427 -1.9116  0.6293
 3135SOL     OW17696   9.157   4.275   0.605 -0.0496  0.4838  0.5148
 3135SOL    HW117697   9.194   4.193   0.649 -0.2010 -0.8777 -1.8163
 3135SOL    HW217698   9.154   4.262   0.506 -1.8818  2.5879  0.2364
 3138SOL     OW17699   9.525   2.057   0.177 -0.2218  0.3315  0.2994
 3138SOL    HW117700   9.450   2.009   0.131  0.0251  1.2232 -1.0578
 3138SOL    HW217701   9.516   2.155   0.163  1.0795  0.4642  0.3232
 3139SOL     OW17702   8.545   7.409   0.034 -0.6929 -0.0710  0.4383
 3139SOL    HW117703   8.454   7.374   0.056 -1.1842  1.6248  1.2047
 3139SOL    HW217704   8.542   7.456  -0.055 -1.2317  2.3828  1.7284
 3140SOL     OW17705   0.493   9.268   0.937 -0.4331  0.1973  0.2044
 3140SOL    HW117706   0.408   9.252   0.887  0.0429 -1.4423 -0.1231
 3140SOL    HW217707   0.558   9.195   0.916  1.5881  2.1867 -0.6898
 3142SOL     OW17708   1.455   9.286   0.993  0.1291 -0.5920 -0.2191
 3142SOL    HW117709   1.451   9.190   0.965 -0.1953 -0.3959 -0.8415
 3142SOL    HW217710   1.364   9.316   1.024  0.0117 -0.2115 -0.9276
 3143SOL     OW17711   2.898   2.511   1.750  0.3143  0.1167 -0.4821
 3143SOL    HW117712   2.932   2.521   1.656 -2.8301 -2.0115 -1.9301
 3143SOL    HW217713   2.935   2.427   1.790 -0.8341 -0.6460 -0.9937
 3144SOL     OW17714   3.858   0.554   1.851  0.6752 -0.0304 -0.3573
 3144SOL    HW117715   3.918   0.530   1.927 -0.1258 -0.3667  0.1679
 3144SOL    HW217716   3.862   0.483   1.781  0.6718 -0.1846 -0.1991
 3146SOL     OW17717   3.835   4.821   1.104 -0.0839 -0.0068  0.0952
 3146SOL    HW117718   3.922   4.777   1.121  0.6444  1.0249 -0.8695
 3146SOL    HW217719   3.839   4.916   1.135 -0.8432  0.0548  0.0214
 3149SOL     OW17720   2.115   6.372   0.483 -0.7997  0.3673 -0.1024
 3149SOL    HW117721   2.196   6.393   0.538  0.7074  0.4106 -2.2678
 3149SOL    HW217722   2.040   6.433   0.508 -0.0513  0.5996  1.6420
 3150SOL     OW17723   0.563   7.384   2.239  0.3194  0.0786 -0.4644
 3150SOL    HW117724   0.630   7.417   2.173 -1.2300  1.7475 -1.2652
 3150SOL    HW217725   0.521   7.463   2.285 -0.2645 -0.9821  0.8434
 3154SOL     OW17726   4.854   9.103   0.312 -0.0927 -0.3323 -0.3369
 3154SOL    HW117727   4.872   9.035   0.383  0.5653 -1.1534 -1.2742
 3154SOL    HW217728   4.758   9.128   0.314 -0.9838 -3.3816 -1.7790
 3155SOL     OW17729   2.795   0.315   0.678 -0.7766  0.3167  0.0796
 3155SOL    HW117730   2.832   0.240   0.733 -0.5987  0.5549  0.2852
 3155SOL    HW217731   2.804   0.401   0.729  0.8196  0.7841 -0.9401
 3156SOL     OW17732   0.469   1.220   0.143 -0.3585  0.1895  0.4216
 3156SOL    HW117733   0.522   1.178   0.069  0.6071  2.6602 -0.3306
 3156SOL    HW217734   0.381   1.251   0.107 -0.5622 -0.0669  0.6959
 3157SOL     OW17735   3.575   1.775   1.052  0.3156  0.9098  0.1487
 3157SOL    HW117736   3.575   1.862   1.002 -0.5050  1.4362  1.0288
 3157SOL    HW217737   3.628   1.786   1.136 -0.3447  0.7568  0.5853
 3159SOL     OW17738   4.516   8.983   0.557  0.0646 -0.1243  0.2614
 3159SOL    HW117739   4.422   9.006   0.534  0.0181 -0.9009 -0.3268
 3159SOL    HW217740   4.518   8.923   0.637  0.0001 -1.1403 -0.5039
 3160SOL     OW17741   1.877   2.816   0.783  0.4277 -0.5592  0.1888
 3160SOL    HW117742   1.976   2.799   0.778  0.5019 -0.9872  2.6836
 3160SOL    HW217743   1.833   2.745   0.837 -1.3552 -0.6582 -1.3315
 3161SOL     OW17744   0.843   6.733   1.256  0.6145  0.3506  0.0871
 3161SOL    HW117745   0.788   6.662   1.300  0.0550  0.2281 -0.8033
 3161SOL    HW217746   0.885   6.790   1.326  1.8580 -1.4369  0.8389
 3162SOL     OW17747   2.340   3.386   1.841 -0.3542  0.5740 -0.0416
 3162SOL    HW117748   2.423   3.441   1.845 -0.3344  0.5071  0.5853
 3162SOL    HW217749   2.301   3.377   1.933  0.1229 -1.1792  0.0211
 3163SOL     OW17750   8.175   9.784   0.804 -0.3206 -0.3017 -0.1673
 3163SOL    HW117751   8.152   9.706   0.746  1.6668  0.5692 -2.2118
 3163SOL    HW217752   8.274   9.787   0.819 -0.7274 -0.1145  2.7646
 3165SOL     OW17753   2.607   6.526   1.114  0.3352  0.1658 -0.1034
 3165SOL    HW117754   2.629   6.608   1.168 -0.9660 -0.4327  1.3917
 3165SOL    HW217755   2.510   6.505   1.125  0.8846 -2.2073  0.4320
 3166SOL     OW17756   8.815   6.301   0.259 -0.3597  0.2124 -0.1609
 3166SOL    HW117757   8.753   6.315   0.337  0.5922  0.2536  0.5945
 3166SOL    HW217758   8.841   6.390   0.222 -1.0098  0.1865 -0.6892
 3167SOL     OW17759   2.875   3.107   1.467 -0.5151 -0.0829  0.6346
 3167SOL    HW117760   2.941   3.076   1.400 -0.8086  2.6029 -0.9445
 3167SOL    HW217761   2.786   3.065   1.449 -0.4606  0.2269 -0.3485
 3168SOL     OW17762   4.312   0.077   2.024 -0.2829  0.1265 -0.3705
 3168SOL    HW117763   4.347  -0.016   2.030  1.7975  0.6859 -3.0687
 3168SOL    HW217764   4.357   0.135   2.092 -1.9482 -0.8925  1.6599
 3169SOL     OW17765   3.895   3.070   1.157 -0.3145 -0.0075  0.7891
 3169SOL    HW117766   3.934   2.987   1.118  2.2300  2.3987 -2.0695
 3169SOL    HW217767   3.798   3.075   1.133 -0.0777 -1.2899 -0.5131
 3170SOL     OW17768   4.562   2.821   1.578 -0.8307  0.4806  0.2872
 3170SOL    HW117769   4.572   2.724   1.601  0.0558  0.6915  0.8158
 3170SOL    HW217770   4.590   2.836   1.483  0.3556  0.4431  0.6254
 3171SOL     OW17771   9.747   2.145   1.186 -0.5463 -0.0865 -0.5464
 3171SOL    HW117772   9.731   2.197   1.102 -0.4168  1.1011  0.1584
 3171SOL    HW217773   9.821   2.080   1.172 -1.3163 -0.7303 -1.7101
 3172SOL     OW17774   7.863   2.660   1.945 -0.7057  0.4087 -0.6767
 3172SOL    HW117775   7.779   2.714   1.944  0.1093  1.7143 -0.1278
 3172SOL    HW217776   7.929   2.702   2.007  0.5291 -0.3199 -1.4738
 3173SOL     OW17777   2.803   4.447   2.004  0.5159 -0.1368  0.2085
 3173SOL    HW117778   2.822   4.369   1.944  1.4024 -0.2602  0.6456
 3173SOL    HW217779   2.784   4.415   2.097 -0.5745  0.0757  0.0730
 3174SOL     OW17780   4.106   1.244   0.093 -0.3511 -0.4808 -0.6556
 3174SOL    HW117781   4.144   1.218   0.004  0.0034  0.4589 -0.7865
 3174SOL    HW217782   4.079   1.340   0.091 -1.8701 -0.8851 -0.2529
 3175SOL     OW17783   9.574   4.736   1.095 -0.1680  0.1515  0.3969
 3175SOL    HW117784   9.618   4.825   1.096 -0.3338  0.2396 -0.5452
 3175SOL    HW217785   9.583   4.694   1.186  3.4478 -0.6123 -0.2639
 3176SOL     OW17786   9.859   5.171   1.549 -0.2382 -0.8186  0.0634
 3176SOL    HW117787   9.794   5.163   1.474  0.3872  0.1939 -0.6143
 3176SOL    HW217788   9.817   5.221   1.625 -0.6532 -1.2425  0.1067
 3177SOL     OW17789   8.475   8.389   0.211  0.1938  0.4490 -0.3909
 3177SOL    HW117790   8.382   8.368   0.182  0.4184 -0.9635 -0.1145
 3177SOL    HW217791   8.531   8.307   0.206  0.9602  0.8452  1.2620
 3178SOL     OW17792   8.196   0.845   0.633  0.1045  0.0086  0.2472
 3178SOL    HW117793   8.174   0.940   0.654 -0.5019  0.1130 -0.8132
 3178SOL    HW217794   8.119   0.803   0.586  1.4267 -0.1849 -1.8198
 3179SOL     OW17795   0.295   0.303   2.131 -0.1605  0.0293  0.1306
 3179SOL    HW117796   0.361   0.235   2.163  1.2011  0.4960 -1.5893
 3179SOL    HW217797   0.204   0.262   2.128  0.4414 -1.3579  0.2767
 3182SOL     OW17798   9.584   1.290   2.079  0.2334 -0.7168 -0.1843
 3182SOL    HW117799   9.629   1.285   1.990 -0.6275 -1.9566 -0.5548
 3182SOL    HW217800   9.492   1.253   2.072 -1.4643  3.1219  0.2107
 3183SOL     OW17801   1.318   2.660   0.075  0.2497  0.3621  0.2709
 3183SOL    HW117802   1.226   2.624   0.092  0.6324 -1.1447 -0.7660
 3183SOL    HW217803   1.326   2.751   0.116 -1.6666  0.4669  0.4597
 3184SOL     OW17804   2.392   0.091   1.824  0.6939 -0.3734 -0.2403
 3184SOL    HW117805   2.373   0.103   1.727 -0.2981  1.0211  0.1103
 3184SOL    HW217806   2.315   0.046   1.868  0.1842  0.9769  0.2926
 3186SOL     OW17807   1.887   8.062   0.363  0.4244  0.0269 -0.0401
 3186SOL    HW117808   1.875   8.149   0.315 -1.9310 -0.6776 -0.7884
 3186SOL    HW217809   1.798   8.027   0.392  1.4801 -1.4099  1.5836
 3188SOL     OW17810   0.124   0.092   1.837  0.6237 -0.3342  0.1886
 3188SOL    HW117811   0.211   0.059   1.873 -0.0523 -0.7301  1.4809
 3188SOL    HW217812   0.065   0.120   1.913 -0.3859 -0.0951 -0.6748
 3189SOL     OW17813   3.001   6.451   0.785 -0.0430 -0.0267 -0.7657
 3189SOL    HW117814   3.003   6.508   0.703 -0.2815 -0.5495 -1.1389
 3189SOL    HW217815   2.907   6.436   0.813 -0.0924 -1.8200 -1.7936
 3190SOL     OW17816   9.245   5.909   1.759  0.1748 -0.1883  0.0377
 3190SOL    HW117817   9.338   5.900   1.794  1.1424  0.0260 -2.3533
 3190SOL    HW217818   9.227   5.835   1.694 -0.7183  0.7401 -0.7832
 3191SOL     OW17819   4.486   4.192   2.067  0.1272  0.3606 -0.3361
 3191SOL    HW117820   4.540   4.109   2.055  1.1588  1.0897 -0.7495
 3191SOL    HW217821   4.388   4.169   2.060  0.3049 -1.2013  1.8956
 3193SOL     OW17822   1.538   2.607   2.290 -0.0578  0.6008 -0.2347
 3193SOL    HW117823   1.516   2.566   2.202  2.2715  0.6597 -0.8674
 3193SOL    HW217824   1.461   2.664   2.321 -1.0083  0.3318 -2.0641
 3194SOL     OW17825   9.549   0.704   1.508 -0.1992 -0.1963  0.0553
 3194SOL    HW117826   9.605   0.653   1.574 -0.1125  2.8675  2.4354
 3194SOL    HW217827   9.452   0.690   1.529 -0.1816  0.3338  0.4875
 3195SOL     OW17828   0.619   2.831   1.050  0.2442  0.5076 -0.1501
 3195SOL    HW117829   0.716   2.812   1.062  0.1669  0.1461 -0.0943
 3195SOL    HW217830   0.567   2.788   1.124  0.0561  0.8184 -0.1021
 3196SOL     OW17831   3.694   4.637   0.421  0.3907  0.3396 -0.2696
 3196SOL    HW117832   3.752   4.583   0.483  1.2790  0.8041 -0.6796
 3196SOL    HW217833   3.647   4.708   0.473 -1.6831 -1.5371  0.4665
 3197SOL     OW17834   2.596   3.245   1.709  0.6207  0.1824  0.1282
 3197SOL    HW117835   2.605   3.343   1.693 -0.0886  0.4672  1.3912
 3197SOL    HW217836   2.582   3.198   1.622 -2.8326  1.6060 -0.1372
 3199SOL     OW17837   2.155   8.994   0.505  0.0319  0.0841 -0.0337
 3199SOL    HW117838   2.083   9.032   0.448 -0.0885  1.0370  0.7340
 3199SOL    HW217839   2.118   8.971   0.595  0.2878 -1.1236 -0.2244
 3200SOL     OW17840   1.172   5.445   0.259  0.6987  0.2776  0.5028
 3200SOL    HW117841   1.123   5.446   0.171  0.5898 -1.0568  0.5399
 3200SOL    HW217842   1.271   5.448   0.242  0.6792 -0.0262  0.3353
 3204SOL     OW17843   1.368   6.426   1.354 -0.0261 -0.2096  0.0704
 3204SOL    HW117844   1.412   6.499   1.301 -1.4408  0.3964 -0.2959
 3204SOL    HW217845   1.277   6.456   1.383  0.7751 -0.4578  3.0251
 3205SOL     OW17846   0.010   1.975   0.461  0.6315  0.1699  0.1634
 3205SOL    HW117847   0.086   2.003   0.402  0.9324 -3.7227 -1.4450
 3205SOL    HW217848  -0.076   1.991   0.413  0.7747 -0.8965 -0.4803
 3206SOL     OW17849   9.996   6.235   2.064 -0.5279 -0.4480  0.6322
 3206SOL    HW117850   9.934   6.286   2.005 -0.2816 -0.6728  0.1842
 3206SOL    HW217851  10.088   6.234   2.024 -0.1894  0.0136  1.3642
 3207SOL     OW17852   0.243   8.123   1.432  0.1812 -0.8720 -0.3359
 3207SOL    HW117853   0.303   8.044   1.422  0.0716 -1.0144  0.1436
 3207SOL    HW217854   0.256   8.164   1.522 -0.4897 -0.9390 -0.2049
 3208SOL     OW17855   1.486   0.439   1.122 -0.0047 -0.3781 -0.0000
 3208SOL    HW117856   1.510   0.346   1.148 -2.0199 -0.6986  0.7344
 3208SOL    HW217857   1.395   0.462   1.157  1.7316  2.9970  2.6628
 3209SOL     OW17858   4.529   3.891   0.589 -0.1174  0.2368  0.1078
 3209SOL    HW117859   4.602   3.957   0.607  0.8672 -0.8402  0.1570
 3209SOL    HW217860   4.440   3.936   0.597  0.5328  1.5272  0.2195
 3210SOL     OW17861   2.246   2.034   0.443 -0.0783 -0.0397  0.0264
 3210SOL    HW117862   2.303   2.098   0.496  2.3319 -1.1846 -1.1163
 3210SOL    HW217863   2.261   2.049   0.346 -1.4070 -0.6913 -0.2904
 3211SOL     OW17864   0.620   0.490   0.427 -0.3063  0.2775 -0.4561
 3211SOL    HW117865   0.582   0.544   0.503  0.1410 -0.5134  0.3359
 3211SOL    HW217866   0.586   0.526   0.340 -0.2482  1.6540  0.0823
 3212SOL     OW17867   0.346   4.919   1.585  0.5320 -0.5312  1.0287
 3212SOL    HW117868   0.310   4.826   1.583 -1.1897  0.0553  2.6383
 3212SOL    HW217869   0.270   4.984   1.596  1.7440  1.0249  0.4206
 3214SOL     OW17870   2.947   9.701   1.155 -0.2934 -0.0584 -0.4057
 3214SOL    HW117871   2.956   9.799   1.171 -1.1993  0.0471 -0.5099
 3214SOL    HW217872   2.906   9.685   1.065 -1.1905 -0.4939  0.0646
 3215SOL     OW17873   2.554   6.242   1.267  0.2322  0.2142  0.1307
 3215SOL    HW117874   2.626   6.184   1.305  1.1907  0.7400 -0.8781
 3215SOL    HW217875   2.476   6.186   1.241  0.8090 -0.5151 -0.0241
 3216SOL     OW17876   0.307   4.119   1.445 -0.3590  0.5819 -0.2349
 3216SOL    HW117877   0.348   4.157   1.527  0.0586  1.0826 -0.6780
 3216SOL    HW217878   0.216   4.082   1.467 -0.2392  0.6937  0.4484
 3219SOL     OW17879   7.927   1.467   0.716  0.0236 -0.2794 -0.2628
 3219SOL    HW117880   7.971   1.555   0.695  0.0451  0.0561  1.1627
 3219SOL    HW217881   7.922   1.412   0.632  0.1462  1.0163 -1.1381
 3221SOL     OW17882   3.400   0.960   0.210 -0.1771  0.1045 -0.2614
 3221SOL    HW117883   3.358   1.018   0.140 -0.3052  0.3582  0.0299
 3221SOL    HW217884   3.365   0.866   0.200  0.7810 -0.1509 -1.3651
 3223SOL     OW17885   4.512   8.680   1.819  0.5995  0.1359 -0.4973
 3223SOL    HW117886   4.535   8.641   1.730  0.0211  1.0389 -1.0366
 3223SOL    HW217887   4.556   8.769   1.830  0.3573  0.2021 -0.0268
 3224SOL     OW17888   0.979   8.174   0.061 -0.6992 -0.0619  0.1398
 3224SOL    HW117889   0.888   8.210   0.037 -0.4666 -0.5260 -1.4950
 3224SOL    HW217890   1.046   8.208  -0.005  0.5752  1.3762  2.1171
 3225SOL     OW17891  10.002   7.987   0.297 -0.3925  0.3894 -0.0904
 3225SOL    HW117892   9.966   8.079   0.311  0.5585  0.4250  2.4073
 3225SOL    HW217893   9.927   7.925   0.273 -1.3188  1.4384  0.0482
 3226SOL     OW17894   3.856   0.328   1.359 -1.1204  0.5311 -0.6625
 3226SOL    HW117895   3.763   0.294   1.350 -0.8837  0.1770 -1.9018
 3226SOL    HW217896   3.920   0.265   1.315 -0.3500  0.9968 -0.2295
 3228SOL     OW17897   8.702   9.857   1.332  0.0617 -0.5670  0.5110
 3228SOL    HW117898   8.765   9.863   1.410  0.8960  0.3154 -0.2104
 3228SOL    HW217899   8.715   9.770   1.285  1.9017  0.2649 -0.5783
 3229SOL     OW17900   9.038   5.502   2.277  0.2515 -0.0699 -0.1555
 3229SOL    HW117901   9.103   5.541   2.211  0.9358 -0.5650  0.2124
 3229SOL    HW217902   9.055   5.541   2.367 -0.6831  0.6056 -0.2705
 3230SOL     OW17903   3.584   4.780   0.633  0.4810 -0.1133 -0.3880
 3230SOL    HW117904   3.507   4.744   0.686  1.2877 -2.6621 -0.8838
 3230SOL    HW217905   3.646   4.831   0.694  0.3418 -1.2677  0.7240
 3232SOL     OW17906   1.426   7.207   1.684 -0.5680  0.1270 -0.5241
 3232SOL    HW117907   1.471   7.219   1.773 -0.4796 -1.4424 -0.3530
 3232SOL    HW217908   1.373   7.289   1.663  0.7173  1.1808  0.2149
 3233SOL     OW17909   3.070   0.131   1.783  0.6400  0.4326 -0.0344
 3233SOL    HW117910   2.995   0.109   1.722 -0.2200  0.6512  0.9245
 3233SOL    HW217911   3.036   0.187   1.859  1.3565 -1.2552  1.5624
 3234SOL     OW17912   2.007   9.457   1.131  0.3972 -0.2590 -0.0597
 3234SOL    HW117913   2.106   9.466   1.118  0.1169  1.8964 -0.8950
 3234SOL    HW217914   1.979   9.506   1.213  0.1067 -1.4944  0.5927
 3235SOL     OW17915   1.337   7.471   2.278 -0.6219  0.3228  0.3008
 3235SOL    HW117916   1.250   7.477   2.327 -0.6832  3.0218 -0.0302
 3235SOL    HW217917   1.323   7.430   2.188 -2.3376  4.2644 -1.3303
 3238SOL     OW17918   7.544   9.323   1.251  0.4585  0.3207 -0.6381
 3238SOL    HW117919   7.560   9.415   1.217  1.1222 -0.2909 -2.0015
 3238SOL    HW217920   7.459   9.321   1.303  0.0149  1.5206 -1.3104
 3239SOL     OW17921   9.973   5.380   0.026 -0.7415 -0.0970  0.6428
 3239SOL    HW117922   9.887   5.330   0.010 -0.5835 -0.3360  0.5312
 3239SOL    HW217923   9.989   5.388   0.124 -0.4528 -0.8151  0.6555
 3240SOL     OW17924   9.594   6.155   0.703 -0.2922  0.3614 -0.0774
 3240SOL    HW117925   9.506   6.121   0.668 -0.4981  0.5712  0.2355
 3240SOL    HW217926   9.639   6.084   0.756 -1.4807  1.1052  1.9635
 3241SOL     OW17927   9.349   1.952   0.463  0.3652  0.4376 -0.1232
 3241SOL    HW117928   9.330   1.892   0.385 -1.3122  1.7237 -0.7416
 3241SOL    HW217929   9.445   1.977   0.463  0.7064 -0.8101 -0.8863
 3243SOL     OW17930   7.677   9.929   2.014  0.6384  0.5862 -0.2148
 3243SOL    HW117931   7.685   9.830   2.001  0.2216  0.5179  0.0380
 3243SOL    HW217932   7.712   9.953   2.104  2.5835  0.9304 -1.0311
 3246SOL     OW17933   9.369   2.692   0.808  0.7081  0.0128 -0.2695
 3246SOL    HW117934   9.400   2.660   0.897  0.5195 -1.1815 -0.6115
 3246SOL    HW217935   9.372   2.792   0.804  1.5947  0.0269  0.7452
 3247SOL     OW17936   0.531   4.359   0.842  0.5460  0.1547  0.0865
 3247SOL    HW117937   0.494   4.398   0.758 -1.8494  0.6995  1.3356
 3247SOL    HW217938   0.459   4.308   0.890  1.0658  2.1749  3.1874
 3251SOL     OW17939   4.612   1.641   1.468 -0.0653  0.5819  0.0391
 3251SOL    HW117940   4.623   1.577   1.392 -1.2726  0.0241  0.3277
 3251SOL    HW217941   4.631   1.595   1.554 -1.4412  0.4599  0.2872
 3253SOL     OW17942   0.383   6.227   2.066  0.5870 -0.4601  0.1170
 3253SOL    HW117943   0.374   6.161   2.140  0.3218 -2.1022 -1.3453
 3253SOL    HW217944   0.457   6.199   2.005  0.2639  0.4237 -0.6934
 3254SOL     OW17945   4.008   9.916   1.430 -0.5758 -0.0896 -0.7909
 3254SOL    HW117946   4.021   9.990   1.363 -0.2400  1.0232  0.4954
 3254SOL    HW217947   3.923   9.932   1.480  0.0750  0.0405  0.2813
 3255SOL     OW17948   1.149   2.205   0.771 -0.0840 -0.5589 -0.5212
 3255SOL    HW117949   1.150   2.256   0.857 -0.3598  0.7927 -1.2968
 3255SOL    HW217950   1.242   2.179   0.747  0.0991 -0.1587 -0.2550
 3257SOL     OW17951   1.223   3.184   1.633 -0.2501 -0.1994 -0.3249
 3257SOL    HW117952   1.213   3.277   1.668  1.0230 -0.0206 -0.4136
 3257SOL    HW217953   1.135   3.153   1.596 -0.4837  1.2732 -1.0499
 3258SOL     OW17954   1.881   0.892   1.971 -0.3673  0.2916 -0.4796
 3258SOL    HW117955   1.835   0.965   1.921 -2.3382 -0.8496 -0.3993
 3258SOL    HW217956   1.930   0.833   1.907  0.4999  1.1713 -0.6312
 3259SOL     OW17957   0.641   2.883   0.577  0.1316 -0.1380 -0.2108
 3259SOL    HW117958   0.618   2.951   0.647  0.5462 -1.0327  0.8269
 3259SOL    HW217959   0.597   2.907   0.491  0.0069  1.2578  0.2261
 3260SOL     OW17960   3.664   1.969   1.939  0.1087 -0.0772  0.0415
 3260SOL    HW117961   3.574   2.011   1.921 -0.8209 -1.4218  1.3817
 3260SOL    HW217962   3.689   1.910   1.862 -0.8390 -0.8027  0.2707
 3261SOL     OW17963   0.398   5.980   1.032  0.2974  0.3689  0.3388
 3261SOL    HW117964   0.466   5.908   1.039  0.4209  0.5230  0.7417
 3261SOL    HW217965   0.443   6.066   1.004 -0.1737 -0.2239 -2.4320
 3262SOL     OW17966   9.743   4.321   0.934 -0.7149 -0.3649  0.4102
 3262SOL    HW117967   9.761   4.253   0.863  1.0254  0.1199  0.3869
 3262SOL    HW217968   9.667   4.380   0.906  1.0887  0.9536 -1.8399
 3263SOL     OW17969   1.086   4.973   0.745 -0.2750  0.1878  0.4621
 3263SOL    HW117970   1.101   5.071   0.745  2.5438 -0.2079 -1.3974
 3263SOL    HW217971   1.016   4.950   0.677  0.8201  0.6837 -0.8457
 3265SOL     OW17972   0.149   3.765   0.319  0.1237  0.1996  0.6061
 3265SOL    HW117973   0.194   3.757   0.230 -1.8399  0.1036 -0.3973
 3265SOL    HW217974   0.137   3.862   0.342  1.5904  0.2442  1.2993
 3266SOL     OW17975   2.648   1.196   0.655  0.0173 -0.1366  0.3218
 3266SOL    HW117976   2.619   1.102   0.633 -1.1880  0.1780  0.5012
 3266SOL    HW217977   2.615   1.258   0.585  1.3494  0.0785 -0.1150
 3267SOL     OW17978   0.544   5.433   0.334  0.3528 -0.0422 -0.2923
 3267SOL    HW117979   0.477   5.434   0.408  0.6898  0.2680  0.0160
 3267SOL    HW217980   0.557   5.340   0.300  0.3777 -0.2223  0.2099
 3269SOL     OW17981   8.434   1.224   1.157 -0.2419 -0.1515  0.0997
 3269SOL    HW117982   8.484   1.155   1.210  0.9502  0.3519 -0.3679
 3269SOL    HW217983   8.483   1.311   1.160 -0.5000  0.0436 -1.3007
 3270SOL     OW17984   2.096   2.216   0.673 -0.0166 -0.6153  0.3392
 3270SOL    HW117985   2.055   2.137   0.719  0.8722 -0.4858  1.3775
 3270SOL    HW217986   2.193   2.198   0.655 -0.2137 -0.4339 -0.9817
 3271SOL     OW17987   0.846   4.973   0.603 -0.2949  0.0725  0.6097
 3271SOL    HW117988   0.816   4.967   0.698 -0.4009 -0.4742  0.5419
 3271SOL    HW217989   0.788   5.039   0.554  1.0598  1.9290  1.4264
 3272SOL     OW17990   1.007   4.888   1.789  0.3582  0.1489  0.4585
 3272SOL    HW117991   0.996   4.896   1.888  0.1261  0.5680  0.3996
 3272SOL    HW217992   0.944   4.818   1.753 -0.9001  1.3312  0.3519
 3274SOL     OW17993   0.414   2.497   0.819 -0.0053  0.0216  0.2942
 3274SOL    HW117994   0.496   2.542   0.785  0.2884  1.1024  2.3260
 3274SOL    HW217995   0.419   2.399   0.801  1.8168  0.0482  0.5902
 3275SOL     OW17996   2.471   4.970   1.751 -0.3684  0.3966 -0.0515
 3275SOL    HW117997   2.394   4.921   1.791 -1.0646  0.7169 -0.9862
 3275SOL    HW217998   2.557   4.927   1.780 -0.9244 -0.4954  0.2774
 3276SOL     OW17999   0.853   5.516   1.936  0.1216 -0.2879  0.1388
 3276SOL    HW118000   0.922   5.573   1.981  1.2955 -1.3145 -0.3266
 3276SOL    HW218001   0.782   5.492   2.001 -0.0153  1.1329  0.5182
 3277SOL     OW18002   3.441   2.311   0.433  0.0000  0.0391 -0.6957
 3277SOL    HW118003   3.533   2.329   0.399  0.5682 -1.7985 -0.1572
 3277SOL    HW218004   3.374   2.336   0.363  0.7765  3.2697 -0.3737
 3278SOL     OW18005   4.818   2.439   0.399  0.0573  0.0259  0.7097
 3278SOL    HW118006   4.906   2.397   0.374  0.2943  0.9745 -0.0876
 3278SOL    HW218007   4.831   2.502   0.475 -0.0068 -0.1490  0.8649
 3279SOL     OW18008   8.451   0.415   1.579 -0.1971  0.1096  0.4333
 3279SOL    HW118009   8.514   0.360   1.524  1.1670  1.3255  0.7328
 3279SOL    HW218010   8.414   0.360   1.653  0.9888 -0.4687  0.6091
 3281SOL     OW18011   1.952   5.050   0.239  0.0632 -0.6948  0.1319
 3281SOL    HW118012   1.989   4.960   0.262  1.2038 -0.1133  0.6709
 3281SOL    HW218013   2.018   5.121   0.267 -0.0683  0.2232 -1.8077
 3282SOL     OW18014   9.840   4.057   1.687  0.3736  0.1896  0.3521
 3282SOL    HW118015   9.869   4.073   1.781  1.9351  0.4502 -0.1490
 3282SOL    HW218016   9.857   4.140   1.633 -1.4428  0.3845  0.0573
 3284SOL     OW18017   8.745   6.017   0.667  0.2576  0.0584 -0.3465
 3284SOL    HW118018   8.669   6.066   0.625  1.3496  2.0383 -0.0597
 3284SOL    HW218019   8.794   5.965   0.596 -1.4611 -1.4104 -0.4885
 3285SOL     OW18020   3.204   1.334   0.839  0.2532 -0.5105  0.3932
 3285SOL    HW118021   3.210   1.400   0.914  0.4619 -0.1727  0.0817
 3285SOL    HW218022   3.114   1.291   0.839 -0.6858  1.4141 -0.7770
 3288SOL     OW18023   0.858   5.404   1.146  0.0528  0.3397  0.6845
 3288SOL    HW118024   0.820   5.320   1.108 -1.9643  1.4151  0.2808
 3288SOL    HW218025   0.874   5.391   1.244  2.0116 -1.2836  0.1905
 3290SOL     OW18026   9.396   7.164   0.578 -0.2175 -0.3586  0.3660
 3290SOL    HW118027   9.344   7.179   0.494 -1.2134  0.2004  1.0804
 3290SOL    HW218028   9.494   7.159   0.556 -0.2162  2.6226 -0.4888
 3292SOL     OW18029   9.403   2.329   1.532 -0.2951 -0.4930  0.3232
 3292SOL    HW118030   9.428   2.337   1.628  0.8152  2.0377 -0.1457
 3292SOL    HW218031   9.481   2.295   1.480 -0.1706  0.3491 -0.0382
 3293SOL     OW18032   2.987   4.714   0.321  0.2202 -0.0445  0.8066
 3293SOL    HW118033   2.888   4.725   0.333 -0.0262 -0.4620 -0.7054
 3293SOL    HW218034   3.034   4.740   0.405 -0.9811  3.2564  0.5424
 3294SOL     OW18035   1.297   0.682   0.316 -0.0639  0.2502  0.4834
 3294SOL    HW118036   1.268   0.587   0.330 -1.0092  0.6582  1.3124
 3294SOL    HW218037   1.370   0.705   0.380  1.1649 -0.3453 -0.6717
 3295SOL     OW18038   4.507   4.294   0.616  0.1822 -0.4733 -0.1696
 3295SOL    HW118039   4.502   4.257   0.523  1.2790  0.8710 -0.7834
 3295SOL    HW218040   4.465   4.230   0.680 -0.0249 -1.6968 -1.5146
 3296SOL     OW18041   1.808   2.076   2.128 -0.2093 -0.1533 -0.0214
 3296SOL    HW118042   1.840   2.088   2.034  0.9452  0.6987  0.4739
 3296SOL    HW218043   1.715   2.038   2.127  0.3048 -1.4034 -1.4794
 3297SOL     OW18044   8.281   2.882   2.129 -0.0374 -0.3011  0.5483
 3297SOL    HW118045   8.328   2.871   2.042 -1.1041 -1.6149  0.1282
 3297SOL    HW218046   8.342   2.927   2.194  0.6662  0.9907 -0.9516
 3298SOL     OW18047   9.602   8.037   0.356  0.4535  0.0403 -0.1521
 3298SOL    HW118048   9.683   8.003   0.307  1.3072  2.5213 -0.5338
 3298SOL    HW218049   9.542   8.085   0.292 -0.3131 -0.0064  0.5254
 3299SOL     OW18050   1.528   3.459   1.391  0.0219 -0.0533 -0.0338
 3299SOL    HW118051   1.534   3.382   1.455 -1.1820  0.1673  0.3388
 3299SOL    HW218052   1.520   3.423   1.297 -1.7138 -0.3916  0.2375
 3300SOL     OW18053   4.388   9.057   2.235 -0.4716 -0.1885  0.2364
 3300SOL    HW118054   4.473   9.032   2.283 -1.7179 -0.8848  2.1446
 3300SOL    HW218055   4.330   8.976   2.225 -0.4211  0.0310 -2.1451
 3308SOL     OW18056   1.209   9.374   2.154 -0.3082  0.2403  0.5634
 3308SOL    HW118057   1.301   9.344   2.180 -0.5615  1.4295  3.0711
 3308SOL    HW218058   1.207   9.400   2.058  2.0941  0.6066  0.5966
 3309SOL     OW18059   3.129   3.764   1.062  0.2471 -0.6468 -0.2087
 3309SOL    HW118060   3.121   3.716   1.150  0.3555 -0.4926 -0.1147
 3309SOL    HW218061   3.111   3.700   0.987 -2.6770 -0.1729  0.0186
 3310SOL     OW18062   2.337   7.125   2.101 -0.0970  0.0503 -0.0221
 3310SOL    HW118063   2.419   7.068   2.112 -0.7606 -1.0119 -0.5123
 3310SOL    HW218064   2.362   7.211   2.056  0.5323 -0.8626 -1.4573
 3311SOL     OW18065   9.562   1.805   0.829 -0.4849 -0.1821  0.3932
 3311SOL    HW118066   9.578   1.810   0.928  0.7693 -0.0947  0.2004
 3311SOL    HW218067   9.650   1.792   0.783 -0.8489  1.5598 -0.8268
 3312SOL     OW18068   2.773   4.142   0.778  0.1375  0.1847 -0.3515
 3312SOL    HW118069   2.811   4.158   0.869 -0.5339  2.0093 -0.3597
 3312SOL    HW218070   2.691   4.085   0.786  0.0822  0.3352  0.1816
 3314SOL     OW18071   2.183   5.444   1.115  0.8220  0.0433 -0.0496
 3314SOL    HW118072   2.164   5.494   1.200 -1.6322  0.6184 -0.8752
 3314SOL    HW218073   2.206   5.349   1.137  0.5086  0.2564  1.2768
 3315SOL     OW18074   8.527   1.047   0.294  0.1198  0.0708  0.3856
 3315SOL    HW118075   8.480   1.066   0.208 -1.3044  0.5999  1.2588
 3315SOL    HW218076   8.610   0.994   0.276 -1.0459 -1.2741 -1.1416
 3316SOL     OW18077   2.121   1.061   2.052  0.2103  0.1812 -0.2653
 3316SOL    HW118078   2.043   1.003   2.078 -0.4364  0.9630 -0.4358
 3316SOL    HW218079   2.188   1.061   2.126 -0.4975  0.4320  0.3907
 3318SOL     OW18080   3.493   1.280   2.107 -0.2292  0.3806  0.0018
 3318SOL    HW118081   3.465   1.286   2.203 -1.0534  1.6479 -0.2974
 3318SOL    HW218082   3.584   1.321   2.097  0.8292 -1.7798  0.6095
 3322SOL     OW18083   3.338   4.765   0.765 -0.0915  0.3026 -0.8118
 3322SOL    HW118084   3.310   4.700   0.836  1.2928 -0.7600 -1.2047
 3322SOL    HW218085   3.321   4.858   0.796  0.1673 -0.1596  0.7656
 3323SOL     OW18086   0.977   4.167   1.885  0.2027  0.6338  0.5419
 3323SOL    HW118087   1.026   4.185   1.800 -0.6851  0.7942  0.0536
 3323SOL    HW218088   1.033   4.108   1.944  0.9649  0.8006 -0.0044
 3324SOL     OW18089   9.091   9.117   1.936 -0.9097 -0.3902  0.1000
 3324SOL    HW118090   9.070   9.063   2.017 -1.8120 -1.3671 -0.7680
 3324SOL    HW218091   9.041   9.203   1.939  0.7381  0.5424  1.6220
 3325SOL     OW18092   3.857   8.491   0.931  0.1810  0.6193 -0.3366
 3325SOL    HW118093   3.763   8.486   0.898  0.2027 -0.3132 -0.2704
 3325SOL    HW218094   3.917   8.521   0.857 -0.0561  0.4441 -0.5994
 3326SOL     OW18095   9.964   6.082   0.796 -0.7449  0.2842 -0.1826
 3326SOL    HW118096  10.024   6.075   0.876 -1.4561 -0.2346  0.3074
 3326SOL    HW218097   9.952   6.179   0.773 -0.9481  0.4701  0.6608
 3327SOL     OW18098   2.464   3.523   1.481  0.2616 -0.2189  0.4631
 3327SOL    HW118099   2.397   3.452   1.460  0.5642 -0.6174  0.8269
 3327SOL    HW218100   2.539   3.520   1.416  0.3576 -0.3427  0.5795
 3328SOL     OW18101   3.420   3.643   0.274  0.3968 -0.2487  0.5863
 3328SOL    HW118102   3.369   3.558   0.286 -1.0937  0.2896 -1.4944
 3328SOL    HW218103   3.385   3.712   0.338 -0.0851 -0.4843  0.5776
 3329SOL     OW18104   2.528   1.927   1.236 -0.9183  0.7332  0.4425
 3329SOL    HW118105   2.588   1.898   1.161  2.1463 -1.5192  3.6014
 3329SOL    HW218106   2.535   2.027   1.246 -0.0911  0.8729 -1.1719
 3330SOL     OW18107   9.211   4.151   1.970 -0.1674  0.7104 -0.1715
 3330SOL    HW118108   9.223   4.224   1.903  1.0688  1.5024  0.8867
 3330SOL    HW218109   9.184   4.190   2.058 -2.1673 -0.3559 -0.2997
 3331SOL     OW18110   2.615   9.242   0.029  0.1746  0.0059 -0.3322
 3331SOL    HW118111   2.703   9.196   0.028  0.4032  0.4426 -0.5566
 3331SOL    HW218112   2.569   9.225   0.117  1.2412  1.2121  0.4763
 3332SOL     OW18113   4.289   1.197   2.156 -0.1809  0.3728  0.3787
 3332SOL    HW118114   4.295   1.142   2.240 -0.1912  0.8051  0.6651
 3332SOL    HW218115   4.275   1.137   2.078  2.8372 -0.2985  0.2894
 3334SOL     OW18116   0.605   9.294   1.827 -0.2093 -0.3629 -0.0567
 3334SOL    HW118117   0.611   9.307   1.728  0.1014 -0.8925 -0.1053
 3334SOL    HW218118   0.662   9.217   1.855  0.9720  0.7802  0.7523
 3337SOL     OW18119   2.319   7.186   0.391 -0.4717  0.7877  0.1880
 3337SOL    HW118120   2.298   7.090   0.372 -1.2674  1.2053 -1.1156
 3337SOL    HW218121   2.255   7.220   0.460  0.6435  0.0339  1.6188
 3338SOL     OW18122   1.492   2.589   2.006  0.2478  0.1595 -0.6881
 3338SOL    HW118123   1.446   2.648   1.940  1.2982  1.3300 -0.3931
 3338SOL    HW218124   1.555   2.528   1.956  1.5360  1.4993 -0.7359
 3339SOL     OW18125   2.280   7.396   0.155 -0.3871 -0.0625 -0.0263
 3339SOL    HW118126   2.239   7.341   0.082 -0.5327 -1.2347  0.9200
 3339SOL    HW218127   2.288   7.340   0.238 -0.2684  1.2634  0.8675
 3340SOL     OW18128   2.271   4.801   1.829 -0.2316  0.2585 -0.0748
 3340SOL    HW118129   2.242   4.746   1.907  0.0184 -0.3564 -0.4105
 3340SOL    HW218130   2.190   4.829   1.777 -0.3046 -0.5579 -0.4107
 3341SOL     OW18131   1.213   3.849   0.515  0.0099  0.0723  0.3161
 3341SOL    HW118132   1.203   3.946   0.533  0.9159  0.5616 -1.6261
 3341SOL    HW218133   1.273   3.808   0.584  1.7569  1.4380 -0.3578
 3342SOL     OW18134   2.371   0.558   0.124 -0.1785  0.0735 -1.0176
 3342SOL    HW118135   2.336   0.491   0.057 -1.9696  1.5421 -1.5818
 3342SOL    HW218136   2.436   0.619   0.079 -1.2654  0.9628 -1.4009
 3343SOL     OW18137   2.113   4.832   0.303 -0.4122  0.8375  0.1354
 3343SOL    HW118138   2.196   4.883   0.279 -0.3377  0.4698 -0.3955
 3343SOL    HW218139   2.093   4.846   0.400 -1.2953  3.1734 -0.3493
 3344SOL     OW18140   9.458   0.424   1.980  0.1019  0.3448  1.0720
 3344SOL    HW118141   9.527   0.353   1.994  0.5465  0.3726 -0.7981
 3344SOL    HW218142   9.374   0.382   1.946  0.5462  0.7512 -0.5743
 3345SOL     OW18143   0.470   7.567   0.888  0.0591  0.2627  0.0805
 3345SOL    HW118144   0.434   7.532   0.801 -0.6867  0.5848  0.2550
 3345SOL    HW218145   0.394   7.594   0.947  0.5769  0.4529  0.6676
 3346SOL     OW18146   3.727   2.319   1.120  0.4590  0.0864 -0.3212
 3346SOL    HW118147   3.813   2.371   1.119  1.3853 -1.4206 -0.3022
 3346SOL    HW218148   3.718   2.267   1.035 -0.4397  0.2189 -0.3167
 3347SOL     OW18149   0.560   6.498   0.405 -0.3684 -0.3843 -0.7264
 3347SOL    HW118150   0.645   6.537   0.369  0.2026  0.6585  1.6791
 3347SOL    HW218151   0.482   6.542   0.360  0.3376 -0.7497 -2.3379
 3348SOL     OW18152   0.492   6.931   0.362 -0.2423 -0.1994 -0.1395
 3348SOL    HW118153   0.404   6.961   0.397 -0.9757 -0.8348 -1.4057
 3348SOL    HW218154   0.534   7.005   0.309 -1.0973 -0.6661 -1.5014
 3349SOL     OW18155   8.802   8.108   1.133 -0.1247 -0.2367 -0.2588
 3349SOL    HW118156   8.744   8.187   1.111  1.0105  0.7784  0.3242
 3349SOL    HW218157   8.767   8.027   1.086 -1.3283  0.6023 -0.8434
 3351SOL     OW18158   1.708   2.716   1.492 -0.1501  0.0189 -0.0654
 3351SOL    HW118159   1.760   2.786   1.444  0.1119 -0.7551 -0.9336
 3351SOL    HW218160   1.733   2.626   1.456 -0.6136 -0.5069  0.9059
 3352SOL     OW18161   1.644   6.285   1.769  0.1071  0.4295  0.3761
 3352SOL    HW118162   1.602   6.290   1.859  0.3648  0.7009  0.4846
 3352SOL    HW218163   1.573   6.282   1.699 -0.0982 -0.1782  0.6030
 3353SOL     OW18164   1.392   5.916   0.320 -0.0718 -0.0428  0.8451
 3353SOL    HW118165   1.363   5.966   0.238 -1.9151  0.9667  2.0635
 3353SOL    HW218166   1.323   5.849   0.344  0.8633 -0.9213  1.1136
 3354SOL     OW18167   1.143   3.047   1.306 -0.1202 -0.4325  0.1003
 3354SOL    HW118168   1.163   3.145   1.310 -1.2160 -0.2173  0.5875
 3354SOL    HW218169   1.200   3.004   1.236  0.1560  0.6040 -0.3226
 3355SOL     OW18170   1.216   5.464   1.551  0.1582  0.1092 -0.1753
 3355SOL    HW118171   1.258   5.488   1.464 -1.3031  1.9669 -0.4115
 3355SOL    HW218172   1.233   5.537   1.617 -0.8997 -0.0860  0.3313
 3356SOL     OW18173   9.835   5.112   2.302 -0.0556  0.1327  0.2037
 3356SOL    HW118174   9.877   5.197   2.334  0.0402 -0.2853  1.2057
 3356SOL    HW218175   9.857   5.098   2.205  1.3948  0.3602  0.4883
 3357SOL     OW18176   4.802   3.948   1.490 -0.3254  1.0557 -0.1790
 3357SOL    HW118177   4.769   3.914   1.402 -1.2044 -1.2692  1.0147
 3357SOL    HW218178   4.894   3.912   1.507 -1.2784 -0.8745  1.1099
 3358SOL     OW18179   1.322   8.944   2.041  0.1886  0.1668  0.5602
 3358SOL    HW118180   1.410   8.961   2.087  1.1002  0.1001 -1.1116
 3358SOL    HW218181   1.302   9.021   1.980 -1.6012  0.8228  1.9319
 3360SOL     OW18182   0.667   7.993   0.335  0.6052  0.2810  0.0529
 3360SOL    HW118183   0.641   8.063   0.270  1.6015  0.6812  0.0757
 3360SOL    HW218184   0.637   7.903   0.302 -0.6508  0.7102  0.0184
 3361SOL     OW18185   2.308   9.199   0.963  0.1814  0.0933  0.8565
 3361SOL    HW118186   2.353   9.112   0.984  0.4166 -0.0073 -0.0739
 3361SOL    HW218187   2.310   9.215   0.865 -1.9328  0.0311  0.7938
 3362SOL     OW18188   9.850   5.636   1.897  0.6000 -0.4657 -0.8405
 3362SOL    HW118189   9.885   5.629   1.804  1.9563  0.4931 -0.4202
 3362SOL    HW218190   9.923   5.616   1.962  0.2575  1.0285  0.0357
 3364SOL     OW18191   9.629   4.487   1.455 -0.8087  1.0109  0.3046
 3364SOL    HW118192   9.616   4.418   1.526  0.9648  0.1009 -0.2252
 3364SOL    HW218193   9.715   4.470   1.407 -0.7621  3.0958 -0.4034
 3365SOL     OW18194   9.127   8.593   2.269  0.3277 -0.1949 -0.5831
 3365SOL    HW118195   9.081   8.521   2.321 -0.8255  0.0172 -1.2827
 3365SOL    HW218196   9.170   8.657   2.332 -1.3057  0.2167  0.1521
 3367SOL     OW18197   9.892   1.797   2.032 -0.3266 -0.4260 -0.0483
 3367SOL    HW118198   9.932   1.721   1.981 -1.1889 -2.2132  1.8246
 3367SOL    HW218199   9.802   1.819   1.994 -0.0484 -0.3067 -0.6368
 3368SOL     OW18200   8.157   8.587   2.203  0.0879  0.4550 -0.0462
 3368SOL    HW118201   8.094   8.553   2.133 -0.0013 -0.7919  0.6248
 3368SOL    HW218202   8.117   8.668   2.247 -0.6249  0.2282 -0.2687
 3369SOL     OW18203   1.977   5.376   1.567  0.0187 -0.1084  0.2743
 3369SOL    HW118204   2.066   5.410   1.535 -0.5668  0.9602 -0.2340
 3369SOL    HW218205   1.955   5.418   1.655  0.0994 -0.5221  0.4940
 3370SOL     OW18206   0.620   0.624   0.733  0.0191  0.1121  0.4317
 3370SOL    HW118207   0.550   0.568   0.777  0.7453 -0.9609  0.2365
 3370SOL    HW218208   0.585   0.717   0.721 -1.6919 -0.6128 -0.4324
 3373SOL     OW18209   6.944   9.490   1.467  1.0023  0.1301 -0.3351
 3373SOL    HW118210   6.965   9.508   1.371  0.0530 -0.2466 -0.6197
 3373SOL    HW218211   6.862   9.433   1.473  1.3582 -0.2893  0.6825
 3375SOL     OW18212   8.757   3.786   1.195  0.1091  0.5074  0.0578
 3375SOL    HW118213   8.737   3.870   1.145  1.1567  0.1877 -0.9258
 3375SOL    HW218214   8.714   3.790   1.285 -2.0194  0.9806 -0.9562
 3376SOL     OW18215   9.193   2.692   1.182 -0.2228 -0.0004 -0.1926
 3376SOL    HW118216   9.221   2.617   1.242  1.7344  0.8749  0.0275
 3376SOL    HW218217   9.207   2.665   1.087  3.0228  0.9952 -0.0592
 3377SOL     OW18218   9.380   7.922   2.011 -0.0548 -0.1186 -0.1145
 3377SOL    HW118219   9.379   8.022   2.011  1.3810 -0.0866  0.2845
 3377SOL    HW218220   9.407   7.889   1.921 -3.3114 -0.2388 -1.1194
 3378SOL     OW18221   9.783   0.006   0.869 -0.0013  0.1090  0.4488
 3378SOL    HW118222   9.826   0.086   0.911  1.2470 -1.1296  1.5768
 3378SOL    HW218223   9.768  -0.065   0.939  1.2739 -1.6337 -0.9921
 3379SOL     OW18224   2.196   5.600   0.464  0.3865  0.1880  0.6187
 3379SOL    HW118225   2.282   5.609   0.515  1.6554 -0.0244 -1.4484
 3379SOL    HW218226   2.211   5.543   0.383 -1.5688  0.6436 -0.0841
 3380SOL     OW18227   9.563   4.648   0.174  0.4338  0.2754 -0.6063
 3380SOL    HW118228   9.599   4.738   0.149 -1.9623  1.6330  0.5691
 3380SOL    HW218229   9.501   4.658   0.251  0.5778 -2.5104 -0.0857
 3382SOL     OW18230   9.177   9.975   2.080  0.7160  0.3298 -0.0913
 3382SOL    HW118231   9.205   9.978   2.175  2.5347  2.7726 -0.6482
 3382SOL    HW218232   9.252   9.939   2.024 -0.1113 -0.5190 -0.6637
 3386SOL     OW18233   9.555   9.305   0.152  0.1618 -0.0868  0.4084
 3386SOL    HW118234   9.614   9.246   0.207  1.0218  1.5986  1.3148
 3386SOL    HW218235   9.609   9.376   0.107 -0.4392 -1.6681 -3.0460
 3387SOL     OW18236   8.027   1.723   0.648 -0.2262 -0.7525 -0.3994
 3387SOL    HW118237   8.063   1.765   0.731  0.3326 -2.5023  0.2692
 3387SOL    HW218238   8.093   1.732   0.574  1.0113 -2.6682  0.4350
 3388SOL     OW18239   1.517   6.885   1.272  0.5104  0.8068  0.0383
 3388SOL    HW118240   1.591   6.872   1.337 -0.3294 -1.7101  0.5396
 3388SOL    HW218241   1.458   6.959   1.303  1.7628  1.6083  0.5706
 3389SOL     OW18242   2.474   0.034   0.515 -0.9186  0.5945 -0.2321
 3389SOL    HW118243   2.392  -0.023   0.509 -1.2290  0.9310  0.7977
 3389SOL    HW218244   2.489   0.079   0.427  0.9022 -3.1929 -1.9991
 3390SOL     OW18245   9.488   8.604   1.629  0.1406 -0.1939  0.2278
 3390SOL    HW118246   9.392   8.595   1.655 -0.2449  0.3216 -0.9680
 3390SOL    HW218247   9.506   8.699   1.602  1.3888  0.1030  2.0045
 3391SOL     OW18248   3.369   7.815   0.199 -0.3638 -0.4282 -0.2321
 3391SOL    HW118249   3.294   7.829   0.264 -2.1254 -0.4735 -2.1922
 3391SOL    HW218250   3.410   7.903   0.177 -1.0205 -0.1842 -0.5023
 3392SOL     OW18251   9.260   0.709   0.766 -0.7045  0.7482  0.5902
 3392SOL    HW118252   9.328   0.653   0.720 -2.0755 -0.4028 -0.0591
 3392SOL    HW218253   9.302   0.797   0.792  0.9858  0.1033  0.1352
 3394SOL     OW18254   3.274   7.833   2.222 -0.0009 -0.1140 -0.5148
 3394SOL    HW118255   3.249   7.904   2.156 -0.8908  0.5386  0.5145
 3394SOL    HW218256   3.274   7.872   2.314  1.0026 -1.0767 -0.0995
 3395SOL     OW18257   0.089   5.567   2.029  0.0024  0.1005 -0.2118
 3395SOL    HW118258   0.132   5.657   2.032  0.7388 -0.2048 -1.1832
 3395SOL    HW218259   0.127   5.514   1.953  1.4808 -1.9967  1.9039
 3396SOL     OW18260   9.003   6.012   1.109 -0.0572 -0.6250  0.4304
 3396SOL    HW118261   8.976   6.026   1.014 -1.9284  1.4556  1.2109
 3396SOL    HW218262   9.044   6.096   1.145  0.7751 -1.4352  1.4303
 3398SOL     OW18263   8.956   7.186   0.281 -0.1951  0.2541 -0.0728
 3398SOL    HW118264   8.908   7.206   0.196 -0.7126  1.3850  0.4749
 3398SOL    HW218265   8.890   7.178   0.356  0.3359  0.2308  0.4009
 3401SOL     OW18266   3.381   1.464   1.950 -1.1499 -0.0242  0.1097
 3401SOL    HW118267   3.410   1.378   1.991  2.2759  1.3544  0.7189
 3401SOL    HW218268   3.310   1.506   2.008 -1.7297 -1.6632  0.6101
 3402SOL     OW18269   2.921   1.733   1.361 -0.4821  0.2117 -0.5050
 3402SOL    HW118270   2.870   1.818   1.370  0.2054  0.9169 -2.8140
 3402SOL    HW218271   2.860   1.655   1.377 -0.6875  1.1018  3.5135
 3403SOL     OW18272   0.936   5.376   1.431 -0.4357 -0.7462  0.2345
 3403SOL    HW118273   0.891   5.432   1.499  0.0805  0.1177 -0.1297
 3403SOL    HW218274   1.033   5.400   1.426 -0.4283 -0.9300 -0.6700
 3404SOL     OW18275   4.453   9.101   0.106 -0.0605 -0.7104  0.0645
 3404SOL    HW118276   4.362   9.085   0.068  0.4860 -1.4622 -0.9583
 3404SOL    HW218277   4.489   9.188   0.072 -0.3607 -0.4528  0.4046
 3405SOL     OW18278   0.819   6.068   1.750 -0.0655 -0.0499 -0.2007
 3405SOL    HW118279   0.881   6.139   1.783 -0.1787  0.5506 -1.2294
 3405SOL    HW218280   0.857   5.978   1.769  1.1292  0.3137 -0.8012
 3406SOL     OW18281   9.995   5.875   1.893 -0.0010  0.6087 -0.0418
 3406SOL    HW118282   9.970   5.954   1.837 -1.5173  0.4375  0.3582
 3406SOL    HW218283   9.919   5.810   1.894  1.5070 -1.1926 -0.9398
 3407SOL     OW18284   0.762   3.892   1.181 -0.6239  0.1304 -0.0756
 3407SOL    HW118285   0.805   3.981   1.165 -0.7181  0.1606 -0.1596
 3407SOL    HW218286   0.732   3.886   1.277 -3.0398  1.2415 -0.7253
 3408SOL     OW18287   9.929   5.902   1.530 -0.4578 -0.3143 -0.4117
 3408SOL    HW118288   9.917   5.983   1.587  0.2065 -0.7711  0.3905
 3408SOL    HW218289   9.866   5.906   1.452 -3.7264 -1.2546  2.0841
 3410SOL     OW18290   2.747   5.428   0.559 -0.8591 -0.3984  0.1760
 3410SOL    HW118291   2.774   5.524   0.568 -0.2940 -0.6011  0.6736
 3410SOL    HW218292   2.764   5.397   0.466 -2.0111  0.2814 -0.2701
 3411SOL     OW18293   0.315   4.677   0.928  0.1102  0.0279  0.5184
 3411SOL    HW118294   0.382   4.617   0.971 -1.9765 -1.9543  1.1517
 3411SOL    HW218295   0.299   4.757   0.987  2.4959  0.9838 -0.0633
 3412SOL     OW18296   7.913   0.881   1.600 -0.2422 -0.0399  0.5506
 3412SOL    HW118297   7.928   0.971   1.641 -0.7929  0.2513  0.1238
 3412SOL    HW218298   7.903   0.813   1.672 -1.4055  0.5053  0.9203
 3413SOL     OW18299   0.286   4.855   0.584  0.2200 -0.1867  0.1659
 3413SOL    HW118300   0.264   4.761   0.556  0.7355  0.0984 -1.2513
 3413SOL    HW218301   0.240   4.876   0.670 -2.9762 -0.4711 -1.3887
 3415SOL     OW18302   9.531   6.236   2.109 -0.5674  0.4593 -0.2863
 3415SOL    HW118303   9.505   6.140   2.108 -3.1166  1.1224 -0.3598
 3415SOL    HW218304   9.516   6.277   2.019  0.6583  0.9152 -0.3066
 3417SOL     OW18305   9.405   1.153   1.552 -0.1178 -0.4891 -0.1098
 3417SOL    HW118306   9.385   1.229   1.614  0.7243 -0.3746  0.0340
 3417SOL    HW218307   9.486   1.103   1.586 -1.1068 -1.9078  0.2111
 3418SOL     OW18308   8.815   0.651   0.961  0.0981  0.0252  0.7050
 3418SOL    HW118309   8.747   0.724   0.969 -2.5278 -2.1132 -1.0298
 3418SOL    HW218310   8.892   0.682   0.906 -0.7615  1.6443  0.3952
 3419SOL     OW18311   2.829  10.001   0.519  0.5486 -0.4591  0.1299
 3419SOL    HW118312   2.801   9.913   0.482 -2.0205  0.1119  0.5589
 3419SOL    HW218313   2.773  10.023   0.599  0.4372  2.0041 -0.5725
 3420SOL     OW18314   0.130   5.461   1.795 -0.3289  0.3571 -0.0228
 3420SOL    HW118315   0.161   5.377   1.750  2.6619  1.0979  0.5317
 3420SOL    HW218316   0.080   5.517   1.730  2.2089  0.5065 -1.9235
 3421SOL     OW18317   1.406   1.930   0.509 -0.1348  0.4980  0.6842
 3421SOL    HW118318   1.493   1.895   0.544 -0.1073  0.5603  0.6789
 3421SOL    HW218319   1.411   1.937   0.409 -0.8567 -1.4418  0.4914
 3422SOL     OW18320   2.020   7.685   0.046  0.4185 -0.1415 -0.7736
 3422SOL    HW118321   2.025   7.631  -0.038  1.1419 -1.0110 -0.1687
 3422SOL    HW218322   1.987   7.777   0.024  1.5145 -0.0616 -2.1491
 3424SOL     OW18323   3.849   9.214   1.539 -0.0943 -0.6434 -0.1469
 3424SOL    HW118324   3.832   9.173   1.629  2.8700 -0.4014  0.5933
 3424SOL    HW218325   3.907   9.153   1.485  3.7498  2.0144  0.6817
 3425SOL     OW18326   8.016   0.382   1.231 -0.1126 -0.4522  0.0566
 3425SOL    HW118327   8.092   0.334   1.186 -0.1700 -0.0673 -0.4585
 3425SOL    HW218328   7.935   0.322   1.232 -0.0539 -0.5400 -0.1838
 3426SOL     OW18329   1.580   3.830   0.504 -0.3449  0.4097 -0.0907
 3426SOL    HW118330   1.616   3.919   0.476  0.9179 -0.0652 -0.0192
 3426SOL    HW218331   1.530   3.789   0.428  0.2873  0.5609 -0.5939
 3427SOL     OW18332   0.969   9.816   2.280  0.4924  0.2429  0.1003
 3427SOL    HW118333   0.891   9.863   2.239  0.2081  1.0295  1.5006
 3427SOL    HW218334   0.955   9.808   2.379  2.1927  0.4059  0.3716
 3428SOL     OW18335   1.930   2.500   2.021 -0.5335 -0.3942 -0.3376
 3428SOL    HW118336   1.986   2.576   2.053  0.4971 -1.9004  1.5124
 3428SOL    HW218337   1.983   2.444   1.957 -1.6325  0.9978 -2.4967
 3429SOL     OW18338   1.753   5.007   2.134  0.1901 -0.8015 -0.2256
 3429SOL    HW118339   1.830   4.967   2.084  0.7483 -0.4640  0.3509
 3429SOL    HW218340   1.705   4.936   2.185  2.3062 -0.5408  2.3067
 3430SOL     OW18341   9.053   3.883   1.732 -0.0343 -0.4012 -0.3845
 3430SOL    HW118342   9.144   3.926   1.727  0.2173 -0.9437 -0.5092
 3430SOL    HW218343   9.025   3.875   1.828 -0.6449  1.2142 -0.4178
 3432SOL     OW18344   0.698   9.305   1.565 -0.1951  0.2562  0.1392
 3432SOL    HW118345   0.748   9.230   1.521 -0.8032  0.0259 -0.1735
 3432SOL    HW218346   0.605   9.309   1.528 -0.4223  0.6514  0.7488
 3433SOL     OW18347   8.831   2.337   1.725  0.0598  0.6811 -0.2108
 3433SOL    HW118348   8.926   2.361   1.743  0.4901 -2.5681  2.2297
 3433SOL    HW218349   8.819   2.238   1.732 -3.1383  0.8263 -2.3682
 3434SOL     OW18350   9.477   8.583   2.324  0.3048  0.0843 -0.3017
 3434SOL    HW118351   9.489   8.680   2.301  2.9904 -0.3254 -0.7833
 3434SOL    HW218352   9.459   8.531   2.241 -1.5516  0.1977  0.0063
 3435SOL     OW18353   2.729   2.630   1.945 -0.3010 -0.5275  0.0335
 3435SOL    HW118354   2.703   2.555   2.006 -1.7927 -0.5969 -0.6408
 3435SOL    HW218355   2.789   2.595   1.873 -1.2627 -1.1737 -0.4738
 3436SOL     OW18356   9.791   2.526   0.843 -0.1585  0.1919 -1.1549
 3436SOL    HW118357   9.714   2.548   0.784 -0.7914 -1.7216 -1.0683
 3436SOL    HW218358   9.777   2.567   0.933 -0.8023  0.3127 -1.3079
 3437SOL     OW18359   3.965   9.011   1.187 -0.2109 -0.2106  0.1574
 3437SOL    HW118360   3.906   9.092   1.180 -1.4963 -1.0388  1.1301
 3437SOL    HW218361   4.030   9.024   1.262 -1.7071 -0.8767  1.5824
 3438SOL     OW18362   2.969   4.746   0.046  0.1363 -0.0947 -0.5116
 3438SOL    HW118363   2.994   4.712   0.137  1.6261  1.8539 -0.1593
 3438SOL    HW218364   3.052   4.771  -0.004 -0.8039  1.2932 -1.4222
 3439SOL     OW18365   3.123   2.980   0.859 -0.5471 -0.4994  0.1023
 3439SOL    HW118366   3.100   3.060   0.804 -0.3739 -0.4286  0.1340
 3439SOL    HW218367   3.125   3.005   0.956 -3.0285 -1.1006  0.3472
 3440SOL     OW18368   9.353   6.087   0.992 -0.5815  0.4734 -0.4296
 3440SOL    HW118369   9.322   6.151   0.921  0.6871  1.4228 -0.1493
 3440SOL    HW218370   9.437   6.042   0.962  0.1399  1.1212  0.5891
 3443SOL     OW18371   4.597   3.859   1.305 -0.5352  0.1389  0.2909
 3443SOL    HW118372   4.616   3.761   1.299 -0.8738  0.1396 -0.7821
 3443SOL    HW218373   4.503   3.873   1.335 -0.4797  0.1392  0.4661
 3444SOL     OW18374   2.060   8.434   0.329 -0.0382 -0.3022  0.3744
 3444SOL    HW118375   2.135   8.499   0.320 -0.3015  0.0993  1.1050
 3444SOL    HW218376   2.062   8.371   0.251  1.3442 -0.5998  0.6343
 3445SOL     OW18377   3.376   9.752   1.667  0.0830  0.0729  0.3330
 3445SOL    HW118378   3.393   9.721   1.573 -0.3837  0.1260  0.2300
 3445SOL    HW218379   3.464   9.764   1.714  0.2987 -0.5537  0.0984
 3446SOL     OW18380   0.594   1.407   1.652  0.2288 -0.0212  0.2043
 3446SOL    HW118381   0.630   1.356   1.575  0.8977 -0.0453  0.5328
 3446SOL    HW218382   0.573   1.501   1.624  3.8185  1.0265  0.8553
 3448SOL     OW18383   0.144   0.887   1.472 -0.0610  0.2131 -0.1880
 3448SOL    HW118384   0.123   0.940   1.554 -0.2599 -0.3486  0.1229
 3448SOL    HW218385   0.105   0.795   1.480  0.9332 -0.2342 -0.3981
 3449SOL     OW18386   2.084   1.678   1.715 -0.3044 -0.5983  0.8047
 3449SOL    HW118387   2.102   1.580   1.711  0.1046 -0.5730  1.9591
 3449SOL    HW218388   2.168   1.728   1.695 -0.6732 -0.4635 -0.5084
 3450SOL     OW18389   4.117   2.005   0.757  0.0618 -0.1628  0.1058
 3450SOL    HW118390   4.111   2.004   0.857  4.3763 -0.9474  0.4690
 3450SOL    HW218391   4.124   1.911   0.723 -0.9898  0.1202 -0.9214
 3451SOL     OW18392   3.463   5.836   0.128 -0.0271  0.0989 -1.0616
 3451SOL    HW118393   3.542   5.858   0.186  0.6160 -0.4571 -1.7061
 3451SOL    HW218394   3.418   5.755   0.164 -0.9143  1.0001 -0.1137
 3452SOL     OW18395   9.188   3.303   1.503  0.1634 -0.4920 -0.3987
 3452SOL    HW118396   9.185   3.402   1.492  0.7448 -0.4985 -0.6613
 3452SOL    HW218397   9.283   3.274   1.514  0.0418 -1.0688 -0.8346
 3453SOL     OW18398   3.993   9.819   2.005  0.2878  0.0073  0.2793
 3453SOL    HW118399   3.940   9.841   2.087 -0.1476 -0.2793  0.0727
 3453SOL    HW218400   3.974   9.887   1.934 -1.9191 -1.6279 -0.7531
 3454SOL     OW18401   1.203   0.944   2.219 -0.4799 -0.0834  0.7358
 3454SOL    HW118402   1.210   0.956   2.120 -2.9340  0.7481  0.6424
 3454SOL    HW218403   1.247   0.857   2.244  0.0361 -0.3873 -1.0835
 3455SOL     OW18404   3.252   8.895   1.277  0.2442 -0.3329  0.0966
 3455SOL    HW118405   3.331   8.951   1.253  0.9910 -1.5150 -0.2273
 3455SOL    HW218406   3.202   8.939   1.351  0.9801  0.6235  0.0388
 3456SOL     OW18407   2.831   3.726   2.149  0.1247  0.0902 -0.7357
 3456SOL    HW118408   2.895   3.778   2.205 -1.3809 -1.0281  2.1248
 3456SOL    HW218409   2.877   3.647   2.110  0.5032 -0.7932  1.4248
 3458SOL     OW18410   3.751   4.560   1.055 -0.7122 -0.0956 -0.0108
 3458SOL    HW118411   3.803   4.508   1.122  0.4530 -1.6399 -2.0445
 3458SOL    HW218412   3.767   4.658   1.067 -0.0323 -0.3982  1.5352
 3459SOL     OW18413   0.963   3.145   1.498 -0.0318  0.4036  0.5317
 3459SOL    HW118414   1.011   3.135   1.411 -1.2203  0.0361 -0.0991
 3459SOL    HW218415   0.942   3.241   1.513 -0.0579  0.4409  0.2709
 3461SOL     OW18416   9.624   5.714   0.774  0.3065 -0.0474  0.0912
 3461SOL    HW118417   9.700   5.761   0.729  0.1183 -0.3345 -0.5469
 3461SOL    HW218418   9.651   5.619   0.793 -0.5667 -0.7634 -2.0006
 3462SOL     OW18419   1.670   4.227   0.373 -0.0990 -0.0126  0.3357
 3462SOL    HW118420   1.747   4.164   0.388 -0.4596 -0.4355  0.4453
 3462SOL    HW218421   1.619   4.199   0.292 -0.5190 -0.1266  0.6342
 3463SOL     OW18422   0.944   6.843   2.104 -0.2220 -0.2059 -0.2370
 3463SOL    HW118423   1.028   6.821   2.054  0.9478  0.6563  1.2975
 3463SOL    HW218424   0.920   6.938   2.087 -0.3839 -0.2022  0.0119
 3464SOL     OW18425   9.461   8.831   0.328  0.3177 -0.2843  0.4314
 3464SOL    HW118426   9.505   8.835   0.238 -2.5877  0.2670 -1.0298
 3464SOL    HW218427   9.483   8.744   0.372  1.8505 -0.5302 -0.7582
 3465SOL     OW18428   1.565   8.461   0.023 -0.3943 -0.3693  0.1615
 3465SOL    HW118429   1.654   8.438   0.062 -0.3621 -1.4939 -0.5516
 3465SOL    HW218430   1.507   8.380   0.020 -2.3620  0.8799  2.8950
 3466SOL     OW18431   1.095   4.260   1.650  0.7052 -0.4058  0.0407
 3466SOL    HW118432   1.113   4.346   1.601 -1.5727 -0.3734 -0.8185
 3466SOL    HW218433   1.070   4.189   1.584 -0.2409 -0.9493  0.9656
 3467SOL     OW18434   4.703   3.360   1.367  0.7862  0.2477 -0.0357
 3467SOL    HW118435   4.726   3.367   1.464 -4.1746  0.8998  1.2490
 3467SOL    HW218436   4.687   3.265   1.342  1.6052  0.1242 -0.0744
 3468SOL     OW18437   1.473   0.719   1.515 -0.3060 -0.3595 -0.5038
 3468SOL    HW118438   1.534   0.685   1.442  0.1646 -0.2585 -0.1633
 3468SOL    HW218439   1.487   0.663   1.597 -0.1411  0.1278 -0.2012
 3469SOL     OW18440   8.706   9.110   1.473  0.7605 -0.5893  0.6824
 3469SOL    HW118441   8.775   9.042   1.500  0.0983 -0.4541  2.8574
 3469SOL    HW218442   8.620   9.089   1.520  0.0547  0.7283 -0.0179
 3471SOL     OW18443   3.292   5.637   0.217  0.3041 -0.5998 -0.0371
 3471SOL    HW118444   3.250   5.587   0.141  0.6556 -0.7939 -0.1056
 3471SOL    HW218445   3.334   5.573   0.280  1.1316 -0.3745 -0.3478
 3472SOL     OW18446   2.521   6.535   1.890 -0.0354 -0.2709 -0.4038
 3472SOL    HW118447   2.585   6.523   1.966  1.0703 -0.2512 -1.3063
 3472SOL    HW218448   2.527   6.629   1.856 -0.5795 -0.2554 -0.4589
 3473SOL     OW18449   9.749   5.586   0.181  0.3407 -0.2401  0.4025
 3473SOL    HW118450   9.707   5.580   0.272 -1.8097  1.3121 -0.4412
 3473SOL    HW218451   9.730   5.501   0.130 -0.0184 -0.3757  0.7617
 3474SOL     OW18452   1.928   1.503   0.510 -0.2392 -0.0275  0.0060
 3474SOL    HW118453   1.991   1.428   0.529  0.8318  0.4991 -1.3434
 3474SOL    HW218454   1.930   1.569   0.585  1.4827  0.4129 -0.3958
 3475SOL     OW18455   1.868   8.403   1.975  0.4101  0.7145 -0.2697
 3475SOL    HW118456   1.919   8.350   1.908  2.8009  0.4126  1.7224
 3475SOL    HW218457   1.899   8.498   1.972 -0.4397  0.9873 -0.5085
 3476SOL     OW18458   1.649   0.112   0.159 -0.3867  0.2690 -0.1191
 3476SOL    HW118459   1.725   0.158   0.204 -0.2006 -0.1115 -0.0402
 3476SOL    HW218460   1.628   0.028   0.209 -0.9589  0.4517 -0.0491
 3477SOL     OW18461   9.978   5.985   2.153  0.4088 -0.2861 -0.4548
 3477SOL    HW118462   9.981   6.085   2.161  0.3468 -0.2813 -0.4913
 3477SOL    HW218463   9.988   5.959   2.057 -2.5279 -0.1932 -0.8382
 3479SOL     OW18464   3.909   2.660   2.206  0.1995  0.3245 -0.2372
 3479SOL    HW118465   3.949   2.685   2.295  0.1368  1.8663 -0.6329
 3479SOL    HW218466   3.871   2.741   2.163 -1.1506 -0.6980 -0.9952
 3480SOL     OW18467   3.725   9.662   0.755  0.3626 -0.2263 -0.2290
 3480SOL    HW118468   3.772   9.732   0.808 -4.3830  3.1069 -0.0779
 3480SOL    HW218469   3.705   9.697   0.663 -1.7249 -1.4730 -0.2907
 3481SOL     OW18470   2.058   2.479   0.613 -0.2269 -0.5006  0.2176
 3481SOL    HW118471   2.137   2.539   0.624  0.1979 -1.0863  0.3410
 3481SOL    HW218472   2.086   2.383   0.622 -0.8886 -0.7262 -0.0691
 3482SOL     OW18473   9.470   9.808   0.533  0.5999  0.6744 -0.8412
 3482SOL    HW118474   9.448   9.849   0.444  1.5766 -0.0404 -1.4271
 3482SOL    HW218475   9.423   9.721   0.542 -0.3541  1.2515 -0.1936
 3483SOL     OW18476   2.110   1.467   1.097  0.2618  0.2401  0.1300
 3483SOL    HW118477   2.106   1.440   1.193  2.5427  1.3243  0.5862
 3483SOL    HW218478   2.149   1.559   1.091 -0.8435  0.6051 -1.7858
 3484SOL     OW18479   3.094   0.926   1.078 -0.6514  0.0602 -0.6813
 3484SOL    HW118480   3.092   1.022   1.106 -1.8412  0.2894 -1.5477
 3484SOL    HW218481   3.145   0.873   1.146 -0.6789  1.1616  0.2096
 3485SOL     OW18482   9.522   3.869   0.921  0.1101 -0.1723 -0.3578
 3485SOL    HW118483   9.597   3.882   0.857 -1.1845  0.5812 -1.7550
 3485SOL    HW218484   9.474   3.784   0.898  0.4024 -0.5450  0.4012
 3486SOL     OW18485   9.856   1.722   0.340 -0.2623  0.2359 -0.8346
 3486SOL    HW118486   9.933   1.763   0.292 -1.3270  1.0417 -1.9088
 3486SOL    HW218487   9.771   1.745   0.291 -1.2925  0.3636  0.9817
 3487SOL     OW18488   3.548   1.338   0.609 -0.6250 -0.3625 -0.5616
 3487SOL    HW118489   3.541   1.434   0.582 -1.9255 -1.0124 -2.6661
 3487SOL    HW218490   3.637   1.301   0.583 -0.3639  0.0953 -0.3186
 3488SOL     OW18491   0.551   9.084   0.194 -0.4123 -0.0214 -0.1633
 3488SOL    HW118492   0.629   9.035   0.233 -1.1636 -1.5510 -0.5606
 3488SOL    HW218493   0.582   9.172   0.157  1.2954 -1.0140 -1.1329
 3490SOL     OW18494   1.138   4.453   1.825 -0.6961  0.0075  0.4281
 3490SOL    HW118495   1.171   4.379   1.765 -0.7362  0.5412 -0.2622
 3490SOL    HW218496   1.046   4.431   1.857 -0.9726  0.0690 -0.3126
 3491SOL     OW18497   5.404   3.436   0.399 -0.0802 -0.2869 -0.0807
 3491SOL    HW118498   5.326   3.491   0.371  0.6168  0.1377 -1.2472
 3491SOL    HW218499   5.391   3.403   0.492 -1.3396  0.3287 -0.0389
 3492SOL     OW18500   9.912   9.244   2.305  0.2564  0.0555 -0.2583
 3492SOL    HW118501   9.987   9.180   2.319  0.4172  0.0356 -1.1467
 3492SOL    HW218502   9.825   9.197   2.316  0.3735  0.1844  1.2369
 3493SOL     OW18503   0.486   9.377   1.306 -0.7595  0.6106  0.0603
 3493SOL    HW118504   0.423   9.365   1.229  2.5580 -2.3321 -2.3352
 3493SOL    HW218505   0.560   9.439   1.279 -0.0370  0.2438  1.1675
 3494SOL     OW18506   8.404   9.911   1.426 -0.1201 -0.0303 -0.0130
 3494SOL    HW118507   8.393   9.829   1.482 -0.4738 -0.2547 -0.4149
 3494SOL    HW218508   8.499   9.917   1.395  0.2289  0.4063  1.0894
 3497SOL     OW18509   9.481   7.764   2.206  0.2186 -0.3865  0.8382
 3497SOL    HW118510   9.423   7.794   2.131  0.7606  2.4648  1.5235
 3497SOL    HW218511   9.481   7.664   2.210 -3.5571 -0.4715  0.0240
 3498SOL     OW18512   9.303   7.033   1.299  0.2163  0.5967 -0.3850
 3498SOL    HW118513   9.311   6.945   1.252  0.5716  1.3750 -1.7897
 3498SOL    HW218514   9.335   7.023   1.394  0.8257 -0.6312 -0.7107
 3499SOL     OW18515   8.543   9.596   1.774  0.0786 -0.0283  0.2472
 3499SOL    HW118516   8.468   9.561   1.829 -0.9784  2.0214  0.1470
 3499SOL    HW218517   8.558   9.693   1.795  1.8888 -0.0962 -0.6161
 3500SOL     OW18518   9.567   0.352   1.196  0.2024  0.1354 -0.3984
 3500SOL    HW118519   9.659   0.382   1.221  0.2861  1.0150 -1.7173
 3500SOL    HW218520   9.570   0.257   1.164  0.5187 -0.0916  0.2871
 3501SOL     OW18521   7.903   1.302   0.917 -0.2964  0.0016  0.4722
 3501SOL    HW118522   7.811   1.314   0.954 -0.5340  0.5278 -0.2720
 3501SOL    HW218523   7.918   1.369   0.844  0.7099 -0.0131  0.6583
 3502SOL     OW18524   4.433   0.356   0.414  0.2753 -0.0226 -0.4643
 3502SOL    HW118525   4.451   0.260   0.435  1.5672 -0.0002 -1.4458
 3502SOL    HW218526   4.377   0.396   0.487  0.2169 -1.3534  0.2378
 3505SOL     OW18527   8.668   8.328   1.026 -0.2294 -0.0071 -0.7907
 3505SOL    HW118528   8.742   8.339   0.959  0.2965 -0.4611 -0.2800
 3505SOL    HW218529   8.655   8.414   1.075 -0.2736  0.1744 -1.1118
 3507SOL     OW18530   2.118   6.976   0.313 -0.5011 -0.1213 -0.1435
 3507SOL    HW118531   2.067   7.052   0.271 -1.5730 -2.0718 -2.4919
 3507SOL    HW218532   2.056   6.917   0.363 -0.4959 -1.9850 -2.2235
 3508SOL     OW18533   9.947   3.172   0.600 -0.4257  0.0218 -0.4871
 3508SOL    HW118534   9.919   3.257   0.554 -1.0483 -0.3861 -0.8739
 3508SOL    HW218535   9.956   3.189   0.698  0.1454  0.7088 -0.6492
 3509SOL     OW18536   1.623   2.288   0.783  0.2171 -0.2160  0.0377
 3509SOL    HW118537   1.556   2.222   0.750 -0.3889  0.7361 -0.6528
 3509SOL    HW218538   1.621   2.290   0.883  1.4359 -2.4677  0.1337
 3510SOL     OW18539   1.826   5.803   1.885  0.2562 -0.1062 -0.1454
 3510SOL    HW118540   1.879   5.870   1.938  0.0541  1.2912 -1.6554
 3510SOL    HW218541   1.831   5.714   1.929  2.9066  0.2705  0.3917
 3511SOL     OW18542   9.595   4.053   1.837  0.0740  0.5388 -0.4148
 3511SOL    HW118543   9.675   4.066   1.777 -0.8454  1.0029 -1.5629
 3511SOL    HW218544   9.597   4.121   1.910  0.2999  1.0916 -0.9285
 3514SOL     OW18545   2.039   1.560   0.014 -0.2510 -0.0055 -0.1348
 3514SOL    HW118546   2.022   1.597   0.105  1.7481 -1.0311  0.6922
 3514SOL    HW218547   1.979   1.481  -0.002 -0.4872  0.0710  0.3629
 3515SOL     OW18548   1.523   8.363   0.813  0.4309 -0.4616  0.1222
 3515SOL    HW118549   1.615   8.393   0.837  0.4842 -1.4695  1.2883
 3515SOL    HW218550   1.522   8.263   0.808 -0.7669 -0.4949  0.8816
 3516SOL     OW18551   1.402   1.346   0.379 -0.3764 -0.1994  0.1467
 3516SOL    HW118552   1.367   1.439   0.368 -0.7482 -0.4350 -0.6694
 3516SOL    HW218553   1.501   1.349   0.392 -0.3982  0.3135  0.2041
 3517SOL     OW18554   0.870   8.740   0.265 -0.0191 -0.0399  0.4783
 3517SOL    HW118555   0.803   8.694   0.323  1.5421 -3.3584 -0.1956
 3517SOL    HW218556   0.946   8.772   0.322 -1.1562  1.8174  0.9684
 3518SOL     OW18557   9.497   8.295   1.109  0.1932  0.7455  0.0343
 3518SOL    HW118558   9.448   8.276   1.194 -0.0181 -0.7236 -0.4068
 3518SOL    HW218559   9.519   8.393   1.104 -2.3413  1.3656  0.4298
 3519SOL     OW18560   2.293   2.240   1.108  0.0759  0.2457 -0.1689
 3519SOL    HW118561   2.347   2.252   1.026  1.0766  2.1284  0.7504
 3519SOL    HW218562   2.266   2.329   1.145 -0.7196 -0.5722  1.2964
 3520SOL     OW18563   1.238   2.713   0.973 -0.5007 -0.4525  0.2128
 3520SOL    HW118564   1.155   2.704   0.917 -0.3855 -1.6081  0.2199
 3520SOL    HW218565   1.311   2.658   0.934  0.1565  0.2521  0.4326
 3522SOL     OW18566   9.638   3.505   1.095 -0.7575 -0.3765 -0.0273
 3522SOL    HW118567   9.680   3.586   1.053 -0.9697 -0.0937  0.2990
 3522SOL    HW218568   9.634   3.431   1.028 -0.4490 -0.1574 -0.2924
 3523SOL     OW18569   9.636   6.149   1.723 -0.3113 -0.3985 -0.0011
 3523SOL    HW118570   9.571   6.105   1.661 -0.5308 -0.5893  0.3599
 3523SOL    HW218571   9.610   6.245   1.734 -1.7389 -0.9464  1.7105
 3524SOL     OW18572   1.331   2.645   0.399 -0.0968 -0.3848 -0.3225
 3524SOL    HW118573   1.371   2.685   0.317 -1.6844 -0.1841 -1.0237
 3524SOL    HW218574   1.404   2.608   0.457  1.0782 -0.1566 -1.6102
 3525SOL     OW18575   2.840   4.127   0.332 -0.0494  0.2156  0.0619
 3525SOL    HW118576   2.820   4.151   0.428 -0.6562 -2.0349  0.5184
 3525SOL    HW218577   2.754   4.120   0.281  0.1064 -1.1605 -0.0130
 3526SOL     OW18578   9.370   4.063   1.053 -0.1175  0.1207  0.0869
 3526SOL    HW118579   9.443   4.098   1.111 -0.0900 -0.3424  0.3402
 3526SOL    HW218580   9.407   3.995   0.990  0.2842  2.2889 -2.0630
 3527SOL     OW18581   3.644   1.236   1.005 -0.2367  0.6126 -0.1486
 3527SOL    HW118582   3.610   1.193   1.089 -1.0679  2.1396  0.3126
 3527SOL    HW218583   3.577   1.302   0.972  1.0828  1.6632 -0.7605
 3528SOL     OW18584   8.360   8.723   0.082 -0.0679 -0.5051 -0.0996
 3528SOL    HW118585   8.432   8.677   0.031  0.9230  1.4257 -0.4913
 3528SOL    HW218586   8.393   8.746   0.173 -0.9248 -1.5148  0.4818
 3529SOL     OW18587   8.218   9.506   1.042  0.2260  0.4003  0.0824
 3529SOL    HW118588   8.138   9.468   0.997  0.8215 -1.6678  0.7152
 3529SOL    HW218589   8.299   9.492   0.984  0.5376  0.2219  0.5605
 3530SOL     OW18590   0.858   5.024   1.099  0.2982  0.1174 -0.3147
 3530SOL    HW118591   0.897   5.070   1.178  0.8313  2.7276 -2.0032
 3530SOL    HW218592   0.929   4.971   1.052  0.5954  0.6497 -0.4685
 3531SOL     OW18593   0.891   7.815   1.740  0.4181  0.0625 -0.2062
 3531SOL    HW118594   0.814   7.879   1.750  1.8777  2.1714 -1.9109
 3531SOL    HW218595   0.858   7.729   1.700 -1.2905  0.3908  0.4555
 3532SOL     OW18596   9.896   9.482   2.164  0.8526 -0.1295 -0.5130
 3532SOL    HW118597   9.823   9.530   2.213  0.8889  1.7568 -2.2693
 3532SOL    HW218598   9.916   9.396   2.211 -2.9148 -0.9943 -0.3389
 3533SOL     OW18599   0.099   3.707   1.706  0.1217 -0.2042 -0.5318
 3533SOL    HW118600   0.009   3.665   1.709 -0.3165  0.7979  0.7543
 3533SOL    HW218601   0.134   3.706   1.612 -1.6416  0.3025 -1.1966
 3534SOL     OW18602   3.986   3.412   0.392  0.2503 -0.0141 -0.0040
 3534SOL    HW118603   3.995   3.400   0.293  1.0971  2.0027 -0.2003
 3534SOL    HW218604   3.960   3.506   0.412 -1.6383 -0.8350  1.6303
 3536SOL     OW18605   0.799   3.556   1.737 -0.1621  0.1771  0.0960
 3536SOL    HW118606   0.717   3.601   1.701  1.5092  1.4189 -2.2792
 3536SOL    HW218607   0.783   3.529   1.832 -2.9146  1.4035  0.0294
 3537SOL     OW18608   8.833   4.672   0.915 -0.4449  0.3382  0.2269
 3537SOL    HW118609   8.843   4.573   0.905  0.6418  0.3601  1.0740
 3537SOL    HW218610   8.738   4.694   0.938 -0.7293 -0.4785 -0.1451
 3538SOL     OW18611   4.197   5.855   0.535  1.1390  0.1093 -0.4547
 3538SOL    HW118612   4.165   5.768   0.497  1.1448 -0.0920 -0.0085
 3538SOL    HW218613   4.123   5.899   0.586  0.8877  0.7790 -1.3828
 3539SOL     OW18614   9.912   6.433   2.282 -0.5210 -0.1739  1.1857
 3539SOL    HW118615   9.969   6.358   2.247 -2.1989 -0.7172 -0.4756
 3539SOL    HW218616   9.960   6.520   2.267 -0.1701 -0.6061 -0.3747
 3540SOL     OW18617   3.969   4.066   1.589  0.2414 -0.2330  0.3510
 3540SOL    HW118618   3.898   4.136   1.582 -0.1839 -0.5146  1.6359
 3540SOL    HW218619   3.946   3.989   1.531 -1.8240 -1.4155  2.6646
 3541SOL     OW18620   4.060   2.275   0.130  0.0830 -0.4094 -0.4467
 3541SOL    HW118621   4.146   2.268   0.079  0.4059 -1.8353  0.2536
 3541SOL    HW218622   3.992   2.321   0.074  1.3996  1.0435 -0.8881
 3542SOL     OW18623   0.571   9.705   0.574  0.1323 -0.2031 -0.0404
 3542SOL    HW118624   0.482   9.661   0.578 -0.1742  0.4061 -0.0787
 3542SOL    HW218625   0.559   9.803   0.555  0.8687 -0.4181 -1.7123
 3543SOL     OW18626   2.654   6.557   0.593 -0.3929  0.3630  0.4246
 3543SOL    HW118627   2.602   6.499   0.530  0.1232 -0.1322  0.4496
 3543SOL    HW218628   2.647   6.521   0.686 -0.7362  0.8048  0.5740
 3544SOL     OW18629   2.181   1.324   0.514 -0.2208 -0.3126 -0.4044
 3544SOL    HW118630   2.175   1.234   0.557 -0.2648 -0.1492 -0.0637
 3544SOL    HW218631   2.264   1.371   0.546 -0.8300  0.2531  0.3759
 3545SOL     OW18632   2.208   5.599   1.915 -0.1736 -0.0800 -0.7433
 3545SOL    HW118633   2.185   5.510   1.875 -2.3837  0.8341 -1.5708
 3545SOL    HW218634   2.224   5.588   2.013 -2.3306 -1.0997 -0.4856
 3546SOL     OW18635   4.790   0.990   1.276 -0.2155  0.5655 -0.2633
 3546SOL    HW118636   4.697   0.954   1.277 -0.2814  0.6435 -2.2031
 3546SOL    HW218637   4.851   0.924   1.233  0.8820 -0.0113  2.0964
 3547SOL     OW18638   0.247   0.101   1.227 -0.2331  0.2444 -0.0782
 3547SOL    HW118639   0.221   0.051   1.310  0.7550  0.6593  0.4876
 3547SOL    HW218640   0.291   0.038   1.163  1.9201  0.5746  1.0442
 3548SOL     OW18641   1.076   5.334   2.138 -0.4425 -0.7191 -0.2568
 3548SOL    HW118642   1.005   5.360   2.073  0.0599  0.0872 -0.4899
 3548SOL    HW218643   1.137   5.412   2.155 -0.2320 -1.0826  0.7456
 3549SOL     OW18644   2.663   7.255   0.095  0.9751  0.1038 -0.3976
 3549SOL    HW118645   2.638   7.345   0.130  3.2961 -0.0874  1.8613
 3549SOL    HW218646   2.617   7.240   0.007 -0.3584  2.9793 -0.2602
 3550SOL     OW18647   3.144   9.848   1.802  0.0906  0.0207  0.3378
 3550SOL    HW118648   3.231   9.820   1.761  0.8874  0.1792  1.9054
 3550SOL    HW218649   3.129   9.945   1.783 -0.1106 -0.1896 -0.5813
 3553SOL     OW18650   2.907   5.701   1.862  0.0413  0.0446  0.1143
 3553SOL    HW118651   2.952   5.712   1.773 -3.0578  1.5947 -1.3540
 3553SOL    HW218652   2.953   5.630   1.914  1.7471 -1.1394 -2.8730
 3554SOL     OW18653   1.883   1.794   0.701 -0.1360 -0.2654  0.2376
 3554SOL    HW118654   1.908   1.833   0.613  1.1675  0.5817  0.9752
 3554SOL    HW218655   1.936   1.711   0.717  0.6757  0.3602  0.8465
 3555SOL     OW18656   2.602   9.871   1.735 -0.0874  0.2931 -0.7366
 3555SOL    HW118657   2.634   9.929   1.810 -1.2789  2.3416 -1.7658
 3555SOL    HW218658   2.510   9.838   1.756  1.4277 -3.1846  0.8854
 3556SOL     OW18659   8.826   0.849   1.217  0.0479  0.3251 -0.3789
 3556SOL    HW118660   8.797   0.754   1.221 -1.2879  0.7705  1.4181
 3556SOL    HW218661   8.909   0.857   1.163  0.9729 -2.0700  0.6401
 3557SOL     OW18662   2.016   5.439   0.903 -0.6016 -0.3946  0.6427
 3557SOL    HW118663   2.082   5.441   0.978  0.9834 -2.3687 -0.6453
 3557SOL    HW218664   1.950   5.366   0.919 -1.8776  0.8741  1.3779
 3558SOL     OW18665   2.115   2.013   1.090  0.3125  0.3623  0.0338
 3558SOL    HW118666   2.175   2.093   1.092  1.5345 -0.5110 -0.3741
 3558SOL    HW218667   2.034   2.029   1.146  0.7670  1.7077  0.3039
 3559SOL     OW18668   8.467   7.300   1.690  0.8064 -0.1633 -0.3444
 3559SOL    HW118669   8.440   7.396   1.678 -2.1071 -0.9063 -0.0769
 3559SOL    HW218670   8.506   7.289   1.781  0.6580  0.6667 -0.1682
 3560SOL     OW18671   1.737   3.341   2.061 -0.5407 -0.3918  0.0794
 3560SOL    HW118672   1.812   3.276   2.052 -0.7953 -0.5349 -1.1032
 3560SOL    HW218673   1.654   3.303   2.020 -0.5454  0.8873 -1.1659
 3562SOL     OW18674   1.180   9.790   1.482  0.3817 -0.2714  0.0035
 3562SOL    HW118675   1.204   9.874   1.434  0.6849 -0.3101  0.0838
 3562SOL    HW218676   1.150   9.721   1.416  0.3209 -0.1654 -0.0803
 3563SOL     OW18677   1.190   8.334   0.790  0.4973  0.8841  0.1115
 3563SOL    HW118678   1.169   8.385   0.706 -1.5484  0.7007  0.4844
 3563SOL    HW218679   1.194   8.237   0.770 -0.0816  0.8332  0.2506
 3564SOL     OW18680   0.542   7.124   2.043 -0.0511 -1.0356  0.0108
 3564SOL    HW118681   0.470   7.194   2.049  1.2266  0.5903 -2.5296
 3564SOL    HW218682   0.504   7.041   2.003 -0.8742 -0.7048  0.0888
 3566SOL     OW18683   2.038   6.659   0.459 -0.0416 -0.1681 -0.1322
 3566SOL    HW118684   1.985   6.656   0.375  1.8978  3.0001 -1.5757
 3566SOL    HW218685   1.993   6.717   0.526  0.9094  1.5016 -0.9042
 3568SOL     OW18686   8.777   1.208   2.139 -0.2627  0.3500  0.3351
 3568SOL    HW118687   8.701   1.249   2.088  0.3759 -0.9915 -1.7854
 3568SOL    HW218688   8.742   1.131   2.193 -0.2243 -1.3419 -1.9441
 3569SOL     OW18689   3.216   5.242   1.641 -0.1453 -0.1663 -0.5407
 3569SOL    HW118690   3.302   5.282   1.672 -0.0367 -1.7698  1.3426
 3569SOL    HW218691   3.139   5.298   1.674  0.1128  0.1280 -0.4357
 3570SOL     OW18692   0.892   9.112   1.449 -0.3239 -0.2274  0.0729
 3570SOL    HW118693   0.902   9.070   1.359 -2.5642  1.0050 -0.7816
 3570SOL    HW218694   0.837   9.052   1.508  2.3732 -1.7335  1.1479
 3571SOL     OW18695   2.829   3.618   1.483  0.3963 -0.6088 -0.2723
 3571SOL    HW118696   2.866   3.624   1.576 -0.3814  0.9340 -0.0471
 3571SOL    HW218697   2.792   3.706   1.456  0.0269 -1.2170 -1.8211
 3572SOL     OW18698   8.999   8.973   2.150  0.0662 -0.1793 -0.2798
 3572SOL    HW118699   9.078   9.001   2.204 -0.6508  0.8075  0.2758
 3572SOL    HW218700   9.013   8.880   2.117  1.1329 -0.2852  0.4263
 3573SOL     OW18701   2.323   2.645   0.670 -0.0969 -0.2375 -0.1649
 3573SOL    HW118702   2.378   2.673   0.591 -0.5712 -0.4378 -0.5716
 3573SOL    HW218703   2.380   2.645   0.752  0.4010 -0.0267 -0.5075
 3574SOL     OW18704   9.669   4.841   0.488 -0.0297  0.2797 -0.0045
 3574SOL    HW118705   9.607   4.764   0.502 -0.0636  0.4914  1.0607
 3574SOL    HW218706   9.763   4.807   0.482  0.1947  0.3294  2.6945
 3575SOL     OW18707   0.731   6.019   1.491  0.1262 -0.8691  0.0765
 3575SOL    HW118708   0.784   6.072   1.425  0.0960 -1.9485 -0.8272
 3575SOL    HW218709   0.781   6.014   1.578 -0.7532  2.2465  0.7975
 3576SOL     OW18710   9.533   1.587   2.165  0.3226 -0.0607  0.0456
 3576SOL    HW118711   9.574   1.497   2.151  0.2798  0.0153 -0.5608
 3576SOL    HW218712   9.484   1.615   2.083  1.8091  1.2894 -0.4021
 3577SOL     OW18713   1.741   8.193   1.731 -0.0089 -0.2022  0.5698
 3577SOL    HW118714   1.687   8.112   1.754  0.1264 -1.1319 -2.3008
 3577SOL    HW218715   1.697   8.275   1.770 -1.6917 -1.3118  1.0465
 3578SOL     OW18716   9.936   8.891   0.699  0.7554  0.3116  0.2101
 3578SOL    HW118717   9.889   8.874   0.785  1.1247 -1.0393  0.1527
 3578SOL    HW218718   9.902   8.829   0.628  1.3562  0.5281 -0.2813
 3579SOL     OW18719   4.471   0.607   0.085 -0.3471  0.6729 -0.2351
 3579SOL    HW118720   4.455   0.587  -0.011 -2.2402  1.1719 -0.0345
 3579SOL    HW218721   4.412   0.681   0.115 -0.4903 -0.1317  1.5659
 3581SOL     OW18722   0.274   1.775   0.832 -0.5918  0.0078 -0.1188
 3581SOL    HW118723   0.364   1.752   0.794  0.2259  0.9881  1.2093
 3581SOL    HW218724   0.207   1.781   0.757  0.7828  0.9153 -1.3049
 3582SOL     OW18725   2.746   2.865   1.811 -0.1644  0.1811  0.4921
 3582SOL    HW118726   2.720   2.948   1.860 -0.5869  0.2974  0.0788
 3582SOL    HW218727   2.743   2.787   1.873  0.6010  0.5341  0.9751
 3583SOL     OW18728   0.666   8.142   1.121 -0.1107  0.1345 -0.0124
 3583SOL    HW118729   0.665   8.134   1.022  0.1403 -1.2505  0.0772
 3583SOL    HW218730   0.582   8.186   1.153 -1.2201 -1.4487 -0.6859
 3584SOL     OW18731   9.607   2.662   0.673  0.1150 -0.4966  0.0036
 3584SOL    HW118732   9.596   2.640   0.576 -2.0404 -1.2920  0.4094
 3584SOL    HW218733   9.518   2.682   0.713  0.7663 -1.8597  2.2189
 3586SOL     OW18734   9.320   1.041   1.113  0.2197 -0.3693 -0.0301
 3586SOL    HW118735   9.342   1.113   1.179  1.3294 -1.0026  0.2906
 3586SOL    HW218736   9.324   1.079   1.021 -0.0878  0.2035  0.1875
 3587SOL     OW18737   8.674   7.287   2.166 -0.2596  0.0823 -0.2432
 3587SOL    HW118738   8.675   7.190   2.191  0.4440 -0.0122 -0.6086
 3587SOL    HW218739   8.594   7.331   2.205  0.9993  0.0243  2.5616
 3588SOL     OW18740   8.233   1.889   1.425 -0.4840 -0.2312  0.6367
 3588SOL    HW118741   8.290   1.969   1.408  1.3014 -1.6754 -0.4506
 3588SOL    HW218742   8.142   1.918   1.452 -0.2245  2.1768 -0.8913
 3589SOL     OW18743   3.450   3.509   1.915  0.1895 -0.6473  0.0485
 3589SOL    HW118744   3.538   3.544   1.883 -0.0294  0.6211  0.7890
 3589SOL    HW218745   3.418   3.566   1.991 -2.0676 -0.1011 -1.2836
 3591SOL     OW18746   0.345   8.372   0.801 -0.2130  0.1084  0.0408
 3591SOL    HW118747   0.342   8.272   0.797  0.9808  0.0872 -0.7071
 3591SOL    HW218748   0.252   8.409   0.800 -0.6747 -1.0168  0.9948
 3592SOL     OW18749   0.731   0.416   1.888  0.1893  0.0972 -0.5457
 3592SOL    HW118750   0.637   0.390   1.912  0.7006 -0.1249  1.2755
 3592SOL    HW218751   0.742   0.515   1.897 -0.4488  0.4094 -2.8785
 3593SOL     OW18752   3.246   2.341   0.226  0.1244  0.1457  0.3807
 3593SOL    HW118753   3.255   2.259   0.170 -0.6538 -0.0251  0.4961
 3593SOL    HW218754   3.164   2.392   0.197  0.7803  1.0460  0.0935
 3595SOL     OW18755   1.602   0.212   1.231  0.4190  0.1166 -0.2201
 3595SOL    HW118756   1.583   0.114   1.235 -1.7975  0.4721 -1.3069
 3595SOL    HW218757   1.587   0.252   1.321  0.0345 -0.3162 -0.0901
 3596SOL     OW18758   9.148   2.735   1.457 -0.5517 -0.0524 -0.1788
 3596SOL    HW118759   9.228   2.787   1.489 -0.7473 -0.4070  0.8810
 3596SOL    HW218760   9.152   2.727   1.357 -0.3380  1.7121 -0.3336
 3600SOL     OW18761   0.077   4.310   0.647  0.1962  0.0113  0.6261
 3600SOL    HW118762   0.147   4.303   0.576 -1.2068 -0.7219 -0.7169
 3600SOL    HW218763   0.105   4.378   0.714  2.0080  0.0175 -0.0983
 3601SOL     OW18764   3.442   9.331   1.222 -0.2490  0.1008  0.0645
 3601SOL    HW118765   3.388   9.268   1.166 -0.5975 -0.2200  0.7701
 3601SOL    HW218766   3.386   9.367   1.296  0.2628  0.4239  0.2941
 3602SOL     OW18767   3.134   2.135   1.187 -0.0031 -0.2004 -0.5103
 3602SOL    HW118768   3.044   2.157   1.225 -0.0704 -1.5820  0.1575
 3602SOL    HW218769   3.145   2.036   1.183  0.5643 -0.0696 -2.8325
 3603SOL     OW18770   2.527   7.508   0.210 -0.4806 -0.0679  0.1199
 3603SOL    HW118771   2.429   7.490   0.201 -0.3719 -0.3597 -0.5095
 3603SOL    HW218772   2.541   7.605   0.231 -0.8130  0.4103 -1.7833
 3604SOL     OW18773   1.605   8.635   1.721  0.2850 -0.3671  0.2660
 3604SOL    HW118774   1.529   8.698   1.737 -0.2723 -1.4547  2.0668
 3604SOL    HW218775   1.583   8.546   1.760  1.7314 -1.2298 -0.8347
 3605SOL     OW18776   4.346   9.292   1.470  0.1885 -0.6573  0.7967
 3605SOL    HW118777   4.276   9.362   1.456  0.1978 -1.0504 -1.4656
 3605SOL    HW218778   4.437   9.334   1.467  0.2003 -0.7457 -0.7040
 3606SOL     OW18779   1.288   5.661   1.721  0.1490  0.3244  0.5604
 3606SOL    HW118780   1.266   5.756   1.702  1.2549  0.3295 -0.7836
 3606SOL    HW218781   1.378   5.656   1.764  0.3358 -0.1428  0.1235
 3607SOL     OW18782   5.023   3.479   1.391  0.0129 -0.1040 -0.0401
 3607SOL    HW118783   5.044   3.503   1.486 -1.6414 -0.2291  0.3716
 3607SOL    HW218784   4.982   3.558   1.345  2.4350  0.5340 -1.1962
 3608SOL     OW18785   8.912   7.941   1.965 -0.1539 -0.1930 -0.2232
 3608SOL    HW118786   8.976   7.875   2.005  0.4418  1.2256  1.2300
 3608SOL    HW218787   8.960   7.996   1.896 -0.5297 -0.9528 -1.0976
 3610SOL     OW18788   2.391   1.620   0.925  0.1006 -0.2587  0.0025
 3610SOL    HW118789   2.346   1.662   1.004  0.7093 -1.3627  0.9544
 3610SOL    HW218790   2.331   1.550   0.886 -0.3111  0.4685 -0.6973
 3611SOL     OW18791   8.601   8.592   0.085  0.0939  0.2531  0.3030
 3611SOL    HW118792   8.570   8.521   0.023  0.5101 -0.8074  1.2959
 3611SOL    HW218793   8.589   8.562   0.179  1.3470  1.0223  0.7249
 3612SOL     OW18794   4.101   4.710   1.127  0.0346 -0.3637 -0.0229
 3612SOL    HW118795   4.149   4.775   1.185  0.1081 -0.6888  0.2789
 3612SOL    HW218796   4.119   4.617   1.158 -0.0666 -0.5307 -0.4574
 3614SOL     OW18797   9.473   2.330   0.156 -0.3175  0.2469 -0.1793
 3614SOL    HW118798   9.444   2.379   0.238  1.6555  0.7201  0.2820
 3614SOL    HW218799   9.438   2.376   0.075 -0.7787  0.8272  0.3487
 3616SOL     OW18800   8.014   8.580   1.764 -0.0623 -0.3328 -0.1141
 3616SOL    HW118801   8.070   8.581   1.681 -1.0012 -1.5153 -0.7794
 3616SOL    HW218802   7.947   8.655   1.760 -0.1719 -0.4485 -0.4689
 3617SOL     OW18803   9.285   3.231   0.841 -0.0442  0.6432 -0.6729
 3617SOL    HW118804   9.277   3.152   0.779 -0.9216 -0.7300  1.1347
 3617SOL    HW218805   9.282   3.199   0.936 -1.4711  2.9664  0.0975
 3618SOL     OW18806   4.790   4.045   1.155  0.2103  0.3979  0.2978
 3618SOL    HW118807   4.711   3.984   1.155 -0.6078  1.4537  0.3293
 3618SOL    HW218808   4.779   4.114   1.083  1.4030  0.1620 -0.1177
 3620SOL     OW18809   8.917   7.871   2.264  0.0723 -0.4415 -0.0455
 3620SOL    HW118810   8.884   7.776   2.271  2.3376 -1.4134 -2.0546
 3620SOL    HW218811   8.895   7.907   2.173  0.9512  0.2973  0.0354
 3621SOL     OW18812   1.775   3.604   1.600 -0.3585 -0.0444 -0.4164
 3621SOL    HW118813   1.705   3.652   1.654  1.8499  1.2511  1.3869
 3621SOL    HW218814   1.822   3.669   1.541 -1.3925 -1.1096 -2.4308
 3622SOL     OW18815   4.157   4.047   2.226 -0.9303  0.2719  0.2083
 3622SOL    HW118816   4.207   3.965   2.256 -0.4044  0.6564  0.4021
 3622SOL    HW218817   4.061   4.025   2.212 -0.9503 -0.1933  1.0475
 3623SOL     OW18818   2.494   3.781   0.041  0.4031  0.3196  0.3351
 3623SOL    HW118819   2.527   3.770   0.135 -1.1489 -3.0692  0.5394
 3623SOL    HW218820   2.558   3.736  -0.022 -0.3438 -0.4094  0.0986
 3624SOL     OW18821   2.622   3.288   1.290  0.0354 -0.4042 -0.3322
 3624SOL    HW118822   2.568   3.359   1.244  0.2085  0.5021  0.8532
 3624SOL    HW218823   2.716   3.320   1.300  0.4405 -1.3731 -1.0371
 3625SOL     OW18824   4.225   0.352   0.230 -0.3673  0.4425 -0.1931
 3625SOL    HW118825   4.168   0.434   0.221 -1.4373 -0.0802  1.6217
 3625SOL    HW218826   4.314   0.377   0.266 -1.4878  0.5620  2.6240
 3626SOL     OW18827   9.053   9.011   1.688  0.3092  0.5656 -0.2010
 3626SOL    HW118828   9.058   9.066   1.771 -0.9526  0.4949 -0.0694
 3626SOL    HW218829   8.970   8.955   1.689  0.4107  0.3665 -1.3888
 3627SOL     OW18830   9.617   2.071   0.453 -0.3820 -0.2856  0.5329
 3627SOL    HW118831   9.680   1.997   0.473 -0.3943 -0.3478  0.3386
 3627SOL    HW218832   9.656   2.131   0.384  0.0983  0.5079  1.4823
 3628SOL     OW18833   2.320   3.041   0.729  0.5077 -0.2268  0.6754
 3628SOL    HW118834   2.336   3.068   0.824 -1.2357  2.1449  0.3475
 3628SOL    HW218835   2.247   2.972   0.726  1.5336 -1.3382  1.1541
 3630SOL     OW18836   0.718   9.224   2.191 -0.2554 -0.1789  0.0058
 3630SOL    HW118837   0.620   9.228   2.209 -0.5227  0.2923 -1.4790
 3630SOL    HW218838   0.733   9.191   2.097  1.0010 -0.2642  0.2359
 3631SOL     OW18839   1.983   5.397   2.198  0.1162  0.0258 -0.4509
 3631SOL    HW118840   1.916   5.324   2.213  0.4210 -0.0832  0.4027
 3631SOL    HW218841   1.943   5.467   2.138 -1.2047  0.5281  0.9661
 3632SOL     OW18842   3.305   9.137   0.223  0.8106 -0.8422  0.1274
 3632SOL    HW118843   3.339   9.154   0.131  0.9037 -0.0302  0.3108
 3632SOL    HW218844   3.221   9.082   0.218  0.0684  0.3367 -0.5024
 3633SOL     OW18845   1.304   2.380   1.242  0.8256  0.4427  0.0156
 3633SOL    HW118846   1.244   2.400   1.320 -0.0059  2.0249 -0.9765
 3633SOL    HW218847   1.392   2.346   1.275 -0.3788 -1.2959  1.5382
 3634SOL     OW18848   0.389   7.893   1.397  0.5812  0.3568 -0.1754
 3634SOL    HW118849   0.465   7.829   1.384  0.0758 -0.3055  0.1302
 3634SOL    HW218850   0.303   7.845   1.387  0.1949  0.8759  0.6291
 3636SOL     OW18851   0.812   0.601   1.099  0.4892  0.3211  0.4720
 3636SOL    HW118852   0.767   0.567   1.181 -0.7571  2.1987  0.5954
 3636SOL    HW218853   0.798   0.535   1.024 -0.4180 -0.2616  1.1375
 3637SOL     OW18854   3.115   6.780   0.404 -0.2516  0.0334 -0.3945
 3637SOL    HW118855   3.095   6.713   0.475 -0.9225  0.9657  0.3123
 3637SOL    HW218856   3.050   6.856   0.410  0.2145  0.5376 -1.4647
 3638SOL     OW18857   1.947   0.219   0.754 -0.7877 -0.1699 -0.5482
 3638SOL    HW118858   1.962   0.150   0.683 -2.4178 -0.4812 -0.6067
 3638SOL    HW218859   1.869   0.192   0.811  0.5772  0.0009  1.4675
 3639SOL     OW18860   2.478   2.603   0.907  0.3536 -0.0298  0.5305
 3639SOL    HW118861   2.484   2.703   0.915  0.2242  0.1669 -1.5699
 3639SOL    HW218862   2.505   2.561   0.993  0.4292  1.8274  1.4325
 3640SOL     OW18863   3.233   0.086   0.247  0.2072 -0.0058 -0.5784
 3640SOL    HW118864   3.176   0.105   0.326  1.4511  1.0391  0.0975
 3640SOL    HW218865   3.203   0.143   0.170  0.6731  0.9414 -0.0651
 3641SOL     OW18866   2.590   9.678   1.388 -0.2729  0.2505  0.1161
 3641SOL    HW118867   2.582   9.776   1.403  0.1248  0.1602  0.9860
 3641SOL    HW218868   2.687   9.651   1.395 -0.5631 -0.4741  1.7274
 3642SOL     OW18869   3.324   8.846   0.030  0.0368  0.5580  0.7961
 3642SOL    HW118870   3.355   8.752   0.016 -1.7142  0.1039 -0.2140
 3642SOL    HW218871   3.287   8.882  -0.055 -1.6442  1.2601  1.7951
 3643SOL     OW18872   4.961   3.795   1.791 -0.0233  0.7680 -1.0919
 3643SOL    HW118873   5.005   3.804   1.880  1.0282  0.0830 -1.5227
 3643SOL    HW218874   4.999   3.862   1.728  0.3597  0.2224 -1.4481
 3644SOL     OW18875   4.717   1.453   1.683  0.0687  0.3911  0.0016
 3644SOL    HW118876   4.683   1.382   1.744 -1.5662  0.3106 -0.9665
 3644SOL    HW218877   4.749   1.411   1.598 -0.0984  0.7192 -0.2265
 3646SOL     OW18878   2.886   8.141   1.360  0.3774 -0.0537  0.3767
 3646SOL    HW118879   2.793   8.165   1.388  0.7814  1.3451  0.5594
 3646SOL    HW218880   2.887   8.047   1.325 -1.5943  0.7478 -1.9822
 3647SOL     OW18881   3.305   9.151   1.716 -0.4058 -0.0732 -0.4177
 3647SOL    HW118882   3.243   9.116   1.785  1.3249 -0.9839  0.6992
 3647SOL    HW218883   3.336   9.243   1.742  0.2849 -0.4360  0.0692
 3649SOL     OW18884   2.204   6.944   1.469 -0.5152  0.0780 -0.3422
 3649SOL    HW118885   2.152   7.021   1.433 -0.0877 -0.1925 -1.5557
 3649SOL    HW218886   2.158   6.859   1.445 -1.7708 -0.0343  2.2407
 3650SOL     OW18887   2.240   1.415   0.842  0.5180 -0.3669  0.2968
 3650SOL    HW118888   2.193   1.441   0.926 -0.2204 -1.7250  0.3176
 3650SOL    HW218889   2.276   1.322   0.850  0.5040 -0.4846 -0.8466
 3651SOL     OW18890   3.117   7.183   2.207 -0.1038  0.4904  0.0902
 3651SOL    HW118891   3.114   7.139   2.117  0.1730 -0.5467  0.5731
 3651SOL    HW218892   3.127   7.113   2.278  0.7766  1.3622  0.8517
 3654SOL     OW18893   3.115   2.936   1.154  0.3221 -0.5936  0.6532
 3654SOL    HW118894   3.143   2.981   1.239  0.9213  0.1918  0.0554
 3654SOL    HW218895   3.021   2.904   1.163 -0.2749  1.1610  0.9533
 3655SOL     OW18896   8.846   8.350   1.592  0.3001  0.0318 -0.4686
 3655SOL    HW118897   8.853   8.339   1.691  1.4336 -1.2219 -0.6649
 3655SOL    HW218898   8.750   8.352   1.564 -0.0771  2.7800  0.8870
 3656SOL     OW18899   3.275   9.148   0.653  0.2308 -0.3924  0.2162
 3656SOL    HW118900   3.175   9.142   0.645  0.0752  1.8201  0.1768
 3656SOL    HW218901   3.301   9.243   0.668  2.4621 -0.7436 -1.2458
 3657SOL     OW18902   0.349   1.602   0.170  0.2670  0.3887  0.1844
 3657SOL    HW118903   0.259   1.592   0.213 -0.2331  1.6933 -0.5235
 3657SOL    HW218904   0.346   1.562   0.078  0.6219 -0.2143  0.4360
 3659SOL     OW18905   2.665   4.164   2.267  1.0362 -0.2527 -0.2676
 3659SOL    HW118906   2.713   4.102   2.329 -0.0932 -0.6270  0.2609
 3659SOL    HW218907   2.582   4.197   2.312  0.6835  0.2003 -1.2410
 3660SOL     OW18908   9.330   0.077   1.073 -0.0428 -0.4296  0.1436
 3660SOL    HW118909   9.280   0.013   1.015  2.4117 -0.8476 -1.5769
 3660SOL    HW218910   9.310   0.171   1.043  0.2129 -0.5982 -0.5755
 3663SOL     OW18911   9.060   0.693   1.800  0.1452  0.1529 -0.4596
 3663SOL    HW118912   8.977   0.666   1.752  0.1999  2.5321 -1.9865
 3663SOL    HW218913   9.123   0.737   1.736  1.6301  0.4077  1.1318
 3664SOL     OW18914   1.141   2.458   1.451 -0.2748 -0.4135  0.2119
 3664SOL    HW118915   1.163   2.471   1.548 -0.3725  1.4103 -0.0093
 3664SOL    HW218916   1.049   2.491   1.433 -0.5172 -1.3799 -0.3867
 3665SOL     OW18917   2.904   0.542   0.837 -0.1230 -0.0033 -0.4754
 3665SOL    HW118918   2.977   0.478   0.812 -0.2654  0.2485 -1.5589
 3665SOL    HW218919   2.944   0.633   0.851 -0.2650  0.2206 -1.4497
 3666SOL     OW18920   3.953   0.038   0.737  0.2552  0.5811  0.2938
 3666SOL    HW118921   3.981   0.015   0.644 -0.1424 -0.2410  0.3782
 3666SOL    HW218922   3.882   0.109   0.734 -0.0381  0.2719 -0.0429
 3667SOL     OW18923   0.037   8.369   0.868 -0.0340 -0.2593  0.4209
 3667SOL    HW118924  -0.030   8.350   0.940  1.7380  0.3324  2.2557
 3667SOL    HW218925   0.027   8.301   0.795 -2.4540 -0.3270  0.7717
 3668SOL     OW18926   4.991   3.492   1.963 -0.1881 -1.0735  0.3583
 3668SOL    HW118927   4.900   3.451   1.966 -0.4302 -0.5911 -0.0852
 3668SOL    HW218928   5.022   3.496   1.868  0.8277 -2.3648  0.6162
 3669SOL     OW18929   1.182   1.047   0.755 -0.1059 -0.0629  0.2819
 3669SOL    HW118930   1.243   1.016   0.681  1.4076 -0.6683  1.7476
 3669SOL    HW218931   1.170   0.973   0.821  0.4040  1.1966  1.8134
 3670SOL     OW18932   4.061   2.768   0.306  0.0302 -0.0236  0.3195
 3670SOL    HW118933   3.987   2.814   0.355  0.2918 -1.1192  1.8039
 3670SOL    HW218934   4.073   2.676   0.343  1.7418 -0.0762 -0.3016
 3671SOL     OW18935   2.174   7.142   1.067  0.5776 -0.3565  0.1069
 3671SOL    HW118936   2.223   7.196   0.998  0.4750  0.5161  0.7029
 3671SOL    HW218937   2.103   7.087   1.023  1.2035 -0.5892 -0.6015
 3672SOL     OW18938   0.320   6.122   1.328  0.4997 -0.6300 -0.1610
 3672SOL    HW118939   0.361   6.200   1.374  0.8139 -0.9963  0.1747
 3672SOL    HW218940   0.295   6.052   1.395 -1.3021 -0.1319 -0.2763
 3673SOL     OW18941   4.350   1.722   0.103 -0.0005 -0.1514  0.4350
 3673SOL    HW118942   4.358   1.708   0.202  1.8182 -2.1210  0.0487
 3673SOL    HW218943   4.441   1.719   0.062 -0.4298  3.6244 -0.9755
 3674SOL     OW18944   3.285   8.320   1.233  0.2170  0.0227  0.0342
 3674SOL    HW118945   3.193   8.356   1.249  1.3374  3.2435 -0.3297
 3674SOL    HW218946   3.317   8.273   1.315 -1.6454 -0.9666  0.2307
 3675SOL     OW18947   9.709   5.891   2.178  0.4962  0.4664  0.3321
 3675SOL    HW118948   9.805   5.888   2.148  0.9894 -3.4302  1.9439
 3675SOL    HW218949   9.702   5.946   2.261  1.2094  1.4186 -0.2325
 3676SOL     OW18950   3.689   9.684   0.484 -0.3308  0.0503  0.1558
 3676SOL    HW118951   3.607   9.714   0.435 -2.0332 -1.2746  2.1208
 3676SOL    HW218952   3.716   9.594   0.450 -0.6895 -0.2489  0.6547
 3678SOL     OW18953   8.949   7.350   2.188 -0.5040 -0.0772  0.2425
 3678SOL    HW118954   8.978   7.280   2.253 -2.3986  1.0104  2.2934
 3678SOL    HW218955   8.856   7.330   2.156 -0.6968  0.9860  0.1187
 3679SOL     OW18956   9.270   6.238   1.782  0.1624 -0.5774 -0.2616
 3679SOL    HW118957   9.358   6.252   1.828  0.3812 -0.6071 -0.6641
 3679SOL    HW218958   9.196   6.272   1.840  0.5225  0.4220 -0.3764
 3680SOL     OW18959   9.446   1.246   1.280  0.0520  0.6424 -0.0323
 3680SOL    HW118960   9.373   1.309   1.255  0.1650  0.7770 -0.0209
 3680SOL    HW218961   9.416   1.188   1.355 -0.0468  0.6906 -0.0348
 3681SOL     OW18962   8.671   8.858   0.369  1.1352 -0.4312 -0.1473
 3681SOL    HW118963   8.663   8.865   0.468  0.4613  0.4508 -0.2644
 3681SOL    HW218964   8.753   8.907   0.339  1.5927 -1.0888  0.0172
 3682SOL     OW18965   2.740   5.640   1.131  0.0374 -0.0596  0.0255
 3682SOL    HW118966   2.695   5.729   1.130 -0.0979 -0.1225  0.5342
 3682SOL    HW218967   2.682   5.573   1.086  0.6670  0.3595 -1.4448
 3683SOL     OW18968   3.363   4.962   0.157  0.0535 -0.1101  0.1306
 3683SOL    HW118969   3.329   5.055   0.165  0.8608  0.2764 -0.7588
 3683SOL    HW218970   3.371   4.921   0.247  1.7942  1.4602  0.7418
 3684SOL     OW18971   0.325   5.429   1.407  0.0821 -0.4652  0.0298
 3684SOL    HW118972   0.422   5.450   1.410 -0.1363  0.7544 -1.3190
 3684SOL    HW218973   0.282   5.477   1.332 -1.4854 -1.4024  0.2945
 3687SOL     OW18974   4.224   5.146   1.834 -0.2984  0.0550  0.1433
 3687SOL    HW118975   4.263   5.054   1.834  0.1154  0.2254  0.7214
 3687SOL    HW218976   4.261   5.197   1.911 -1.7325  0.1836  0.7692
 3688SOL     OW18977   2.197   5.208   1.559 -0.1352 -0.3060 -0.5773
 3688SOL    HW118978   2.105   5.216   1.520  0.0576  0.7099 -0.8326
 3688SOL    HW218979   2.248   5.139   1.508  0.0074  0.7835 -1.9440
 3689SOL     OW18980   4.151   9.155   1.676 -0.8059 -0.5250 -0.1597
 3689SOL    HW118981   4.084   9.196   1.738 -1.0522  0.6314 -1.1755
 3689SOL    HW218982   4.234   9.211   1.675 -0.5975 -0.8409 -0.4532
 3690SOL     OW18983   8.632   4.558   0.644  0.0179 -0.5835  0.4379
 3690SOL    HW118984   8.586   4.608   0.718  0.1557 -0.3701  0.3794
 3690SOL    HW218985   8.711   4.509   0.680  0.5308  0.1330  0.2936
 3691SOL     OW18986   9.928   6.468   0.078  0.7444  0.4788 -0.0298
 3691SOL    HW118987   9.841   6.446   0.034  1.3737  0.7709 -1.4334
 3691SOL    HW218988   9.992   6.393   0.066  1.2481  0.9737 -0.5011
 3693SOL     OW18989   1.722   7.213   1.323  0.6013  0.7711 -0.1188
 3693SOL    HW118990   1.800   7.178   1.270  2.5581  0.8436  2.5907
 3693SOL    HW218991   1.735   7.189   1.420 -2.5452  1.1885  0.4413
 3694SOL     OW18992   9.940   8.246   0.184  0.2070  0.0314  0.2082
 3694SOL    HW118993   9.923   8.331   0.135  1.3271  0.7473  1.0327
 3694SOL    HW218994  10.004   8.189   0.132  1.7817  1.0038  1.0400
 3696SOL     OW18995   8.401   6.032   1.641  0.2922  0.4752 -0.3819
 3696SOL    HW118996   8.315   6.009   1.598  1.3365 -0.7592 -1.8315
 3696SOL    HW218997   8.413   6.132   1.640 -1.0685  0.6541 -0.1949
 3698SOL     OW18998   8.727   0.894   0.231 -0.2200  0.3785  0.3609
 3698SOL    HW118999   8.798   0.889   0.160 -0.1570 -0.1666  0.4529
 3698SOL    HW219000   8.717   0.803   0.273 -1.2201  0.3631  0.1017
 3699SOL     OW19001   4.031   2.044   2.152  0.0873 -0.3563  0.2709
 3699SOL    HW119002   4.049   2.051   2.250  0.0611  0.5862  0.2092
 3699SOL    HW219003   3.968   1.968   2.136 -0.3509 -0.1631  1.0428
 3700SOL     OW19004   2.020   1.577   0.761 -0.1991  0.0084 -0.1394
 3700SOL    HW119005   1.961   1.554   0.838 -2.1678 -1.7099 -2.0854
 3700SOL    HW219006   2.096   1.512   0.757 -1.6999 -1.7483 -1.2875
 3701SOL     OW19007   8.889   9.476   1.193  0.4450  0.3054  0.2542
 3701SOL    HW119008   8.846   9.415   1.259  0.2583 -0.1273 -0.2568
 3701SOL    HW219009   8.926   9.556   1.240 -0.0480  0.2040  0.8202
 3702SOL     OW19010   4.484   4.524   0.211  0.5318 -0.1760 -0.0612
 3702SOL    HW119011   4.541   4.472   0.276  1.0850  0.8200  0.2671
 3702SOL    HW219012   4.407   4.468   0.183  1.2198 -1.2508  0.1410
 3703SOL     OW19013   3.155   0.271   0.672  0.8957  0.4612  0.6385
 3703SOL    HW119014   3.159   0.365   0.637  0.7657  0.3529  0.3356
 3703SOL    HW219015   3.155   0.207   0.596  0.1396  0.2412  0.8213
 3705SOL     OW19016   3.867   0.343   1.650  0.1946 -0.1091  0.0996
 3705SOL    HW119017   3.955   0.312   1.688 -0.0022 -1.1362 -0.2785
 3705SOL    HW219018   3.879   0.366   1.554  0.1227  0.0663  0.1330
 3708SOL     OW19019   4.756   1.256   1.184 -0.4765 -0.3590  0.3110
 3708SOL    HW119020   4.794   1.170   1.218 -1.6082 -0.7269  0.6505
 3708SOL    HW219021   4.685   1.236   1.115  0.3009  0.3304 -0.7054
 3709SOL     OW19022   8.939   3.865   0.056 -0.3520 -0.7384  0.3107
 3709SOL    HW119023   8.849   3.874   0.014 -0.3805 -0.5977  0.4052
 3709SOL    HW219024   9.004   3.833  -0.013 -0.2094  0.3439 -0.0746
 3710SOL     OW19025   0.848   0.236   1.019  0.1203 -0.2298 -0.1177
 3710SOL    HW119026   0.920   0.226   0.950  0.1315  0.8287 -0.2667
 3710SOL    HW219027   0.798   0.321   1.003  0.2587  0.1342  1.2962
 3711SOL     OW19028   9.247   0.621   2.089  0.3504 -0.2307 -0.0569
 3711SOL    HW119029   9.179   0.637   2.017 -1.2326  0.0370  1.4554
 3711SOL    HW219030   9.302   0.540   2.067 -0.7627 -0.7091 -1.0883
 3712SOL     OW19031   0.913   9.136   0.757  0.3124 -0.0521  0.2598
 3712SOL    HW119032   1.011   9.145   0.772  0.5918 -2.0836 -0.1360
 3712SOL    HW219033   0.895   9.059   0.696 -1.4994  0.6694 -0.1667
 3714SOL     OW19034   0.404   3.237   0.959  0.8650  0.6286  0.1610
 3714SOL    HW119035   0.415   3.138   0.949  1.5318  0.8019 -0.9145
 3714SOL    HW219036   0.308   3.261   0.946  1.1114  0.4069 -2.3639
 3715SOL     OW19037   1.957   9.099   0.288  0.1531 -0.7804  0.4228
 3715SOL    HW119038   1.898   9.175   0.316 -0.0560  0.0704 -2.2227
 3715SOL    HW219039   1.901   9.020   0.263  0.3055 -1.1896  1.3293
 3716SOL     OW19040   9.372   1.056   0.540  0.1412  0.4030 -0.4394
 3716SOL    HW119041   9.458   1.108   0.536  0.2857  0.2141  0.1854
 3716SOL    HW219042   9.381   0.982   0.606 -0.3046  0.0105 -0.8176
 3717SOL     OW19043   0.006   0.153   1.612  0.0786  0.1728 -0.1127
 3717SOL    HW119044   0.074   0.130   1.682 -0.5562 -1.9497 -0.1560
 3717SOL    HW219045  -0.082   0.114   1.637 -1.1000  2.6960 -0.1927
 3719SOL     OW19046   3.427   8.550   1.113  0.4521 -0.2817  0.0062
 3719SOL    HW119047   3.458   8.499   1.193  1.1880 -0.0830 -0.1426
 3719SOL    HW219048   3.342   8.510   1.079  0.6802 -1.0140  0.2729
 3720SOL     OW19049   0.267   4.301   0.421  0.0061  0.2505  0.0293
 3720SOL    HW119050   0.366   4.293   0.413 -0.0329  1.4282 -1.6764
 3720SOL    HW219051   0.234   4.377   0.366 -1.7000  0.7752  1.7119
 3721SOL     OW19052   2.445   4.847   0.587 -0.2413  0.1869  0.4682
 3721SOL    HW119053   2.414   4.753   0.571 -0.8222  0.4282  0.1734
 3721SOL    HW219054   2.543   4.853   0.567 -0.1130 -0.4461  0.8709
 3722SOL     OW19055   0.498   7.680   0.087 -0.2457  0.0234  0.7143
 3722SOL    HW119056   0.560   7.685   0.165  0.9958 -0.5302 -0.2051
 3722SOL    HW219057   0.514   7.759   0.027 -0.8113  0.1670  0.7564
 3724SOL     OW19058   8.089   9.103   1.079  0.3316 -0.4512 -0.1368
 3724SOL    HW119059   8.090   9.146   1.169  0.6403  0.8569 -0.7430
 3724SOL    HW219060   8.088   9.175   1.009 -0.2433 -1.4596 -1.1625
 3725SOL     OW19061   8.164   1.892   1.144 -0.0381  0.0534  0.0640
 3725SOL    HW119062   8.074   1.853   1.164  0.7370 -0.9064  1.8418
 3725SOL    HW219063   8.215   1.903   1.229  2.0359 -0.7295 -1.0260
 3726SOL     OW19064   4.051   2.926   0.553 -0.5144  0.2416 -0.0919
 3726SOL    HW119065   4.032   2.995   0.622  0.1409 -0.5418  0.8800
 3726SOL    HW219066   4.137   2.880   0.574 -0.2620  0.0516 -1.4761
 3727SOL     OW19067   0.225   6.251   0.418  0.1319 -0.2406  0.1728
 3727SOL    HW119068   0.237   6.212   0.327  4.2045  0.0792  0.4858
 3727SOL    HW219069   0.218   6.350   0.412  1.0841 -0.1642  0.2338
 3729SOL     OW19070   3.120   8.485   1.033  0.0823 -0.1643 -0.2852
 3729SOL    HW119071   3.108   8.584   1.041 -3.7423 -0.5632 -0.2086
 3729SOL    HW219072   3.082   8.440   1.115  0.9221 -1.7432 -0.7391
 3730SOL     OW19073   8.278   2.770   0.194 -0.1990 -0.3844  0.2273
 3730SOL    HW119074   8.345   2.829   0.239  0.0895 -1.4190  1.1519
 3730SOL    HW219075   8.246   2.815   0.110  2.0202 -0.0754 -0.5070
 3731SOL     OW19076   8.756   6.736   0.955 -0.3483  0.5721  0.0293
 3731SOL    HW119077   8.670   6.784   0.937  0.0551  1.1978 -0.2197
 3731SOL    HW219078   8.768   6.664   0.887 -0.4051  0.8401 -0.2640
 3732SOL     OW19079   8.552   1.765   1.390  0.4918  0.4150 -0.5059
 3732SOL    HW119080   8.479   1.833   1.393 -0.6789 -0.8331  0.0978
 3732SOL    HW219081   8.634   1.801   1.436 -0.4499  1.0142  0.7317
 3733SOL     OW19082   9.456   0.911   0.773 -0.1948  0.1051  0.1257
 3733SOL    HW119083   9.514   0.840   0.815  1.1267  1.0770 -0.0165
 3733SOL    HW219084   9.496   1.001   0.791 -0.5659  0.6598 -1.7040
 3734SOL     OW19085   3.799   9.423   0.342 -0.6414 -0.1139  0.1063
 3734SOL    HW119086   3.850   9.403   0.426 -0.1436 -1.0581 -0.4034
 3734SOL    HW219087   3.739   9.345   0.320 -0.2254 -0.1920 -0.7987
 3735SOL     OW19088   8.836   6.598   2.121  0.2007 -0.2138 -0.1618
 3735SOL    HW119089   8.793   6.516   2.082 -0.7143  0.4023 -0.4684
 3735SOL    HW219090   8.830   6.595   2.221  0.5773 -0.7376 -0.1541
 3736SOL     OW19091   0.842   7.457   0.793  0.2407 -0.1457 -0.0379
 3736SOL    HW119092   0.823   7.552   0.772  0.1899 -0.3526 -0.9621
 3736SOL    HW219093   0.773   7.421   0.856  0.1464  0.3689  0.1486
 3737SOL     OW19094   2.332   8.017   0.982  0.1552  0.0787 -0.2757
 3737SOL    HW119095   2.299   7.982   0.894  0.2754 -0.8023  0.0209
 3737SOL    HW219096   2.423   8.056   0.971  0.1527  0.0059 -0.5530
 3739SOL     OW19097   1.212   9.824   2.160  0.0890 -0.4256 -0.1358
 3739SOL    HW119098   1.125   9.822   2.209 -0.2283 -0.2609 -0.6832
 3739SOL    HW219099   1.194   9.829   2.062  0.7309  1.5377 -0.1671
 3740SOL     OW19100   1.651   9.334   0.050 -0.1852  0.5434  0.0751
 3740SOL    HW119101   1.627   9.241   0.020 -1.0292  1.7962 -3.4328
 3740SOL    HW219102   1.585   9.364   0.119 -1.1390 -0.7223 -0.2451
 3741SOL     OW19103   3.168   0.397   0.167  0.4693  0.0167  0.5714
 3741SOL    HW119104   3.239   0.437   0.225  0.1055  2.1177 -0.3574
 3741SOL    HW219105   3.212   0.350   0.090  0.8854 -0.1253  0.8908
 3742SOL     OW19106   3.532   0.885   0.680 -0.6958 -0.3288 -0.4452
 3742SOL    HW119107   3.436   0.864   0.698 -0.6578 -1.4169 -1.4244
 3742SOL    HW219108   3.541   0.924   0.588 -0.1684 -0.5260 -0.4815
 3744SOL     OW19109   2.669   5.211   1.440 -0.3075  0.2249  0.3520
 3744SOL    HW119110   2.632   5.182   1.352  0.7375 -0.6088  0.1845
 3744SOL    HW219111   2.596   5.251   1.495 -1.2984 -0.6766 -0.2902
 3746SOL     OW19112   0.941   0.967   0.647  1.0973  0.1616 -0.0419
 3746SOL    HW119113   0.920   1.004   0.557  0.6181 -0.2105 -0.0852
 3746SOL    HW219114   1.022   1.012   0.684 -1.5714  3.9663  1.4845
 3748SOL     OW19115   3.760   3.570   2.271  0.0638 -0.0555 -0.1775
 3748SOL    HW119116   3.783   3.605   2.181 -0.3012  0.1160 -0.2016
 3748SOL    HW219117   3.840   3.578   2.331  0.1619  0.2682 -0.3500
 3749SOL     OW19118   8.518   6.762   1.676  0.4478 -0.2864 -0.1312
 3749SOL    HW119119   8.557   6.696   1.741  0.2813  0.4553  0.7229
 3749SOL    HW219120   8.447   6.816   1.721  0.4044  0.3045 -0.9024
 3750SOL     OW19121   9.353   4.054   0.709 -0.2873  0.6586 -0.7260
 3750SOL    HW119122   9.280   3.989   0.730 -1.8542  2.3494 -0.8779
 3750SOL    HW219123   9.438   4.023   0.753 -1.9639  0.6683  2.6948
 3752SOL     OW19124   1.730   7.190   2.271  0.3673  0.1064 -0.1895
 3752SOL    HW119125   1.798   7.120   2.294 -0.3774 -0.7432 -0.5494
 3752SOL    HW219126   1.752   7.274   2.321  0.7765 -0.6410  0.9338
 3753SOL     OW19127   3.038   1.158   1.242  0.2952  0.3206 -0.0746
 3753SOL    HW119128   3.126   1.201   1.263  1.3004 -1.2304 -0.9685
 3753SOL    HW219129   3.028   1.075   1.298 -0.3603  0.2150 -0.3480
 3754SOL     OW19130   8.858   2.477   2.037  0.2785 -0.3711 -0.6628
 3754SOL    HW119131   8.768   2.442   2.065  0.8570 -0.6914  0.8472
 3754SOL    HW219132   8.846   2.564   1.990 -0.6238  1.1379  2.2271
 3756SOL     OW19133   0.009   5.823   1.025 -0.4987  0.0968  0.0846
 3756SOL    HW119134   0.040   5.915   1.049 -1.4071  0.7528 -1.1623
 3756SOL    HW219135   0.072   5.783   0.959 -0.0014 -0.2553  0.7685
 3757SOL     OW19136   0.054   1.193   0.729 -0.4188 -0.2141 -0.0422
 3757SOL    HW119137   0.073   1.264   0.662  1.1375 -0.3655  0.2086
 3757SOL    HW219138  -0.025   1.139   0.699 -0.1617  0.1410 -1.4112
 3758SOL     OW19139   3.427   2.154   1.148 -0.2954  0.3388  0.1121
 3758SOL    HW119140   3.449   2.249   1.171 -0.6904  0.8107 -1.3907
 3758SOL    HW219141   3.360   2.152   1.074  0.4957 -1.1159 -0.5988
 3760SOL     OW19142   3.068   6.023   0.996  0.5087  0.2449  0.1783
 3760SOL    HW119143   3.017   5.954   1.048 -0.7962  0.6041 -0.6075
 3760SOL    HW219144   3.032   6.114   1.017  1.3153  0.5719  0.1671
 3761SOL     OW19145   1.919   3.935   0.995  0.4982  0.6692  0.3874
 3761SOL    HW119146   1.983   3.945   1.072  1.5819  0.2255 -0.4374
 3761SOL    HW219147   1.898   4.026   0.958  1.3864  0.7654  0.0927
 3762SOL     OW19148   2.864   9.764   0.324 -0.0876 -1.0029 -0.1966
 3762SOL    HW119149   2.908   9.848   0.291 -1.6335  0.0043  0.2535
 3762SOL    HW219150   2.919   9.725   0.398  0.5004 -0.2285 -0.2103
 3763SOL     OW19151   1.735   8.026   0.668  0.2466  0.3858  0.2859
 3763SOL    HW119152   1.650   8.062   0.707  1.3348  2.7123  0.6169
 3763SOL    HW219153   1.715   7.945   0.613 -2.3808  1.6732 -0.7568
 3764SOL     OW19154   8.894   6.571   0.738 -0.0774  0.2586  0.1220
 3764SOL    HW119155   8.920   6.652   0.686 -0.7928  0.6927  0.4403
 3764SOL    HW219156   8.976   6.521   0.764  0.3609  0.8088 -0.1874
 3765SOL     OW19157   4.215   3.747   1.875  0.3102  0.5139 -0.3134
 3765SOL    HW119158   4.140   3.713   1.818 -0.7231 -1.1617  1.9437
 3765SOL    HW219159   4.300   3.703   1.848 -0.2648 -0.6681 -0.2501
 3766SOL     OW19160   0.700   8.159   0.816 -0.1771  0.9559 -0.5486
 3766SOL    HW119161   0.772   8.214   0.857 -0.4992  1.8026 -1.1269
 3766SOL    HW219162   0.722   8.140   0.721  0.2937 -0.5472 -0.1687
 3768SOL     OW19163   1.173   4.504   1.508  0.7830 -0.7428 -0.3659
 3768SOL    HW119164   1.079   4.496   1.475  0.6425  0.7398 -0.3711
 3768SOL    HW219165   1.184   4.592   1.555  1.8777 -1.3711  0.5863
 3769SOL     OW19166   9.959   5.260   1.297  0.5210 -0.0147 -0.1415
 3769SOL    HW119167   9.908   5.346   1.308  0.3479 -0.1962  0.5385
 3769SOL    HW219168  10.003   5.237   1.384 -1.6411 -2.0034  0.4625
 3771SOL     OW19169   9.541   1.830   1.112 -0.5199 -0.3088  0.2662
 3771SOL    HW119170   9.476   1.758   1.089 -0.6372 -1.0080  2.6334
 3771SOL    HW219171   9.510   1.879   1.194  2.7751 -1.8651  2.5691
 3772SOL     OW19172   2.955   9.748   0.032  0.6036  0.6373 -0.1842
 3772SOL    HW119173   2.966   9.846   0.050  1.3825  0.4502  0.3660
 3772SOL    HW219174   3.033   9.698   0.071 -0.8051 -0.4206  1.3195
 3773SOL     OW19175   0.125   4.863   0.215 -0.2359 -0.0953  0.4440
 3773SOL    HW119176   0.216   4.822   0.220 -0.2385  0.0318  1.8434
 3773SOL    HW219177   0.058   4.800   0.255 -0.2735  1.1192  2.3655
 3774SOL     OW19178   4.024   5.198   2.216 -0.2442 -0.3935 -0.6404
 3774SOL    HW119179   3.927   5.180   2.198 -0.1132  1.1327 -3.2157
 3774SOL    HW219180   4.041   5.297   2.209  1.0658 -0.3847  2.1595
 3775SOL     OW19181   8.901   5.174   1.981  0.5587  0.6014  0.1355
 3775SOL    HW119182   8.845   5.168   1.898  0.5141 -0.3357  0.2263
 3775SOL    HW219183   8.887   5.264   2.024 -2.2551 -0.2496  1.1271
 3776SOL     OW19184   9.594   6.594   1.533 -0.1281  0.2562 -0.2206
 3776SOL    HW119185   9.673   6.654   1.523 -0.8397  1.0377 -1.2066
 3776SOL    HW219186   9.625   6.499   1.533  0.8321  0.5599 -0.3861
 3779SOL     OW19187   2.186   5.723   1.318  0.5706 -0.1818 -0.1703
 3779SOL    HW119188   2.124   5.783   1.267  0.3402  0.0674  0.4001
 3779SOL    HW219189   2.280   5.740   1.288  0.3390 -0.8304 -1.3104
 3780SOL     OW19190   9.245   0.245   1.939  0.5457  0.2028 -0.5739
 3780SOL    HW119191   9.159   0.291   1.962  0.3772 -1.3741  2.1849
 3780SOL    HW219192   9.245   0.153   1.978  2.6121 -0.6234 -2.4082
 3781SOL     OW19193   3.323   3.853   0.412 -0.4133 -0.3033 -0.1326
 3781SOL    HW119194   3.231   3.834   0.447 -1.6318 -0.0934 -3.0407
 3781SOL    HW219195   3.328   3.949   0.383  0.3650 -0.6012 -0.9979
 3782SOL     OW19196   2.897   6.052   0.636  0.0972 -0.5382 -0.0960
 3782SOL    HW119197   2.980   6.099   0.664 -0.1345 -0.1493 -0.0624
 3782SOL    HW219198   2.842   6.029   0.716  0.1147 -0.6903 -0.1268
 3784SOL     OW19199   9.479   8.526   1.350  0.2179 -0.1377  0.2358
 3784SOL    HW119200   9.553   8.561   1.293 -0.0422 -2.5437 -1.6637
 3784SOL    HW219201   9.499   8.543   1.446  2.9537 -0.2227 -0.2963
 3785SOL     OW19202   9.495   3.832   1.589 -0.5270 -0.5643  0.2255
 3785SOL    HW119203   9.412   3.778   1.607 -0.2484  0.1795  3.9961
 3785SOL    HW219204   9.568   3.803   1.651  0.7647  1.6539 -0.2176
 3786SOL     OW19205   3.147   6.879   2.021 -0.2274  0.6580 -0.4560
 3786SOL    HW119206   3.101   6.821   1.954  1.8801 -0.8887 -0.5931
 3786SOL    HW219207   3.168   6.968   1.978  0.9582 -0.2593 -1.8163
 3787SOL     OW19208   3.856   4.495   0.583  0.1726  0.0576 -0.0612
 3787SOL    HW119209   3.933   4.512   0.644 -0.9922  1.1933  1.1505
 3787SOL    HW219210   3.825   4.401   0.593  0.2856  0.1091  0.7732
 3788SOL     OW19211   4.012   9.346   1.812 -0.3217  0.2322  0.0660
 3788SOL    HW119212   4.071   9.425   1.797  0.6380 -0.2103  1.4063
 3788SOL    HW219213   3.933   9.374   1.866 -1.0108  0.6781 -1.1450
 3789SOL     OW19214   2.627   2.501   0.690  0.6859  0.5341  0.5796
 3789SOL    HW119215   2.590   2.500   0.597 -0.1813  1.8807  0.9067
 3789SOL    HW219216   2.555   2.528   0.755  2.0913  2.6437  1.2872
 3790SOL     OW19217   1.938   7.503   0.666  0.3863  0.1795 -0.7368
 3790SOL    HW119218   1.863   7.552   0.711 -1.6524 -1.4499 -2.2911
 3790SOL    HW219219   1.970   7.430   0.726  0.5336  0.6782 -0.2020
 3791SOL     OW19220   3.166   5.599   1.597 -0.2033  0.6157  0.1534
 3791SOL    HW119221   3.198   5.672   1.657  0.3313  0.4153  0.1106
 3791SOL    HW219222   3.110   5.535   1.650  1.2419 -0.1985  0.6966
 3793SOL     OW19223   1.228   3.000   0.992 -0.2211 -0.2290 -0.1792
 3793SOL    HW119224   1.214   2.901   0.994  0.4834 -0.4056 -2.3090
 3793SOL    HW219225   1.315   3.020   0.948  0.3472  1.3037  1.5886
 3794SOL     OW19226   2.527   3.111   0.344  0.1305 -0.0773 -0.3395
 3794SOL    HW119227   2.595   3.040   0.362 -0.8833 -0.9854 -0.0465
 3794SOL    HW219228   2.489   3.144   0.431  0.8333  1.0713 -0.4550
 3795SOL     OW19229   1.187   0.778   0.861 -0.2086 -0.2904  0.5546
 3795SOL    HW119230   1.205   0.744   0.769  1.0140 -0.8219  0.9927
 3795SOL    HW219231   1.134   0.710   0.912  1.2544 -1.0538  1.0574
 3797SOL     OW19232   8.868   5.690   1.429 -0.0430  0.3835  0.1185
 3797SOL    HW119233   8.840   5.768   1.372 -0.6310  0.2944  0.2825
 3797SOL    HW219234   8.925   5.628   1.375 -2.3646 -0.8139 -1.0445
 3798SOL     OW19235   9.998   3.142   1.624  0.2328  0.2654 -0.4376
 3798SOL    HW119236   9.970   3.164   1.531 -1.0233 -0.3242 -0.1999
 3798SOL    HW219237  10.007   3.043   1.634 -2.4798  0.1158  0.8575
 3799SOL     OW19238   8.755   2.975   0.707  0.1109 -0.0696 -0.0232
 3799SOL    HW119239   8.659   2.984   0.731  0.0832 -0.3498 -0.0300
 3799SOL    HW219240   8.781   3.049   0.645 -1.1294 -2.2538 -3.2660
 3800SOL     OW19241   9.871   3.605   1.906  0.6089 -0.0609 -0.0118
 3800SOL    HW119242   9.825   3.560   1.829  0.1714 -1.5544  1.0913
 3800SOL    HW219243   9.968   3.581   1.905  0.7946  0.7010 -0.6452
 3801SOL     OW19244   8.265   8.889   1.817  0.9113  0.1890  0.6953
 3801SOL    HW119245   8.304   8.887   1.909  0.2547 -0.8602  0.9639
 3801SOL    HW219246   8.165   8.882   1.823  0.8577  0.1897 -0.0902
 3802SOL     OW19247   2.948   0.812   0.839 -0.0229  0.3008 -0.0126
 3802SOL    HW119248   2.923   0.882   0.771  0.3308  0.6957  0.2624
 3802SOL    HW219249   2.985   0.856   0.920 -2.3357 -0.0492  1.2838
 3803SOL     OW19250   8.779   0.506   1.856  0.2513 -0.1915 -0.2545
 3803SOL    HW119251   8.703   0.535   1.914  0.2714  1.6725 -1.1160
 3803SOL    HW219252   8.757   0.417   1.815 -0.3005 -0.9236  1.5719
 3804SOL     OW19253   8.357   9.738   1.138  0.1288  0.5097 -0.4330
 3804SOL    HW119254   8.366   9.773   1.231  2.0692  0.1449 -0.4653
 3804SOL    HW219255   8.274   9.682   1.131  0.3612 -0.0500  1.2560
 3805SOL     OW19256   9.196   4.679   2.103  0.0388 -0.5553  0.2664
 3805SOL    HW119257   9.212   4.630   2.188  0.0557 -1.3591 -0.2018
 3805SOL    HW219258   9.232   4.772   2.111  2.2663 -1.3880  0.2886
 3806SOL     OW19259   8.413   2.364   1.443 -0.1212  0.3830 -0.1158
 3806SOL    HW119260   8.403   2.424   1.364 -1.0497 -0.1610 -0.4156
 3806SOL    HW219261   8.489   2.396   1.499 -0.4992  1.7330 -0.3570
 3807SOL     OW19262   8.182   8.801   1.408  0.4883  0.2786 -0.4636
 3807SOL    HW119263   8.087   8.832   1.408  0.3561 -0.1142  0.0004
 3807SOL    HW219264   8.215   8.792   1.314 -0.3947 -0.9666 -0.6748
 3808SOL     OW19265   2.331   1.352   0.241 -1.2134 -0.1032 -0.1746
 3808SOL    HW119266   2.236   1.337   0.269 -1.5835  1.4935 -0.5190
 3808SOL    HW219267   2.391   1.290   0.292 -2.2640  0.0902  1.3407
 3809SOL     OW19268   3.536   9.594   1.151  0.0084 -0.3263  0.1817
 3809SOL    HW119269   3.633   9.585   1.128 -0.1234  0.9180 -0.8874
 3809SOL    HW219270   3.494   9.503   1.154  1.1472 -0.8606  0.4581
 3810SOL     OW19271   1.454   6.634   1.206 -0.1089 -0.1087 -0.2914
 3810SOL    HW119272   1.373   6.660   1.153 -1.6506  1.2817  2.6244
 3810SOL    HW219273   1.500   6.717   1.238  0.5108 -0.9307  0.9509
 3812SOL     OW19274   1.155   1.507   0.178  0.4032 -0.3452 -0.1280
 3812SOL    HW119275   1.091   1.584   0.189  0.1113 -0.4919 -0.7835
 3812SOL    HW219276   1.216   1.503   0.257  0.0044  0.1770  0.2095
 3813SOL     OW19277   7.577   9.849   1.439  0.6382  0.4159 -0.5093
 3813SOL    HW119278   7.643   9.776   1.461 -0.7356 -1.1640 -1.5493
 3813SOL    HW219279   7.496   9.838   1.495  0.1384  0.7348 -1.1689
 3814SOL     OW19280   9.622   6.841   0.699  0.1555 -0.9223  0.2599
 3814SOL    HW119281   9.620   6.926   0.647 -0.4346  0.7511  2.9073
 3814SOL    HW219282   9.528   6.807   0.711  0.2262 -0.8876  0.8942
 3815SOL     OW19283   1.042   0.077   1.182  0.5975  0.0146 -0.4314
 3815SOL    HW119284   1.081   0.091   1.273 -2.7906 -0.0237  1.1111
 3815SOL    HW219285   1.025   0.166   1.139  0.3519  0.0833 -0.1938
 3816SOL     OW19286   2.862   5.827   0.331 -0.3910  0.5365  0.3585
 3816SOL    HW119287   2.928   5.858   0.262 -0.5306  0.3713  0.1504
 3816SOL    HW219288   2.806   5.754   0.293 -0.4559  0.4314  0.6562
 3817SOL     OW19289   5.033   3.986   1.209  0.4095  0.0863  0.8055
 3817SOL    HW119290   4.941   4.016   1.183  1.1044  0.5979 -1.0753
 3817SOL    HW219291   5.051   4.014   1.304 -1.5366 -0.4407  1.3535
 3818SOL     OW19292   0.518   2.530   0.018 -0.0313 -0.1191 -0.0026
 3818SOL    HW119293   0.595   2.470  -0.005  0.2070  0.6324 -1.2097
 3818SOL    HW219294   0.434   2.475   0.019  0.1043 -0.4038 -1.6622
 3819SOL     OW19295   0.024   8.633   2.025 -0.0420 -0.2924 -0.5597
 3819SOL    HW119296   0.111   8.603   1.985 -0.0135  1.8003 -2.1433
 3819SOL    HW219297  -0.006   8.718   1.981 -1.8810  0.1082  1.3640
 3820SOL     OW19298   3.287   3.326   1.384  0.1500  0.2127  0.4074
 3820SOL    HW119299   3.279   3.398   1.453 -0.7030 -0.3354  0.8826
 3820SOL    HW219300   3.375   3.336   1.336  0.9307  0.3681  1.8234
 3822SOL     OW19301   1.701   1.107   0.577 -0.2019  0.0166 -0.0080
 3822SOL    HW119302   1.656   1.090   0.665 -1.6861  0.5174 -0.6577
 3822SOL    HW219303   1.737   1.020   0.541  0.3607 -0.1989  1.0587
 3823SOL     OW19304   0.025   0.215   2.096  0.3813 -0.0518 -0.0702
 3823SOL    HW119305  -0.020   0.153   2.160  0.5404  0.5983  0.6751
 3823SOL    HW219306  -0.033   0.227   2.015 -0.7750  0.7620  0.8713
 3825SOL     OW19307   2.789   2.836   1.460 -0.1609  0.0908 -0.1682
 3825SOL    HW119308   2.830   2.864   1.547  1.6555 -0.3304 -0.8849
 3825SOL    HW219309   2.697   2.800   1.478  0.2556 -0.1516  1.6002
 3826SOL     OW19310   9.360   9.912   1.905 -0.9692 -0.2324 -0.0480
 3826SOL    HW119311   9.331   9.934   1.812  2.6833  3.2446 -0.4909
 3826SOL    HW219312   9.391   9.817   1.908  0.3741  0.0557 -2.8094
 3827SOL     OW19313   0.655   8.618   0.527  0.0381 -0.3994 -0.0277
 3827SOL    HW119314   0.561   8.584   0.522  0.3579 -1.2856 -0.0086
 3827SOL    HW219315   0.655   8.705   0.578 -0.7601 -0.4194  0.0223
 3828SOL     OW19316   8.704   3.076   0.044 -0.0214  0.2369  0.1881
 3828SOL    HW119317   8.774   3.066   0.115 -1.0471 -0.5877  1.0982
 3828SOL    HW219318   8.734   3.028  -0.039  1.2293  1.2996  0.0154
 3829SOL     OW19319   2.402   3.723   1.897  0.2668 -0.5202 -1.1480
 3829SOL    HW119320   2.473   3.672   1.848  2.6412  2.4342 -0.9578
 3829SOL    HW219321   2.444   3.780   1.967 -2.5798 -0.5296  0.6407
 3830SOL     OW19322   0.741   6.881   1.055 -0.4753 -0.7409 -0.7388
 3830SOL    HW119323   0.762   6.812   1.124 -1.1176 -1.1841 -0.9845
 3830SOL    HW219324   0.805   6.957   1.064  0.8258 -1.7658 -1.0427
 3831SOL     OW19325   0.029   7.598   0.757 -0.1622 -0.2813  0.0023
 3831SOL    HW119326  -0.029   7.529   0.800  1.4077 -0.1343  2.4173
 3831SOL    HW219327   0.032   7.679   0.815  2.7465 -0.4279  0.1109
 3832SOL     OW19328   8.387   0.349   0.054  0.2696  0.1215  0.5908
 3832SOL    HW119329   8.389   0.428  -0.008 -0.8769  0.0818  0.4868
 3832SOL    HW219330   8.377   0.381   0.149  2.1935  0.1895  0.7893
 3833SOL     OW19331   0.472   3.910   0.472 -0.1869 -0.3719  0.0697
 3833SOL    HW119332   0.538   3.924   0.545  1.3491 -1.9599 -0.9509
 3833SOL    HW219333   0.383   3.889   0.511  0.1732  0.6507  1.4721
 3834SOL     OW19334   4.422   4.639   2.234  0.4148 -0.7780 -0.0598
 3834SOL    HW119335   4.443   4.666   2.328  0.0093 -0.3849 -0.0862
 3834SOL    HW219336   4.480   4.561   2.209  0.1229 -1.2448  0.7067
 3835SOL     OW19337   3.594   0.336   0.081 -0.3237  0.4976  0.0139
 3835SOL    HW119338   3.569   0.432   0.065 -0.5707  0.3463 -0.5384
 3835SOL    HW219339   3.582   0.313   0.177 -1.5065  0.6624 -0.0887
 3836SOL     OW19340   9.147   8.942   0.345 -0.0883  0.0364 -0.1574
 3836SOL    HW119341   9.222   9.003   0.321  0.0882  0.4192  1.3114
 3836SOL    HW219342   9.117   8.961   0.438 -2.1355  0.0020 -0.7935
 3837SOL     OW19343   1.013   0.692   0.556 -0.1866  0.1873 -0.9039
 3837SOL    HW119344   0.981   0.768   0.612  2.8112  0.4653  0.5278
 3837SOL    HW219345   1.037   0.726   0.465  1.3500  1.0135 -0.2018
 3838SOL     OW19346   2.908   0.000   0.196 -0.3518  0.0529  0.5607
 3838SOL    HW119347   2.926   0.065   0.270 -0.6604  0.8045 -0.0187
 3838SOL    HW219348   2.809  -0.005   0.180 -0.2993 -0.2727  0.3455
 3839SOL     OW19349   2.751   5.121   1.003 -0.2934  0.3602  0.4645
 3839SOL    HW119350   2.779   5.187   1.072  1.0151 -0.9727  1.2571
 3839SOL    HW219351   2.802   5.137   0.919 -2.6009  2.6053 -0.5541
 3840SOL     OW19352   1.450   3.630   0.262 -0.4443 -0.3552  0.1252
 3840SOL    HW119353   1.353   3.648   0.281 -0.2563  0.1356  0.6397
 3840SOL    HW219354   1.473   3.669   0.172 -0.4953  0.3831  0.4233
 3841SOL     OW19355   9.347   4.408   1.163 -0.4080  0.2182 -0.2171
 3841SOL    HW119356   9.265   4.465   1.156  0.2132  1.0955 -0.5897
 3841SOL    HW219357   9.373   4.376   1.072 -0.6085 -0.4583 -0.0388
 3842SOL     OW19358   9.814   7.098   1.821  0.0568  0.1198 -0.0760
 3842SOL    HW119359   9.885   7.090   1.751 -0.0966  0.6953 -0.2982
 3842SOL    HW219360   9.731   7.137   1.781 -0.3181 -0.3545  0.2315
 3843SOL     OW19361   3.146   1.613   1.121 -0.5256  0.2934 -0.0703
 3843SOL    HW119362   3.062   1.581   1.077 -0.1889 -1.0857  0.2807
 3843SOL    HW219363   3.163   1.560   1.204  1.0831  0.0708 -0.5249
 3845SOL     OW19364   9.136   1.205   0.248 -0.0171 -0.3223 -0.0111
 3845SOL    HW119365   9.113   1.215   0.151  1.1335 -0.3972 -0.2970
 3845SOL    HW219366   9.094   1.122   0.284  0.9730 -1.2202 -0.8940
 3846SOL     OW19367   2.744   4.664   0.990 -0.0626  0.5325  0.5546
 3846SOL    HW119368   2.674   4.728   1.022 -2.1476 -0.7197 -1.3691
 3846SOL    HW219369   2.760   4.678   0.892  1.2016 -0.2955  0.6258
 3847SOL     OW19370   0.021   4.335   0.082 -0.2071  0.1736 -0.3979
 3847SOL    HW119371  -0.057   4.361   0.139 -0.1283  0.0391 -0.2260
 3847SOL    HW219372   0.030   4.398   0.005 -0.7027 -0.0249 -0.6173
 3850SOL     OW19373   3.003   4.030   0.715 -0.1643  0.4778 -0.2823
 3850SOL    HW119374   2.919   4.083   0.725 -0.8513  0.2536 -4.1428
 3850SOL    HW219375   3.078   4.092   0.692 -0.2073  0.1826 -1.2210
 3852SOL     OW19376   0.649   5.709   0.785  0.1522  0.1388  0.2906
 3852SOL    HW119377   0.693   5.621   0.770 -0.1278 -0.1694  1.2064
 3852SOL    HW219378   0.667   5.770   0.708  1.0590 -0.4310  0.0486
 3853SOL     OW19379   2.816   8.521   1.698 -0.0271 -0.4418 -0.2486
 3853SOL    HW119380   2.723   8.534   1.664 -0.1906 -1.3473 -0.1462
 3853SOL    HW219381   2.875   8.493   1.623 -0.4184 -2.5842  0.2174
 3855SOL     OW19382   2.707   9.429   0.396 -0.4921  0.5661 -0.3122
 3855SOL    HW119383   2.724   9.499   0.327 -0.9130  0.7863 -0.1954
 3855SOL    HW219384   2.674   9.346   0.352  2.1402 -0.3243 -0.6827
 3856SOL     OW19385   9.792   3.952   2.159 -0.3584  0.2359 -0.4011
 3856SOL    HW119386   9.709   4.005   2.175 -0.6164  0.2307 -1.6904
 3856SOL    HW219387   9.769   3.855   2.152  0.0266  0.0007  1.2586
 3857SOL     OW19388   2.368   9.672   0.332 -0.1787  0.4422 -0.1252
 3857SOL    HW119389   2.426   9.673   0.413  0.0217 -0.7135 -0.2519
 3857SOL    HW219390   2.277   9.706   0.356 -0.6890 -1.6521  1.0287
 3858SOL     OW19391   8.910   0.744   0.521 -0.4056 -0.1446  0.3394
 3858SOL    HW119392   8.890   0.763   0.617 -0.1335 -0.0533  0.3790
 3858SOL    HW219393   8.831   0.700   0.479 -0.5049 -0.2372  0.6198
 3859SOL     OW19394   2.218   4.321   0.813 -0.0705  0.0413  0.1664
 3859SOL    HW119395   2.166   4.406   0.817 -0.2019 -0.0773  1.1184
 3859SOL    HW219396   2.289   4.329   0.743 -0.9932  0.4128 -0.7313
 3860SOL     OW19397   3.910   4.824   1.786 -0.1926 -0.4362  0.1015
 3860SOL    HW119398   3.958   4.847   1.871 -1.3706 -1.1859  0.9823
 3860SOL    HW219399   3.852   4.744   1.800  0.7879 -1.5227 -1.8505
 3862SOL     OW19400   3.666   8.726   1.497 -0.2331  0.3441  0.1668
 3862SOL    HW119401   3.756   8.686   1.483  0.7629  2.9496 -1.0981
 3862SOL    HW219402   3.647   8.793   1.426 -3.8150 -1.1913 -0.4361
 3863SOL     OW19403   9.336   4.472   0.592 -0.1571  0.7333 -0.4769
 3863SOL    HW119404   9.270   4.402   0.619  0.2847  0.3301 -0.4248
 3863SOL    HW219405   9.320   4.556   0.644 -1.6556  1.1773 -1.6355
 3865SOL     OW19406   1.903   6.441   2.177  0.2050  0.3901  0.1899
 3865SOL    HW119407   1.901   6.359   2.119  0.9453  1.2311 -1.0274
 3865SOL    HW219408   1.958   6.423   2.258  0.0738 -0.4253  0.1085
 3866SOL     OW19409   2.563   6.453   1.640 -0.2592 -0.3303 -0.1159
 3866SOL    HW119410   2.548   6.496   1.729 -2.3072 -1.1673 -0.0145
 3866SOL    HW219411   2.603   6.362   1.654 -2.7481 -1.4452  0.1554
 3868SOL     OW19412   1.377   0.837   1.262  0.2491  0.3121  0.2542
 3868SOL    HW119413   1.347   0.874   1.350  0.0196  1.1248 -0.1591
 3868SOL    HW219414   1.476   0.848   1.253  0.4900 -1.0517  0.9984
 3869SOL     OW19415   1.110   0.828   0.159  0.0585  0.0588 -0.2299
 3869SOL    HW119416   1.048   0.750   0.148 -1.1740  0.3651  3.6102
 3869SOL    HW219417   1.181   0.804   0.225  0.9032  1.4535 -0.6214
 3870SOL     OW19418   9.328   9.385   1.335  0.1022  0.6284 -0.1055
 3870SOL    HW119419   9.271   9.392   1.253  1.5115 -2.1428 -1.3938
 3870SOL    HW219420   9.416   9.344   1.311  1.4749  1.9469  2.4046
 3871SOL     OW19421   0.152   8.461   1.411  0.0365 -0.3482 -0.7361
 3871SOL    HW119422   0.165   8.531   1.481  0.8917 -0.4081 -0.8359
 3871SOL    HW219423   0.128   8.374   1.454  0.8399 -0.4532 -0.5014
 3872SOL     OW19424   8.868   8.410   0.148  0.5873  0.3151  0.4368
 3872SOL    HW119425   8.833   8.374   0.062  2.1450  0.0747 -0.1191
 3872SOL    HW219426   8.846   8.346   0.222  0.7389 -0.3200 -0.0650
 3873SOL     OW19427   1.978   0.546   2.060 -0.3650  0.2204  0.4820
 3873SOL    HW119428   1.889   0.555   2.104 -1.0514 -0.4695 -0.7469
 3873SOL    HW219429   1.972   0.575   1.964  0.3409 -1.3609 -0.0590
 3874SOL     OW19430   4.938   3.721   1.275 -0.6988 -0.0786 -0.1052
 3874SOL    HW119431   4.847   3.691   1.243 -1.1938  1.3266 -0.0571
 3874SOL    HW219432   4.967   3.801   1.222 -0.6025  1.0172  1.5533
 3875SOL     OW19433   9.766   7.908   0.156  0.5643 -0.1217 -0.2757
 3875SOL    HW119434   9.704   7.962   0.099  1.2378 -0.4553 -1.3385
 3875SOL    HW219435   9.748   7.811   0.144  2.1513 -0.2664 -1.5935
 3876SOL     OW19436   8.962   7.876   0.739  0.6612  0.7041 -0.1347
 3876SOL    HW119437   8.973   7.779   0.758  1.4779  0.8418  0.0765
 3876SOL    HW219438   8.913   7.919   0.814  0.7204  0.5528 -0.0105
 3877SOL     OW19439   7.813   9.450   1.956  0.1297  0.1181 -0.7580
 3877SOL    HW119440   7.901   9.431   1.913 -0.3865 -3.3871 -0.4486
 3877SOL    HW219441   7.797   9.386   2.031 -2.0671  1.6135  0.1341
 3878SOL     OW19442   3.476   3.673   2.123  0.6406 -0.0572 -0.1331
 3878SOL    HW119443   3.514   3.683   2.215  3.2327  2.5959 -1.3853
 3878SOL    HW219444   3.381   3.705   2.122  0.7716  0.4230  1.5199
 3879SOL     OW19445   3.435   3.148   0.875  0.4150  0.0194 -0.4769
 3879SOL    HW119446   3.431   3.119   0.779 -1.0977  1.0175 -0.7451
 3879SOL    HW219447   3.420   3.070   0.934 -0.4007 -0.3040 -1.1052
 3880SOL     OW19448   4.925   9.874   1.581  0.4570 -0.0756  0.6897
 3880SOL    HW119449   5.024   9.864   1.580  0.6182  1.2129  2.2536
 3880SOL    HW219450   4.889   9.845   1.670 -0.4077  0.8605  0.6590
 3881SOL     OW19451   3.493   4.589   1.165  0.2445  0.0057  0.7375
 3881SOL    HW119452   3.504   4.647   1.245 -0.4053  0.2555  0.6527
 3881SOL    HW219453   3.580   4.581   1.117 -0.0071  2.2979 -0.1916
 3883SOL     OW19454   2.634   3.775   1.220  0.3856  0.1546  0.6944
 3883SOL    HW119455   2.623   3.781   1.319 -0.1987  1.2781  0.5766
 3883SOL    HW219456   2.691   3.851   1.188  2.1092 -1.2383  0.3734
 3884SOL     OW19457   9.619   5.192   2.042  0.3548 -0.0023  0.3274
 3884SOL    HW119458   9.606   5.156   2.135 -1.5597  1.6989  0.7615
 3884SOL    HW219459   9.717   5.203   2.024  0.7991 -1.5942  1.6492
 3885SOL     OW19460   7.749   2.834   0.078 -0.4309  0.3743 -0.5889
 3885SOL    HW119461   7.671   2.791   0.123  1.1149 -0.1688  1.6726
 3885SOL    HW219462   7.815   2.763   0.053 -0.4706  0.8701 -2.1110
 3886SOL     OW19463   9.670   8.696   1.240  0.2106  0.4497  0.4236
 3886SOL    HW119464   9.608   8.774   1.235 -1.2286 -0.7843 -1.6979
 3886SOL    HW219465   9.755   8.717   1.191  0.6936  1.3952  1.6164
 3889SOL     OW19466   9.835   8.192   0.437  0.6362 -0.4008  0.4437
 3889SOL    HW119467   9.862   8.222   0.346 -0.8316  1.7549  0.6998
 3889SOL    HW219468   9.741   8.158   0.435  1.2203 -2.1230  0.8054
 3890SOL     OW19469   9.772   7.772   1.540  0.1145  0.2575  0.0963
 3890SOL    HW119470   9.838   7.844   1.563  1.3494 -1.2494  1.3775
 3890SOL    HW219471   9.790   7.739   1.448  0.1101  0.9541 -0.1614
 3891SOL     OW19472   3.923   2.791   1.066 -0.0056  0.4862  0.2297
 3891SOL    HW119473   3.845   2.736   1.096  0.6137  0.8910  2.7446
 3891SOL    HW219474   4.007   2.738   1.078  0.3104  0.8382 -0.4050
 3893SOL     OW19475   0.112   6.081   1.056 -0.0767 -0.0522 -0.2072
 3893SOL    HW119476   0.206   6.052   1.072 -0.2075 -0.9602 -0.9645
 3893SOL    HW219477   0.093   6.165   1.106  0.8858 -0.3126  0.6031
 3894SOL     OW19478   8.127   8.077   1.390  0.4775 -0.3483 -0.7069
 3894SOL    HW119479   8.149   8.174   1.401  2.0253 -0.8552  1.0750
 3894SOL    HW219480   8.078   8.045   1.472 -1.0653 -0.8023 -1.7929
 3895SOL     OW19481   0.755   3.644   0.547 -0.0685 -0.4777 -0.9399
 3895SOL    HW119482   0.781   3.729   0.499  0.2169 -1.0193 -1.7581
 3895SOL    HW219483   0.657   3.629   0.538 -0.0447 -0.4792 -1.1987
 3896SOL     OW19484   3.468   2.317   1.800 -0.5568 -0.0086 -0.6049
 3896SOL    HW119485   3.396   2.369   1.845 -0.8348 -1.5534  0.8311
 3896SOL    HW219486   3.454   2.318   1.701 -2.1349  0.3191 -0.3928
 3897SOL     OW19487   9.102   9.678   0.055 -0.2747  0.4991 -0.2904
 3897SOL    HW119488   9.041   9.708  -0.018 -0.0015  0.9764 -0.3221
 3897SOL    HW219489   9.194   9.663   0.018 -0.4109 -0.3967 -0.2808
 3898SOL     OW19490   1.252   9.414   1.880 -0.2538  0.0592  0.8925
 3898SOL    HW119491   1.328   9.464   1.840  0.5617 -2.2724 -0.5769
 3898SOL    HW219492   1.165   9.453   1.848  0.3732 -0.3800 -1.4411
 3899SOL     OW19493   3.220   1.382   0.101  0.4491 -0.1258 -0.5027
 3899SOL    HW119494   3.271   1.443   0.040  0.3556  0.9041  0.4571
 3899SOL    HW219495   3.247   1.287   0.082  2.1574  0.3472 -0.5395
 3900SOL     OW19496   0.058   6.307   1.190 -0.2175  0.0795  0.1975
 3900SOL    HW119497  -0.039   6.298   1.212 -0.1185  1.1264  1.1198
 3900SOL    HW219498   0.101   6.372   1.253  0.6592  1.1028 -1.4114
 3902SOL     OW19499   2.928   8.865   0.374  0.2601  0.6075  0.6225
 3902SOL    HW119500   2.896   8.771   0.379 -0.8775  0.9619  0.1282
 3902SOL    HW219501   3.020   8.867   0.335  0.1907 -0.2700  0.4130
 3904SOL     OW19502   9.279   7.997   0.868 -0.1563  0.2243 -0.3334
 3904SOL    HW119503   9.247   8.090   0.886  0.0242  0.2314 -0.0462
 3904SOL    HW219504   9.241   7.935   0.936  0.0484  0.1522 -0.2845
 3905SOL     OW19505   0.993   8.972   1.177 -0.2101 -0.1156 -0.9320
 3905SOL    HW119506   1.077   8.955   1.229  0.0377 -1.6306 -1.7953
 3905SOL    HW219507   0.942   8.887   1.168 -1.4789  0.6504 -1.0448
 3906SOL     OW19508   7.717   0.827   1.043  0.2973  0.6288  0.1181
 3906SOL    HW119509   7.768   0.903   1.002 -1.0339  0.9700 -0.9653
 3906SOL    HW219510   7.780   0.756   1.073  1.4534  1.3997 -0.4586
 3907SOL     OW19511   2.084   4.543   0.803  0.0206  0.2038  0.1447
 3907SOL    HW119512   2.030   4.602   0.863  0.7095  0.6450  0.3381
 3907SOL    HW219513   2.026   4.510   0.728  0.5219  4.2059 -2.1650
 3910SOL     OW19514   1.569   3.277   1.591  0.6270  0.3459  0.4375
 3910SOL    HW119515   1.576   3.310   1.685  1.7353 -0.6095  0.7004
 3910SOL    HW219516   1.622   3.192   1.581 -1.0937 -0.6330 -0.5530
 3911SOL     OW19517   9.225   8.210   1.069 -0.7056 -0.0224  0.3280
 3911SOL    HW119518   9.308   8.264   1.056 -0.7145 -0.2068 -0.4673
 3911SOL    HW219519   9.189   8.227   1.161  0.1279  0.1696  0.6267
 3912SOL     OW19520   1.834   8.706   0.265 -0.1786 -0.1828 -1.0078
 3912SOL    HW119521   1.896   8.683   0.190  1.0215 -1.2374  0.2827
 3912SOL    HW219522   1.798   8.799   0.251  0.9752  0.0994 -2.2421
 3913SOL     OW19523   3.928   0.316   0.017 -0.1133 -0.4503 -0.4753
 3913SOL    HW119524   4.023   0.284   0.014  0.4050  0.8074  1.4823
 3913SOL    HW219525   3.927   0.412   0.044 -1.9976 -0.6384  0.1331
 3915SOL     OW19526   0.723   3.068   0.223 -0.3531  0.1765  0.6929
 3915SOL    HW119527   0.753   2.973   0.222  0.2080  0.3535 -0.2681
 3915SOL    HW219528   0.767   3.117   0.298  0.6813  0.0875  0.1475
 3916SOL     OW19529   3.295   7.930   0.668 -0.4219 -0.1102 -0.1104
 3916SOL    HW119530   3.307   7.991   0.589  1.7577  0.2460  0.4728
 3916SOL    HW219531   3.273   7.838   0.635 -0.1526  0.1747 -1.1197
 3918SOL     OW19532   3.874   8.660   1.900  0.1068 -0.0601  0.0932
 3918SOL    HW119533   3.948   8.611   1.946 -0.7164 -1.5971 -0.1746
 3918SOL    HW219534   3.911   8.711   1.822  1.4438  2.1946  2.1451
 3919SOL     OW19535   0.714   7.328   0.115 -0.9220  0.2780 -0.1179
 3919SOL    HW119536   0.775   7.309   0.192 -1.0720 -0.2602 -0.1309
 3919SOL    HW219537   0.642   7.259   0.112 -1.0093  0.3933 -0.6445
 3920SOL     OW19538   1.797   6.315   0.339 -0.6265 -0.2131  0.6895
 3920SOL    HW119539   1.836   6.225   0.322 -0.4556 -0.1260  0.6269
 3920SOL    HW219540   1.722   6.307   0.404 -0.7527 -0.4309  0.5162
 3921SOL     OW19541   8.812   7.402   1.335 -0.6222 -0.0527 -0.1971
 3921SOL    HW119542   8.893   7.354   1.300 -0.2356  0.9098 -0.6466
 3921SOL    HW219543   8.759   7.340   1.393 -0.0227 -0.9560 -0.6007
 3923SOL     OW19544   7.833   9.670   2.209  0.1074 -0.4611 -0.3608
 3923SOL    HW119545   7.829   9.758   2.255  1.5653 -0.3327 -0.4570
 3923SOL    HW219546   7.774   9.672   2.128 -0.2845  0.2355 -0.0600
 3925SOL     OW19547   1.214   7.530   0.802 -0.3781  0.0649  0.4543
 3925SOL    HW119548   1.279   7.503   0.873 -1.9697 -0.1657  1.8548
 3925SOL    HW219549   1.168   7.449   0.766 -1.1667  0.4074  0.7081
 3926SOL     OW19550   8.444   8.629   0.577 -0.2722  0.6348 -0.1170
 3926SOL    HW119551   8.467   8.573   0.656 -1.0413 -2.2563 -1.8699
 3926SOL    HW219552   8.400   8.714   0.608 -1.9326 -1.1009  2.5172
 3927SOL     OW19553   0.749   5.480   0.902  0.0574 -0.0365  0.2971
 3927SOL    HW119554   0.829   5.442   0.855 -0.9045  0.1176 -1.5172
 3927SOL    HW219555   0.764   5.478   1.001  1.6473 -1.4720  0.0496
 3928SOL     OW19556   1.706   1.466   1.645  0.0501  0.0785 -0.1653
 3928SOL    HW119557   1.776   1.493   1.579 -0.0191 -0.5558 -0.5017
 3928SOL    HW219558   1.709   1.527   1.724 -0.2411  1.1838 -1.0065
 3929SOL     OW19559   0.619   1.511   0.578 -0.1222  0.1998  0.4257
 3929SOL    HW119560   0.570   1.466   0.503 -0.0758  2.0704 -0.7727
 3929SOL    HW219561   0.715   1.522   0.554  0.2265 -0.5620  1.4224
 3930SOL     OW19562   2.391   4.564   0.832 -0.1021 -0.0944  0.1524
 3930SOL    HW119563   2.400   4.599   0.925  1.2268  2.1956 -0.8017
 3930SOL    HW219564   2.294   4.558   0.807 -0.4103  1.1862  0.9951
 3931SOL     OW19565   0.614   6.737   2.155 -0.8096  0.4642 -0.2876
 3931SOL    HW119566   0.606   6.638   2.157 -0.8829  0.4360 -1.5398
 3931SOL    HW219567   0.630   6.771   2.248  2.0142 -0.9343 -0.2056
 3933SOL     OW19568   9.352   7.421   1.899 -0.1849  0.4073 -0.1288
 3933SOL    HW119569   9.312   7.333   1.925  1.6453 -0.3984 -0.0281
 3933SOL    HW219570   9.283   7.474   1.848 -0.6133 -1.9803 -2.1788
 3934SOL     OW19571   0.801   4.377   0.967 -0.3519 -0.2538  0.6541
 3934SOL    HW119572   0.711   4.402   0.932  0.2153 -0.0018 -0.6374
 3934SOL    HW219573   0.853   4.459   0.988  0.3715 -0.3705 -0.6530
 3935SOL     OW19574   9.800   7.346   1.964 -0.4064 -0.4000 -0.4807
 3935SOL    HW119575   9.738   7.407   1.915 -0.5959 -0.1026  0.1342
 3935SOL    HW219576   9.817   7.264   1.908 -1.9822 -0.8564 -0.3152
 3936SOL     OW19577   0.938   0.408   0.654  0.2998  0.5478 -0.1397
 3936SOL    HW119578   0.897   0.361   0.575  2.5653 -0.6266 -0.6541
 3936SOL    HW219579   0.949   0.505   0.633 -0.1540  0.4548 -0.8356
 3938SOL     OW19580   0.743   0.905   2.019 -0.5497  0.3283  0.5795
 3938SOL    HW119581   0.842   0.911   2.001 -0.6906  0.6476 -0.1295
 3938SOL    HW219582   0.700   0.991   1.992 -0.8970  0.5287  1.7478
 3940SOL     OW19583   1.654   6.597   1.476 -0.3570  0.0026 -0.7528
 3940SOL    HW119584   1.577   6.594   1.540 -0.4977  1.2237 -0.8450
 3940SOL    HW219585   1.674   6.505   1.443  0.4527 -0.8191  1.9188
 3941SOL     OW19586   7.897   9.016   2.182 -0.2867 -0.1863 -1.1708
 3941SOL    HW119587   7.934   8.968   2.103  0.2454  0.4871 -1.3339
 3941SOL    HW219588   7.821   8.963   2.221 -0.3319 -0.6794 -1.9263
 3943SOL     OW19589   0.928   8.738   2.317  0.3677  0.3568 -0.4907
 3943SOL    HW119590   0.997   8.690   2.371  0.8014  0.3942 -1.0168
 3943SOL    HW219591   0.972   8.797   2.249 -0.1334  3.3641  1.7211
 3944SOL     OW19592   1.171   0.124   0.308 -0.2163 -0.3504  0.2813
 3944SOL    HW119593   1.089   0.146   0.361  0.2986 -0.4628  1.1366
 3944SOL    HW219594   1.170   0.026   0.285 -0.7825 -0.1635 -0.5292
 3945SOL     OW19595   1.865   1.855   0.177 -0.1287  0.0783  0.2367
 3945SOL    HW119596   1.931   1.785   0.201 -0.9786 -0.6731  0.4299
 3945SOL    HW219597   1.904   1.917   0.110  1.9319  1.5484  2.6798
 3947SOL     OW19598   8.832   6.972   2.171  0.9141  0.4764  0.7538
 3947SOL    HW119599   8.735   6.995   2.173  0.5101 -1.2565  1.5003
 3947SOL    HW219600   8.855   6.929   2.084  1.0831  1.1008  0.4814
 3948SOL     OW19601   3.111   8.107   1.520  0.4678 -0.0925 -0.4693
 3948SOL    HW119602   3.187   8.172   1.514  0.7552 -0.2225  1.3074
 3948SOL    HW219603   3.033   8.142   1.468  0.5287  1.8238  0.6562
 3949SOL     OW19604   0.417   5.565   0.948 -0.3919  0.1260 -0.0737
 3949SOL    HW119605   0.425   5.533   1.043 -2.0105  2.0926  0.7531
 3949SOL    HW219606   0.509   5.576   0.910  0.3202  0.3892  1.6489
 3950SOL     OW19607   1.477   0.853   0.958 -0.0624  0.1386 -0.0295
 3950SOL    HW119608   1.383   0.821   0.948 -0.9911  3.0714 -1.2642
 3950SOL    HW219609   1.501   0.858   1.055 -2.0697  1.7594  0.4069
 3951SOL     OW19610   3.941   3.420   1.696 -0.0800  0.1090 -0.0243
 3951SOL    HW119611   3.991   3.391   1.614  2.9609 -0.1331  1.8093
 3951SOL    HW219612   3.862   3.361   1.710  0.4520 -1.0612 -1.7571
 3952SOL     OW19613   7.986   9.074   1.599 -0.0597  0.8066 -0.3746
 3952SOL    HW119614   8.012   8.999   1.538  1.0813  0.8927 -0.0075
 3952SOL    HW219615   7.902   9.116   1.566  0.2620  0.5163 -1.5911
 3953SOL     OW19616   1.081   8.864   0.423  0.4641 -0.1711  0.7230
 3953SOL    HW119617   1.048   8.914   0.503 -1.4790  0.2613 -0.3342
 3953SOL    HW219618   1.156   8.804   0.450 -1.4654 -1.5088  3.2510
 3954SOL     OW19619   9.817   2.966   0.078  0.1410 -0.0288  0.2965
 3954SOL    HW119620   9.892   2.904   0.102  0.8313  1.2134  1.3916
 3954SOL    HW219621   9.775   2.936  -0.008  1.3099 -1.2487  0.1390
 3955SOL     OW19622   1.862   9.912   2.096  0.4798  0.6260 -0.3207
 3955SOL    HW119623   1.781   9.966   2.073  0.0107  0.0910  0.0654
 3955SOL    HW219624   1.930   9.971   2.140 -0.3675  0.7256  0.8590
 3956SOL     OW19625   8.477   1.927   2.239  0.3940 -0.0854  0.1553
 3956SOL    HW119626   8.424   2.012   2.234 -0.6185 -0.6768  0.7936
 3956SOL    HW219627   8.468   1.877   2.154  2.5108  1.3222 -0.9565
 3957SOL     OW19628   9.722   4.992   0.836 -0.0349  0.1057  0.6258
 3957SOL    HW119629   9.749   5.071   0.782  2.8539 -1.3502 -0.1961
 3957SOL    HW219630   9.717   5.017   0.933  3.1948  0.7819  0.6631
 3958SOL     OW19631   0.526   5.870   1.966  0.3170  0.0586  0.8258
 3958SOL    HW119632   0.548   5.967   1.969 -0.3531  0.2285  0.4979
 3958SOL    HW219633   0.505   5.843   1.872 -0.9415 -0.0634  1.1302
 3960SOL     OW19634   4.161   3.362   1.876 -0.2278  0.0329 -0.2499
 3960SOL    HW119635   4.254   3.335   1.850 -0.8192 -2.7435  0.3949
 3960SOL    HW219636   4.103   3.364   1.795 -0.1058 -0.3779 -0.3481
 3961SOL     OW19637   2.685   6.434   0.829 -0.0221 -0.5963 -0.7973
 3961SOL    HW119638   2.701   6.358   0.892 -2.5253 -0.9931 -0.5793
 3961SOL    HW219639   2.648   6.512   0.881 -1.8601 -0.8408 -1.6911
 3962SOL     OW19640   0.099   8.136   1.197 -0.0356  0.8913 -0.5760
 3962SOL    HW119641   0.139   8.125   1.288  0.8223  0.0566 -1.0494
 3962SOL    HW219642   0.143   8.213   1.150 -0.6244  1.4544 -0.2130
 3963SOL     OW19643   1.730   0.546   2.179 -0.0721 -0.2870  0.5994
 3963SOL    HW119644   1.660   0.516   2.244  0.1982 -1.1598  0.4873
 3963SOL    HW219645   1.704   0.636   2.142 -1.9778 -1.3215 -0.6670
 3964SOL     OW19646   3.471   5.222   0.750 -0.2568  0.5018 -0.2162
 3964SOL    HW119647   3.429   5.144   0.795  1.2226 -0.1675  0.0345
 3964SOL    HW219648   3.509   5.194   0.661 -3.1794  1.8159 -1.9363
 3965SOL     OW19649   7.651   9.648   1.983 -0.1515 -0.1109 -0.0315
 3965SOL    HW119650   7.559   9.611   1.996 -0.1223 -0.8671 -1.7502
 3965SOL    HW219651   7.715   9.572   1.971  0.6015  0.4273  0.5640
 3966SOL     OW19652   4.500   2.406   1.713 -0.0027 -0.0676 -0.0497
 3966SOL    HW119653   4.494   2.434   1.809  3.3997  2.2448 -0.4121
 3966SOL    HW219654   4.447   2.469   1.657  0.4768  0.4370  0.0488
 3967SOL     OW19655   0.631   5.244   1.325 -0.5161  0.2673  0.5311
 3967SOL    HW119656   0.557   5.176   1.323 -0.5501  0.3269 -3.4213
 3967SOL    HW219657   0.715   5.199   1.355 -1.0674 -0.9520  0.3036
 3968SOL     OW19658   0.049   3.010   1.356 -0.0573 -0.1282  0.2929
 3968SOL    HW119659  -0.037   3.058   1.340 -0.2902  0.0449  1.9679
 3968SOL    HW219660   0.041   2.953   1.438  1.1802 -0.6797  0.0397
 3969SOL     OW19661   4.344   4.789   0.167  0.1434 -0.1643 -0.4138
 3969SOL    HW119662   4.434   4.753   0.190 -0.4487 -0.4049  1.6513
 3969SOL    HW219663   4.274   4.739   0.219 -1.0432  1.0786 -0.7760
 3970SOL     OW19664   8.562   9.681   0.440  0.3699  0.0761 -0.4571
 3970SOL    HW119665   8.499   9.731   0.499 -0.1143 -0.8296 -0.1932
 3970SOL    HW219666   8.614   9.746   0.384  0.9818  0.9483  1.0937
 3971SOL     OW19667   0.181   3.660   2.123  0.0488  0.2587  0.5023
 3971SOL    HW119668   0.163   3.750   2.083 -1.0142  0.5418  1.5653
 3971SOL    HW219669   0.105   3.635   2.184 -0.3560 -1.9697 -0.8434
 3972SOL     OW19670   8.943   2.783   1.059 -0.0060 -0.0235 -0.6801
 3972SOL    HW119671   9.021   2.762   1.118  0.2034 -0.1188 -0.9947
 3972SOL    HW219672   8.873   2.712   1.070  0.2074 -0.2604 -0.8586
 3973SOL     OW19673   2.723   9.233   1.019  0.8685 -0.3605 -0.0820
 3973SOL    HW119674   2.813   9.225   1.062  0.8527 -1.1857 -0.1918
 3973SOL    HW219675   2.732   9.276   0.929  0.8753  1.5741  0.8359
 3974SOL     OW19676   1.697   3.380   0.720 -0.1836 -0.3006 -0.3351
 3974SOL    HW119677   1.678   3.323   0.640  0.6799 -0.4402 -0.4415
 3974SOL    HW219678   1.657   3.471   0.706 -1.5894 -0.8712 -0.1562
 3975SOL     OW19679   2.135   7.625   0.296  0.3238  0.3988 -0.0846
 3975SOL    HW119680   2.187   7.539   0.294  1.6290  1.1994 -1.2178
 3975SOL    HW219681   2.112   7.651   0.202 -0.6012  0.9765  0.3013
 3976SOL     OW19682   0.887   9.399   0.787 -0.5358 -0.1713  0.3607
 3976SOL    HW119683   0.801   9.440   0.758  0.1779  1.7837  0.9711
 3976SOL    HW219684   0.875   9.300   0.797 -1.9744 -0.3073 -2.2447
 3978SOL     OW19685   1.061   2.634   0.396 -0.3129 -0.0710  0.0872
 3978SOL    HW119686   1.028   2.561   0.455  0.1225 -0.7099 -0.4439
 3978SOL    HW219687   1.161   2.633   0.394 -0.3298 -0.6862 -1.4139
 3979SOL     OW19688   2.078   0.121   2.202  0.6054  0.2517  0.2729
 3979SOL    HW119689   2.068   0.128   2.301  1.0206  3.7622  0.1383
 3979SOL    HW219690   2.153   0.181   2.172 -0.4326  0.3159 -2.3095
 3981SOL     OW19691   2.265   9.921   0.903 -0.0119 -0.1965 -0.3569
 3981SOL    HW119692   2.192   9.976   0.944 -0.6346 -0.1845 -1.4449
 3981SOL    HW219693   2.252   9.825   0.927  0.3208 -0.0346  0.4642
 3982SOL     OW19694   2.223   6.915   1.950  0.4053  0.0921  0.6074
 3982SOL    HW119695   2.132   6.876   1.966  0.5770 -0.2119  0.8646
 3982SOL    HW219696   2.241   6.986   2.017 -0.0182  0.8103 -0.0354
 3983SOL     OW19697   2.996   9.185   0.661  0.1910  0.3044 -0.2745
 3983SOL    HW119698   2.994   9.273   0.709  2.3837  0.0482  0.3526
 3983SOL    HW219699   2.969   9.112   0.725  1.4386  0.1680  0.1146
 3984SOL     OW19700   1.044   1.762   0.462  0.4550  0.5950 -0.1461
 3984SOL    HW119701   1.087   1.728   0.545  1.5542  1.1066 -0.5009
 3984SOL    HW219702   0.945   1.769   0.476  0.3313 -1.5772  0.3455
 3985SOL     OW19703   8.770   6.384   0.950 -0.6954  0.2041 -0.3210
 3985SOL    HW119704   8.768   6.471   0.900  0.8112 -0.4654 -1.5914
 3985SOL    HW219705   8.722   6.394   1.037  0.8177  2.7640  0.2662
 3986SOL     OW19706   1.099   3.562   1.878  0.5642  0.3678  0.0429
 3986SOL    HW119707   1.057   3.471   1.879  0.3907  0.4469  1.0965
 3986SOL    HW219708   1.152   3.575   1.962  0.5912  1.2347 -0.0996
 3987SOL     OW19709   4.671   3.212   0.137  0.4311  0.5564 -0.1837
 3987SOL    HW119710   4.659   3.295   0.191  0.0038  0.4846 -0.1655
 3987SOL    HW219711   4.757   3.218   0.087  0.9106  0.5516  0.6259
 3990SOL     OW19712   7.908   2.591   0.134 -0.4159 -0.0686 -0.0824
 3990SOL    HW119713   7.910   2.506   0.083 -1.4075 -0.3948  0.4160
 3990SOL    HW219714   7.958   2.579   0.220  0.5371  0.2378 -0.5808
 3991SOL     OW19715   8.835   8.257   0.365 -0.6249 -0.3151 -1.1829
 3991SOL    HW119716   8.741   8.263   0.400 -0.1717 -0.8691  0.2020
 3991SOL    HW219717   8.893   8.217   0.436  0.4172 -1.1338 -2.4845
 3992SOL     OW19718   9.848   1.770   0.837 -0.1722 -0.0875 -0.1027
 3992SOL    HW119719   9.843   1.771   0.937  0.6466  0.6326 -0.0611
 3992SOL    HW219720   9.913   1.700   0.808  1.8596  1.7089 -0.0021
 3993SOL     OW19721   0.447   0.517   0.901  0.0667  0.2490 -0.0734
 3993SOL    HW119722   0.422   0.602   0.948 -0.6045  0.4330 -0.7537
 3993SOL    HW219723   0.473   0.449   0.968 -0.7889  0.5428  0.5735
 3995SOL     OW19724   2.664   9.105   0.650  0.3293  0.0095  0.0664
 3995SOL    HW119725   2.717   9.046   0.710  2.4617  0.5230 -1.2652
 3995SOL    HW219726   2.689   9.201   0.668 -1.3023  0.3675  0.4995
 3996SOL     OW19727   9.779   0.561   1.908 -0.2429  0.4949 -0.1605
 3996SOL    HW119728   9.700   0.503   1.926  1.0770 -0.9014  1.3521
 3996SOL    HW219729   9.799   0.616   1.989  1.9215 -1.1308  0.4622
 3998SOL     OW19730   1.327   5.527   0.579  0.3134 -0.5297 -0.4898
 3998SOL    HW119731   1.380   5.611   0.588  0.3930 -0.7961  2.0118
 3998SOL    HW219732   1.354   5.463   0.651 -0.6347 -2.2100 -1.5955
 3999SOL     OW19733   2.675   2.453   1.044 -0.3162  0.1911  0.0755
 3999SOL    HW119734   2.694   2.390   0.968  0.2822 -0.1279  0.4762
 3999SOL    HW219735   2.744   2.525   1.045 -0.3470  0.2184  0.2830
 4000SOL     OW19736   3.535   1.716   1.631 -0.3200 -0.1175 -0.0746
 4000SOL    HW119737   3.442   1.702   1.667 -1.2486  2.0606 -1.5096
 4000SOL    HW219738   3.539   1.682   1.537  0.0628  0.6808 -0.3434
 4001SOL     OW19739   2.484   7.332   1.126 -0.4990  0.1735 -0.0204
 4001SOL    HW119740   2.444   7.262   1.184  0.0262 -0.5687 -0.5460
 4001SOL    HW219741   2.421   7.409   1.118 -0.4617  0.4184  1.7680
 4002SOL     OW19742   9.246   0.468   1.363  0.2755 -0.3888 -0.3914
 4002SOL    HW119743   9.322   0.409   1.392  0.1226  0.3024  1.4449
 4002SOL    HW219744   9.275   0.564   1.368 -0.8505 -0.1054  0.6697
 4003SOL     OW19745   2.050   0.064   1.029 -0.4709 -0.4888  0.5461
 4003SOL    HW119746   1.973   0.001   1.034 -0.7836 -0.1845 -0.2826
 4003SOL    HW219747   2.017   0.158   1.035 -0.3092 -0.3131 -1.0683
 4004SOL     OW19748   1.135   6.839   1.382 -0.4061 -0.3271  0.3839
 4004SOL    HW119749   1.143   6.906   1.455 -0.7530  0.1301  0.0099
 4004SOL    HW219750   1.137   6.886   1.293  1.1061 -0.9805  0.0670
 4005SOL     OW19751   0.770   3.156   2.217 -0.7609  0.2197  0.0956
 4005SOL    HW119752   0.673   3.155   2.240 -0.4585 -0.6159  1.3502
 4005SOL    HW219753   0.811   3.067   2.239  0.5517  0.9617  0.7324
 4007SOL     OW19754   9.161   6.608   1.426  0.4586 -0.4645 -0.3534
 4007SOL    HW119755   9.098   6.530   1.424 -0.2379  0.1270 -3.4379
 4007SOL    HW219756   9.242   6.586   1.372  0.9154  0.4239 -0.0271
 4008SOL     OW19757   4.095   0.239   1.788  0.4721  0.1536  0.0881
 4008SOL    HW119758   4.180   0.246   1.736  0.6254 -0.5296  0.2392
 4008SOL    HW219759   4.113   0.259   1.884  0.4871 -0.1143  0.1413
 4009SOL     OW19760   3.424   9.719   2.001 -0.2234 -0.1833  0.2981
 4009SOL    HW119761   3.510   9.730   1.950 -0.7923 -0.4807 -0.7357
 4009SOL    HW219762   3.367   9.799   1.986  0.4318  0.6349  2.0914
 4010SOL     OW19763   0.266   3.120   1.653  0.1610 -0.1958 -0.1277
 4010SOL    HW119764   0.172   3.146   1.631  0.1513 -0.9454 -0.9571
 4010SOL    HW219765   0.281   3.132   1.751 -0.3345  1.3908 -0.2249
 4011SOL     OW19766   3.166   3.238   0.330 -0.3288 -0.3421  0.1111
 4011SOL    HW119767   3.152   3.334   0.305 -0.9627 -0.0768  1.4255
 4011SOL    HW219768   3.263   3.215   0.322 -0.0582  0.6336  0.5639
 4012SOL     OW19769   0.584   0.747   1.655  0.6846 -0.4528  0.5214
 4012SOL    HW119770   0.671   0.795   1.660 -0.5978  1.9075  0.8934
 4012SOL    HW219771   0.526   0.775   1.732 -1.1030 -0.5778 -0.7510
 4013SOL     OW19772   7.773   9.275   2.163  0.5578  0.1212  0.3418
 4013SOL    HW119773   7.820   9.187   2.165  0.6419  0.1614  0.1746
 4013SOL    HW219774   7.722   9.288   2.248  0.8353  0.0691  0.5139
 4014SOL     OW19775   3.364   4.177   2.036  0.6699  0.3213 -0.6260
 4014SOL    HW119776   3.445   4.209   2.084  1.0193 -2.1526  0.4513
 4014SOL    HW219777   3.286   4.236   2.060  0.7642 -1.0130  3.2206
 4015SOL     OW19778   4.136   4.686   0.394 -0.2662  0.2120 -0.4371
 4015SOL    HW119779   4.053   4.733   0.365 -0.1428 -0.1449 -1.3814
 4015SOL    HW219780   4.124   4.587   0.385  0.6482  0.2012 -1.6659
 4017SOL     OW19781   9.180   5.907   2.304 -0.5270  0.3030  0.4941
 4017SOL    HW119782   9.261   5.966   2.295  0.4448 -1.0865 -0.1820
 4017SOL    HW219783   9.148   5.880   2.213  1.7097 -3.6774  0.7297
 4018SOL     OW19784   2.651   1.622   2.055  0.1118 -0.3629  0.0063
 4018SOL    HW119785   2.647   1.542   2.115 -1.5898  0.9737  1.7116
 4018SOL    HW219786   2.664   1.592   1.960 -2.2089 -2.7635  0.3941
 4019SOL     OW19787   4.855   3.467   0.090 -0.3831 -0.3206  0.5445
 4019SOL    HW119788   4.930   3.510   0.140  0.8425 -0.9760 -0.7059
 4019SOL    HW219789   4.889   3.386   0.042 -1.4753  0.3994 -1.5008
 4020SOL     OW19790   2.591   2.170   1.808  0.2715 -0.0890  0.1687
 4020SOL    HW119791   2.548   2.249   1.763 -0.3313  0.1383  1.1327
 4020SOL    HW219792   2.545   2.153   1.895  0.9058 -1.0347  0.3157
 4021SOL     OW19793   8.323   6.938   1.067  0.8461  1.4215 -0.5316
 4021SOL    HW119794   8.326   6.844   1.100 -1.6638  1.0811 -1.1394
 4021SOL    HW219795   8.247   6.986   1.112 -0.2274  2.0528 -2.9411
 4024SOL     OW19796   3.956   8.802   2.205  0.9470 -0.1457  0.3913
 4024SOL    HW119797   3.968   8.703   2.200 -0.9622 -0.4018  0.4461
 4024SOL    HW219798   3.948   8.840   2.113  0.4362 -0.2119  0.4078
 4025SOL     OW19799   2.591   7.145   0.346  0.3448  0.0668  0.0237
 4025SOL    HW119800   2.493   7.161   0.358  0.4470 -0.4460  1.6050
 4025SOL    HW219801   2.618   7.172   0.254 -0.8944  2.1232  0.2367
 4026SOL     OW19802   9.209   1.391   0.444 -0.0560  0.1517  0.5654
 4026SOL    HW119803   9.176   1.484   0.426 -0.9977  0.0836  1.8790
 4026SOL    HW219804   9.175   1.330   0.373  0.1207  0.7176 -0.0107
 4027SOL     OW19805   3.194   3.477   0.213 -0.5268  0.0451  0.6053
 4027SOL    HW119806   3.246   3.474   0.128 -0.7990 -0.5295  0.4551
 4027SOL    HW219807   3.110   3.529   0.200 -0.4252  0.2084  0.6031
 4028SOL     OW19808   4.197   3.019   1.763  0.4740  0.1134  0.1231
 4028SOL    HW119809   4.147   3.106   1.768  2.2385  1.2147 -0.7223
 4028SOL    HW219810   4.275   3.029   1.701 -1.2926 -3.1121 -2.7479
 4029SOL     OW19811   2.697   4.284   1.617  0.4603 -0.5429 -0.5265
 4029SOL    HW119812   2.780   4.306   1.567  1.8418 -0.6507  1.6532
 4029SOL    HW219813   2.617   4.316   1.566  1.9401  1.4151 -1.6800
 4031SOL     OW19814   3.182   4.353   2.113  0.3277 -0.4801  0.3920
 4031SOL    HW119815   3.161   4.444   2.150 -0.6949 -0.4397 -0.2619
 4031SOL    HW219816   3.131   4.284   2.163 -1.3001 -0.3949 -1.1231
 4032SOL     OW19817   2.903   0.446   0.454 -0.2892 -0.3179  0.4852
 4032SOL    HW119818   2.834   0.481   0.391 -0.0757 -0.2039  0.3135
 4032SOL    HW219819   2.858   0.395   0.528 -0.6770  1.2858  1.3674
 4033SOL     OW19820   0.276   7.616   1.054  0.7586 -0.4066  0.6704
 4033SOL    HW119821   0.322   7.548   1.111 -0.4205 -1.1453  0.7305
 4033SOL    HW219822   0.178   7.612   1.068  0.4914 -0.2601 -1.0616
 4034SOL     OW19823   3.517   4.479   0.880 -0.3241  0.2133 -0.5757
 4034SOL    HW119824   3.597   4.500   0.935  0.1371 -0.4992 -0.9731
 4034SOL    HW219825   3.438   4.528   0.916  0.0550  0.0369  0.5050
 4035SOL     OW19826   9.539   7.663   1.608 -0.7582  0.0015 -0.1073
 4035SOL    HW119827   9.625   7.709   1.590 -0.3957 -0.2577  0.9366
 4035SOL    HW219828   9.469   7.696   1.544  0.0568  0.3567 -0.8176
 4036SOL     OW19829   1.931   9.592   2.138 -0.3302 -0.1554  0.3345
 4036SOL    HW119830   1.880   9.565   2.056  1.2037  0.1154 -0.7276
 4036SOL    HW219831   1.877   9.658   2.191 -0.9509  0.3728 -0.9376
 4039SOL     OW19832   9.823   3.654   0.536  0.2475  0.2162  0.2782
 4039SOL    HW119833   9.891   3.726   0.520 -0.8753  0.9383 -1.3604
 4039SOL    HW219834   9.869   3.565   0.540  1.7141  1.0217  2.7906
 4040SOL     OW19835   2.060   4.572   0.312  0.1018 -0.2794  0.2523
 4040SOL    HW119836   2.047   4.671   0.305  1.3506 -0.1276 -0.0148
 4040SOL    HW219837   1.971   4.527   0.322 -0.5475  0.7862 -0.6410
 4041SOL     OW19838   3.878   1.117   1.093 -0.0016  0.3384  0.0832
 4041SOL    HW119839   3.870   1.031   1.041  0.0105  0.8883 -0.8475
 4041SOL    HW219840   3.823   1.188   1.048 -1.1698  0.4576  1.6552
 4042SOL     OW19841   3.391   1.257   1.745  0.0627  0.6588 -0.4650
 4042SOL    HW119842   3.349   1.329   1.799  0.1467 -0.2082  0.7723
 4042SOL    HW219843   3.475   1.291   1.703  0.4440  1.0892  0.6390
 4044SOL     OW19844   0.130   7.177   0.094 -0.5394 -0.5554  0.5354
 4044SOL    HW119845   0.094   7.230   0.018  0.6379  1.5986  1.4248
 4044SOL    HW219846   0.197   7.111   0.060  0.1112  0.5134 -0.2952
 4045SOL     OW19847   4.364   0.859   2.166  0.0646  0.0340  0.3295
 4045SOL    HW119848   4.439   0.801   2.197 -0.4425 -0.2088  1.1170
 4045SOL    HW219849   4.357   0.854   2.067  2.0325  1.2207  0.1046
 4046SOL     OW19850   9.891   3.193   0.870  0.2649  0.4996  0.4451
 4046SOL    HW119851   9.863   3.104   0.905  0.1625  0.0588 -0.7388
 4046SOL    HW219852   9.820   3.261   0.892 -1.6975 -0.5665 -2.3247
 4047SOL     OW19853   3.787   9.026   1.771 -0.4169 -1.1325  0.5720
 4047SOL    HW119854   3.694   8.996   1.795  0.0216 -2.1939  0.9536
 4047SOL    HW219855   3.847   9.015   1.850 -0.6540  2.6011  1.3643
 4048SOL     OW19856   8.048   9.868   2.244 -0.1741  0.6259 -0.1812
 4048SOL    HW119857   8.051   9.818   2.330 -0.1573  0.7366 -0.1165
 4048SOL    HW219858   8.047   9.804   2.167 -2.0281  0.4875 -0.0639
 4049SOL     OW19859   2.429   4.236   2.025  0.2583  0.1942  0.3092
 4049SOL    HW119860   2.512   4.180   2.015 -0.3695 -0.2945 -2.4360
 4049SOL    HW219861   2.450   4.330   1.998  0.1860  0.3280  0.7121
 4050SOL     OW19862   1.760   0.081   1.725  0.1551  0.0035 -0.0972
 4050SOL    HW119863   1.859   0.068   1.715  0.1546 -0.1069  0.0395
 4050SOL    HW219864   1.712   0.010   1.673  0.1521 -0.4905  0.5676
 4051SOL     OW19865   8.532   1.486   0.730 -0.2181  0.0861 -0.3076
 4051SOL    HW119866   8.626   1.457   0.748 -0.6523 -1.7317 -0.9040
 4051SOL    HW219867   8.469   1.418   0.766 -1.3218  1.2924  0.0697
 4052SOL     OW19868   4.328   3.320   0.383 -0.1345 -0.2520 -0.2391
 4052SOL    HW119869   4.263   3.250   0.411 -1.6993  1.0523 -0.5434
 4052SOL    HW219870   4.330   3.393   0.451 -1.0402  1.0322 -1.5596
 4053SOL     OW19871   8.709   3.212   2.196 -0.1818  0.0009 -0.6093
 4053SOL    HW119872   8.737   3.191   2.102  0.5478 -0.8207 -0.2256
 4053SOL    HW219873   8.768   3.161   2.259  0.4930  1.9285  0.3360
 4054SOL     OW19874   4.619   0.970   1.902 -0.5097  0.0841 -0.3403
 4054SOL    HW119875   4.569   0.973   1.815  0.2601  0.6773 -0.7825
 4054SOL    HW219876   4.649   0.877   1.921 -0.7466 -0.0603 -0.6763
 4055SOL     OW19877   0.358   5.827   0.107  0.2796  0.4487 -0.9185
 4055SOL    HW119878   0.360   5.894   0.033  0.0966  0.3970 -0.9689
 4055SOL    HW219879   0.356   5.735   0.068 -2.9952  0.4441 -0.8950
 4056SOL     OW19880   2.129   6.085   0.457 -0.1062  0.0054 -0.0696
 4056SOL    HW119881   2.129   6.034   0.543  1.8082  1.4900  0.8365
 4056SOL    HW219882   2.123   6.183   0.476  0.5647  0.3564 -1.6137
 4058SOL     OW19883   9.382   7.000   1.550 -0.0954 -0.0471 -0.3005
 4058SOL    HW119884   9.402   6.912   1.591 -1.0419  0.0092  0.2957
 4058SOL    HW219885   9.408   7.073   1.613 -2.3532  0.0217  0.6067
 4061SOL     OW19886   3.169   1.599   2.048 -0.4399  0.2288 -0.3287
 4061SOL    HW119887   3.083   1.548   2.050 -0.6244  0.5237 -0.7113
 4061SOL    HW219888   3.153   1.689   2.008 -0.1328  0.6297  0.4350
 4062SOL     OW19889   8.014   6.584   2.229 -0.3100 -0.6534 -0.1350
 4062SOL    HW119890   7.935   6.552   2.281 -0.2573  0.0982  0.4141
 4062SOL    HW219891   8.090   6.519   2.241 -1.0565 -1.7552 -1.2431
 4064SOL     OW19892   9.693   7.857   1.062  0.2406  0.3126  0.1925
 4064SOL    HW119893   9.609   7.904   1.038 -0.2354 -0.6480 -0.0346
 4064SOL    HW219894   9.762   7.871   0.991  0.2768  1.1010  0.3824
 4066SOL     OW19895   9.409   0.577   0.571  0.2972  0.3867  0.1075
 4066SOL    HW119896   9.445   0.490   0.603  1.2526  0.1486 -1.5429
 4066SOL    HW219897   9.440   0.593   0.477 -4.6646 -0.2930 -1.7722
 4067SOL     OW19898   0.489   3.358   0.032  0.7178  0.4213  0.2285
 4067SOL    HW119899   0.405   3.394   0.074  0.6415 -1.0873  1.3900
 4067SOL    HW219900   0.526   3.426  -0.031 -2.5769  0.2933 -1.9687
 4068SOL     OW19901   0.221   2.349   0.398  0.1413  0.0382 -0.5823
 4068SOL    HW119902   0.277   2.279   0.442 -0.8969 -1.3129 -1.3952
 4068SOL    HW219903   0.159   2.389   0.466 -0.9084 -1.4933 -0.6161
 4069SOL     OW19904   2.903   4.431   0.034 -0.4808  0.7541 -0.4130
 4069SOL    HW119905   2.811   4.402   0.063  0.4119  0.5544  2.3346
 4069SOL    HW219906   2.908   4.531   0.036  0.1500  0.7041  2.1128
 4070SOL     OW19907   2.040   0.038   1.681 -0.1800  0.3341 -0.3820
 4070SOL    HW119908   2.100   0.102   1.633  1.6299 -0.8028  0.2916
 4070SOL    HW219909   2.077   0.021   1.772 -1.4114 -0.5824 -0.0463
 4072SOL     OW19910   8.311   7.270   0.075  0.0999 -0.3305  0.0213
 4072SOL    HW119911   8.328   7.185   0.025  0.2697 -0.7019  0.6997
 4072SOL    HW219912   8.220   7.303   0.053  0.7827  0.3932 -1.7962
 4073SOL     OW19913   9.851   5.506   1.364  0.0902 -0.2084 -0.0912
 4073SOL    HW119914   9.800   5.455   1.433  0.3704  0.8091  0.8958
 4073SOL    HW219915   9.792   5.524   1.285 -0.4701 -0.7237  0.2061
 4074SOL     OW19916   2.532   0.271   0.978  0.2435  0.1799  0.0637
 4074SOL    HW119917   2.504   0.267   0.882  0.9500  1.1339 -0.1908
 4074SOL    HW219918   2.536   0.179   1.015 -0.8723 -0.1372 -0.5770
 4075SOL     OW19919   9.827   9.170   1.327 -0.1974 -0.2837  0.3592
 4075SOL    HW119920   9.885   9.249   1.308 -1.3813  0.1296 -1.7485
 4075SOL    HW219921   9.868   9.088   1.289  0.5312 -0.5402  1.6581
 4076SOL     OW19922   2.486   8.754   0.606  0.0985  0.3541 -0.1453
 4076SOL    HW119923   2.570   8.716   0.568 -0.3676 -0.1737 -0.6658
 4076SOL    HW219924   2.431   8.793   0.532 -0.5757 -0.2175  0.0441
 4077SOL     OW19925   7.617   9.063   2.271 -0.0046 -0.3390 -0.1096
 4077SOL    HW119926   7.518   9.069   2.278 -0.1424 -1.8723 -0.5495
 4077SOL    HW219927   7.656   9.044   2.361  0.0334  1.9198  0.3639
 4078SOL     OW19928   9.047   9.108   0.555 -0.3430 -0.1963  0.1378
 4078SOL    HW119929   9.030   9.178   0.485  0.4735 -0.9049 -0.7745
 4078SOL    HW219930   8.968   9.103   0.616 -0.4832  1.4078  0.1154
 4079SOL     OW19931   8.241   1.172   2.192 -0.8214  0.7721  0.5043
 4079SOL    HW119932   8.231   1.271   2.201 -1.9198  0.7465 -0.2749
 4079SOL    HW219933   8.261   1.149   2.097  0.8172  0.3408  0.9448
 4080SOL     OW19934   8.302   9.834   0.037  0.1069  0.1605 -0.4805
 4080SOL    HW119935   8.394   9.859   0.007  0.1674 -0.2957 -0.6736
 4080SOL    HW219936   8.244   9.915   0.037  1.0699  0.9186  1.7205
 4081SOL     OW19937   4.851   9.010   1.720  0.4008 -0.3250 -0.2564
 4081SOL    HW119938   4.854   9.097   1.671 -0.1887 -0.2123 -0.0960
 4081SOL    HW219939   4.931   9.004   1.780  0.5898 -0.0165 -0.4692
 4083SOL     OW19940   4.339   1.471   0.802 -0.1584 -0.0119  0.0793
 4083SOL    HW119941   4.364   1.545   0.865 -0.2981  0.2747 -0.1993
 4083SOL    HW219942   4.387   1.484   0.715  2.5354 -2.1680  1.1848
 4085SOL     OW19943   9.961   8.897   1.904 -0.2395 -0.3357 -0.0538
 4085SOL    HW119944   9.964   8.981   1.850  1.3813 -0.4696 -0.1756
 4085SOL    HW219945   9.927   8.822   1.848  0.9015 -0.3509 -0.7288
 4087SOL     OW19946   3.075   7.376   0.162  0.5852 -0.1746  0.3140
 4087SOL    HW119947   3.154   7.396   0.219  1.5985 -1.3617 -0.6492
 4087SOL    HW219948   3.080   7.430   0.078  0.4801 -0.4049  0.1591
 4088SOL     OW19949   8.446   9.186   1.275  0.2323  0.1635 -0.0377
 4088SOL    HW119950   8.348   9.204   1.283  0.2388 -0.1483  0.8389
 4088SOL    HW219951   8.495   9.247   1.337  0.5718  0.1163 -0.2617
 4091SOL     OW19952   8.412   2.160   1.734 -0.1461 -0.3461 -0.2282
 4091SOL    HW119953   8.358   2.228   1.685  0.0365  0.8153  1.1807
 4091SOL    HW219954   8.351   2.101   1.788  0.0379  1.7437  2.3432
 4092SOL     OW19955   2.260   4.630   2.042  0.1418 -0.7283 -0.0901
 4092SOL    HW119956   2.358   4.613   2.046  0.2477 -0.0993  0.0582
 4092SOL    HW219957   2.211   4.560   2.095  0.5219 -0.9160  0.0121
 4093SOL     OW19958   1.520   2.583   0.581  0.1513  0.3696 -0.3760
 4093SOL    HW119959   1.572   2.667   0.594 -1.1847  1.4620 -1.9095
 4093SOL    HW219960   1.571   2.521   0.521  0.4837  0.6868 -0.4226
 4094SOL     OW19961   7.879   0.816   1.327 -0.0022 -0.3866  0.0021
 4094SOL    HW119962   7.894   0.842   1.422  2.4421  0.9804 -0.6966
 4094SOL    HW219963   7.885   0.897   1.269 -3.3402 -0.9187 -1.1635
 4096SOL     OW19964   9.698   5.267   1.763  0.3073 -0.0765  0.6534
 4096SOL    HW119965   9.669   5.176   1.793  1.0924 -0.3430  0.6185
 4096SOL    HW219966   9.672   5.334   1.832 -1.5352 -0.1167  0.0341
 4097SOL     OW19967   4.836   9.793   1.837  0.7341  0.2037 -0.7788
 4097SOL    HW119968   4.876   9.702   1.827  0.3481  0.0471 -0.8906
 4097SOL    HW219969   4.738   9.785   1.853  1.0640  0.5208  1.5328
 4098SOL     OW19970   1.364   7.637   0.603 -0.5516  0.1882  0.0375
 4098SOL    HW119971   1.310   7.616   0.684  0.3294  0.6757  0.7641
 4098SOL    HW219972   1.390   7.552   0.557 -0.7713 -0.1076  0.4570
 4101SOL     OW19973   0.706   5.263   0.567 -0.2931  0.0181  0.1753
 4101SOL    HW119974   0.745   5.288   0.478 -1.2088  2.8952  0.5524
 4101SOL    HW219975   0.622   5.315   0.583 -0.2941 -0.6689  2.6071
 4102SOL     OW19976   0.126   5.001   1.947 -0.2289 -0.6416 -0.2423
 4102SOL    HW119977   0.189   5.048   1.885  0.0848 -0.1332  0.4595
 4102SOL    HW219978   0.124   4.903   1.925  0.7664 -0.6534 -0.2975
 4103SOL     OW19979   0.435   0.012   1.030 -0.0956  0.3470  0.1031
 4103SOL    HW119980   0.417  -0.081   0.998  0.6765  1.0073 -2.3766
 4103SOL    HW219981   0.531   0.020   1.056 -0.0498  0.5842 -0.1406
 4104SOL     OW19982   2.906   6.214   0.113 -0.3366  0.2011  0.2145
 4104SOL    HW119983   2.840   6.209   0.188 -1.9355  0.4723 -1.1358
 4104SOL    HW219984   2.914   6.308   0.081 -0.7641 -0.1227 -0.8860
 4105SOL     OW19985   8.712   7.229   0.830 -0.2518  0.7124  0.4216
 4105SOL    HW119986   8.796   7.182   0.802  0.3814  1.3326  1.2599
 4105SOL    HW219987   8.635   7.192   0.778  0.1632 -1.5363  1.3569
 4106SOL     OW19988   1.913   1.039   0.326  0.3201  0.1423 -0.0246
 4106SOL    HW119989   1.950   0.991   0.247 -2.2433  0.7486 -1.6765
 4106SOL    HW219990   1.875   0.973   0.390  0.0674 -0.2331 -0.5553
 4107SOL     OW19991   1.248   8.672   0.499  0.1007  0.3279  0.3721
 4107SOL    HW119992   1.305   8.688   0.419 -0.0056 -1.0067  0.0169
 4107SOL    HW219993   1.304   8.638   0.574 -0.0258  0.2548  0.4339
 4108SOL     OW19994   9.970   4.805   1.590  0.0190  0.2556  0.4340
 4108SOL    HW119995   9.987   4.903   1.598 -1.8012  0.6293 -0.0252
 4108SOL    HW219996   9.961   4.780   1.493  0.4836 -0.3566  0.5476
 4109SOL     OW19997   8.074   2.226   0.642  0.1419 -0.5393  0.1456
 4109SOL    HW119998   8.062   2.138   0.595  2.4971 -1.1112  0.5534
 4109SOL    HW219999   8.057   2.214   0.740  0.2803 -0.4978  0.1746
 4110SOL     OW20000   9.089   7.358   0.952  0.4826  0.0287  0.3109
 4110SOL    HW120001   9.021   7.307   0.900 -0.6593  1.8485 -0.0528
 4110SOL    HW220002   9.177   7.354   0.906  0.4489 -1.7123  0.3760
 4111SOL     OW20003   0.704   7.212   0.609  0.1563  0.0212 -0.4207
 4111SOL    HW120004   0.610   7.246   0.608  0.9382  2.2793 -0.6207
 4111SOL    HW220005   0.725   7.174   0.699  0.4544  3.8125  1.2432
 4112SOL     OW20006   3.515   4.618   1.572  0.1174  0.3321 -1.1061
 4112SOL    HW120007   3.562   4.648   1.489  3.1529 -3.1612 -0.7667
 4112SOL    HW220008   3.446   4.549   1.548 -0.0020  0.3688 -0.8686
 4113SOL     OW20009   1.925   0.610   0.267 -0.4653  0.2856  0.9067
 4113SOL    HW120010   1.964   0.586   0.356 -0.8022  2.3423  1.6351
 4113SOL    HW220011   1.826   0.625   0.277 -0.6358 -0.2100  0.0241
 4114SOL     OW20012   2.950   4.402   1.530  0.4425 -0.0940 -0.2657
 4114SOL    HW120013   3.012   4.328   1.553 -0.8801 -0.9069  0.8186
 4114SOL    HW220014   2.982   4.450   1.449  0.5107 -2.8212 -1.8815
 4116SOL     OW20015   0.975   3.279   0.261  0.8217  0.2179  0.8880
 4116SOL    HW120016   1.041   3.207   0.283  0.2277 -0.4937  0.3762
 4116SOL    HW220017   1.016   3.369   0.277  1.5987 -0.2360  1.4427
 4117SOL     OW20018   1.797   5.423   1.780  0.3961  0.2466  0.5135
 4117SOL    HW120019   1.737   5.450   1.705 -0.0059  1.8286  1.3899
 4117SOL    HW220020   1.757   5.345   1.829 -0.6093  0.8754  0.6975
 4119SOL     OW20021   8.879   0.315   0.675  0.0952  0.2619  0.4489
 4119SOL    HW120022   8.890   0.234   0.732  0.3119  1.4011  2.0763
 4119SOL    HW220023   8.798   0.304   0.617 -2.0723  0.3639  3.3051
 4120SOL     OW20024   0.631   0.893   0.484  0.0388  0.0826  0.0038
 4120SOL    HW120025   0.558   0.921   0.421  0.3998  1.0008 -0.0041
 4120SOL    HW220026   0.592   0.881   0.576 -0.1593  0.3618 -0.0436
 4122SOL     OW20027   8.823   9.075   0.708 -0.4960 -0.5471 -0.0894
 4122SOL    HW120028   8.746   9.130   0.740 -0.1978  1.0960 -2.1442
 4122SOL    HW220029   8.791   8.983   0.686 -1.8687  0.0940 -0.8160
 4125SOL     OW20030   8.132   8.216   1.822  0.2983  0.2647  0.8738
 4125SOL    HW120031   8.106   8.291   1.762 -1.6508 -0.3666  0.9028
 4125SOL    HW220032   8.082   8.223   1.908  1.4932 -0.0421  1.6097
 4126SOL     OW20033   2.142   3.687   1.961  0.0066  0.0281  0.4062
 4126SOL    HW120034   2.121   3.623   2.036 -0.9770  0.4739  0.5168
 4126SOL    HW220035   2.237   3.675   1.933 -0.6262 -2.7025 -0.7307
 4127SOL     OW20036   2.316   1.797   1.624 -0.0326  0.5441  0.0351
 4127SOL    HW120037   2.353   1.890   1.623  0.0521  0.5122 -1.4587
 4127SOL    HW220038   2.322   1.758   1.532  0.5307 -1.1879  0.7871
 4128SOL     OW20039   3.431   4.707   2.138  0.5673  0.6206  0.2928
 4128SOL    HW120040   3.403   4.762   2.060  1.1632  2.2042  1.1597
 4128SOL    HW220041   3.531   4.695   2.136  0.5385  0.3230  0.5800
 4129SOL     OW20042   3.292   0.061   1.642  0.3842  0.1959 -0.3121
 4129SOL    HW120043   3.209   0.099   1.683  0.0795 -1.1854  0.3520
 4129SOL    HW220044   3.365   0.057   1.711  0.8217  0.8121 -0.7294
 4131SOL     OW20045   0.939   1.106   1.579  0.2650  0.0688  0.0638
 4131SOL    HW120046   1.033   1.104   1.545  0.0869  0.3157 -0.4465
 4131SOL    HW220047   0.911   1.201   1.592 -0.5292  0.0573 -1.5029
 4132SOL     OW20048   0.554   8.787   1.943  0.1579  0.1194  0.1818
 4132SOL    HW120049   0.586   8.851   1.873 -1.5003  1.2941  0.4698
 4132SOL    HW220050   0.600   8.807   2.030 -0.5269  1.0673  0.3255
 4133SOL     OW20051   0.292   2.702   1.522  0.0368  0.0474 -0.8990
 4133SOL    HW120052   0.357   2.628   1.506  0.8311  1.1288 -2.8387
 4133SOL    HW220053   0.334   2.789   1.496 -1.9415  0.8453 -1.5297
 4134SOL     OW20054   9.236   9.370   1.767 -0.1756  0.3975 -0.4384
 4134SOL    HW120055   9.155   9.355   1.823 -0.0384 -0.4096 -0.4488
 4134SOL    HW220056   9.221   9.330   1.676  0.7894 -1.0879  0.0309
 4135SOL     OW20057   9.337   2.501   0.355 -0.5709 -0.3890  0.2681
 4135SOL    HW120058   9.422   2.552   0.341 -0.9311 -0.4060 -2.2412
 4135SOL    HW220059   9.296   2.527   0.442  1.2882  0.6522  0.8524
 4136SOL     OW20060   0.780   6.490   0.683 -0.0744  0.1427 -0.2046
 4136SOL    HW120061   0.855   6.490   0.617  0.5357  0.0117  0.4803
 4136SOL    HW220062   0.695   6.518   0.638  0.3696  0.2032 -1.0025
 4138SOL     OW20063   8.811   1.839   1.522  0.5437  0.1293 -0.0749
 4138SOL    HW120064   8.838   1.759   1.469  3.7826  1.1501 -0.0965
 4138SOL    HW220065   8.825   1.921   1.467  4.5868  1.2566  2.4650
 4139SOL     OW20066   2.620   0.494   1.462 -0.4335  0.4620 -0.6352
 4139SOL    HW120067   2.527   0.530   1.459 -0.7425 -0.2547  0.3037
 4139SOL    HW220068   2.670   0.537   1.536 -0.3176  0.1244 -0.5166
 4140SOL     OW20069   5.308   3.370   0.652  0.3441 -0.4003  0.1277
 4140SOL    HW120070   5.345   3.355   0.744 -2.1192  1.5146  1.4864
 4140SOL    HW220071   5.225   3.316   0.640  0.0454  0.2074 -0.5810
 4141SOL     OW20072   3.992   3.224   0.585 -0.0922 -0.6326 -0.4808
 4141SOL    HW120073   3.968   3.279   0.505  0.0813 -1.0621 -0.8330
 4141SOL    HW220074   4.004   3.284   0.664  0.7921 -0.0849 -1.0134
 4142SOL     OW20075   8.840   6.574   0.117 -0.3004  0.0372 -0.0529
 4142SOL    HW120076   8.891   6.622   0.189  0.2486  0.1017 -0.4818
 4142SOL    HW220077   8.819   6.637   0.042  1.9041 -0.7693 -1.3899
 4144SOL     OW20078   8.919   2.224   2.212 -0.5447 -0.2075 -0.9484
 4144SOL    HW120079   8.853   2.196   2.282 -0.6990  0.1933 -0.9309
 4144SOL    HW220080   8.874   2.285   2.146 -0.0332  0.5722 -0.5830
 4146SOL     OW20081   3.770   9.657   1.509 -0.0551  0.1789 -0.5136
 4146SOL    HW120082   3.841   9.624   1.447 -0.4284  0.5698 -1.1563
 4146SOL    HW220083   3.689   9.598   1.501 -0.0979  0.2205 -0.3871
 4149SOL     OW20084   3.731   5.433   0.499 -0.6134  0.2542  0.4396
 4149SOL    HW120085   3.720   5.473   0.590 -1.1076 -0.3792  0.6653
 4149SOL    HW220086   3.734   5.506   0.431 -2.1296  0.6709  0.7864
 4150SOL     OW20087   4.139   5.865   0.176  0.4776 -0.0098 -0.7982
 4150SOL    HW120088   4.181   5.915   0.100  1.6195  1.0256  0.4856
 4150SOL    HW220089   4.210   5.815   0.226 -0.2800 -0.7747 -0.4781
 4151SOL     OW20090   1.607   5.899   2.097 -0.4414 -0.2338  0.1157
 4151SOL    HW120091   1.656   5.813   2.115 -1.2802 -0.7770 -0.1488
 4151SOL    HW220092   1.576   5.900   2.002 -0.0507  0.5613 -0.0030
 4152SOL     OW20093   9.024   7.045   1.274  0.2285  0.3865 -0.2185
 4152SOL    HW120094   9.114   7.070   1.312  0.2314  1.5527 -0.9679
 4152SOL    HW220095   9.014   6.946   1.275  1.3651  0.2665  0.2387
 4154SOL     OW20096   9.688   6.008   1.335  0.1397 -0.0627 -0.0071
 4154SOL    HW120097   9.631   5.988   1.415 -0.2676 -0.2836 -0.3519
 4154SOL    HW220098   9.694   5.926   1.277  1.5942 -0.3407  0.5133
 4155SOL     OW20099   1.335   3.080   0.564  0.4019 -0.0564  0.1918
 4155SOL    HW120100   1.267   3.102   0.634  0.4444  0.4174  0.0831
 4155SOL    HW220101   1.334   2.981   0.547 -0.9081  0.0547 -0.4598
 4156SOL     OW20102   0.761   9.911   0.437  0.1517  0.6097  0.4785
 4156SOL    HW120103   0.802   9.820   0.425  0.1581  0.3757  2.1228
 4156SOL    HW220104   0.736   9.948   0.348  1.2961 -0.4790 -0.3230
 4157SOL     OW20105   2.036   4.650   1.697 -0.0364  0.2292 -0.3364
 4157SOL    HW120106   1.946   4.612   1.676 -0.0064  1.6887 -3.4403
 4157SOL    HW220107   2.026   4.746   1.723  0.3512 -0.4760  2.5838
 4158SOL     OW20108   2.245   7.966   0.743  0.2669  0.1203  0.1440
 4158SOL    HW120109   2.146   7.954   0.742  0.1776  0.8332  0.0427
 4158SOL    HW220110   2.269   8.044   0.686  1.0023 -0.8830 -0.9495
 4159SOL     OW20111   2.169   9.981   1.920 -0.1925 -0.0136  0.6130
 4159SOL    HW120112   2.153   9.898   1.975 -0.2852 -0.9842 -0.8451
 4159SOL    HW220113   2.131  10.060   1.968 -0.5930 -0.8937  1.7839
 4160SOL     OW20114   9.000   4.466   0.738  0.5224  0.5043  0.8556
 4160SOL    HW120115   9.021   4.553   0.693 -0.0319 -0.2532 -0.8982
 4160SOL    HW220116   9.060   4.394   0.701 -1.6031 -0.6233 -0.4781
 4161SOL     OW20117   2.416   8.169   2.260 -0.2812 -0.5214  0.3783
 4161SOL    HW120118   2.317   8.176   2.256 -0.1292  1.0543 -1.5838
 4161SOL    HW220119   2.450   8.128   2.175  0.7033 -1.9706  1.4381
 4162SOL     OW20120   8.368   8.169   0.492 -0.3125  0.2247  0.7002
 4162SOL    HW120121   8.297   8.222   0.538  0.2122  1.5950 -0.0133
 4162SOL    HW220122   8.445   8.230   0.470  0.8003 -1.0995  0.9036
 4163SOL     OW20123   0.729   0.964   0.182  0.7195 -0.9801  0.0606
 4163SOL    HW120124   0.701   0.945   0.276 -0.5345  2.0934  0.3517
 4163SOL    HW220125   0.825   0.990   0.180  0.8630 -1.4704  0.4091
 4165SOL     OW20126   8.444   0.777   1.243 -0.4436  0.2381 -0.0877
 4165SOL    HW120127   8.485   0.752   1.156 -2.2125 -1.9528 -0.3348
 4165SOL    HW220128   8.361   0.831   1.227 -1.3179 -1.0005  0.1759
 4166SOL     OW20129   8.776   0.053   1.898  0.0347  0.0904  0.0556
 4166SOL    HW120130   8.808   0.112   1.825 -1.3910  2.1782  1.0759
 4166SOL    HW220131   8.833   0.067   1.979 -1.2243  1.2106  0.7684
 4167SOL     OW20132   9.582   0.727   0.924  0.4388  0.7196 -0.4468
 4167SOL    HW120133   9.588   0.790   1.001 -0.2612  0.4280 -0.1470
 4167SOL    HW220134   9.552   0.637   0.957  1.1083  0.3261 -0.9152
 4168SOL     OW20135   2.987   5.752   1.103 -0.0983  0.0427  0.2767
 4168SOL    HW120136   2.898   5.712   1.080  0.2440 -0.7418  0.2746
 4168SOL    HW220137   3.058   5.684   1.085  0.4251  0.3902  1.0320
 4170SOL     OW20138   9.173   6.214   2.191  0.0616  0.7101  0.3059
 4170SOL    HW120139   9.195   6.219   2.289 -1.0985 -1.2085  0.6921
 4170SOL    HW220140   9.216   6.132   2.152 -2.7034 -0.7184  0.1255
 4171SOL     OW20141   2.201   2.832   0.868  0.2207  0.3877  0.1553
 4171SOL    HW120142   2.249   2.825   0.956 -0.6671  0.4800  0.6587
 4171SOL    HW220143   2.201   2.742   0.823  1.8716  0.6499 -0.4017
 4172SOL     OW20144   9.865   7.087   0.134 -0.0891 -0.0673  0.4509
 4172SOL    HW120145   9.786   7.148   0.128 -0.5729 -0.8574 -1.8743
 4172SOL    HW220146   9.948   7.136   0.107  0.0793  0.4948  1.9512
 4173SOL     OW20147   9.377   2.881   1.540  0.1533 -0.1915 -0.2384
 4173SOL    HW120148   9.417   2.798   1.577  0.6535 -0.0854 -0.5362
 4173SOL    HW220149   9.408   2.960   1.594 -0.6920 -0.2469  0.3320
 4174SOL     OW20150   1.527   1.361   1.468  0.3270  0.0220  0.1232
 4174SOL    HW120151   1.569   1.373   1.378 -1.3904  3.2558 -0.3333
 4174SOL    HW220152   1.588   1.398   1.538  1.2017 -1.5282  0.1857
 4179SOL     OW20153   8.910   8.649   0.876  0.7218 -0.4053 -0.3515
 4179SOL    HW120154   8.817   8.663   0.842  0.1738  0.2456  1.3640
 4179SOL    HW220155   8.952   8.574   0.826 -0.3258  0.0056 -1.9076
 4180SOL     OW20156   9.017   7.615   0.811  0.4022 -0.4246  0.7814
 4180SOL    HW120157   9.019   7.602   0.910  0.6776 -1.4457  0.6499
 4180SOL    HW220158   9.069   7.542   0.767 -0.0269 -0.1840 -0.1385
 4181SOL     OW20159   1.427   3.651   2.286  0.8245 -0.1557 -0.9443
 4181SOL    HW120160   1.387   3.661   2.378 -0.5355  2.3746 -1.7631
 4181SOL    HW220161   1.356   3.620   2.223  0.8685  1.6149 -1.8595
 4182SOL     OW20162   2.052   7.583   1.884  0.8043 -0.2560 -0.8977
 4182SOL    HW120163   2.117   7.596   1.810  0.9423  0.7040 -0.6174
 4182SOL    HW220164   2.025   7.672   1.921 -0.6152 -0.6444 -0.9611
 4183SOL     OW20165   2.814   3.015   0.310 -0.0426  0.4778  0.1206
 4183SOL    HW120166   2.886   2.947   0.297  0.0972  0.8288 -1.0050
 4183SOL    HW220167   2.855   3.103   0.332 -0.0907  0.7673 -0.9022
 4184SOL     OW20168   9.951   5.604   1.616  0.1716  0.3640  0.0104
 4184SOL    HW120169   9.959   5.701   1.595 -2.4088  0.6952  0.4522
 4184SOL    HW220170   9.929   5.553   1.532  1.5894  0.1226 -0.2343
 4185SOL     OW20171   1.726   5.253   2.225 -0.3499  0.4814 -0.0768
 4185SOL    HW120172   1.769   5.166   2.203 -0.2951  0.5652 -0.3003
 4185SOL    HW220173   1.627   5.245   2.215 -0.3307  0.4964 -0.2716
 4186SOL     OW20174   9.656   8.215   1.431 -0.3215 -0.0031  0.0478
 4186SOL    HW120175   9.596   8.288   1.397  0.6002  1.1919  0.9700
 4186SOL    HW220176   9.694   8.165   1.353 -0.5943  0.7849 -0.6046
 4187SOL     OW20177   1.703   6.814   1.062  0.1722 -0.2604  0.0047
 4187SOL    HW120178   1.641   6.754   1.011 -0.6814  0.5387  0.0930
 4187SOL    HW220179   1.662   6.838   1.150  0.9590 -0.3701  0.4074
 4189SOL     OW20180   4.407   4.562   0.689  0.1090 -0.1109  0.1313
 4189SOL    HW120181   4.401   4.638   0.625 -2.0441 -0.1797  0.2292
 4189SOL    HW220182   4.455   4.486   0.646  0.4999  0.5763 -0.6663
 4190SOL     OW20183   0.148   8.566   0.711 -0.4601  0.4289  0.2519
 4190SOL    HW120184   0.154   8.642   0.775 -1.9473  0.2553  0.6225
 4190SOL    HW220185   0.089   8.495   0.749 -0.9088  0.0814 -1.0665
 4191SOL     OW20186   9.344   4.735   0.715 -0.5340  0.4092 -0.5272
 4191SOL    HW120187   9.336   4.751   0.814  1.6982 -0.9894 -0.0790
 4191SOL    HW220188   9.375   4.819   0.671  0.9458  0.3278  0.3301
 4192SOL     OW20189   5.006   3.540   0.996  0.0547 -0.0263 -0.0568
 4192SOL    HW120190   4.971   3.461   1.047 -0.3742  0.7228  0.8200
 4192SOL    HW220191   5.094   3.517   0.956  1.3087 -0.0468  2.5948
 4193SOL     OW20192   1.050   4.092   1.445 -0.2118  0.3681 -0.1502
 4193SOL    HW120193   1.053   4.145   1.359 -0.5372  0.4327 -0.1234
 4193SOL    HW220194   1.130   4.032   1.450 -0.7339 -0.4186 -1.0017
 4194SOL     OW20195   8.664   6.382   1.236  0.0859  0.9269 -0.1087
 4194SOL    HW120196   8.722   6.463   1.233 -1.1270  1.7698 -1.1148
 4194SOL    HW220197   8.569   6.408   1.253 -0.3702 -0.2507 -0.7364
 4195SOL     OW20198   4.230   0.193   0.018  0.4237 -0.1924  0.2607
 4195SOL    HW120199   4.320   0.183  -0.023  0.1822  0.2109 -0.3693
 4195SOL    HW220200   4.237   0.249   0.101  0.8982 -0.9679  0.7524
 4197SOL     OW20201   3.168   4.600   2.238 -0.1732 -0.5657 -0.2227
 4197SOL    HW120202   3.260   4.622   2.206 -0.8595  1.0279 -1.1442
 4197SOL    HW220203   3.170   4.581   2.336  1.2285 -1.1342 -0.3592
 4198SOL     OW20204   2.113   9.717   0.388  0.2445  0.1412  0.3325
 4198SOL    HW120205   2.053   9.675   0.320 -0.9820  0.8867  0.9461
 4198SOL    HW220206   2.097   9.816   0.391  2.6409  0.5962 -0.6258
 4201SOL     OW20207   4.462   0.514   1.639  0.0627 -0.7194 -0.1157
 4201SOL    HW120208   4.547   0.535   1.688 -0.2638 -0.5357  0.3759
 4201SOL    HW220209   4.442   0.588   1.574  0.2077 -0.6955 -0.1328
 4202SOL     OW20210   0.308   8.897   2.003  0.0604 -0.8479 -0.3160
 4202SOL    HW120211   0.394   8.850   1.982  2.2652  2.9551 -0.3495
 4202SOL    HW220212   0.290   8.890   2.101 -0.0402 -2.3499 -0.4304
 4203SOL     OW20213   1.755   6.141   2.153  0.4631 -0.2194 -0.2023
 4203SOL    HW120214   1.724   6.047   2.135  0.2566  0.0846 -1.5029
 4203SOL    HW220215   1.831   6.139   2.218  0.5932 -1.2996 -0.3730
 4204SOL     OW20216   0.153   2.372   1.174 -0.1992 -0.3389 -0.3123
 4204SOL    HW120217   0.162   2.465   1.212 -0.3836 -0.2752 -0.4224
 4204SOL    HW220218   0.137   2.378   1.076  0.5334 -0.5145 -0.4440
 4205SOL     OW20219   3.069   5.826   0.152 -0.4441 -0.5520 -0.2698
 4205SOL    HW120220   3.076   5.824   0.052  1.8684  0.7353 -0.1604
 4205SOL    HW220221   3.142   5.769   0.191 -0.0630  0.5905  0.7121
 4206SOL     OW20222   1.957   3.875   1.569 -0.9896 -0.0764  0.3216
 4206SOL    HW120223   1.999   3.799   1.619 -0.3894  1.3163  2.0143
 4206SOL    HW220224   1.952   3.955   1.629 -1.4490  1.2788 -1.4755
 4207SOL     OW20225   2.940   3.686   1.734 -0.2932 -0.3233 -0.0642
 4207SOL    HW120226   2.896   3.749   1.799  0.9031 -0.1357  0.5938
 4207SOL    HW220227   2.937   3.593   1.771  2.1951  0.0857  1.2621
 4208SOL     OW20228   2.495   0.497   1.114  0.1178 -0.0642 -0.5833
 4208SOL    HW120229   2.519   0.414   1.063  1.0153  0.7052 -1.4336
 4208SOL    HW220230   2.577   0.551   1.130 -0.2291 -0.0443  1.2676
 4209SOL     OW20231   2.722   6.639   0.255 -0.4816  0.6462  0.2359
 4209SOL    HW120232   2.785   6.568   0.286 -0.4027 -0.7311 -2.8448
 4209SOL    HW220233   2.668   6.672   0.332  0.7019 -1.5191  2.0502
 4210SOL     OW20234   1.283   5.183   1.091  0.1852 -0.9872 -0.1822
 4210SOL    HW120235   1.233   5.267   1.068 -0.5963 -1.2112  0.6787
 4210SOL    HW220236   1.337   5.197   1.174  0.0800 -1.3244 -0.0555
 4211SOL     OW20237   1.105   3.372   1.086 -0.1238  0.1168  0.2914
 4211SOL    HW120238   1.044   3.423   1.146 -0.7214 -0.3256  0.0620
 4211SOL    HW220239   1.052   3.314   1.024  0.5266 -0.4854  0.2801
 4213SOL     OW20240   8.903   5.886   0.452 -0.7980  0.2555 -0.4956
 4213SOL    HW120241   8.919   5.796   0.412 -2.5161 -0.4185  0.2857
 4213SOL    HW220242   8.968   5.952   0.413  2.0586 -1.7887  0.6714
 4215SOL     OW20243   8.561   2.012   1.579 -0.1444  0.3677 -0.4393
 4215SOL    HW120244   8.516   2.068   1.648 -1.5414  0.0390 -1.0718
 4215SOL    HW220245   8.548   2.054   1.489 -0.0072 -0.2319 -0.7432
 4216SOL     OW20246   1.059   8.528   1.080  0.1694 -0.2760  0.2961
 4216SOL    HW120247   0.968   8.488   1.076  0.0260  0.0349  0.4149
 4216SOL    HW220248   1.128   8.456   1.076 -0.0823 -0.5108  0.2115
 4217SOL     OW20249   9.053   3.287   0.225 -0.3912 -0.5585 -0.5492
 4217SOL    HW120250   9.009   3.198   0.236 -0.9108 -0.1189  1.0913
 4217SOL    HW220251   8.985   3.359   0.236  0.4338  0.0952  0.3353
 4218SOL     OW20252   9.605   7.487   1.839 -1.0836 -0.1876  0.2006
 4218SOL    HW120253   9.600   7.566   1.778 -0.1552  0.0195  0.3857
 4218SOL    HW220254   9.513   7.448   1.851 -1.5424  0.8545  0.1054
 4220SOL     OW20255   2.249   3.013   1.767  0.5926 -0.1537  0.2211
 4220SOL    HW120256   2.191   3.085   1.804  0.2115 -0.1230 -0.4210
 4220SOL    HW220257   2.217   2.987   1.676  1.3950 -0.3622 -0.0136
 4221SOL     OW20258   1.524   8.075   0.834 -0.2095  0.1676 -0.0717
 4221SOL    HW120259   1.456   8.011   0.798 -3.2692  2.3003  1.6150
 4221SOL    HW220260   1.569   8.036   0.913 -0.8636 -0.5812 -0.0623
 4222SOL     OW20261   4.590   9.583   1.621  0.3679 -0.0124 -0.7933
 4222SOL    HW120262   4.583   9.634   1.707  0.0733 -1.2946 -0.0442
 4222SOL    HW220263   4.524   9.620   1.555  0.0922  0.5101 -0.2292
 4223SOL     OW20264   8.606   1.789   1.075 -0.2485  0.3494 -0.0271
 4223SOL    HW120265   8.623   1.737   1.159 -0.0234  0.9571  0.3072
 4223SOL    HW220266   8.534   1.743   1.022 -1.3032  0.6421  1.1162
 4224SOL     OW20267   8.278   0.650   0.823  0.3908 -0.2210 -0.0267
 4224SOL    HW120268   8.262   0.705   0.740 -1.1052 -1.1507 -0.3869
 4224SOL    HW220269   8.190   0.634   0.869  1.1911  0.1438  1.6644
 4226SOL     OW20270   2.461   4.281   0.982  0.2653 -0.2940  0.0841
 4226SOL    HW120271   2.447   4.371   0.939  0.3913  0.2632  1.1906
 4226SOL    HW220272   2.372   4.236   0.994  0.1829 -0.2297 -0.2815
 4227SOL     OW20273   0.490   2.974   0.344 -0.6307 -0.5520 -0.7825
 4227SOL    HW120274   0.427   2.933   0.277 -0.3600  1.3957 -2.2748
 4227SOL    HW220275   0.563   3.022   0.295  0.7832 -0.8840  0.9403
 4228SOL     OW20276   0.198   5.055   0.413 -0.0066 -0.3004 -0.5626
 4228SOL    HW120277   0.234   4.985   0.474 -0.9132 -0.8718 -0.6674
 4228SOL    HW220278   0.157   5.011   0.332 -1.0149  0.3127 -0.3978
 4229SOL     OW20279   1.273   4.264   1.139 -0.1792 -0.8198  0.3571
 4229SOL    HW120280   1.324   4.346   1.164 -0.9745 -0.2250  0.0773
 4229SOL    HW220281   1.335   4.193   1.106  0.3941  0.0698 -0.4519
 4230SOL     OW20282   2.507   9.975   0.777 -0.2712  0.4221 -0.9987
 4230SOL    HW120283   2.420   9.979   0.827  0.2394  1.5202 -0.1909
 4230SOL    HW220284   2.494  10.011   0.685 -0.9832 -0.6762 -1.3338
 4231SOL     OW20285   1.287   9.498   0.835  0.5141  0.3235  0.5329
 4231SOL    HW120286   1.325   9.417   0.878  0.7167  1.8184  3.2623
 4231SOL    HW220287   1.189   9.503   0.854 -0.5324 -1.8088 -3.7612
 4233SOL     OW20288   8.230   1.620   2.029  0.2078  0.0624  0.4668
 4233SOL    HW120289   8.304   1.683   2.052  1.6598 -1.8427  1.2080
 4233SOL    HW220290   8.193   1.642   1.939  1.7488  0.9907  0.0478
 4234SOL     OW20291   9.271   1.070   1.832 -0.1143  0.1404 -0.2862
 4234SOL    HW120292   9.217   1.105   1.908  0.7976  0.6649  0.1355
 4234SOL    HW220293   9.310   1.146   1.781 -0.3260 -0.2194 -0.9900
 4235SOL     OW20294   3.699   2.240   0.646  0.5335  0.3582 -0.1106
 4235SOL    HW120295   3.721   2.299   0.569 -2.6084 -0.5498 -1.7788
 4235SOL    HW220296   3.629   2.283   0.703 -1.4304 -1.4914 -1.0719
 4236SOL     OW20297   8.981   1.047   0.809 -0.4514 -0.1425  0.0180
 4236SOL    HW120298   8.888   1.072   0.781 -0.4309  1.7046  1.5209
 4236SOL    HW220299   9.047   1.087   0.745 -0.6167 -0.0399 -0.0888
 4237SOL     OW20300   1.689   0.168   0.823  0.2584 -0.1260 -0.2308
 4237SOL    HW120301   1.659   0.114   0.744 -0.7945  0.0230  0.0613
 4237SOL    HW220302   1.630   0.248   0.833 -0.4491 -0.8335  1.4691
 4240SOL     OW20303   1.518   4.377   1.023 -0.3391  0.0689 -0.0803
 4240SOL    HW120304   1.561   4.289   1.042  2.6559  1.5504  0.3353
 4240SOL    HW220305   1.570   4.450   1.068 -4.6528  1.8042  2.4430
 4244SOL     OW20306   1.418   4.060   1.028 -0.3356  0.1707 -0.3969
 4244SOL    HW120307   1.501   4.094   1.074 -1.1984 -2.1202  3.0863
 4244SOL    HW220308   1.443   3.984   0.968  0.0902 -1.0848  1.2946
 4245SOL     OW20309   3.394   1.667   0.670  0.1196  0.0901 -0.3196
 4245SOL    HW120310   3.478   1.718   0.689 -0.0255 -0.5378  2.2566
 4245SOL    HW220311   3.339   1.661   0.754 -1.2941 -1.6768 -1.3231
 4246SOL     OW20312   0.124   9.637   0.828 -0.2115  0.0294 -0.3071
 4246SOL    HW120313   0.040   9.690   0.812 -0.6724 -1.1984 -2.1897
 4246SOL    HW220314   0.113   9.579   0.909 -0.7505  0.7307  0.1216
 4247SOL     OW20315   1.695   7.816   0.485  0.2635  0.3115  0.6144
 4247SOL    HW120316   1.777   7.758   0.475 -0.2048 -0.2975  0.2823
 4247SOL    HW220317   1.651   7.826   0.396 -1.4223 -1.4284  1.2266
 4249SOL     OW20318   1.297   7.417   2.001 -0.2573 -0.2585  0.4368
 4249SOL    HW120319   1.238   7.336   1.999  0.4879 -0.7919 -0.1363
 4249SOL    HW220320   1.392   7.390   1.989  0.2132  0.5147  2.2889
 4250SOL     OW20321   1.302   7.244   0.618 -0.0633 -0.7458  0.4645
 4250SOL    HW120322   1.208   7.271   0.640 -0.2436 -1.9451  1.2422
 4250SOL    HW220323   1.346   7.316   0.565 -2.0697 -1.0101 -1.6661
 4251SOL     OW20324   8.724   7.525   1.944  0.3109  0.4100  0.1011
 4251SOL    HW120325   8.788   7.507   1.869 -0.8029  1.1924 -1.0735
 4251SOL    HW220326   8.660   7.448   1.953 -0.0293  0.6512 -0.2517
 4252SOL     OW20327   9.745   0.971   1.220 -0.4714 -0.0128  0.0651
 4252SOL    HW120328   9.786   1.036   1.284 -1.3819 -0.6472  1.3018
 4252SOL    HW220329   9.815   0.907   1.188 -0.4140 -0.9008  1.9364
 4255SOL     OW20330   0.353   1.468   0.668 -0.1130  0.1749  0.5057
 4255SOL    HW120331   0.450   1.488   0.654  0.0409 -2.1415 -2.1634
 4255SOL    HW220332   0.343   1.383   0.719 -0.7546  0.8593  1.5330
 4256SOL     OW20333   2.810   0.691   0.285  0.7929  0.3365  0.4599
 4256SOL    HW120334   2.881   0.748   0.327 -0.2868  0.1937  2.5602
 4256SOL    HW220335   2.847   0.647   0.204  2.3740  2.1488  0.1430
 4257SOL     OW20336   9.161   9.289   0.737  0.3798  0.0553 -0.4206
 4257SOL    HW120337   9.084   9.350   0.756  0.9235  0.4166  0.6456
 4257SOL    HW220338   9.128   9.211   0.683 -0.2703  1.3648 -1.9317
 4260SOL     OW20339   1.141   4.421   0.188 -0.1889 -0.3872 -0.9144
 4260SOL    HW120340   1.168   4.431   0.284  2.8562 -0.9262 -1.6700
 4260SOL    HW220341   1.085   4.339   0.177  0.1273 -0.7677  0.2784
 4261SOL     OW20342   0.164   1.802   0.586 -0.2122  0.4305 -0.1030
 4261SOL    HW120343   0.082   1.846   0.551  0.0019  0.0955 -1.0381
 4261SOL    HW220344   0.244   1.858   0.566 -0.1861  0.6489  0.6071
 4262SOL     OW20345   2.308   0.933   2.240 -0.1522  0.6072 -0.1276
 4262SOL    HW120346   2.237   0.868   2.211  0.0745  0.0977  0.4450
 4262SOL    HW220347   2.398   0.891   2.230 -0.1025  0.1149  2.0229
 4263SOL     OW20348   1.615   7.987   1.103 -0.4296  0.0753  0.1227
 4263SOL    HW120349   1.662   8.020   1.185 -0.8351  0.6945  0.1048
 4263SOL    HW220350   1.620   7.887   1.100  1.2643  0.1656 -0.1142
 4264SOL     OW20351   3.139   2.248   2.089 -0.7760  0.1036  0.1091
 4264SOL    HW120352   3.175   2.185   2.158  0.0014  1.0140  0.5449
 4264SOL    HW220353   3.063   2.300   2.127  0.4886  1.5436  0.7336
 4266SOL     OW20354   0.278   5.299   1.639  0.1873 -0.6310  0.3791
 4266SOL    HW120355   0.371   5.306   1.677  0.2555  2.0890 -0.2136
 4266SOL    HW220356   0.273   5.353   1.555 -1.5755 -1.9289 -0.3797
 4268SOL     OW20357   9.621   6.932   1.367 -0.1646  0.5354 -0.0647
 4268SOL    HW120358   9.593   6.899   1.277 -1.1269  0.4837  0.2543
 4268SOL    HW220359   9.541   6.958   1.420  0.4619  1.6169  0.3821
 4270SOL     OW20360   1.019   9.102   1.836 -0.0295  0.2743 -0.3113
 4270SOL    HW120361   1.019   9.006   1.807 -1.4805  0.1240  0.1643
 4270SOL    HW220362   1.101   9.119   1.892  1.9237  0.1430 -3.0265
 4271SOL     OW20363   9.747   2.933   2.091  0.1492  0.1639 -0.0082
 4271SOL    HW120364   9.838   2.948   2.130  0.7845  0.8817 -1.6939
 4271SOL    HW220365   9.740   2.839   2.058 -0.1617 -0.2506  1.1979
 4272SOL     OW20366   4.331   5.072   0.220 -0.5849 -0.3922 -0.1589
 4272SOL    HW120367   4.350   4.975   0.205  0.2136 -0.4041  0.8480
 4272SOL    HW220368   4.358   5.098   0.313 -1.4033  0.6469 -0.1953
 4273SOL     OW20369   2.984   9.316   0.129 -0.0273  0.0985  0.4085
 4273SOL    HW120370   2.917   9.388   0.145  1.5189  1.5906  0.3649
 4273SOL    HW220371   3.005   9.269   0.214  0.8315  1.4096  0.9382
 4276SOL     OW20372   9.641   7.422   1.296 -0.4480 -0.0001  0.1402
 4276SOL    HW120373   9.662   7.324   1.286  0.9872  0.2507  0.5978
 4276SOL    HW220374   9.547   7.432   1.326 -0.8697 -1.2172 -0.7098
 4278SOL     OW20375   2.900   0.556   2.138 -0.3156  0.1514  0.1739
 4278SOL    HW120376   2.886   0.510   2.050 -1.1237 -0.5160  0.6522
 4278SOL    HW220377   2.828   0.530   2.202 -0.1424  1.1987  0.8161
 4279SOL     OW20378   1.310   7.347   0.188 -0.0980 -0.2544 -0.3434
 4279SOL    HW120379   1.316   7.434   0.139  0.3352 -0.3593 -0.4809
 4279SOL    HW220380   1.242   7.289   0.143  1.3649 -0.9317 -1.7680
 4280SOL     OW20381   9.358   3.475   1.348 -0.1693 -0.3238 -0.1398
 4280SOL    HW120382   9.400   3.391   1.383  0.1320  0.0265  0.3440
 4280SOL    HW220383   9.409   3.508   1.269  0.1180 -0.2296  0.0820
 4281SOL     OW20384   0.862   1.886   1.468 -0.4042  0.6150 -0.6122
 4281SOL    HW120385   0.861   1.791   1.435  1.6995  0.0860  0.7752
 4281SOL    HW220386   0.803   1.894   1.548  0.5465  0.1455  0.1388
 4282SOL     OW20387   0.782   7.780   2.072  0.0523  0.5140  0.4094
 4282SOL    HW120388   0.862   7.840   2.076  0.9021 -0.5138 -1.0156
 4282SOL    HW220389   0.702   7.830   2.105  1.0907  1.8515  0.9601
 4283SOL     OW20390   1.748   0.509   0.900  0.6212 -0.3695  0.1651
 4283SOL    HW120391   1.745   0.608   0.888 -0.5715 -0.3538  0.4602
 4283SOL    HW220392   1.656   0.476   0.923  0.9621 -1.5693 -0.1508
 4284SOL     OW20393   0.682   8.548   1.836 -0.0613 -0.9863  0.2674
 4284SOL    HW120394   0.637   8.489   1.769 -0.6079  1.1508 -1.3170
 4284SOL    HW220395   0.618   8.620   1.865  1.2980  0.1793  0.4324
 4286SOL     OW20396   4.709   3.441   1.926 -0.2278  0.4040 -0.3409
 4286SOL    HW120397   4.715   3.503   2.004 -0.3055  0.4858 -0.4007
 4286SOL    HW220398   4.644   3.367   1.947 -0.1261  0.3360 -0.2658
 4287SOL     OW20399   3.019   2.412   0.401  0.6863  0.1861 -0.2301
 4287SOL    HW120400   3.036   2.506   0.431  0.4669  0.5991 -1.3740
 4287SOL    HW220401   3.087   2.351   0.442  2.4788  1.2350 -1.6032
 4288SOL     OW20402   2.062   8.043   1.043 -0.4667 -0.3778  0.5781
 4288SOL    HW120403   2.024   7.975   1.107  0.0304  0.2669  1.5753
 4288SOL    HW220404   2.161   8.033   1.040 -0.3602  0.5367  1.0002
 4289SOL     OW20405   8.644   3.814   1.443  0.6812 -0.0132  0.7537
 4289SOL    HW120406   8.560   3.793   1.493  0.7782 -0.0258  0.9142
 4289SOL    HW220407   8.720   3.762   1.483  0.7867  0.0871  0.6863
 4290SOL     OW20408   4.384   4.908   1.823  0.0137 -0.3742  0.1850
 4290SOL    HW120409   4.323   4.836   1.790 -0.4535 -0.2422  0.7701
 4290SOL    HW220410   4.479   4.881   1.805 -0.1649 -1.0632  0.2585
 4291SOL     OW20411   0.100   0.333   1.163  0.2054  0.4201 -0.1866
 4291SOL    HW120412   0.172   0.264   1.165  0.1938  0.4412  1.7830
 4291SOL    HW220413   0.139   0.423   1.184 -0.4737  0.3407  1.4873
 4292SOL     OW20414   2.077   8.937   2.135 -0.2518  0.1719 -0.5376
 4292SOL    HW120415   2.146   8.966   2.201  0.0771  0.5243 -1.0310
 4292SOL    HW220416   2.051   8.842   2.154  1.0206 -0.2597 -0.8896
 4293SOL     OW20417   0.352   2.357   0.130  0.3311 -0.0038  0.2373
 4293SOL    HW120418   0.322   2.270   0.090 -0.3580  0.2993  0.0954
 4293SOL    HW220419   0.353   2.349   0.229 -0.7442  0.1468  0.2692
 4295SOL     OW20420   8.754   4.471   1.179  0.4305  0.5356 -0.3625
 4295SOL    HW120421   8.756   4.571   1.175 -2.4914  0.7094  1.2906
 4295SOL    HW220422   8.788   4.441   1.269 -0.0494  0.1136 -0.3224
 4297SOL     OW20423   2.526   0.840   0.324  0.0541  0.1487 -0.6110
 4297SOL    HW120424   2.487   0.932   0.324 -0.7810 -0.1913  0.0798
 4297SOL    HW220425   2.583   0.828   0.243  0.6647  1.4750 -0.3952
 4298SOL     OW20426   0.726   3.547   0.273 -0.4723 -0.0778  0.0225
 4298SOL    HW120427   0.633   3.583   0.264  0.1871  1.3845 -0.9362
 4298SOL    HW220428   0.753   3.548   0.370 -0.9721  0.7109  0.1572
 4300SOL     OW20429   9.347   9.023   1.500  0.6013 -0.6463 -0.0201
 4300SOL    HW120430   9.360   8.974   1.414  1.5627  0.8388 -0.7612
 4300SOL    HW220431   9.251   9.022   1.526 -0.2755  1.6545 -2.8808
 4302SOL     OW20432   2.731   4.822   1.747  0.5214  0.0273  0.9455
 4302SOL    HW120433   2.657   4.756   1.760  0.7439 -0.6619 -1.0472
 4302SOL    HW220434   2.810   4.776   1.706  0.1218  1.7837 -1.9911
 4305SOL     OW20435   3.613   6.284   0.441 -0.5860 -0.1587 -0.0365
 4305SOL    HW120436   3.675   6.250   0.511 -1.1852  1.0409  1.1089
 4305SOL    HW220437   3.650   6.368   0.402 -1.5185  0.6325  0.7418
 4306SOL     OW20438   3.850   0.350   0.331 -0.0442 -0.0367 -0.1167
 4306SOL    HW120439   3.757   0.386   0.328  0.4749  1.3822  0.4417
 4306SOL    HW220440   3.890   0.354   0.239  0.5261  2.2863  0.1853
 4307SOL     OW20441   4.021   3.682   1.683 -0.1832  0.2541 -0.0178
 4307SOL    HW120442   3.986   3.588   1.690  1.6619 -0.3781  0.8469
 4307SOL    HW220443   3.944   3.746   1.688 -1.6933 -1.2681 -2.8597
 4309SOL     OW20444   7.867   1.751   0.900 -0.3002  0.2681  0.0834
 4309SOL    HW120445   7.947   1.803   0.871  0.8729 -1.7549 -0.3855
 4309SOL    HW220446   7.791   1.769   0.838  0.5396  0.2910 -0.9516
 4310SOL     OW20447   1.512   3.334   1.143  0.7423 -0.1781  0.3677
 4310SOL    HW120448   1.590   3.360   1.087 -0.2568  1.1426 -0.4426
 4310SOL    HW220449   1.429   3.378   1.108  0.1588  1.0223  3.0953
 4311SOL     OW20450   3.805   1.542   0.458 -0.3412  0.5079 -0.0319
 4311SOL    HW120451   3.824   1.446   0.439  0.1143  0.8961 -1.5724
 4311SOL    HW220452   3.825   1.561   0.554  1.1992 -0.5390 -0.1231
 4313SOL     OW20453   9.932   6.778   2.066  0.6435 -0.5927 -0.0931
 4313SOL    HW120454  10.009   6.719   2.086  2.1783  1.3272 -0.1366
 4313SOL    HW220455   9.847   6.735   2.097  1.8213 -2.3242  0.7902
 4314SOL     OW20456   9.135   9.520   2.144  0.3303 -0.6198  0.7774
 4314SOL    HW120457   9.187   9.597   2.181 -0.0623 -0.4813  1.0354
 4314SOL    HW220458   9.198   9.458   2.097  0.2812  1.3564 -2.0278
 4315SOL     OW20459   1.265   5.745   1.386 -0.2252 -0.0694  0.1212
 4315SOL    HW120460   1.325   5.816   1.350  1.4224 -1.0483  0.8906
 4315SOL    HW220461   1.176   5.785   1.408  0.2906  1.4979 -0.5645
 4318SOL     OW20462   3.889   5.365   0.789 -0.0904  0.3814 -0.4803
 4318SOL    HW120463   3.848   5.447   0.749 -2.4896 -1.2907 -1.5941
 4318SOL    HW220464   3.887   5.372   0.889 -2.0165  0.8889 -0.5379
 4319SOL     OW20465   1.040   8.471   1.712 -0.1244  0.1402  0.7469
 4319SOL    HW120466   0.964   8.422   1.669  0.6203  0.0462 -0.4847
 4319SOL    HW220467   1.024   8.477   1.810 -0.6950 -1.7454  0.7888
 4320SOL     OW20468   8.865   7.582   0.575 -0.2627  0.3865 -0.3943
 4320SOL    HW120469   8.940   7.593   0.641 -1.4094  1.0984  0.8085
 4320SOL    HW220470   8.893   7.517   0.505  0.7376 -0.9413  1.1797
 4322SOL     OW20471   0.949   9.217   1.069  0.5275 -0.1258  0.6050
 4322SOL    HW120472   0.872   9.210   1.005 -0.6715 -0.1606  2.0204
 4322SOL    HW220473   0.974   9.125   1.101  2.2263 -0.2782 -1.0545
 4323SOL     OW20474   0.325   8.986   0.316  0.3440  0.0618 -0.3843
 4323SOL    HW120475   0.389   9.043   0.264 -1.4316  1.8121 -0.6702
 4323SOL    HW220476   0.352   8.985   0.413  0.9856  0.5268 -0.5579
 4324SOL     OW20477   3.936   2.397   1.790  0.1846  0.1579  0.1350
 4324SOL    HW120478   3.976   2.350   1.869 -0.4759  0.9773  0.9522
 4324SOL    HW220479   3.856   2.346   1.758  1.8341 -1.4942 -1.5090
 4328SOL     OW20480   9.621   1.727   0.198  0.5514 -1.1993 -0.8296
 4328SOL    HW120481   9.532   1.750   0.239  1.1852  2.3272 -1.2438
 4328SOL    HW220482   9.617   1.743   0.099  1.7525 -0.5520 -0.7822
 4330SOL     OW20483   0.177   9.924   0.023 -0.3986  0.1218 -0.4701
 4330SOL    HW120484   0.125   9.871  -0.044 -0.6728 -0.0097 -0.1599
 4330SOL    HW220485   0.266   9.948  -0.014 -1.1490  1.4087 -1.4911
 4332SOL     OW20486   7.890  -0.000   1.800 -0.0864  0.7746  0.7935
 4332SOL    HW120487   7.893  -0.022   1.702  0.3637 -1.6766  1.3162
 4332SOL    HW220488   7.837   0.083   1.814  1.4649  2.2508 -1.7222
 4333SOL     OW20489   1.453   1.365   1.820 -0.4371 -0.0693 -0.5179
 4333SOL    HW120490   1.504   1.397   1.740 -1.4761 -1.7906 -1.9089
 4333SOL    HW220491   1.368   1.417   1.829 -0.2951  0.1595 -0.5004
 4335SOL     OW20492   1.226   4.106   0.590  0.0342 -0.1796  0.0467
 4335SOL    HW120493   1.219   4.197   0.548  2.3944 -0.7799 -1.7661
 4335SOL    HW220494   1.319   4.094   0.626  0.3642 -2.6564 -1.5772
 4336SOL     OW20495   9.834   4.811   2.073 -0.3865  0.3710  0.0324
 4336SOL    HW120496   9.832   4.711   2.084 -0.0691  0.1589 -1.7339
 4336SOL    HW220497   9.920   4.847   2.108  0.1984 -0.1781 -0.8227
 4337SOL     OW20498   8.527   0.368   1.901 -0.0535  0.0666  0.2459
 4337SOL    HW120499   8.502   0.366   1.998 -1.3101 -0.3520 -0.0724
 4337SOL    HW220500   8.453   0.327   1.847  1.2735 -1.0662 -0.7498
 4338SOL     OW20501   8.568   0.656   1.446 -0.0135  0.2484 -0.2666
 4338SOL    HW120502   8.512   0.585   1.489  1.0959 -0.8487 -0.5735
 4338SOL    HW220503   8.512   0.708   1.381 -0.8533 -0.3517 -0.0390
 4339SOL     OW20504   1.366   5.371   0.822  0.0622  0.2826 -0.1957
 4339SOL    HW120505   1.417   5.450   0.855  0.3239 -0.1016  0.3202
 4339SOL    HW220506   1.410   5.287   0.853 -1.4275 -0.0490  1.0991
 4340SOL     OW20507   8.788   7.993   1.627  0.1702 -0.1019  0.1084
 4340SOL    HW120508   8.880   7.999   1.666 -0.5600 -0.6952  1.9864
 4340SOL    HW220509   8.722   8.031   1.692 -0.6152  3.3270 -2.5383
 4341SOL     OW20510   8.790   3.492   0.855  0.1246 -0.4567 -0.0002
 4341SOL    HW120511   8.870   3.547   0.833  0.0023 -0.3183 -0.1057
 4341SOL    HW220512   8.779   3.486   0.954  1.4622 -2.2149  0.0595
 4343SOL     OW20513   2.899   9.011   1.539  0.3450  0.5041 -0.2945
 4343SOL    HW120514   2.900   8.948   1.461 -0.3206  0.6976 -0.4666
 4343SOL    HW220515   2.899   9.105   1.506 -1.4501  0.5941 -0.1109
 4345SOL     OW20516   8.311   8.996   0.214  0.8696 -0.3585 -0.2014
 4345SOL    HW120517   8.250   9.020   0.139 -0.0249 -2.0591 -0.0573
 4345SOL    HW220518   8.284   8.907   0.252  0.9014  0.7383  2.5419
 4346SOL     OW20519   1.227   2.836   2.114 -0.1273  0.1648 -0.1391
 4346SOL    HW120520   1.181   2.750   2.094 -2.5123  0.8264  2.1754
 4346SOL    HW220521   1.310   2.818   2.167 -0.5644 -0.7168  0.2597
 4347SOL     OW20522   8.392   3.260   2.105  0.5921 -0.4248 -0.2061
 4347SOL    HW120523   8.407   3.354   2.135  0.0726 -0.4751  0.2115
 4347SOL    HW220524   8.375   3.202   2.184 -1.0267 -0.5107 -0.6135
 4348SOL     OW20525   0.650   7.384   0.977 -0.4823 -0.3785 -0.1222
 4348SOL    HW120526   0.570   7.424   0.932  0.0195 -0.6506 -1.2546
 4348SOL    HW220527   0.619   7.313   1.041 -1.2621  0.7428  0.7730
 4349SOL     OW20528   4.555   9.262   1.146  0.0285  0.2224  0.0241
 4349SOL    HW120529   4.612   9.290   1.224 -1.4443  1.0858  0.8165
 4349SOL    HW220530   4.569   9.165   1.129  1.8356  0.4379  0.1128
 4350SOL     OW20531   3.393   3.271   2.038  0.1060 -0.1450  0.0265
 4350SOL    HW120532   3.474   3.214   2.049  0.8330  0.7603 -0.5600
 4350SOL    HW220533   3.418   3.357   1.994 -0.7000  1.2866  2.2550
 4351SOL     OW20534   0.643   9.830   1.464  0.3553  0.2356  0.6690
 4351SOL    HW120535   0.557   9.879   1.476  1.2249  1.9065  0.2768
 4351SOL    HW220536   0.701   9.842   1.545  0.4917 -0.3225  0.6578
 4352SOL     OW20537   8.824   6.272   2.256 -0.2970 -0.4253  0.2162
 4352SOL    HW120538   8.802   6.295   2.161 -1.0398 -0.0004  0.4911
 4352SOL    HW220539   8.913   6.226   2.259  0.0011  0.0832 -0.6229
 4354SOL     OW20540   0.492   9.870   2.204 -0.6106  0.0338 -1.2967
 4354SOL    HW120541   0.473   9.828   2.115  1.9086  0.0657 -1.8912
 4354SOL    HW220542   0.482   9.803   2.276  0.6829 -0.8984 -1.9677
 4355SOL     OW20543   1.579   1.754   1.177 -0.2742  0.3389  0.3897
 4355SOL    HW120544   1.524   1.671   1.168  1.1252 -0.5513 -0.1329
 4355SOL    HW220545   1.644   1.759   1.101  1.2115  0.7134  1.6559
 4356SOL     OW20546   9.399   8.214   1.970 -0.0529 -0.4349  0.2701
 4356SOL    HW120547   9.498   8.225   1.958 -0.0788  1.0188  1.1629
 4356SOL    HW220548   9.355   8.208   1.881  0.7548 -0.1177 -0.1549
 4357SOL     OW20549   9.197   6.217   1.161  0.0040  0.3112 -0.2107
 4357SOL    HW120550   9.114   6.257   1.123 -1.0249 -1.3851  0.2199
 4357SOL    HW220551   9.252   6.177   1.087 -0.4852 -0.2391 -0.2775
 4358SOL     OW20552   0.658   1.491   2.131  0.1147  0.2413  0.7335
 4358SOL    HW120553   0.678   1.486   2.228 -1.4855  0.2210  1.0824
 4358SOL    HW220554   0.631   1.400   2.098 -1.8234  0.7534  0.8510
 4359SOL     OW20555   9.668   1.435   0.678 -0.3540  0.0491  0.0805
 4359SOL    HW120556   9.753   1.449   0.627 -1.9498  1.2172 -2.3325
 4359SOL    HW220557   9.603   1.507   0.655 -3.1797 -2.5847 -0.6252
 4361SOL     OW20558   0.412   8.111   0.797  1.0240  0.0750 -0.6516
 4361SOL    HW120559   0.389   8.041   0.865 -0.3489 -1.6060 -2.7749
 4361SOL    HW220560   0.510   8.130   0.800  0.9192  0.4056  2.1018
 4362SOL     OW20561   0.595   4.177   1.132 -0.3525  0.2216  0.4020
 4362SOL    HW120562   0.654   4.197   1.054 -0.8475 -0.0229 -0.0406
 4362SOL    HW220563   0.547   4.090   1.116  0.8854 -0.7500  1.7673
 4363SOL     OW20564   9.785   6.541   0.322 -0.1356  0.2905  0.0090
 4363SOL    HW120565   9.794   6.497   0.412 -2.1401 -0.4139 -0.1116
 4363SOL    HW220566   9.858   6.508   0.262  0.1239 -0.6608  0.8198
 4364SOL     OW20567   9.316   1.816   0.699  0.2283 -0.2033  0.0777
 4364SOL    HW120568   9.395   1.832   0.758  1.2554 -1.3122 -0.9625
 4364SOL    HW220569   9.334   1.853   0.608 -0.4492 -0.4735 -0.1684
 4367SOL     OW20570   9.659   8.262   1.913  0.1382  0.0676 -0.1917
 4367SOL    HW120571   9.688   8.190   1.850  1.6404  0.0224  0.5158
 4367SOL    HW220572   9.688   8.351   1.878 -0.2614  0.1724 -0.2549
 4368SOL     OW20573   2.704   9.749   1.002  0.1501 -0.9070  0.5845
 4368SOL    HW120574   2.727   9.818   1.071 -0.2627 -0.2869  0.1078
 4368SOL    HW220575   2.704   9.792   0.912  1.3733 -1.8670  0.1213
 4370SOL     OW20576   2.500   3.901   1.660 -0.2680  0.0842 -0.1282
 4370SOL    HW120577   2.471   3.991   1.626  0.1191  0.3583  0.2720
 4370SOL    HW220578   2.425   3.836   1.649 -0.5248  0.4398 -0.4873
 4372SOL     OW20579   2.300   4.617   0.530 -0.1975  0.3945 -0.5424
 4372SOL    HW120580   2.308   4.533   0.584 -1.0743  0.0307 -0.9701
 4372SOL    HW220581   2.265   4.596   0.439  1.6449  0.9540 -1.4245
 4373SOL     OW20582   9.521   4.996   1.835 -0.1353 -0.1892  0.3118
 4373SOL    HW120583   9.548   4.901   1.819 -1.0205 -0.5206  0.7464
 4373SOL    HW220584   9.527   5.017   1.932 -2.0023 -0.4479  0.4904
 4374SOL     OW20585   3.747   3.609   1.344 -0.0655  0.1334 -0.2229
 4374SOL    HW120586   3.821   3.574   1.287  0.1855  0.2062  0.0615
 4374SOL    HW220587   3.660   3.597   1.296  0.2591  1.2222 -1.0873
 4376SOL     OW20588   9.183   0.879   1.619 -0.6922 -0.4733 -0.8362
 4376SOL    HW120589   9.207   0.952   1.684  1.2941 -0.0014 -2.0497
 4376SOL    HW220590   9.113   0.913   1.557 -0.6053  0.0147 -0.6747
 4377SOL     OW20591   1.511   2.910   1.631 -0.3471  1.2605 -0.3057
 4377SOL    HW120592   1.469   2.970   1.563 -0.0458 -0.9910 -2.5604
 4377SOL    HW220593   1.579   2.852   1.586  0.4039  0.2551  2.0810
 4379SOL     OW20594   8.555   6.097   0.486 -0.3518 -0.3998 -0.3490
 4379SOL    HW120595   8.565   6.196   0.473 -0.2991 -0.3562  0.0157
 4379SOL    HW220596   8.458   6.075   0.499 -0.3159 -0.3459 -0.0045
 4381SOL     OW20597   2.078   9.629   0.646  0.6082 -0.4437 -0.4987
 4381SOL    HW120598   2.099   9.657   0.552 -0.2160 -2.0888 -1.2130
 4381SOL    HW220599   1.984   9.654   0.668  0.5899 -0.6386 -0.3500
 4382SOL     OW20600   3.494   0.705   1.691 -0.1113 -0.1918  0.4941
 4382SOL    HW120601   3.565   0.736   1.755 -0.3834  0.2261  0.6001
 4382SOL    HW220602   3.524   0.622   1.645  0.0143 -0.5966  1.3039
 4383SOL     OW20603   2.991   1.475   0.197  0.6916  0.2891  0.3427
 4383SOL    HW120604   3.076   1.450   0.152  0.4878  1.2837 -0.6315
 4383SOL    HW220605   2.914   1.430   0.152  0.7066 -0.6795  1.2776
 4384SOL     OW20606   4.287   9.017   0.455 -0.7017  0.1610 -0.1026
 4384SOL    HW120607   4.214   9.080   0.431 -1.5904 -0.9072 -0.2323
 4384SOL    HW220608   4.296   8.947   0.384 -0.7646 -0.7588  0.7843
 4385SOL     OW20609   3.952   5.669   0.126  0.6879  0.2412 -0.0776
 4385SOL    HW120610   4.027   5.735   0.124  1.1170 -0.1006  2.5268
 4385SOL    HW220611   3.970   5.595   0.061  2.7189  0.0778  0.6329
 4387SOL     OW20612   9.953   2.332   1.375  0.3190 -0.4536  0.0767
 4387SOL    HW120613   9.950   2.232   1.364  0.6208 -0.3241 -1.3698
 4387SOL    HW220614  10.006   2.371   1.299 -0.0294  0.8285  0.4914
 4388SOL     OW20615   0.331   3.470   1.691  0.4180  0.4158  0.1842
 4388SOL    HW120616   0.251   3.491   1.746 -0.9196 -2.0393 -0.7524
 4388SOL    HW220617   0.302   3.446   1.598  2.3168  0.4910 -0.4502
 4389SOL     OW20618   4.246   3.739   0.474  0.6728  0.0829  0.3470
 4389SOL    HW120619   4.272   3.836   0.481  2.2290 -0.1647 -1.5052
 4389SOL    HW220620   4.153   3.727   0.509 -0.0510  2.4948 -0.6257
 4390SOL     OW20621   4.804   0.554   1.564 -0.1194  0.1489 -0.1730
 4390SOL    HW120622   4.847   0.643   1.580  1.9827 -0.6855 -1.0224
 4390SOL    HW220623   4.791   0.508   1.652  2.0589 -0.1761  0.0021
 4391SOL     OW20624   4.587   1.906   1.400 -0.6330 -0.4398 -0.2117
 4391SOL    HW120625   4.540   1.908   1.312  1.1893 -1.4286 -1.2315
 4391SOL    HW220626   4.596   1.811   1.432 -0.6220 -0.1473  0.6810
 4392SOL     OW20627   1.844   7.037   1.040  0.4009  0.4039 -0.3009
 4392SOL    HW120628   1.927   7.017   0.987  0.7507  0.0572  0.3634
 4392SOL    HW220629   1.778   6.964   1.027 -0.5500  1.5604 -2.2803
 4393SOL     OW20630   3.010   3.551   2.028 -0.2982 -0.3390  0.0635
 4393SOL    HW120631   3.060   3.495   2.095 -0.1745  0.9376  1.0714
 4393SOL    HW220632   2.997   3.499   1.944  0.7519 -1.4953  0.5952
 4397SOL     OW20633   0.189   9.338   1.705  0.0539 -0.8022  0.0548
 4397SOL    HW120634   0.138   9.416   1.669  3.5804  1.2755 -0.7039
 4397SOL    HW220635   0.177   9.334   1.805 -1.4482 -0.3048 -0.0894
 4398SOL     OW20636   4.178   1.772   1.987  0.1641  0.3294  0.9149
 4398SOL    HW120637   4.274   1.755   2.008  0.0977 -1.1162  0.1361
 4398SOL    HW220638   4.171   1.837   1.911  0.5712 -0.7132 -0.0254
 4399SOL     OW20639   0.521   7.019   1.665 -0.3959 -0.3145 -0.3867
 4399SOL    HW120640   0.436   7.065   1.690 -0.7083 -1.6678  1.1288
 4399SOL    HW220641   0.578   7.081   1.611 -0.7340  1.9204  1.7371
 4401SOL     OW20642   3.489   3.069   1.282 -0.1287  0.2272  0.1159
 4401SOL    HW120643   3.537   2.983   1.297 -1.5513 -0.9502 -1.8109
 4401SOL    HW220644   3.440   3.095   1.365  2.6620  0.7496  1.6721
 4402SOL     OW20645   1.514   0.435   2.304 -0.1051 -0.0099  0.1989
 4402SOL    HW120646   1.525   0.341   2.271  0.8720  0.0995  0.2094
 4402SOL    HW220647   1.437   0.478   2.257  0.1938 -0.4259 -0.6773
 4403SOL     OW20648   0.384   9.679   0.276  0.4114  0.1636 -0.2244
 4403SOL    HW120649   0.355   9.669   0.371 -0.7833 -0.9800 -0.6925
 4403SOL    HW220650   0.354   9.767   0.240 -0.5479 -0.0791 -0.0256
 4405SOL     OW20651   9.975   8.215   0.671  0.2055  0.1182 -0.0034
 4405SOL    HW120652  10.016   8.126   0.652 -0.3188 -0.1506  0.1324
 4405SOL    HW220653   9.917   8.242   0.594 -0.2054  0.0166  0.2708
 4406SOL     OW20654   8.778   6.880   0.373 -0.0261  0.1167  0.2352
 4406SOL    HW120655   8.737   6.964   0.406  1.1177  0.7710  0.0100
 4406SOL    HW220656   8.762   6.871   0.274 -1.0745 -0.4773  0.4472
 4407SOL     OW20657   4.706   9.341   1.417  0.1468 -0.2651 -0.0189
 4407SOL    HW120658   4.671   9.434   1.429 -0.4641 -0.5627  0.5280
 4407SOL    HW220659   4.751   9.312   1.502  0.7278 -0.3028 -0.3387
 4408SOL     OW20660   3.040   1.873   2.303 -0.2147 -0.2532  0.1848
 4408SOL    HW120661   3.115   1.810   2.326  2.0297  2.2712 -0.0139
 4408SOL    HW220662   3.066   1.966   2.328 -2.9127  0.8215 -0.8702
 4409SOL     OW20663   1.355   7.588   0.064  0.5649  0.4645  0.4196
 4409SOL    HW120664   1.314   7.662   0.118  1.1217  0.7122  0.5022
 4409SOL    HW220665   1.308   7.582  -0.024  0.9994  1.3978  0.1177
 4411SOL     OW20666   8.309   2.142   2.164 -0.2730  0.1815 -0.1497
 4411SOL    HW120667   8.318   2.080   2.086 -0.3776 -0.2725  0.1962
 4411SOL    HW220668   8.218   2.184   2.163  0.5233  1.9536 -1.5715
 4412SOL     OW20669   2.078   0.893   0.998 -0.4133  0.0210 -0.1875
 4412SOL    HW120670   2.167   0.893   0.952  0.4071 -0.8462  1.3419
 4412SOL    HW220671   2.010   0.935   0.939  0.6705 -0.7904 -2.0485
 4416SOL     OW20672   9.341   6.950   2.183 -0.5557 -0.0960 -0.3830
 4416SOL    HW120673   9.426   6.901   2.203 -0.8283 -0.6423 -0.5405
 4416SOL    HW220674   9.266   6.909   2.235 -1.1988 -1.2941 -2.1874
 4417SOL     OW20675   9.518   2.147   1.895 -0.1324 -0.2395 -0.1107
 4417SOL    HW120676   9.552   2.166   1.987 -3.7046  1.0034  1.0495
 4417SOL    HW220677   9.503   2.234   1.847 -0.1139 -0.8190 -1.1756
 4418SOL     OW20678   4.247   0.853   1.739  0.3825  0.2502  0.4942
 4418SOL    HW120679   4.199   0.848   1.652 -0.4330 -1.2612  1.0027
 4418SOL    HW220680   4.346   0.862   1.723  0.3036 -0.7908 -0.5890
 4421SOL     OW20681   4.935   3.918   0.030  0.4796  0.9699 -0.1364
 4421SOL    HW120682   4.871   3.842   0.024 -0.3279  1.5114  1.2419
 4421SOL    HW220683   4.993   3.907   0.111  1.5474  0.9191 -0.9049
 4423SOL     OW20684   3.171   9.673   1.314 -0.2077 -0.0745 -0.3603
 4423SOL    HW120685   3.180   9.753   1.374  1.8404  1.1247 -2.1954
 4423SOL    HW220686   3.090   9.684   1.257 -1.0582 -0.2875  0.7820
 4424SOL     OW20687   3.638   2.966   2.227  0.0912 -0.1558 -0.0949
 4424SOL    HW120688   3.618   2.972   2.325 -1.2396 -1.1946 -0.2850
 4424SOL    HW220689   3.735   2.984   2.211  0.3329 -0.0965  1.4239
 4425SOL     OW20690   1.301   3.087   1.888 -0.6526 -0.0450 -0.3587
 4425SOL    HW120691   1.272   3.110   1.795 -2.3632  0.9362  0.3988
 4425SOL    HW220692   1.246   3.010   1.921 -1.3412  0.8009  0.4995
 4426SOL     OW20693   3.758   5.179   2.193 -0.2738  0.5299 -0.1444
 4426SOL    HW120694   3.740   5.182   2.095 -0.5528 -0.8108 -0.1445
 4426SOL    HW220695   3.704   5.249   2.239  0.4491  1.6908 -1.0273
 4427SOL     OW20696   2.899   9.997   1.588 -0.0678 -0.0552  0.1217
 4427SOL    HW120697   2.821   9.938   1.566 -0.0389 -0.5669  1.3515
 4427SOL    HW220698   2.984   9.950   1.563 -0.0886 -0.1368  0.2037
 4428SOL     OW20699   7.940   1.374   0.440  0.2810  0.2294 -0.1751
 4428SOL    HW120700   8.038   1.382   0.421  0.3634  0.4541  0.3312
 4428SOL    HW220701   7.891   1.355   0.355  0.5844  1.7684 -0.7142
 4429SOL     OW20702   1.775   7.859   2.266 -0.4734 -0.5204 -0.1510
 4429SOL    HW120703   1.720   7.913   2.329 -1.4194  0.1512 -1.5033
 4429SOL    HW220704   1.860   7.832   2.309 -0.7061  0.6964  1.0853
 4430SOL     OW20705   8.514   7.721   0.374 -0.1523  0.4357 -0.0571
 4430SOL    HW120706   8.487   7.797   0.434 -0.3551  0.0449  0.3441
 4430SOL    HW220707   8.452   7.718   0.296 -1.1779 -0.3471  0.7754
 4431SOL     OW20708   7.903   0.561   2.140  0.2218  0.1950  0.0761
 4431SOL    HW120709   7.977   0.492   2.138  0.1504  0.0863  0.7861
 4431SOL    HW220710   7.920   0.630   2.070  2.0349  1.2117  1.4679
 4433SOL     OW20711   0.898   3.665   2.289  0.3530  0.3583  0.6073
 4433SOL    HW120712   0.906   3.726   2.210 -0.2074 -0.1133  0.1868
 4433SOL    HW220713   0.938   3.577   2.268  0.0307  0.1685  0.7830
 4434SOL     OW20714   9.611   9.957   2.058 -0.0690  0.2036 -0.0758
 4434SOL    HW120715   9.574   9.926   2.146 -0.3922  1.8955  0.3956
 4434SOL    HW220716   9.541   9.948   1.987 -0.4758  0.7536  0.2550
 4435SOL     OW20717   0.714   7.723   0.766  0.0228 -0.2962  0.0190
 4435SOL    HW120718   0.693   7.715   0.864 -0.5504  0.7011 -0.0063
 4435SOL    HW220719   0.630   7.747   0.717  0.6322  0.7819 -0.5009
 4437SOL     OW20720   3.026   7.497   0.579 -0.5042  0.1936  0.1038
 4437SOL    HW120721   2.968   7.468   0.655 -2.2976  2.8395 -0.1691
 4437SOL    HW220722   2.973   7.495   0.495  0.0850  1.7190 -0.3094
 4439SOL     OW20723   0.275   9.384   2.001  0.5900 -0.3903 -0.0006
 4439SOL    HW120724   0.362   9.341   1.979  1.0747  0.0736  0.9675
 4439SOL    HW220725   0.275   9.412   2.097  0.0833  1.2840 -0.4720
 4440SOL     OW20726   3.852   4.266   1.983  0.0363 -0.6181 -0.2247
 4440SOL    HW120727   3.805   4.238   1.899 -0.9585  1.8621 -0.5408
 4440SOL    HW220728   3.950   4.274   1.965 -0.2099  0.2154 -1.2566
 4442SOL     OW20729   0.086   2.746   1.932 -0.1590 -0.0801 -1.0064
 4442SOL    HW120730   0.149   2.672   1.907  0.4514  0.0464  0.1164
 4442SOL    HW220731   0.065   2.801   1.851 -0.4448 -1.3517 -1.8009
 4443SOL     OW20732   0.448   4.488   0.622  0.1949  0.4666 -0.6776
 4443SOL    HW120733   0.477   4.571   0.668 -2.6307  0.0204  2.1272
 4443SOL    HW220734   0.360   4.504   0.576 -1.1698 -1.2839  1.1960
 4444SOL     OW20735   3.390   0.217   1.143  0.0836  0.2810 -0.2085
 4444SOL    HW120736   3.414   0.121   1.154  0.2841  0.3596  0.0530
 4444SOL    HW220737   3.334   0.229   1.061 -0.4731 -0.1531  0.1048
 4446SOL     OW20738   3.610   3.630   1.582  0.5947  0.1861 -0.3479
 4446SOL    HW120739   3.683   3.632   1.513  0.1986 -2.6609 -0.9107
 4446SOL    HW220740   3.648   3.600   1.670 -0.0494 -2.4201 -0.9161
 4447SOL     OW20741   7.453   9.837   1.751  0.2357 -0.4530 -0.6134
 4447SOL    HW120742   7.520   9.765   1.734 -1.4353 -2.5615  1.3358
 4447SOL    HW220743   7.440   9.848   1.850  0.7458  2.8376 -0.8637
 4448SOL     OW20744   9.282   2.980   0.700  0.7228 -0.0750 -0.2331
 4448SOL    HW120745   9.203   2.924   0.726 -0.0141  1.8207  1.7617
 4448SOL    HW220746   9.293   2.979   0.600 -0.6738 -1.8372 -0.3903
 4450SOL     OW20747   3.191   2.303   1.381 -0.1934 -0.3616  0.1109
 4450SOL    HW120748   3.287   2.325   1.401 -0.3519  0.6455 -0.2373
 4450SOL    HW220749   3.188   2.241   1.302  0.1470 -0.0314 -0.1632
 4451SOL     OW20750   9.049   7.030   0.006  0.3816 -0.3036 -0.8137
 4451SOL    HW120751   9.076   6.944  -0.038 -0.5601 -1.4145  0.7119
 4451SOL    HW220752   9.024   7.012   0.101  0.6721  1.7628 -0.3242
 4452SOL     OW20753   7.227   9.846   2.225 -0.5628 -0.1707  0.0632
 4452SOL    HW120754   7.191   9.937   2.210  1.4106  0.4758 -1.0016
 4452SOL    HW220755   7.210   9.818   2.320 -0.5016  1.6114  0.6123
 4453SOL     OW20756   8.149   0.513   0.507  0.1513 -0.0460  0.0312
 4453SOL    HW120757   8.076   0.581   0.513 -1.5662 -1.6491 -1.9166
 4453SOL    HW220758   8.119   0.427   0.549 -0.1441 -1.5309 -3.0313
 4454SOL     OW20759   1.713   7.593   2.180  0.3282 -0.0874  0.4951
 4454SOL    HW120760   1.761   7.679   2.199 -0.7309  0.5097  0.5748
 4454SOL    HW220761   1.621   7.614   2.146 -0.3973 -1.1954  1.7321
 4455SOL     OW20762   9.166   6.979   0.303  0.5910  0.2569 -0.3859
 4455SOL    HW120763   9.248   7.020   0.263  1.1071  1.1257  1.5073
 4455SOL    HW220764   9.094   7.048   0.309  0.1089 -0.1937 -0.9360
 4456SOL     OW20765   0.643   9.511   0.741 -0.4644  0.0218 -0.1383
 4456SOL    HW120766   0.620   9.573   0.666 -0.6800 -0.1667 -0.2279
 4456SOL    HW220767   0.596   9.541   0.824 -1.7665 -0.8787 -0.5276
 4457SOL     OW20768   0.913   6.899   0.371  0.0464  0.5744 -0.1442
 4457SOL    HW120769   1.005   6.936   0.355  0.6766 -0.4050  1.1342
 4457SOL    HW220770   0.894   6.899   0.469 -1.8893  2.0602 -0.4910
 4458SOL     OW20771   2.474   2.182   1.356  0.0439 -0.0539  0.5852
 4458SOL    HW120772   2.503   2.277   1.371 -0.4625  0.0262  1.0848
 4458SOL    HW220773   2.387   2.182   1.306  0.1385 -0.2625  0.4200
 4459SOL     OW20774   3.052   5.308   2.149  0.3845  0.0654 -0.8551
 4459SOL    HW120775   3.113   5.326   2.226  0.6413 -0.5382 -0.9169
 4459SOL    HW220776   2.977   5.248   2.179 -1.0259  2.0084 -0.3981
 4460SOL     OW20777   9.801   7.690   1.281  0.1991  0.5563  0.3245
 4460SOL    HW120778   9.748   7.609   1.306  1.5025 -1.1837 -2.2569
 4460SOL    HW220779   9.754   7.738   1.206  2.0800 -0.9019 -1.8611
 4461SOL     OW20780   3.508   0.234   0.620 -0.0282 -0.1940 -0.1040
 4461SOL    HW120781   3.463   0.148   0.643 -1.9696  0.8296  0.0102
 4461SOL    HW220782   3.532   0.235   0.523  2.4241 -1.9108  0.4179
 4462SOL     OW20783   8.884   1.713   0.417  0.7394 -0.1638  0.0769
 4462SOL    HW120784   8.889   1.807   0.385 -2.0096  0.1338  0.4265
 4462SOL    HW220785   8.830   1.709   0.501 -1.5466 -2.3449 -1.4037
 4463SOL     OW20786   4.023   3.657   0.632 -0.4889 -0.3104 -0.6565
 4463SOL    HW120787   3.997   3.586   0.697 -0.4482  0.9215  0.7341
 4463SOL    HW220788   3.941   3.700   0.594 -0.5023 -0.2565 -0.5653
 4467SOL     OW20789   0.832   3.966   1.511 -0.3835  0.3935 -0.4754
 4467SOL    HW120790   0.906   4.030   1.489 -0.5530  0.8638  0.2869
 4467SOL    HW220791   0.872   3.879   1.538 -0.0955  0.6284 -0.1205
 4468SOL     OW20792   2.206   0.224   0.585 -0.6335  0.0580 -0.5222
 4468SOL    HW120793   2.128   0.268   0.629  1.1772  1.7035  1.1344
 4468SOL    HW220794   2.288   0.280   0.597  1.1570 -2.3887 -0.8018
 4469SOL     OW20795   3.413   6.445   2.218 -0.0996  0.0500  0.0505
 4469SOL    HW120796   3.358   6.432   2.136 -0.4406 -1.2187  0.4660
 4469SOL    HW220797   3.435   6.542   2.229  1.7101  0.0098 -2.6926
 4471SOL     OW20798   3.761   2.019   0.244  0.0927  0.4241  0.1051
 4471SOL    HW120799   3.712   2.066   0.171  0.4475  1.1725  0.3341
 4471SOL    HW220800   3.699   2.001   0.320  0.0649  1.0027  0.2278
 4473SOL     OW20801   1.324   5.764   0.088  0.0179  0.0361  0.2637
 4473SOL    HW120802   1.242   5.728   0.043 -0.1692  0.4033  0.3022
 4473SOL    HW220803   1.318   5.864   0.091  0.4597  0.0621  0.2865
 4474SOL     OW20804   5.072   3.181   0.317  0.2567 -0.6404 -0.7402
 4474SOL    HW120805   5.063   3.245   0.393  1.0004 -1.3265 -0.0555
 4474SOL    HW220806   5.135   3.108   0.343 -0.5664 -1.6418 -1.5155
 4476SOL     OW20807   1.284   7.446   1.625 -0.9444  0.1311  0.8261
 4476SOL    HW120808   1.235   7.443   1.538 -1.7398 -0.6063  1.2865
 4476SOL    HW220809   1.290   7.541   1.657 -2.5728  0.1746  1.0304
 4477SOL     OW20810   0.580   0.794   1.259 -0.4959 -0.4046  0.1158
 4477SOL    HW120811   0.523   0.796   1.341  1.1851 -2.7857  1.4221
 4477SOL    HW220812   0.667   0.839   1.277  0.5242 -2.3388  0.2077
 4478SOL     OW20813   8.463   8.572   1.742 -0.1813 -0.5482  0.4581
 4478SOL    HW120814   8.508   8.648   1.695  1.7601 -1.3886  0.8733
 4478SOL    HW220815   8.449   8.597   1.838 -0.2958 -0.3970  0.4021
 4479SOL     OW20816   8.052   7.881   2.114 -0.5003  0.3723  0.6657
 4479SOL    HW120817   8.138   7.932   2.107 -1.9988  2.8460 -0.8062
 4479SOL    HW220818   8.023   7.852   2.022 -0.1665 -2.3496  1.3920
 4480SOL     OW20819   0.314   1.250   0.884  1.0435  0.0812  0.3944
 4480SOL    HW120820   0.237   1.206   0.840  0.4524  0.4691  1.0239
 4480SOL    HW220821   0.380   1.181   0.913  0.2502 -0.3770  1.1445
 4482SOL     OW20822   0.293   2.365   1.591  0.1347  0.8468 -0.1898
 4482SOL    HW120823   0.197   2.366   1.617 -0.9341  1.2986 -3.9732
 4482SOL    HW220824   0.332   2.276   1.613 -2.5219 -1.1544 -3.1407
 4483SOL     OW20825   0.642   1.641   1.220 -0.0348  0.0391 -0.1988
 4483SOL    HW120826   0.607   1.682   1.135 -0.0684 -0.3895 -0.3921
 4483SOL    HW220827   0.635   1.708   1.294  0.4302  0.5750 -0.6353
 4484SOL     OW20828   0.145   7.048   1.938 -0.0171 -0.0465 -0.3686
 4484SOL    HW120829   0.174   7.096   2.021  0.6160 -3.2338  1.3470
 4484SOL    HW220830   0.045   7.042   1.936 -0.0444  0.2618  0.0323
 4485SOL     OW20831   0.404   6.871   0.812 -0.2124  0.0987  0.7630
 4485SOL    HW120832   0.333   6.808   0.779 -1.1868  0.8029  1.4851
 4485SOL    HW220833   0.481   6.871   0.748 -2.0362  1.3989 -1.4997
 4486SOL     OW20834   1.770   9.818   0.471  0.1723 -0.0858 -0.4649
 4486SOL    HW120835   1.809   9.795   0.560 -1.8098 -1.3919  0.1033
 4486SOL    HW220836   1.781   9.741   0.409 -1.0137 -0.2677 -0.4593
 4487SOL     OW20837   8.121   9.855   0.482 -0.1758  0.0730  0.2283
 4487SOL    HW120838   8.158   9.780   0.427 -1.9150 -0.0816 -0.7985
 4487SOL    HW220839   8.069   9.816   0.559 -0.6208  0.2241  0.0059
 4488SOL     OW20840   3.204   8.766   0.820 -0.1166 -0.4237 -0.3102
 4488SOL    HW120841   3.198   8.751   0.919  0.8223  1.3477  0.0307
 4488SOL    HW220842   3.126   8.821   0.790  0.8601  1.0795 -0.1367
 4489SOL     OW20843   7.915   1.256   1.475  0.0750  0.5639  0.4477
 4489SOL    HW120844   7.968   1.233   1.394  1.6182  2.1000  1.0003
 4489SOL    HW220845   7.954   1.209   1.555 -2.1088 -1.8533  0.1889
 4492SOL     OW20846   8.573   8.424   1.506 -0.7592 -0.1430 -0.1995
 4492SOL    HW120847   8.497   8.363   1.482 -0.6165 -0.8056  0.9654
 4492SOL    HW220848   8.547   8.479   1.586 -0.6942  0.9529 -0.9304
 4494SOL     OW20849   4.741   3.123   1.136 -0.1269 -0.1955 -0.2993
 4494SOL    HW120850   4.790   3.096   1.053  0.0548  2.5314 -1.1209
 4494SOL    HW220851   4.644   3.103   1.125  0.2017 -1.8496 -0.2927
 4495SOL     OW20852   4.002   5.011   1.361  0.5909 -0.4203 -0.4753
 4495SOL    HW120853   3.922   4.986   1.415  1.2147  0.5909  0.9609
 4495SOL    HW220854   4.078   5.034   1.422  1.9397 -1.2256 -1.8137
 4496SOL     OW20855   0.436   3.312   2.061 -0.3701 -0.3100 -0.8667
 4496SOL    HW120856   0.391   3.253   1.994  0.4113  0.2440 -1.8956
 4496SOL    HW220857   0.422   3.275   2.153 -1.2016 -1.2395 -1.3558
 4497SOL     OW20858   5.203   9.761   1.670  0.1333 -0.2798 -0.1866
 4497SOL    HW120859   5.234   9.685   1.612  0.6414 -0.5701  0.4690
 4497SOL    HW220860   5.191   9.729   1.764 -0.2990  0.2942 -0.0412
 4499SOL     OW20861   1.663   1.955   0.573 -0.7091 -0.1135 -0.3906
 4499SOL    HW120862   1.657   2.004   0.486 -1.5187  0.8158  0.1738
 4499SOL    HW220863   1.751   1.975   0.616  0.3152 -1.7466 -1.6637
 4501SOL     OW20864   8.689   8.130   1.406 -0.0462  0.2574 -0.2721
 4501SOL    HW120865   8.741   8.083   1.476 -0.8563 -1.4284 -0.7745
 4501SOL    HW220866   8.746   8.142   1.324 -0.8348 -2.8633 -1.3387
 4502SOL     OW20867   1.513   0.151   2.244  0.1522 -0.5333 -0.2372
 4502SOL    HW120868   1.588   0.129   2.306 -0.6308 -0.1170  0.8625
 4502SOL    HW220869   1.445   0.078   2.247  0.0220 -0.4213 -0.4698
 4503SOL     OW20870   9.480   8.897   1.259  0.2071 -0.0950 -0.8634
 4503SOL    HW120871   9.427   8.892   1.174 -0.7710 -0.2762 -0.2451
 4503SOL    HW220872   9.514   8.990   1.271 -1.6994  0.5465 -0.2279
 4504SOL     OW20873   0.262   3.940   1.213  0.0957 -0.4769  0.0930
 4504SOL    HW120874   0.290   4.012   1.277 -0.0739 -0.3486  0.0223
 4504SOL    HW220875   0.163   3.941   1.202  0.0575 -0.9764  0.3876
 4505SOL     OW20876   1.014   0.407   0.276 -0.6607  0.2478  0.6774
 4505SOL    HW120877   1.086   0.338   0.279 -0.8516 -0.1954 -3.1440
 4505SOL    HW220878   0.925   0.362   0.283 -0.7164  0.3168  0.4231
 4506SOL     OW20879   9.609   4.753   1.415  0.8798  0.1934 -0.1449
 4506SOL    HW120880   9.683   4.794   1.468 -0.0035  0.3296  0.9921
 4506SOL    HW220881   9.616   4.653   1.420  0.7764  0.2065  0.2508
 4507SOL     OW20882   0.952   1.702   0.209 -0.2103 -0.1488  0.0071
 4507SOL    HW120883   0.869   1.655   0.179 -0.4407  0.2791 -0.0207
 4507SOL    HW220884   0.958   1.698   0.308  1.3294 -2.9024 -0.1391
 4508SOL     OW20885   8.817   1.287   0.464 -0.5220 -0.1368 -0.2114
 4508SOL    HW120886   8.845   1.340   0.384 -0.5451 -0.8048 -0.6612
 4508SOL    HW220887   8.859   1.196   0.461 -1.8441 -0.7447 -0.3093
 4509SOL     OW20888   7.898   9.654   1.588 -0.1055  0.3324 -0.2873
 4509SOL    HW120889   7.903   9.736   1.530 -0.0868  0.0403 -0.6991
 4509SOL    HW220890   7.952   9.669   1.671  0.1739  0.6128 -0.5180
 4510SOL     OW20891   4.455   2.125   2.052  0.5283  0.1052  0.3444
 4510SOL    HW120892   4.430   2.202   2.111 -0.4339 -0.1347  0.2461
 4510SOL    HW220893   4.463   2.042   2.107 -0.2327 -0.0908  0.1618
 4511SOL     OW20894   2.621   4.983   1.297 -0.0203 -0.8538  0.3768
 4511SOL    HW120895   2.704   4.964   1.350  0.3477  0.9329  0.4797
 4511SOL    HW220896   2.635   4.953   1.203  1.6109  1.4041 -0.1471
 4512SOL     OW20897   9.205   7.288   0.384  0.4332 -0.1321  0.1859
 4512SOL    HW120898   9.240   7.327   0.298 -0.0683  0.5430  0.2825
 4512SOL    HW220899   9.115   7.249   0.368  0.9374 -1.2800  0.0908
 4513SOL     OW20900   9.109   6.369   1.978  0.2937  0.0453 -0.2503
 4513SOL    HW120901   9.131   6.333   2.069 -1.7136 -0.2905  0.1106
 4513SOL    HW220902   9.142   6.463   1.971  0.3756  0.1050  0.8446
 4514SOL     OW20903   2.582   3.818   0.666  0.5584 -0.1947 -0.0207
 4514SOL    HW120904   2.562   3.907   0.707  0.5519 -0.2592  0.1151
 4514SOL    HW220905   2.497   3.768   0.651  0.4939  0.1294 -0.7976
 4515SOL     OW20906   3.404   4.012   1.126 -0.0911 -0.2948  0.2547
 4515SOL    HW120907   3.328   4.067   1.162  0.3595 -0.4035  1.3815
 4515SOL    HW220908   3.372   3.960   1.047 -1.3152 -0.6953  0.9984
 4516SOL     OW20909   5.161   4.013   1.789  0.0898  0.1855 -0.0990
 4516SOL    HW120910   5.069   4.038   1.761 -1.2778 -1.8368  2.4467
 4516SOL    HW220911   5.160   3.978   1.883  3.6692  1.5081  0.5311
 4517SOL     OW20912   2.337   3.117   0.980  0.2412 -0.1234  0.4033
 4517SOL    HW120913   2.244   3.109   1.015  0.2064 -1.6021 -0.0300
 4517SOL    HW220914   2.367   3.212   0.989 -1.3842  0.4104  0.3424
 4518SOL     OW20915   9.394   5.104   0.895 -0.4427 -0.5515 -0.3224
 4518SOL    HW120916   9.440   5.080   0.810 -1.7214 -1.9687 -0.6289
 4518SOL    HW220917   9.381   5.022   0.951  0.9228  0.4550  1.5228
 4520SOL     OW20918   3.639   2.391   2.113  0.3982 -0.0178  0.2771
 4520SOL    HW120919   3.617   2.444   2.031 -1.9198 -1.5751 -0.1629
 4520SOL    HW220920   3.711   2.325   2.091  0.5412  0.2851 -0.1985
 4521SOL     OW20921   1.184   7.489   1.372  0.3355  0.1182 -0.7680
 4521SOL    HW120922   1.144   7.479   1.281 -0.6255 -1.3425 -0.2125
 4521SOL    HW220923   1.249   7.565   1.372 -0.6301  0.9770 -2.3235
 4522SOL     OW20924   9.159   6.975   0.581 -0.3094  0.2398  0.4025
 4522SOL    HW120925   9.180   6.938   0.491  0.2325  2.5679 -0.4456
 4522SOL    HW220926   9.237   7.027   0.615 -0.7039 -0.1830  2.0119
 4523SOL     OW20927   8.719   2.956   1.567 -0.1120 -0.6996 -0.1115
 4523SOL    HW120928   8.628   2.924   1.544 -0.9858  0.0385  2.2101
 4523SOL    HW220929   8.756   3.011   1.491 -1.0085 -2.1550 -1.6195
 4524SOL     OW20930   1.967   4.756   1.241 -0.1293 -0.5498 -0.1773
 4524SOL    HW120931   1.945   4.666   1.278 -0.2817 -0.3320  0.2565
 4524SOL    HW220932   2.052   4.788   1.281 -0.5325 -0.1133  0.3337
 4526SOL     OW20933   3.519   1.293   1.305 -0.0376  0.4861 -0.0976
 4526SOL    HW120934   3.565   1.367   1.256  1.8976  0.2246  1.2572
 4526SOL    HW220935   3.575   1.210   1.299 -2.3841 -1.0260 -1.9813
 4527SOL     OW20936   1.223   8.726   2.176  0.3339 -0.2383 -0.0958
 4527SOL    HW120937   1.213   8.669   2.095 -0.4188 -2.6573  1.6659
 4527SOL    HW220938   1.236   8.821   2.148 -0.7574 -0.9036 -3.0179
 4528SOL     OW20939   8.821   1.203   1.296 -0.2589  0.3329 -0.2123
 4528SOL    HW120940   8.796   1.274   1.362  0.5598  1.0048 -0.6171
 4528SOL    HW220941   8.748   1.134   1.293 -1.4700  1.5851 -0.4218
 4529SOL     OW20942   2.183   2.382   2.196  0.1707 -0.3342  0.1022
 4529SOL    HW120943   2.152   2.307   2.137 -0.6647  0.0066  0.0990
 4529SOL    HW220944   2.109   2.407   2.258  0.7870 -0.1640  0.7627
 4530SOL     OW20945   1.354   9.694   0.380 -0.3890  0.6034 -0.1368
 4530SOL    HW120946   1.264   9.736   0.369 -0.7273 -0.3701 -1.1545
 4530SOL    HW220947   1.370   9.672   0.476 -1.4024  0.4191 -0.0104
 4531SOL     OW20948   0.043   9.731   2.109 -0.2739  0.1999  0.0505
 4531SOL    HW120949  -0.004   9.644   2.123  2.0082 -0.7541  2.1195
 4531SOL    HW220950   0.094   9.729   2.024 -0.6137 -0.2846 -0.1422
 4532SOL     OW20951   2.399   9.140   1.387 -0.1577 -0.1466 -0.4242
 4532SOL    HW120952   2.347   9.174   1.466 -2.1084 -0.6060 -1.4789
 4532SOL    HW220953   2.387   9.041   1.380  1.0656 -0.2904 -0.5594
 4533SOL     OW20954   0.581   7.966   2.159  0.2900 -0.6406 -0.6450
 4533SOL    HW120955   0.656   8.033   2.163 -2.1465  2.1511 -0.4507
 4533SOL    HW220956   0.563   7.933   2.252  0.3892 -0.2886 -0.4967
 4534SOL     OW20957   0.393   7.616   2.262  0.1888  0.2361 -0.1129
 4534SOL    HW120958   0.318   7.663   2.310  0.8217  0.6045  0.5174
 4534SOL    HW220959   0.363   7.593   2.169 -0.7346  0.3104  0.1614
 4535SOL     OW20960   2.344   5.295   0.044  0.1791  0.3051 -0.2329
 4535SOL    HW120961   2.425   5.274  -0.010  0.9338 -2.5652  1.8645
 4535SOL    HW220962   2.262   5.279  -0.010  0.9330 -1.8867 -0.7784
 4536SOL     OW20963   9.149   1.548   2.042  0.9429 -0.1957 -0.1043
 4536SOL    HW120964   9.074   1.496   2.003  1.0212 -0.7437  0.4548
 4536SOL    HW220965   9.116   1.600   2.121  1.2783 -0.9835  0.5764
 4537SOL     OW20966   4.036   5.635   0.444  0.2942 -0.2862 -0.0050
 4537SOL    HW120967   3.941   5.649   0.414 -0.5591 -0.0845  2.5957
 4537SOL    HW220968   4.058   5.538   0.441 -0.2358 -0.4083 -0.0145
 4538SOL     OW20969   2.252   3.364   1.414 -0.5279  0.5465  0.0645
 4538SOL    HW120970   2.178   3.423   1.381 -1.1878 -0.1427  0.2692
 4538SOL    HW220971   2.233   3.270   1.387 -1.4624 -0.1489  2.9718
 4539SOL     OW20972   0.163   9.150   1.337  0.1728  0.3926 -0.8463
 4539SOL    HW120973   0.210   9.149   1.426 -0.9798  1.0551 -0.2281
 4539SOL    HW220974   0.199   9.225   1.282  2.1628 -1.0966 -1.6497
 4540SOL     OW20975   1.976   7.337   1.487  0.2985  0.2095 -0.4209
 4540SOL    HW120976   1.974   7.237   1.485  0.9765  0.1958 -0.5362
 4540SOL    HW220977   2.032   7.371   1.410 -3.2992  0.8076 -2.8859
 4541SOL     OW20978   9.622   7.645   0.158 -0.2468  0.1776  0.0957
 4541SOL    HW120979   9.691   7.583   0.195  1.1921  1.2577 -0.7496
 4541SOL    HW220980   9.540   7.642   0.216 -0.7568 -3.5571 -0.6616
 4543SOL     OW20981   3.174   3.370   2.196  0.2739  0.0936 -0.8346
 4543SOL    HW120982   3.210   3.451   2.242  0.0654 -0.4030  0.2280
 4543SOL    HW220983   3.248   3.320   2.152  0.7985 -0.5044  0.6856
 4544SOL     OW20984   1.360   2.216   2.104  0.1751  0.2305  0.6823
 4544SOL    HW120985   1.278   2.248   2.057  0.8223  1.0642  0.0973
 4544SOL    HW220986   1.413   2.295   2.136  0.1117 -0.3183  2.1745
 4545SOL     OW20987   1.317   8.447   1.648  0.3928 -0.3360  0.4103
 4545SOL    HW120988   1.355   8.390   1.575 -0.1489 -0.0567 -0.0999
 4545SOL    HW220989   1.217   8.436   1.649  0.3889 -0.2342  1.0211
 4547SOL     OW20990   8.501  -0.003   0.994 -0.2570  0.1333  0.2999
 4547SOL    HW120991   8.531   0.038   1.080 -0.1413 -1.8210  1.2153
 4547SOL    HW220992   8.404   0.015   0.980  0.2594  2.5429 -0.3923
 4549SOL     OW20993   4.840   0.386   0.431 -0.3656 -0.1521  0.2718
 4549SOL    HW120994   4.776   0.426   0.366  0.0031  0.2312  0.1458
 4549SOL    HW220995   4.905   0.455   0.461 -0.4495 -0.3587  0.9475
 4550SOL     OW20996   0.457   3.459   0.543 -0.0785  0.2560  1.2257
 4550SOL    HW120997   0.382   3.525   0.546  0.6269  1.0584  1.3211
 4550SOL    HW220998   0.467   3.425   0.450  0.3467  1.2068  0.9159
 4554SOL     OW20999   2.248   0.677   0.345 -0.0964  0.1518 -0.5839
 4554SOL    HW121000   2.155   0.660   0.312 -0.7270 -0.0496  1.2435
 4554SOL    HW221001   2.314   0.641   0.279 -1.3140 -0.2673 -1.5951
 4555SOL     OW21002   0.675   1.281   1.030 -0.5606 -0.2104 -0.1121
 4555SOL    HW121003   0.689   1.351   0.960  1.2395 -0.4122  0.0082
 4555SOL    HW221004   0.615   1.317   1.102  0.9579  1.5175  0.3332
 4556SOL     OW21005   2.004   0.767   0.662  0.2667 -0.6363  0.6379
 4556SOL    HW121006   2.001   0.686   0.720 -0.2557 -1.9258 -1.1252
 4556SOL    HW221007   2.099   0.788   0.639  0.4682 -0.1733  1.8506
 4557SOL     OW21008   7.969   0.955   0.933  0.1181  0.0840 -0.0960
 4557SOL    HW121009   8.014   0.866   0.922  1.5152  0.5007  2.0161
 4557SOL    HW221010   7.926   0.981   0.847  0.0101 -2.4622 -0.8603
 4558SOL     OW21011   9.066   4.738   0.648  1.0313 -0.1966  0.3473
 4558SOL    HW121012   9.165   4.753   0.648  1.0949 -0.6153  0.8337
 4558SOL    HW221013   9.019   4.824   0.663  1.2435  0.5566 -2.9531
 4559SOL     OW21014   2.696   7.833   2.296  0.5514  0.2283  0.4432
 4559SOL    HW121015   2.642   7.776   2.359 -0.7034  1.0693  0.1386
 4559SOL    HW221016   2.783   7.787   2.277  0.1763 -0.9019  1.3528
 4561SOL     OW21017   1.638   9.434   1.590  0.0431 -0.6743  0.7176
 4561SOL    HW121018   1.671   9.524   1.562  0.8493 -0.8317  1.1326
 4561SOL    HW221019   1.716   9.372   1.600 -0.4775 -1.3241  0.7491
 4562SOL     OW21020   3.113   6.956   0.139  0.4268 -0.0434  0.4091
 4562SOL    HW121021   3.143   6.902   0.217 -0.4983  0.5385  1.1723
 4562SOL    HW221022   3.044   7.021   0.168 -0.6220 -0.4705 -1.0805
 4563SOL     OW21023   9.831   8.101   1.233  0.0693 -0.5747  0.1484
 4563SOL    HW121024   9.926   8.118   1.209 -0.6175  1.1039 -1.5140
 4563SOL    HW221025   9.803   8.012   1.196  0.7108 -0.6315 -0.2090
 4566SOL     OW21026   3.859   9.852   0.908  0.4142 -0.1138 -0.1160
 4566SOL    HW121027   3.893   9.934   0.862 -0.0361 -0.1134 -0.4573
 4566SOL    HW221028   3.857   9.868   1.006 -2.5463  1.4164 -0.3638
 4569SOL     OW21029   9.492   2.404   1.802 -0.5159  0.7423 -0.6208
 4569SOL    HW121030   9.575   2.400   1.857 -1.7787 -1.5333  1.2134
 4569SOL    HW221031   9.414   2.428   1.860 -1.8903 -1.7839 -1.3509
 4570SOL     OW21032   2.577   2.678   1.552  0.2841  0.2481 -0.2468
 4570SOL    HW121033   2.544   2.740   1.624  0.4081 -0.0986  0.1076
 4570SOL    HW221034   2.595   2.588   1.591  1.8533  0.4882 -0.3851
 4571SOL     OW21035   1.673   1.365   1.248 -0.1249 -0.4618 -0.2443
 4571SOL    HW121036   1.764   1.403   1.233 -1.4983  2.9563 -0.3784
 4571SOL    HW221037   1.644   1.316   1.166  1.5657 -1.6063 -0.1924
 4572SOL     OW21038   2.971   7.879   0.572 -0.0834 -0.5582  0.1567
 4572SOL    HW121039   3.029   7.803   0.599 -0.0592 -1.4862 -2.3936
 4572SOL    HW221040   2.886   7.877   0.625  0.1208 -2.0673  0.4486
 4574SOL     OW21041   1.447   3.615   1.907  0.3854 -0.4214 -0.0777
 4574SOL    HW121042   1.524   3.556   1.882 -0.7629 -1.5941 -0.8982
 4574SOL    HW221043   1.446   3.696   1.847  1.8269  0.3601  0.9024
 4575SOL     OW21044   2.971   3.415   1.771 -0.0771 -0.1679  0.1958
 4575SOL    HW121045   2.958   3.317   1.755  0.1695  0.0922 -1.8158
 4575SOL    HW221046   3.065   3.440   1.746  0.3143  0.3265  2.1052
 4577SOL     OW21047   9.787   0.608   1.639 -0.2093 -0.8246 -0.1804
 4577SOL    HW121048   9.757   0.597   1.733  1.1777 -3.0181  0.0444
 4577SOL    HW221049   9.886   0.601   1.634 -0.1588  0.5043 -1.6556
 4579SOL     OW21050   4.325   9.698   1.600  0.7530  0.1102 -0.3483
 4579SOL    HW121051   4.296   9.628   1.665  1.0952  0.4686  0.1938
 4579SOL    HW221052   4.363   9.776   1.650 -0.1265  0.9161 -0.9203
 4580SOL     OW21053   9.217   8.780   1.345  0.2544 -0.4164  0.3178
 4580SOL    HW121054   9.145   8.742   1.287  1.3838 -1.8306 -0.1878
 4580SOL    HW221055   9.305   8.774   1.297  0.8756  0.3081  1.3469
 4581SOL     OW21056   2.303   5.631   2.166 -0.2250  0.3233  0.0758
 4581SOL    HW121057   2.333   5.537   2.185  1.3157  0.0467 -3.3622
 4581SOL    HW221058   2.375   5.679   2.115 -1.7510  2.8116  0.1995
 4582SOL     OW21059   3.395   0.452   2.120  0.6778 -0.0294  0.3865
 4582SOL    HW121060   3.420   0.542   2.155  1.7446 -0.5347  0.9627
 4582SOL    HW221061   3.395   0.453   2.020  0.3669  0.6895  0.3922
 4583SOL     OW21062   3.444   4.105   1.790  0.1692 -0.5537  0.1334
 4583SOL    HW121063   3.427   4.014   1.753  1.4465 -1.2313  1.1817
 4583SOL    HW221064   3.393   4.117   1.875 -0.5557 -0.0316 -0.3746
 4584SOL     OW21065   3.591   2.881   0.913  0.2623  0.0332  0.3977
 4584SOL    HW121066   3.645   2.805   0.948  0.5972 -0.0667 -0.3202
 4584SOL    HW221067   3.499   2.879   0.953  0.2932 -0.7083  0.4256
 4585SOL     OW21068   3.198   6.112   0.338  0.1008  0.5010  0.0267
 4585SOL    HW121069   3.151   6.080   0.256 -0.7173 -1.9238  1.3800
 4585SOL    HW221070   3.154   6.194   0.372 -0.6421  0.5217 -0.9609
 4588SOL     OW21071   1.058   7.688   0.999  0.0620  0.0128 -0.3280
 4588SOL    HW121072   1.028   7.781   0.978 -0.5078  0.1392  0.9821
 4588SOL    HW221073   1.088   7.643   0.915  1.4772  1.7784 -0.7987
 4589SOL     OW21074   9.054   2.674   0.079  0.7134  0.1090 -0.5025
 4589SOL    HW121075   9.084   2.629  -0.005  1.2361 -0.8149  0.1627
 4589SOL    HW221076   8.956   2.661   0.092  0.4967  0.8625 -1.3242
 4590SOL     OW21077   0.555   6.181   0.969  0.8501  0.1146  0.5805
 4590SOL    HW121078   0.527   6.268   1.010  0.4615  0.0532  0.4458
 4590SOL    HW221079   0.629   6.198   0.904  1.3153  0.2394  1.1401
 4591SOL     OW21080   9.404   9.521   0.341  0.8463 -0.5121  0.5226
 4591SOL    HW121081   9.461   9.455   0.291  1.2187 -0.0337  0.3049
 4591SOL    HW221082   9.359   9.582   0.276  0.4056 -0.6274  0.7187
 4593SOL     OW21083   1.748   9.222   1.821  0.2162 -0.2479 -0.2615
 4593SOL    HW121084   1.742   9.317   1.853  0.5956 -0.4014  0.2776
 4593SOL    HW221085   1.818   9.174   1.873 -0.0877 -0.8715 -0.4200
 4594SOL     OW21086   9.194   5.914   0.850  0.0234 -0.1016 -0.7567
 4594SOL    HW121087   9.244   5.957   0.925 -0.0463  0.0512 -0.7958
 4594SOL    HW221088   9.190   5.815   0.864  1.4696 -0.2659 -1.4265
 4595SOL     OW21089   3.400   1.654   0.392 -0.4135 -0.3239 -0.1582
 4595SOL    HW121090   3.396   1.642   0.492 -1.0268 -0.3276 -0.1815
 4595SOL    HW221091   3.495   1.666   0.364 -0.1501 -1.2399  0.3244
 4596SOL     OW21092   0.327   9.348   0.089 -0.3158  0.2481 -0.6717
 4596SOL    HW121093   0.317   9.443   0.061 -0.9120 -0.4637 -3.0335
 4596SOL    HW221094   0.423   9.323   0.091 -0.2623  0.2241 -2.5672
 4597SOL     OW21095   3.041   9.949   1.183  0.2840  0.2652  0.4123
 4597SOL    HW121096   3.010  10.041   1.161  0.3384 -0.0095 -0.8488
 4597SOL    HW221097   3.117   9.924   1.123 -0.2438 -0.8915  0.2137
 4598SOL     OW21098   2.878   6.196   2.029 -0.1616  0.1963 -0.0121
 4598SOL    HW121099   2.974   6.203   2.057 -0.0209  2.2138 -0.8915
 4598SOL    HW221100   2.849   6.101   2.034  1.4803 -0.2605  1.5846
 4599SOL     OW21101   3.526   9.942   1.164  1.0391  0.2336  0.4794
 4599SOL    HW121102   3.497   9.896   1.080  1.4576  0.0600  0.4303
 4599SOL    HW221103   3.615   9.908   1.192  0.4650 -0.4267  1.5408
 4600SOL     OW21104   1.755   3.956   0.261 -0.3515  0.1503  0.3773
 4600SOL    HW121105   1.829   3.931   0.200  1.3722  1.8393  1.7170
 4600SOL    HW221106   1.687   4.010   0.211  0.0653 -0.1200 -0.4888
 4601SOL     OW21107   8.971   0.078   1.439  0.5251  0.5558  0.0701
 4601SOL    HW121108   8.925   0.025   1.510 -0.6790  2.4122  0.6993
 4601SOL    HW221109   8.968   0.175   1.462 -0.2503  1.2469 -2.7238
 4603SOL     OW21110   4.143   5.264   0.733 -0.3908 -0.1634 -0.0675
 4603SOL    HW121111   4.150   5.172   0.771 -0.1522  0.1820  0.7145
 4603SOL    HW221112   4.056   5.305   0.761 -1.3758 -0.8512 -1.9673
 4605SOL     OW21113   7.657   1.524   0.338 -0.0760 -0.0319 -0.4911
 4605SOL    HW121114   7.707   1.610   0.337 -1.2069  0.6378  0.4407
 4605SOL    HW221115   7.563   1.539   0.367 -0.2435 -1.6013 -0.1384
 4606SOL     OW21116   3.527   4.452   0.549 -0.4548  0.0710  0.1187
 4606SOL    HW121117   3.558   4.545   0.529 -0.5385 -0.0617 -0.6273
 4606SOL    HW221118   3.509   4.443   0.647  0.5157  0.5560  0.3459
 4607SOL     OW21119   0.008   0.808   0.439 -0.0835  0.6561 -0.0471
 4607SOL    HW121120   0.011   0.874   0.514  1.4317  1.1370 -0.5251
 4607SOL    HW221121   0.074   0.735   0.456 -0.8303 -0.0495 -0.1640
 4608SOL     OW21122   9.698   8.209   2.267 -0.3174 -0.5243 -0.3767
 4608SOL    HW121123   9.669   8.232   2.174  0.0851  0.1770 -0.3297
 4608SOL    HW221124   9.625   8.158   2.313 -0.4900 -0.9250 -1.0963
 4609SOL     OW21125   2.197   5.420   0.243 -0.5683  0.4524 -0.1189
 4609SOL    HW121126   2.103   5.431   0.211  0.2694 -1.6499 -3.4587
 4609SOL    HW221127   2.255   5.388   0.168  2.9500  2.1774  1.7395
 4610SOL     OW21128   4.465   1.997   1.676 -0.4617 -0.3813 -0.0949
 4610SOL    HW121129   4.525   1.976   1.599 -0.8069 -0.8821 -0.2296
 4610SOL    HW221130   4.517   2.046   1.746 -0.3259  0.7061 -0.9424
 4611SOL     OW21131   3.738   3.144   0.897 -0.2148 -0.3578  0.0687
 4611SOL    HW121132   3.668   3.073   0.890 -0.1114 -0.3157 -1.5790
 4611SOL    HW221133   3.823   3.104   0.931 -0.3212 -0.9229 -0.3160
 4612SOL     OW21134   3.867   2.056   1.202 -0.7158 -0.0132  0.2203
 4612SOL    HW121135   3.913   2.093   1.282 -2.6591  1.2633  0.7905
 4612SOL    HW221136   3.802   2.123   1.167  0.5158 -0.3357 -2.8053
 4614SOL     OW21137   0.578   8.899   1.640  0.0054  0.6323 -0.2297
 4614SOL    HW121138   0.570   8.882   1.542 -0.4010  0.5872 -0.1910
 4614SOL    HW221139   0.488   8.924   1.677 -0.5821 -2.7173  0.7651
 4615SOL     OW21140   9.751   2.349   1.929  0.0319 -0.2537  0.3858
 4615SOL    HW121141   9.795   2.438   1.943 -0.8191  0.2419 -0.0608
 4615SOL    HW221142   9.736   2.305   2.017  0.8476 -0.1491  0.5813
 4616SOL     OW21143   9.932   3.372   0.397 -0.3218 -0.1728 -0.2377
 4616SOL    HW121144   9.879   3.297   0.357 -0.0070 -0.1843 -0.6460
 4616SOL    HW221145  10.027   3.343   0.407 -0.4303 -0.2096  0.6422
 4617SOL     OW21146   0.958   3.071   1.919 -0.0052  0.1552 -0.1811
 4617SOL    HW121147   0.863   3.055   1.892  0.4364 -1.0689 -1.0807
 4617SOL    HW221148   0.968   3.056   2.017 -0.9733  1.4501  0.1282
 4618SOL     OW21149   8.270   8.949   0.944  0.9573 -0.0325  0.2761
 4618SOL    HW121150   8.208   9.015   0.986 -0.7868 -0.4448 -1.5672
 4618SOL    HW221151   8.281   8.971   0.847  0.0373 -2.6324 -0.4637
 4619SOL     OW21152   1.888   4.403   0.658  0.1788  0.1746  0.3836
 4619SOL    HW121153   1.791   4.411   0.638 -0.1985 -0.4274  1.8692
 4619SOL    HW221154   1.919   4.310   0.638  0.3255  0.2123  0.4318
 4620SOL     OW21155   7.552   0.247   1.112  0.0231  0.1957 -0.8142
 4620SOL    HW121156   7.616   0.314   1.148  0.4537 -1.8162  2.3645
 4620SOL    HW221157   7.586   0.154   1.129 -2.7985 -0.9056 -0.7175
 4621SOL     OW21158   0.645   9.553   1.862 -0.0884  0.0324  0.2689
 4621SOL    HW121159   0.596   9.467   1.877 -1.3521  0.8629  0.9728
 4621SOL    HW221160   0.678   9.557   1.768  0.9846 -1.7289  0.5388
 4622SOL     OW21161   8.839   5.858   1.635 -0.5657  0.0413 -0.2726
 4622SOL    HW121162   8.923   5.913   1.637  0.1450 -0.9483 -1.9119
 4622SOL    HW221163   8.851   5.781   1.572 -1.8628 -1.4810  1.2868
 4623SOL     OW21164   2.419   7.057   1.173 -0.1648 -0.1583 -0.3150
 4623SOL    HW121165   2.322   7.072   1.151 -0.1611 -1.2922 -1.1018
 4623SOL    HW221166   2.426   7.004   1.258 -0.2609 -1.4237 -1.0877
 4624SOL     OW21167   0.895   9.250   0.417 -0.3927  0.3514 -0.2063
 4624SOL    HW121168   0.949   9.282   0.494 -0.5958  0.3868 -0.0784
 4624SOL    HW221169   0.801   9.233   0.446 -0.6724  1.1383 -0.6315
 4626SOL     OW21170   8.707   9.817   0.968  0.0458 -0.3995  0.4492
 4626SOL    HW121171   8.794   9.862   0.948 -0.3176  0.1725  0.1259
 4626SOL    HW221172   8.633   9.885   0.966 -0.3169 -0.7616  1.3928
 4627SOL     OW21173   4.023   1.575   2.284 -0.3721 -0.3808  0.4873
 4627SOL    HW121174   3.997   1.626   2.203 -2.0592 -0.4596  0.9700
 4627SOL    HW221175   4.052   1.638   2.356 -1.1493 -0.1848  0.6255
 4628SOL     OW21176   2.616   4.896   1.038 -0.8307  0.0623 -0.3005
 4628SOL    HW121177   2.532   4.877   0.986 -2.1571  1.9877  1.0459
 4628SOL    HW221178   2.649   4.988   1.015  1.3510 -0.9681 -1.3689
 4630SOL     OW21179   3.867   5.898   0.562 -0.0977 -0.2585  0.1096
 4630SOL    HW121180   3.884   5.930   0.469  1.7319 -0.7090  0.2617
 4630SOL    HW221181   3.779   5.851   0.566  0.4464 -1.4945 -1.7263
 4631SOL     OW21182   8.601   6.313   0.729 -0.1184  0.5012  0.1485
 4631SOL    HW121183   8.661   6.297   0.808 -0.6508  2.0712  0.8987
 4631SOL    HW221184   8.525   6.372   0.757 -1.5228 -0.7069 -1.0212
 4632SOL     OW21185   0.197   5.723   0.860 -0.2576 -0.5671 -0.2594
 4632SOL    HW121186   0.256   5.788   0.812 -0.8914 -0.5102 -0.9799
 4632SOL    HW221187   0.253   5.655   0.906  0.3703 -0.6691 -1.1576
 4633SOL     OW21188   3.492   7.664   0.013  0.9448  0.8548  0.0476
 4633SOL    HW121189   3.457   7.714   0.092 -0.8421  0.7129 -0.6393
 4633SOL    HW221190   3.460   7.707  -0.071  0.3342 -0.7509 -0.5687
 4634SOL     OW21191   2.953   0.123   0.827  0.3966 -0.7965 -0.1395
 4634SOL    HW121192   3.042   0.148   0.788  0.2584  1.9681  1.1452
 4634SOL    HW221193   2.961   0.120   0.927 -0.4783 -2.6126 -0.1166
 4635SOL     OW21194   9.157   5.180   0.074  0.2386  0.5661 -0.5690
 4635SOL    HW121195   9.155   5.080   0.072  0.5573  0.5488  0.0136
 4635SOL    HW221196   9.127   5.213   0.163 -0.5565  1.0148 -0.9914
 4636SOL     OW21197   3.105   4.760   0.552 -0.1654  1.2022  0.4161
 4636SOL    HW121198   3.099   4.664   0.579 -2.1781  1.3406  0.5051
 4636SOL    HW221199   3.168   4.809   0.613  1.8705 -0.3155 -0.4074
 4637SOL     OW21200   2.927   3.385   1.379  0.5376  0.2889  0.5573
 4637SOL    HW121201   2.880   3.462   1.423 -1.2556  0.0326 -0.8387
 4637SOL    HW221202   2.933   3.308   1.442  1.0653  1.0848  1.4876
 4638SOL     OW21203   8.802   9.287   0.011 -0.0517 -0.4470  0.2213
 4638SOL    HW121204   8.838   9.272   0.103 -0.3171 -0.2997  0.3519
 4638SOL    HW221205   8.839   9.218  -0.051  2.3506  1.1674 -0.1771
 4640SOL     OW21206   2.255   8.084   0.099 -0.1929 -0.4074 -0.6575
 4640SOL    HW121207   2.212   8.048   0.182 -2.4149  0.6189 -1.3199
 4640SOL    HW221208   2.336   8.029   0.077 -0.5410 -1.7397  1.2323
 4641SOL     OW21209   3.362   1.666   0.949  0.1768 -0.5698 -0.5416
 4641SOL    HW121210   3.303   1.647   1.027 -1.2837  0.0204 -1.4787
 4641SOL    HW221211   3.448   1.706   0.981 -1.2400  1.6348  0.6614
 4643SOL     OW21212   1.544   2.306   1.022 -0.0540 -0.2661  0.4142
 4643SOL    HW121213   1.560   2.283   1.118  0.5761  0.3996  0.4784
 4643SOL    HW221214   1.447   2.299   1.002  0.1130 -3.1768  0.3712
 4644SOL     OW21215   9.280   5.468   1.421  0.5247 -0.3889  0.7309
 4644SOL    HW121216   9.236   5.399   1.479  1.2655 -1.3041  0.2152
 4644SOL    HW221217   9.210   5.522   1.375 -0.1374 -3.1772 -1.6996
 4645SOL     OW21218   9.532   9.910   2.305  0.3871  0.2426 -0.1629
 4645SOL    HW121219   9.623   9.931   2.339 -0.5783  2.3783  1.1935
 4645SOL    HW221220   9.469   9.899   2.383 -1.1858  1.9892 -1.1558
 4646SOL     OW21221   8.225   9.662   0.302  0.3297 -0.1228  0.6980
 4646SOL    HW121222   8.275   9.576   0.301  0.7785  0.1454 -1.8859
 4646SOL    HW221223   8.270   9.729   0.243 -2.2349  0.5914 -0.5459
 4647SOL     OW21224   2.559   0.839   2.019 -0.7190 -0.1125  0.1363
 4647SOL    HW121225   2.655   0.868   2.013 -0.1422 -2.0828 -0.5801
 4647SOL    HW221226   2.543   0.798   2.109 -0.2041 -2.0147 -0.6027
 4648SOL     OW21227   8.437   6.524   1.132 -0.2926  0.5974  0.0542
 4648SOL    HW121228   8.411   6.452   1.068  1.7695 -0.6967  0.6138
 4648SOL    HW221229   8.363   6.591   1.140 -1.1557 -0.0109 -2.5316
 4649SOL     OW21230   1.175   1.374   0.513  0.0186  0.5941 -0.1852
 4649SOL    HW121231   1.269   1.363   0.480  0.3136  0.1890  0.7556
 4649SOL    HW221232   1.168   1.338   0.606 -1.1098  0.4810 -0.3009
 4650SOL     OW21233   8.100   9.016   0.002 -0.0025  0.2788 -0.2117
 4650SOL    HW121234   8.047   8.940   0.041  0.0922  0.0774 -0.4694
 4650SOL    HW221235   8.177   8.979  -0.050 -0.6422  0.5326 -1.3298
 4652SOL     OW21236   1.597   3.097   1.262  0.0908 -0.0537 -0.4196
 4652SOL    HW121237   1.524   3.099   1.330  0.2601  0.7097 -0.2578
 4652SOL    HW221238   1.604   3.186   1.217 -0.2044 -0.6385 -1.6425
 4653SOL     OW21239   2.927   6.527   1.375  0.2128  0.0436  0.2351
 4653SOL    HW121240   3.010   6.562   1.331  1.3309  0.0207  2.2439
 4653SOL    HW221241   2.929   6.427   1.373 -1.4003 -0.0025 -2.6036
 4654SOL     OW21242   8.308   8.049   0.262 -0.2813 -0.1725  0.6231
 4654SOL    HW121243   8.366   8.099   0.198  0.1969 -3.0036 -1.2432
 4654SOL    HW221244   8.321   8.085   0.354  0.8536  2.3668 -0.4858
 4655SOL     OW21245   8.372   0.009   1.683  0.0054 -0.4819  0.1483
 4655SOL    HW121246   8.364   0.000   1.584  0.4875 -0.3765  0.0968
 4655SOL    HW221247   8.288  -0.023   1.727 -0.7401  0.7571 -0.3646
 4656SOL     OW21248   1.368   4.343   0.806 -0.7008  0.1658  0.2620
 4656SOL    HW121249   1.412   4.325   0.894 -0.3380 -2.3549 -0.4077
 4656SOL    HW221250   1.430   4.396   0.748 -0.1776  0.1666  0.8156
 4657SOL     OW21251   2.717   4.422   0.332 -0.9267 -0.2559  0.3623
 4657SOL    HW121252   2.759   4.385   0.415  1.1529  0.5439 -0.3190
 4657SOL    HW221253   2.618   4.412   0.338 -0.8181 -0.0624  3.0325
 4658SOL     OW21254   1.145   4.974   0.997  0.5422  0.2894 -0.1122
 4658SOL    HW121255   1.166   5.069   1.021  0.5563 -0.1079  1.5203
 4658SOL    HW221256   1.114   4.969   0.902  0.9353  1.8684 -0.3255
 4659SOL     OW21257   2.964   8.957   0.841  0.3034 -0.0295 -0.3298
 4659SOL    HW121258   2.882   8.933   0.789  0.3466  0.3868 -0.5930
 4659SOL    HW221259   2.937   9.003   0.926  0.2686  0.1222 -0.4234
 4660SOL     OW21260   7.528   0.895   1.313 -0.7339  0.2063  0.1359
 4660SOL    HW121261   7.532   0.908   1.214 -0.7976  1.5216  0.2967
 4660SOL    HW221262   7.596   0.953   1.358  0.2629 -1.4233  0.7922
 4661SOL     OW21263   8.523   0.567   0.559  0.1092  0.5889  0.2641
 4661SOL    HW121264   8.478   0.656   0.559 -2.3724 -0.6068 -1.5186
 4661SOL    HW221265   8.492   0.514   0.638  0.7692  0.8717  0.7253
 4662SOL     OW21266   0.118   6.601   2.133  0.2009 -0.1988  0.0378
 4662SOL    HW121267   0.187   6.634   2.196 -0.7512  0.0192  0.9816
 4662SOL    HW221268   0.155   6.526   2.078  1.5894  0.7988 -0.3982
 4663SOL     OW21269   0.481   1.625   1.552  0.5370 -0.3788 -0.1955
 4663SOL    HW121270   0.508   1.721   1.566  1.1650 -0.7055  0.8372
 4663SOL    HW221271   0.453   1.613   1.456 -0.3981  1.0358 -0.1311
 4664SOL     OW21272   1.581   3.494   0.447  0.1802 -0.2690  0.0458
 4664SOL    HW121273   1.517   3.538   0.384  0.0604  0.9351  0.9802
 4664SOL    HW221274   1.624   3.564   0.505 -1.7140 -1.5608  3.1518
 4665SOL     OW21275   0.777   1.806   0.439  0.1563 -0.8664 -0.3060
 4665SOL    HW121276   0.727   1.822   0.525  1.7484 -0.2950  0.5385
 4665SOL    HW221277   0.736   1.729   0.391  0.1141 -2.1395  1.6881
 4668SOL     OW21278   0.600   6.852   0.620  0.1037  0.5759  0.1782
 4668SOL    HW121279   0.695   6.824   0.626 -0.7834 -2.4769  0.8638
 4668SOL    HW221280   0.588   6.914   0.542  2.5148  0.5760 -0.2225
 4669SOL     OW21281   0.293   5.801   1.254  0.1578 -0.2216  0.3602
 4669SOL    HW121282   0.243   5.841   1.331 -1.3618 -0.8155 -0.2960
 4669SOL    HW221283   0.323   5.874   1.193 -1.0693  0.0698  0.0842
 4670SOL     OW21284   8.941   2.384   0.121  0.2477 -0.5572 -0.2035
 4670SOL    HW121285   8.989   2.379   0.208  0.5239  0.0519 -0.3185
 4670SOL    HW221286   9.007   2.381   0.046  0.2881  2.2842 -0.3326
 4671SOL     OW21287   2.236   3.902   0.262 -0.5107  0.0483  0.4271
 4671SOL    HW121288   2.303   3.882   0.189 -1.3122 -2.7227  0.3744
 4671SOL    HW221289   2.144   3.905   0.223 -0.7219  0.7777  0.9780
 4672SOL     OW21290   1.509   5.582   0.937  0.4026 -0.7781 -0.2232
 4672SOL    HW121291   1.546   5.656   0.880  0.6535 -0.7361 -0.0060
 4672SOL    HW221292   1.529   5.602   1.033  0.0685 -0.8991 -0.1299
 4673SOL     OW21293   9.571   0.059   1.182  0.0435  0.1734  0.1003
 4673SOL    HW121294   9.474   0.076   1.165 -0.4488 -0.2228  2.3781
 4673SOL    HW221295   9.595  -0.032   1.149 -0.4738  0.0930 -0.0521
 4675SOL     OW21296   9.541   9.223   1.579  0.7195 -0.1884  0.1845
 4675SOL    HW121297   9.500   9.175   1.656  0.7761 -0.6519 -0.0658
 4675SOL    HW221298   9.491   9.200   1.495  1.2878 -0.5050 -0.0706
 4676SOL     OW21299   0.892   0.782   1.300 -0.2969  0.4129 -0.3158
 4676SOL    HW121300   0.974   0.828   1.267  1.3624 -1.4899  1.1091
 4676SOL    HW221301   0.854   0.725   1.227  0.1387  0.6237 -0.7079
 4680SOL     OW21302   3.112   4.215   1.124 -0.7378  0.8553 -0.6905
 4680SOL    HW121303   3.146   4.155   1.051  0.6013  0.2758  0.3951
 4680SOL    HW221304   3.185   4.277   1.153 -0.5388 -0.4254  1.6885
 4681SOL     OW21305   8.605   1.638   2.105 -0.0458 -0.0938  0.2494
 4681SOL    HW121306   8.633   1.579   2.181  0.7211  1.7790  1.4505
 4681SOL    HW221307   8.679   1.644   2.038  0.6895  1.1678  1.1600
 4682SOL     OW21308   3.535   4.636   0.191  0.2563  0.3302  0.0397
 4682SOL    HW121309   3.594   4.640   0.271  0.7764  1.4829 -0.3816
 4682SOL    HW221310   3.445   4.673   0.213  0.3756  0.5781  0.1050
 4683SOL     OW21311   0.470   6.444   1.014  0.3605  0.8772 -0.8531
 4683SOL    HW121312   0.447   6.504   1.091 -0.5665 -0.0116 -0.4304
 4683SOL    HW221313   0.405   6.460   0.940  0.8803  1.2918 -1.2210
 4684SOL     OW21314   2.737   7.090   1.332  0.2574  0.4958 -0.2242
 4684SOL    HW121315   2.703   7.009   1.284  1.5059  0.4449 -1.0341
 4684SOL    HW221316   2.697   7.093   1.424 -0.9080 -0.2605 -0.6846
 4685SOL     OW21317   1.716   8.250   2.154  0.2332 -0.1709  0.7108
 4685SOL    HW121318   1.722   8.164   2.103 -0.0179 -0.3021  0.9028
 4685SOL    HW221319   1.750   8.325   2.097 -0.7879 -0.1984  0.0584
 4686SOL     OW21320   2.119   3.530   0.057 -0.1262  0.6085 -0.0022
 4686SOL    HW121321   2.109   3.619   0.013  0.6247  1.0084  0.6316
 4686SOL    HW221322   2.159   3.542   0.148 -0.6195 -0.3148  0.3458
 4687SOL     OW21323   0.294   2.879   0.188 -0.1338  0.3765 -0.0906
 4687SOL    HW121324   0.246   2.949   0.240 -0.1558  0.3517 -0.0773
 4687SOL    HW221325   0.293   2.793   0.240 -1.1143  0.0555 -0.6136
 4689SOL     OW21326   2.352   3.729   0.467  0.6455  0.4380  0.3102
 4689SOL    HW121327   2.301   3.807   0.430  0.9632  0.6785  0.3755
 4689SOL    HW221328   2.317   3.708   0.558  1.0736  0.9937  0.6042
 4691SOL     OW21329   1.716   2.722   0.178 -0.1022 -0.1825  0.6696
 4691SOL    HW121330   1.735   2.630   0.213 -0.4014 -0.2980  0.5255
 4691SOL    HW221331   1.667   2.775   0.248 -1.0515 -0.5411  0.2788
 4692SOL     OW21332   0.671   3.372   1.914 -0.4725 -0.6966 -0.4590
 4692SOL    HW121333   0.611   3.357   1.992 -0.5235  1.5376 -0.0277
 4692SOL    HW221334   0.618   3.366   1.829 -0.7611 -1.3743 -0.2372
 4693SOL     OW21335   0.996   7.495   0.332 -0.3319  0.1406 -0.1042
 4693SOL    HW121336   0.947   7.543   0.405 -0.8716  0.0549 -0.4084
 4693SOL    HW221337   0.984   7.396   0.343 -1.0161  0.1461 -0.7145
 4695SOL     OW21338   1.887   5.724   1.385  0.3051 -0.1807  0.1162
 4695SOL    HW121339   1.911   5.720   1.482  4.0096 -2.8799 -0.8102
 4695SOL    HW221340   1.863   5.632   1.353  0.6343  0.4102 -1.8875
 4696SOL     OW21341   8.631   7.268   1.461  0.1154 -0.2176  0.1415
 4696SOL    HW121342   8.580   7.266   1.547 -0.3610  1.6447 -0.0880
 4696SOL    HW221343   8.645   7.174   1.429 -0.9889 -0.8618  1.4787
 4697SOL     OW21344   9.378   9.166   0.540 -0.3894 -0.6508 -0.6182
 4697SOL    HW121345   9.367   9.181   0.441 -0.7463 -1.1001 -0.6480
 4697SOL    HW221346   9.330   9.239   0.590  0.6348  0.1478 -0.7766
 4698SOL     OW21347   1.088   7.272   1.711 -0.1721 -0.0920  0.1789
 4698SOL    HW121348   1.144   7.355   1.713 -2.4643  1.5129  0.4242
 4698SOL    HW221349   1.069   7.243   1.805 -0.3693 -0.1854  0.1096
 4699SOL     OW21350   8.792   5.211   1.726  0.0836 -0.0067  0.4040
 4699SOL    HW121351   8.816   5.302   1.693  1.9129 -0.4100  0.5931
 4699SOL    HW221352   8.716   5.218   1.792 -2.1299  1.0137 -2.1737
 4700SOL     OW21353   1.447   3.127   0.891  0.8012 -1.0484 -0.2459
 4700SOL    HW121354   1.531   3.147   0.942 -0.7093 -0.1914  1.9849
 4700SOL    HW221355   1.436   3.193   0.817  2.1331 -1.2497 -0.6409
 4701SOL     OW21356   1.473   8.604   0.677 -0.1164  0.1706 -0.4358
 4701SOL    HW121357   1.570   8.588   0.658  0.1296  1.6932 -0.5192
 4701SOL    HW221358   1.446   8.553   0.758  1.5203  2.1039  1.3890
 4702SOL     OW21359   0.364   6.657   1.261  0.2072 -0.1194 -0.3136
 4702SOL    HW121360   0.408   6.723   1.199 -0.7643 -0.2751 -1.1924
 4702SOL    HW221361   0.266   6.679   1.269  0.2541 -0.3184  0.8968
 4704SOL     OW21362   1.938   6.259   1.962 -0.4164 -0.6355  0.1033
 4704SOL    HW121363   2.005   6.222   1.898 -0.5160  0.3515 -0.5792
 4704SOL    HW221364   1.884   6.185   2.001  1.2355 -1.4731  0.8483
 4705SOL     OW21365   3.086   4.987   0.957  0.1870  0.2550 -0.1229
 4705SOL    HW121366   3.043   4.905   0.995 -0.0953  0.7635  0.6622
 4705SOL    HW221367   3.048   5.004   0.866 -0.1066 -0.2165 -0.0927
 4707SOL     OW21368   4.054   2.526   0.877 -0.0127 -0.2520 -0.2866
 4707SOL    HW121369   4.038   2.466   0.799 -0.7877 -0.2424 -0.1359
 4707SOL    HW221370   4.140   2.575   0.865 -0.3124  0.0204 -1.2993
 4709SOL     OW21371   4.381   4.917   2.138 -0.1317 -1.2294 -0.0797
 4709SOL    HW121372   4.361   4.954   2.047 -0.6877 -2.1428 -0.3282
 4709SOL    HW221373   4.380   4.817   2.135 -0.9957 -1.2643  1.1264
 4710SOL     OW21374   3.406   0.295   1.490  0.6127  0.6447 -0.5804
 4710SOL    HW121375   3.362   0.239   1.560  1.5713  1.4132  0.6407
 4710SOL    HW221376   3.443   0.235   1.419  0.6035 -0.2121  0.1260
 4711SOL     OW21377   2.892   1.817   1.081  0.1544 -0.2506 -0.0743
 4711SOL    HW121378   2.883   1.730   1.032  0.8051  0.5837 -1.7524
 4711SOL    HW221379   2.939   1.802   1.168  0.3235 -1.5660 -0.3802
 4712SOL     OW21380   8.460   9.742   0.822  0.2066 -0.1313  0.1924
 4712SOL    HW121381   8.461   9.775   0.916 -2.0805  1.7062 -0.3591
 4712SOL    HW221382   8.510   9.807   0.764  0.9489 -0.8602  0.0088
 4713SOL     OW21383   8.334   2.118   0.822  0.7670 -0.3232  0.1947
 4713SOL    HW121384   8.424   2.076   0.838  0.9211 -0.0175  0.1243
 4713SOL    HW221385   8.325   2.140   0.725  0.8551  0.1993  0.3052
 4714SOL     OW21386   1.074   2.501   0.132  0.1217  0.3503  0.3764
 4714SOL    HW121387   1.065   2.535   0.226  4.0522  1.2933  0.5127
 4714SOL    HW221388   1.091   2.403   0.134  0.2042  0.3688  0.6998
 4715SOL     OW21389   7.832   0.193   1.241 -0.2882 -0.2250  0.6567
 4715SOL    HW121390   7.853   0.116   1.180 -1.6193  0.2891 -0.4987
 4715SOL    HW221391   7.826   0.160   1.335  0.1751 -1.3482  0.3067
 4716SOL     OW21392   0.036   9.951   1.095 -0.0025  0.0659  0.4020
 4716SOL    HW121393   0.010   9.926   1.002 -0.3804  1.5591  0.0975
 4716SOL    HW221394   0.081  10.040   1.095 -0.5750  0.3723  1.7186
 4717SOL     OW21395   9.020   6.112   0.238  0.0292 -0.0491  0.3117
 4717SOL    HW121396   9.024   6.093   0.140 -0.3082  0.0641  0.2775
 4717SOL    HW221397   8.935   6.160   0.260  0.2354  0.1823  0.6158
 4718SOL     OW21398   2.063   9.348   2.124  0.1739  0.3108  0.0101
 4718SOL    HW121399   2.009   9.432   2.136 -0.4445  0.1831 -1.7465
 4718SOL    HW221400   2.146   9.354   2.179  0.7213  2.5903 -0.9910
 4719SOL     OW21401   8.544   8.426   0.765 -0.3613 -0.0900  0.0455
 4719SOL    HW121402   8.612   8.361   0.798  0.2297  0.5237  0.0615
 4719SOL    HW221403   8.453   8.397   0.793  0.0159 -0.2250  1.1458
 4720SOL     OW21404   2.316   3.331   2.942  0.4891  0.1903  0.0549
 4720SOL    HW121405   2.301   3.260   2.873 -2.1402  0.9111 -0.1721
 4720SOL    HW221406   2.237   3.393   2.943  1.7469  1.7934  1.8044
 4721SOL     OW21407   4.006   5.256   1.720 -0.0451  0.1761  0.2075
 4721SOL    HW121408   4.088   5.219   1.764 -0.3681 -1.4841 -0.5555
 4721SOL    HW221409   3.945   5.181   1.696 -1.2568  1.3168 -0.2949
 4722SOL     OW21410   8.667   1.845   0.196  0.0664 -0.0190  0.3447
 4722SOL    HW121411   8.751   1.810   0.154 -0.2773  1.3865 -1.6009
 4722SOL    HW221412   8.672   1.945   0.199 -0.9674 -0.0056  1.4571
 4723SOL     OW21413   0.041   6.349   1.785  0.1196 -0.0488 -0.1406
 4723SOL    HW121414   0.101   6.390   1.854 -0.8513  0.2948  0.5021
 4723SOL    HW221415   0.048   6.401   1.700  0.3614  0.2849  0.0816
 4724SOL     OW21416   0.153   9.919   2.279  0.5788 -0.0641 -0.0848
 4724SOL    HW121417   0.119   9.856   2.209  0.4399  0.8594 -0.8540
 4724SOL    HW221418   0.252   9.927   2.271  0.5711 -0.0108 -0.1251
 4725SOL     OW21419   8.100   7.639   0.148  0.4716 -0.6285 -0.0376
 4725SOL    HW121420   8.174   7.703   0.126 -0.8286  0.7653 -0.3883
 4725SOL    HW221421   8.099   7.565   0.080 -0.1616  0.8082 -1.6376
 4727SOL     OW21422   3.741   4.455   0.051  1.0039 -0.1286 -0.7368
 4727SOL    HW121423   3.733   4.363   0.088 -0.4234 -0.8336 -2.7137
 4727SOL    HW221424   3.674   4.515   0.094  0.4001 -0.5673 -1.0615
 4728SOL     OW21425   9.673   6.969   0.317 -0.5490 -0.5063 -0.3247
 4728SOL    HW121426   9.660   6.872   0.296 -0.1291 -0.0886 -2.5954
 4728SOL    HW221427   9.751   7.004   0.265 -1.3409  1.3139 -0.3031
 4729SOL     OW21428   9.667   1.498   1.302  0.0995  0.2637 -0.2105
 4729SOL    HW121429   9.734   1.523   1.232  0.6375 -0.1963  0.1388
 4729SOL    HW221430   9.610   1.423   1.267  1.0989 -0.7221  0.2665
 4731SOL     OW21431   1.152   2.333   1.014 -0.1576  0.0946  0.2073
 4731SOL    HW121432   1.214   2.366   1.086  0.6758 -0.2954 -0.3324
 4731SOL    HW221433   1.057   2.346   1.044  0.1802  0.3878  1.1731
 4733SOL     OW21434   8.448   1.743   0.761 -0.0730 -0.0233  0.1020
 4733SOL    HW121435   8.390   1.733   0.841 -1.2262  1.0098 -0.5934
 4733SOL    HW221436   8.481   1.653   0.732 -2.5554 -0.8030 -0.3982
 4734SOL     OW21437   7.974   0.741   0.460  0.2400 -0.1187 -1.0793
 4734SOL    HW121438   7.970   0.804   0.382  1.6996 -1.3563 -2.1890
 4734SOL    HW221439   7.889   0.687   0.464  0.5112 -0.6670 -2.3723
 4735SOL     OW21440   2.195   9.719   1.532 -0.4428  0.2847  0.5196
 4735SOL    HW121441   2.186   9.774   1.448 -3.2865  1.1290  1.3268
 4735SOL    HW221442   2.232   9.629   1.509 -3.0669 -0.2300 -1.9829
 4736SOL     OW21443   4.290   8.780   2.292  0.1716 -0.1608  0.1864
 4736SOL    HW121444   4.206   8.803   2.342 -0.2184  1.2731 -1.0990
 4736SOL    HW221445   4.266   8.746   2.201  0.9436 -0.9074  0.2619
 4737SOL     OW21446   9.037   5.448   0.765 -0.3228  0.3031  0.3021
 4737SOL    HW121447   9.069   5.409   0.678 -0.8842  1.1805 -0.3001
 4737SOL    HW221448   9.088   5.406   0.840  0.6020 -0.0201 -0.4895
 4739SOL     OW21449   3.347   4.891   1.953 -0.0113  0.2156 -0.6882
 4739SOL    HW121450   3.418   4.903   1.884  0.1059 -3.0718 -1.2177
 4739SOL    HW221451   3.347   4.970   2.015  3.0347  1.0117 -1.6101
 4740SOL     OW21452   0.879   4.109   0.985 -0.1294  0.4729 -0.2240
 4740SOL    HW121453   0.863   4.207   0.982  0.6256  0.7234  2.8653
 4740SOL    HW221454   0.918   4.079   0.897 -0.3151  2.9157 -1.1729
 4741SOL     OW21455   8.351   7.953   2.109  0.2643 -0.2422 -0.0860
 4741SOL    HW121456   8.346   8.003   2.023  0.2429 -0.3434 -0.1437
 4741SOL    HW221457   8.439   7.905   2.115  0.1584 -0.4474 -0.1706
 4743SOL     OW21458   0.041   3.066   2.303  0.3681 -0.1700 -0.4063
 4743SOL    HW121459   0.047   2.970   2.277  1.3058 -0.6390  1.5043
 4743SOL    HW221460   0.033   3.074   2.402  1.0670  1.7595 -0.4784
 4744SOL     OW21461   9.654   6.335   1.467  0.4341  0.1587 -0.1974
 4744SOL    HW121462   9.696   6.273   1.401 -0.9753 -0.6842 -0.3438
 4744SOL    HW221463   9.557   6.310   1.478 -0.2163  2.4917 -0.4438
 4745SOL     OW21464   4.012   4.438   0.334 -0.3522  0.0837  0.1114
 4745SOL    HW121465   4.025   4.358   0.393 -0.7453 -0.4802 -0.5669
 4745SOL    HW221466   3.919   4.471   0.344  0.5747  2.1480  2.4859
 4747SOL     OW21467   3.599   9.307   1.734  0.5313 -0.2220 -0.3364
 4747SOL    HW121468   3.656   9.314   1.816  0.2925 -0.0055 -0.1902
 4747SOL    HW221469   3.657   9.287   1.655  0.7839 -0.2360 -0.1482
 4748SOL     OW21470   1.157   8.678   1.290 -0.1152  0.0134  0.3251
 4748SOL    HW121471   1.113   8.620   1.222  1.1240 -0.7052  0.1155
 4748SOL    HW221472   1.099   8.686   1.370 -1.1009 -0.0278 -0.3775
 4749SOL     OW21473   9.985   1.215   1.016  0.0620  0.2797 -0.3853
 4749SOL    HW121474  10.007   1.229   0.919  1.3127 -1.3879 -0.3602
 4749SOL    HW221475   9.993   1.301   1.065 -0.1400  1.0463 -1.6869
 4750SOL     OW21476   1.609   1.721   0.737  0.2209 -0.1695 -0.1585
 4750SOL    HW121477   1.690   1.773   0.708 -1.1635  2.1228 -0.0437
 4750SOL    HW221478   1.629   1.623   0.734  2.7132  0.3352 -0.9711
 4752SOL     OW21479   0.648   6.061   1.196 -0.2185  0.2775 -0.5045
 4752SOL    HW121480   0.638   6.077   1.097 -1.6628 -1.1981 -0.6196
 4752SOL    HW221481   0.557   6.053   1.237  0.3872  0.3757  0.8671
 4754SOL     OW21482   2.521   1.516   0.136  0.2035  0.6281 -0.4457
 4754SOL    HW121483   2.440   1.461   0.156  0.4266  0.2525 -0.5909
 4754SOL    HW221484   2.508   1.608   0.174 -0.3037  0.5789 -0.4922
 4755SOL     OW21485   1.418   4.578   0.606  0.2997 -0.1020 -0.2420
 4755SOL    HW121486   1.332   4.630   0.613 -0.1503 -0.6575 -1.5288
 4755SOL    HW221487   1.494   4.636   0.634 -0.2634  1.0919 -1.1219
 4756SOL     OW21488   9.641   8.437   0.812 -0.2887  0.5429  0.1476
 4756SOL    HW121489   9.615   8.489   0.894 -1.0873 -0.6370  0.6726
 4756SOL    HW221490   9.740   8.436   0.803 -0.2398  1.5994  0.4878
 4757SOL     OW21491   8.991   1.400   1.515  0.0672  0.4321 -0.0798
 4757SOL    HW121492   8.896   1.397   1.545 -0.3975  1.0173 -1.4598
 4757SOL    HW221493   9.001   1.343   1.433  1.2513 -0.9093  0.9735
 4758SOL     OW21494   8.834   9.753   0.613 -0.1142  0.3418  0.0069
 4758SOL    HW121495   8.904   9.687   0.587  0.3997  0.2707  1.5049
 4758SOL    HW221496   8.783   9.782   0.532  1.0413 -0.2992 -0.9635
 4759SOL     OW21497   8.806   0.976   1.707  0.2304 -0.4341  0.0056
 4759SOL    HW121498   8.731   1.033   1.673  0.9059 -0.3016 -1.2960
 4759SOL    HW221499   8.792   0.882   1.677  1.0330 -0.2423 -1.0062
 4760SOL     OW21500   1.128   6.598   1.915 -0.4324 -0.0083 -0.4793
 4760SOL    HW121501   1.041   6.635   1.883 -1.8924 -1.3314  1.7903
 4760SOL    HW221502   1.130   6.599   2.015  1.1885 -2.1250 -0.4471
 4763SOL     OW21503   9.381   4.986   0.193  0.6518  0.3081  0.4558
 4763SOL    HW121504   9.475   4.986   0.159  0.0995 -0.7616 -1.1336
 4763SOL    HW221505   9.320   4.955   0.121 -0.9174  0.8486  1.5286
 4764SOL     OW21506   1.945   4.075   1.738  0.0560 -0.0463 -0.2516
 4764SOL    HW121507   1.848   4.089   1.721  0.4653  1.5004 -1.4182
 4764SOL    HW221508   1.995   4.159   1.715  1.5738 -0.5779  1.0528
 4765SOL     OW21509   1.579   6.545   2.027 -0.2290 -0.4657  0.4712
 4765SOL    HW121510   1.597   6.448   2.047 -1.6491 -0.9083 -0.3544
 4765SOL    HW221511   1.512   6.552   1.954 -0.0145  1.1618  0.4134
 4767SOL     OW21512   1.026   9.533   2.292  0.0199 -0.5285 -0.4325
 4767SOL    HW121513   0.972   9.595   2.235 -0.9171 -1.8995 -1.0478
 4767SOL    HW221514   1.097   9.490   2.236 -0.0984 -0.9180 -0.2840
 4768SOL     OW21515   2.279   9.077   1.855 -0.3468  0.0997  0.1331
 4768SOL    HW121516   2.307   9.081   1.951 -2.0679  0.8657  0.6326
 4768SOL    HW221517   2.333   9.008   1.807  1.6227  0.8028  1.2719
 4770SOL     OW21518   2.785   3.851   1.906 -0.0764 -0.6991 -0.0456
 4770SOL    HW121519   2.829   3.813   1.987 -2.0114 -1.0606  0.8634
 4770SOL    HW221520   2.698   3.894   1.932  0.0256  0.5774 -1.6929
 4772SOL     OW21521   0.589   3.366   0.756 -0.1364 -0.1101  0.0492
 4772SOL    HW121522   0.544   3.399   0.672 -1.5617 -0.1360  0.7911
 4772SOL    HW221523   0.524   3.311   0.809  0.8299 -0.2750  1.0664
 4773SOL     OW21524   2.258   9.225   1.627  0.2459  0.5149  0.6479
 4773SOL    HW121525   2.255   9.194   1.722 -1.4867  0.2282  0.5067
 4773SOL    HW221526   2.179   9.190   1.577  1.5887 -0.0418 -1.1347
 4774SOL     OW21527   8.981   0.110   1.144  0.0420  0.1323  0.0175
 4774SOL    HW121528   8.931   0.115   1.231  1.1678  0.4884  0.6457
 4774SOL    HW221529   9.029   0.196   1.128  1.3563 -0.6023 -0.0544
 4775SOL     OW21530   2.779   7.290   0.499 -0.5229 -0.4081 -0.0114
 4775SOL    HW121531   2.700   7.251   0.453  0.1635 -1.0175 -0.6810
 4775SOL    HW221532   2.811   7.371   0.449 -1.0558  0.1701  0.5690
 4776SOL     OW21533   8.532   6.563   1.870 -0.1723  0.1210  0.1648
 4776SOL    HW121534   8.478   6.509   1.805  0.5483  0.0972 -0.4201
 4776SOL    HW221535   8.603   6.506   1.910 -0.6323  0.1317  0.9949
 4777SOL     OW21536   1.033   7.872   2.095 -0.0994 -0.0341  0.0985
 4777SOL    HW121537   1.121   7.911   2.122 -0.2188 -0.6905  1.4429
 4777SOL    HW221538   1.047   7.808   2.019  0.5774 -0.1217  0.2936
 4778SOL     OW21539   8.505   1.298   1.751 -0.5869 -0.4353  0.0445
 4778SOL    HW121540   8.529   1.394   1.733 -0.0957 -0.9205 -1.9438
 4778SOL    HW221541   8.505   1.247   1.665 -0.3238 -2.3507  1.1672
 4779SOL     OW21542   1.206   5.939   1.668  0.3660 -0.4585 -0.3294
 4779SOL    HW121543   1.183   6.014   1.731  0.4013  1.3636 -2.4318
 4779SOL    HW221544   1.123   5.907   1.623  0.1963 -2.4343  1.3411
 4780SOL     OW21545   9.831   8.710   1.501 -0.5616  0.5311  0.0796
 4780SOL    HW121546   9.823   8.801   1.541 -0.8233  0.7145 -0.3844
 4780SOL    HW221547   9.788   8.709   1.411  3.7973  1.3037 -2.1267
 4782SOL     OW21548   1.297   2.339   0.454 -0.1101  0.4417  0.1713
 4782SOL    HW121549   1.218   2.296   0.411  0.2582  0.4462 -0.5098
 4782SOL    HW221550   1.354   2.381   0.384  0.1102  1.0823  0.7296
 4783SOL     OW21551   8.949   3.505   0.036 -0.1487  0.1426  0.5477
 4783SOL    HW121552   9.023   3.563   0.003  0.2570 -0.7067 -0.0755
 4783SOL    HW221553   8.895   3.554   0.104  1.3054  0.5902  1.3963
 4784SOL     OW21554   0.190   4.747   1.882 -0.4672  0.4937 -0.1758
 4784SOL    HW121555   0.136   4.681   1.934  0.5432 -0.1330  0.0941
 4784SOL    HW221556   0.201   4.715   1.788  1.7018 -0.7343  0.4665
 4785SOL     OW21557   8.021   1.879   0.062  0.3837 -0.3701 -0.0530
 4785SOL    HW121558   8.030   1.950   0.132 -0.7956 -1.0075  0.7738
 4785SOL    HW221559   8.011   1.790   0.106 -1.3531 -0.6641 -0.9947
 4786SOL     OW21560   9.203   8.409   1.634 -0.3579  0.3516 -0.2188
 4786SOL    HW121561   9.137   8.390   1.562  0.2423 -0.1249 -0.6487
 4786SOL    HW221562   9.278   8.343   1.629 -0.9664 -0.5380  1.6516
 4787SOL     OW21563   8.325   0.866   2.201 -0.1182  0.4599  0.0395
 4787SOL    HW121564   8.345   0.949   2.253 -1.2511  0.9474 -0.2676
 4787SOL    HW221565   8.280   0.800   2.260  1.3395 -0.1847  0.4402
 4788SOL     OW21566   9.069   5.307   1.172  0.1497 -0.1906  0.4054
 4788SOL    HW121567   9.163   5.280   1.194  1.0802  0.8906 -1.9898
 4788SOL    HW221568   9.044   5.271   1.082 -0.7482  1.7630 -0.1579
 4789SOL     OW21569   4.229   4.542   2.012 -0.1476 -0.1989  0.3063
 4789SOL    HW121570   4.213   4.453   2.055  1.6471 -1.2126 -1.0342
 4789SOL    HW221571   4.276   4.602   2.077 -0.2211 -0.6597  0.7893
 4790SOL     OW21572   9.187   6.569   0.794 -0.0307  0.1172 -0.4588
 4790SOL    HW121573   9.262   6.630   0.767  2.0414 -2.2428 -0.2552
 4790SOL    HW221574   9.184   6.563   0.894  0.4696 -0.9345 -0.5036
 4791SOL     OW21575   3.009   0.164   0.428 -0.1744 -0.9074  0.5529
 4791SOL    HW121576   2.940   0.124   0.489  0.0304  0.0974  1.4615
 4791SOL    HW221577   2.987   0.261   0.414 -0.1201 -1.0941 -0.8393
 4792SOL     OW21578   3.355   9.845   0.614  0.2853 -0.0138  0.1554
 4792SOL    HW121579   3.431   9.893   0.658  0.7239 -1.7014  1.3080
 4792SOL    HW221580   3.380   9.823   0.520 -0.5031  3.2642 -0.8862
 4793SOL     OW21581   0.226   2.025   0.294 -0.2494  0.0244 -0.0763
 4793SOL    HW121582   0.310   1.972   0.298 -0.4235 -0.2116  0.5802
 4793SOL    HW221583   0.229   2.087   0.216 -0.2709 -1.3458 -1.2019
 4795SOL     OW21584   2.386   3.534   2.278  0.9508  0.3456  0.1065
 4795SOL    HW121585   2.482   3.527   2.254  1.0765  0.4962  0.5609
 4795SOL    HW221586   2.355   3.629   2.267  1.1674  0.5369  1.1248
 4797SOL     OW21587   1.761   0.799   0.887 -0.1283  0.0223 -0.6114
 4797SOL    HW121588   1.826   0.873   0.874  0.0426  0.2670  1.5152
 4797SOL    HW221589   1.670   0.836   0.900 -0.2027 -0.1995 -0.4958
 4798SOL     OW21590   9.149   2.291   1.831  0.0669 -0.1172  0.2319
 4798SOL    HW121591   9.176   2.365   1.768  1.5380  0.1107  1.1114
 4798SOL    HW221592   9.187   2.309   1.921  1.0645 -2.3288  0.2891
 4799SOL     OW21593   2.368   6.765   1.029  0.2009 -0.3154 -0.2425
 4799SOL    HW121594   2.381   6.817   1.113  2.1499  0.7489 -1.1811
 4799SOL    HW221595   2.348   6.669   1.053 -0.8464  0.2917  1.4362
 4800SOL     OW21596   0.789   2.574   0.883  0.0173 -0.5220 -0.9650
 4800SOL    HW121597   0.820   2.650   0.940  0.8177 -2.5274  1.3452
 4800SOL    HW221598   0.745   2.505   0.940 -0.8171 -1.7447 -3.0453
 4801SOL     OW21599   9.680   9.746   1.390  0.3509  0.1450  0.4610
 4801SOL    HW121600   9.747   9.815   1.359  0.6091 -0.3172 -0.0278
 4801SOL    HW221601   9.682   9.668   1.327  0.6040 -0.6483  1.4402
 4803SOL     OW21602   3.230   5.179   0.237  0.1306 -0.0627  0.2834
 4803SOL    HW121603   3.147   5.148   0.189 -0.0552  1.1198 -0.1743
 4803SOL    HW221604   3.209   5.193   0.334 -1.5883  5.0118 -0.6613
 4805SOL     OW21605   3.207   0.812   0.589 -0.3997  0.1574 -0.2287
 4805SOL    HW121606   3.231   0.791   0.684 -1.9664  2.0555  0.6283
 4805SOL    HW221607   3.265   0.886   0.556  0.1549 -0.5125 -0.7772
 4806SOL     OW21608   0.427   2.938   1.470 -0.2492 -0.3411  0.3427
 4806SOL    HW121609   0.506   2.992   1.442 -0.6348  0.8518  1.4646
 4806SOL    HW221610   0.369   2.993   1.530 -1.8104 -1.2818 -0.2695
 4807SOL     OW21611   0.624   4.885   1.280  0.3391  0.3752  0.2170
 4807SOL    HW121612   0.648   4.899   1.184  0.6783 -4.7300 -0.5856
 4807SOL    HW221613   0.693   4.928   1.338  0.4688  2.9902 -1.7449
 4808SOL     OW21614   9.272   6.014   0.339  0.2116  0.2391  0.1085
 4808SOL    HW121615   9.364   6.037   0.306  0.7516 -1.9593 -0.0486
 4808SOL    HW221616   9.204   6.055   0.278  1.1324  0.1388 -1.0120
 4809SOL     OW21617   4.850   2.981   0.412  0.1966 -0.6382 -0.0530
 4809SOL    HW121618   4.832   2.901   0.353  0.4974  0.1674 -1.2554
 4809SOL    HW221619   4.914   3.042   0.366 -1.1363  0.9974  0.2485
 4810SOL     OW21620   0.276   3.129   1.945  0.1914  1.1907 -0.5262
 4810SOL    HW121621   0.207   3.194   1.976  1.2771  2.5242 -0.8684
 4810SOL    HW221622   0.274   3.048   2.004  0.3417  2.4978  1.3250
 4811SOL     OW21623   9.105   3.662   2.034  0.1620  0.2228  0.3281
 4811SOL    HW121624   9.169   3.660   1.957  1.3483 -0.1109  1.3281
 4811SOL    HW221625   9.070   3.755   2.046 -2.8755 -0.3878 -2.9445
 4812SOL     OW21626   8.400   2.998   0.356  0.0718 -0.1340 -0.5123
 4812SOL    HW121627   8.426   3.038   0.268  3.8893  0.8595  0.9715
 4812SOL    HW221628   8.347   3.064   0.408 -0.6371 -0.0683 -1.2954
 4813SOL     OW21629   0.627   3.035   1.246  0.3528 -0.0283  0.2302
 4813SOL    HW121630   0.685   2.992   1.316 -1.5760 -1.9964  0.6791
 4813SOL    HW221631   0.628   2.980   1.163 -0.8732 -0.1431  0.2688
 4814SOL     OW21632   1.603   2.279   1.287 -0.5988 -0.7532  0.4227
 4814SOL    HW121633   1.686   2.328   1.313  0.5803 -1.9841 -0.8888
 4814SOL    HW221634   1.621   2.180   1.288 -2.7463 -1.1717  2.4152
 4815SOL     OW21635   7.714   9.924   2.278  0.3216  0.0597 -0.3459
 4815SOL    HW121636   7.718  10.017   2.314  0.7502 -0.0890 -0.0135
 4815SOL    HW221637   7.630   9.880   2.310 -0.1689  0.5249 -0.9801
 4816SOL     OW21638   1.655   5.521   1.572  0.1752  0.5431 -0.1598
 4816SOL    HW121639   1.589   5.576   1.522 -0.1113 -0.9546 -1.4880
 4816SOL    HW221640   1.708   5.465   1.507  0.2365 -0.9605  1.1453
 4818SOL     OW21641   9.113   0.350   1.130  0.6386 -0.0905  0.2615
 4818SOL    HW121642   9.141   0.421   1.195  0.7388  0.0034  0.1182
 4818SOL    HW221643   9.184   0.339   1.061  0.4883 -0.1163  0.1116
 4819SOL     OW21644   2.799   8.468   1.955  0.5697  0.0284 -0.0694
 4819SOL    HW121645   2.822   8.486   1.859  0.1969  0.3237 -0.1066
 4819SOL    HW221646   2.763   8.552   1.997  1.4599  0.1092  0.5428
 4820SOL     OW21647   2.835   1.087   0.459 -0.0190 -0.0357  1.0042
 4820SOL    HW121648   2.743   1.050   0.473 -0.3974  1.3633  2.4408
 4820SOL    HW221649   2.839   1.180   0.496  0.9134  1.3676 -2.4550
 4821SOL     OW21650   1.209   3.763   1.302 -0.0518 -0.2781  0.4955
 4821SOL    HW121651   1.152   3.684   1.326 -1.2238  0.8001  1.2646
 4821SOL    HW221652   1.173   3.807   1.221 -0.5890  0.6904  1.2596
 4822SOL     OW21653   7.913   0.899   0.262 -0.3197  0.9245  0.0096
 4822SOL    HW121654   7.859   0.979   0.237  0.6500  1.2801 -0.9861
 4822SOL    HW221655   7.912   0.833   0.186  1.3227  1.3028 -0.3624
 4823SOL     OW21656   2.988   9.447   0.804  0.3760 -0.3999  0.6218
 4823SOL    HW121657   2.958   9.402   0.888 -1.1820 -1.2591 -0.3690
 4823SOL    HW221658   2.983   9.547   0.816 -2.0302 -0.4982  0.8271
 4824SOL     OW21659   9.015   7.109   1.619  0.5190  0.0061 -0.0864
 4824SOL    HW121660   8.970   7.054   1.549  1.8615 -0.4851 -0.5953
 4824SOL    HW221661   9.046   7.049   1.694 -0.1808  0.4138  0.5328
 4826SOL     OW21662   0.091   9.958   0.541 -0.0501 -0.0200  0.5642
 4826SOL    HW121663   0.143   9.924   0.620  2.1506  1.8367 -0.0236
 4826SOL    HW221664   0.072  10.055   0.553 -1.5564 -0.1983 -0.2582
 4828SOL     OW21665   2.175   6.024   1.896  0.2307 -0.0694 -0.2068
 4828SOL    HW121666   2.171   6.109   1.843 -0.1089 -0.3741 -0.6772
 4828SOL    HW221667   2.204   5.949   1.836 -3.4945 -1.0993 -0.8605
 4829SOL     OW21668   9.671   3.441   1.784  0.2133  0.5420  0.3714
 4829SOL    HW121669   9.574   3.459   1.803  0.1685  1.0057 -0.2798
 4829SOL    HW221670   9.711   3.391   1.860 -0.8716 -0.8334  0.0685
 4830SOL     OW21671   3.104   0.873   0.151 -0.0985  0.4541  0.5591
 4830SOL    HW121672   3.074   0.887   0.246 -1.0429 -0.6028  0.4298
 4830SOL    HW221673   3.183   0.812   0.150  0.2796  0.9447  0.7121
 4831SOL     OW21674   2.921   0.408   1.727 -0.3656 -0.7407 -0.2914
 4831SOL    HW121675   2.954   0.381   1.818 -3.5084 -1.0275  0.8192
 4831SOL    HW221676   2.957   0.499   1.705  1.2856 -1.1063  0.7674
 4832SOL     OW21677   2.525   9.243   0.290 -0.2707 -0.0891  0.0773
 4832SOL    HW121678   2.546   9.163   0.346 -1.6559 -0.0996  0.6104
 4832SOL    HW221679   2.432   9.273   0.309 -0.0535  1.1435 -0.7428
 4833SOL     OW21680   0.504   0.600   0.171  0.2300  0.5914 -0.1986
 4833SOL    HW121681   0.464   0.527   0.116  0.0352  0.6222 -0.0984
 4833SOL    HW221682   0.558   0.660   0.113 -2.0642  2.1228 -0.8309
 4834SOL     OW21683   2.029   9.749   1.075 -0.4523  0.2297 -0.1007
 4834SOL    HW121684   1.958   9.691   1.034 -1.4306  2.1711 -1.1880
 4834SOL    HW221685   2.106   9.757   1.011  0.2912 -0.9778  0.6247
 4836SOL     OW21686   4.264   9.321   0.004  0.0118  0.4415  0.1397
 4836SOL    HW121687   4.292   9.350   0.095  0.0445 -3.7116  1.5739
 4836SOL    HW221688   4.171   9.283   0.008 -0.3591  1.0961 -1.7462
 4837SOL     OW21689   1.080   8.117   1.663  0.0733 -0.3896  0.6259
 4837SOL    HW121690   1.124   8.034   1.629  1.7893  0.0475  1.7346
 4837SOL    HW221691   1.086   8.188   1.593  0.6190 -0.5123  0.5439
 4838SOL     OW21692   0.118   4.835   0.811 -0.3162  0.2573 -0.5586
 4838SOL    HW121693   0.171   4.753   0.832 -2.4947 -0.9025  0.6218
 4838SOL    HW221694   0.126   4.900   0.886  0.9561  0.9285 -1.2469
 4839SOL     OW21695   8.118   7.619   0.413 -0.1667  0.2720 -0.2643
 4839SOL    HW121696   8.124   7.631   0.314  1.6265 -1.2210 -0.3562
 4839SOL    HW221697   8.122   7.708   0.458  2.2003  0.7503 -1.3985
 4840SOL     OW21698   2.391   5.014   1.497  0.2355  0.2673  0.2233
 4840SOL    HW121699   2.472   5.026   1.439  0.1430  0.9254  0.2215
 4840SOL    HW221700   2.421   4.997   1.591  0.3839 -0.7465 -0.0096
 4842SOL     OW21701   0.936   9.997   1.790  0.0479  1.0920 -0.2589
 4842SOL    HW121702   0.941   9.898   1.799 -3.4234  0.9147  0.6495
 4842SOL    HW221703   0.932  10.022   1.693  1.9453  0.4555 -0.5220
 4843SOL     OW21704   3.327   0.061   2.152 -0.2801 -0.2085  0.5057
 4843SOL    HW121705   3.366  -0.023   2.189  0.9730  0.3288  0.4417
 4843SOL    HW221706   3.374   0.140   2.192 -0.0185  0.4091 -0.9830
 4844SOL     OW21707   9.892   9.973   2.108  0.3949 -0.0517 -0.7529
 4844SOL    HW121708   9.952   9.893   2.104 -1.0811 -1.2103 -0.1379
 4844SOL    HW221709   9.809   9.956   2.055 -0.2269  0.8132 -0.0781
 4845SOL     OW21710   7.928   8.895   1.161  0.1698  0.3362  0.1028
 4845SOL    HW121711   7.990   8.969   1.133  2.0854 -0.7487  1.3388
 4845SOL    HW221712   7.957   8.810   1.117 -1.3388  0.0811 -0.4178
 4846SOL     OW21713   3.817   1.987   0.717  0.1216  0.3436 -0.1977
 4846SOL    HW121714   3.791   2.075   0.677  1.2867 -0.0097 -1.7798
 4846SOL    HW221715   3.917   1.978   0.717 -0.0167 -1.5369 -1.2905
 4847SOL     OW21716   2.637   2.568   0.118 -0.1702 -0.0171 -0.5228
 4847SOL    HW121717   2.626   2.477   0.077 -0.5479 -0.7689  1.2180
 4847SOL    HW221718   2.705   2.620   0.065  2.0361 -2.2534 -0.0069
 4848SOL     OW21719   1.884   1.042   0.865  0.1132 -0.4875 -0.5728
 4848SOL    HW121720   1.799   1.055   0.815  1.6034  0.8494 -2.8635
 4848SOL    HW221721   1.913   1.129   0.906  1.3519 -0.4544 -1.4706
 4849SOL     OW21722   3.379   5.399   1.809 -0.1098  0.5317  0.3932
 4849SOL    HW121723   3.390   5.497   1.796 -2.8861  1.0263  1.4933
 4849SOL    HW221724   3.362   5.380   1.906 -1.2292 -0.8647 -0.0664
 4850SOL     OW21725   3.928   5.446   1.912 -0.2776 -0.0608 -0.1275
 4850SOL    HW121726   3.995   5.430   1.983 -0.4867  1.5782  0.4516
 4850SOL    HW221727   3.963   5.412   1.824  1.4846  1.1490  0.0846
 4851SOL     OW21728   0.907   0.147   0.395 -0.1469  0.3377  0.0324
 4851SOL    HW121729   0.869   0.070   0.446 -0.0668  1.0439  1.1626
 4851SOL    HW221730   0.863   0.152   0.305 -0.9503 -0.3372  0.3840
 4852SOL     OW21731   1.837   4.585   2.277  0.1692  0.2224  0.2596
 4852SOL    HW121732   1.796   4.608   2.188  0.2543 -3.0010 -0.6784
 4852SOL    HW221733   1.936   4.590   2.270  0.1341  1.6135  0.6674
 4853SOL     OW21734   4.355   8.857   0.252  0.0535  0.5481  0.0368
 4853SOL    HW121735   4.330   8.760   0.245  1.5419 -0.1190  3.0204
 4853SOL    HW221736   4.366   8.896   0.161 -1.5550 -1.8177 -1.2109
 4854SOL     OW21737   0.296   2.531   2.282 -0.8727  0.2195  0.5834
 4854SOL    HW121738   0.350   2.599   2.233 -1.3062  1.0984  1.3147
 4854SOL    HW221739   0.356   2.455   2.308 -0.7116 -0.4288 -1.5831
 4855SOL     OW21740   3.790   5.651   0.336 -0.6607 -0.2950 -0.2044
 4855SOL    HW121741   3.842   5.633   0.252 -1.0427 -2.1281 -0.0643
 4855SOL    HW221742   3.731   5.730   0.322 -1.9765 -1.5771 -2.2573
 4856SOL     OW21743   2.334   6.045   1.264  0.3751 -0.4588 -0.1627
 4856SOL    HW121744   2.322   6.070   1.360  2.0654 -0.8203  0.1601
 4856SOL    HW221745   2.254   6.074   1.211  0.6325  2.2322  0.8586
 4857SOL     OW21746   0.053   0.904   0.171 -0.1447  0.3013  0.0478
 4857SOL    HW121747   0.037   0.909   0.269 -1.3914  1.2985 -0.1904
 4857SOL    HW221748   0.137   0.853   0.153 -0.5635 -0.9414  1.5681
 4859SOL     OW21749   1.953   8.634   0.507  0.0394 -0.1160 -0.1746
 4859SOL    HW121750   1.938   8.706   0.438 -1.0672 -1.4096 -1.3208
 4859SOL    HW221751   1.985   8.551   0.461  0.3399 -0.6687  1.0264
 4860SOL     OW21752   9.924   7.559   1.654  0.2885 -0.0855  0.1494
 4860SOL    HW121753   9.864   7.633   1.622  1.2148 -0.5833 -2.8772
 4860SOL    HW221754   9.875   7.472   1.652  0.1792 -0.0388  0.6612
 4861SOL     OW21755   1.436   6.191   0.495 -0.0640 -0.1222 -1.2572
 4861SOL    HW121756   1.385   6.109   0.470 -1.2602 -0.1936  1.2915
 4861SOL    HW221757   1.398   6.270   0.448 -1.2638 -0.4803 -0.8871
 4862SOL     OW21758   9.770   7.506   0.813 -0.0752  0.0200 -0.2904
 4862SOL    HW121759   9.749   7.511   0.911  0.2976 -0.2404 -0.1980
 4862SOL    HW221760   9.698   7.552   0.762 -0.3816 -0.0272  0.0930
 4863SOL     OW21761   8.381   9.308   2.204  0.0034  0.9630 -0.1982
 4863SOL    HW121762   8.383   9.378   2.276 -1.0998  1.0651 -0.2612
 4863SOL    HW221763   8.473   9.298   2.165 -0.0916  3.2642 -1.0651
 4864SOL     OW21764   2.118   9.172   1.219  0.2386  0.2005 -0.0094
 4864SOL    HW121765   2.072   9.255   1.188  0.1868  0.3617  0.4963
 4864SOL    HW221766   2.216   9.189   1.226  0.5310 -0.4139 -2.0077
 4866SOL     OW21767   7.925   1.088   1.186  0.2330  0.4723  0.0462
 4866SOL    HW121768   7.930   1.035   1.101 -1.6443  2.9544 -1.6788
 4866SOL    HW221769   8.009   1.140   1.198 -0.1118  1.3140 -1.1219
 4867SOL     OW21770   1.009   9.534   1.011  0.7237 -0.3777  0.0860
 4867SOL    HW121771   0.960   9.467   0.956  1.5522 -1.3869  0.5759
 4867SOL    HW221772   0.967   9.624   0.999 -0.7126 -1.0703 -0.1705
 4868SOL     OW21773   3.689   4.998   0.931 -0.4197  0.8111  0.3694
 4868SOL    HW121774   3.748   4.920   0.950 -1.2987 -0.1072 -0.5826
 4868SOL    HW221775   3.720   5.045   0.849 -1.7857 -0.4959 -0.9297
 4870SOL     OW21776   3.874   4.094   2.220  0.0913  0.0601 -0.6215
 4870SOL    HW121777   3.873   4.130   2.127 -0.9984  1.6866 -0.0045
 4870SOL    HW221778   3.906   4.166   2.282 -1.1047 -0.3845  0.5104
 4872SOL     OW21779   0.249   8.723   0.281  0.0805  0.4741 -0.0267
 4872SOL    HW121780   0.167   8.670   0.258  0.0208  0.4880  0.1599
 4872SOL    HW221781   0.230   8.820   0.269 -0.7178  0.6440  2.4815
 4873SOL     OW21782   9.155   7.452   0.628 -0.1574 -0.1963  0.1424
 4873SOL    HW121783   9.167   7.407   0.539 -0.3771  0.7011 -0.3535
 4873SOL    HW221784   9.231   7.429   0.688 -0.1959 -1.1096 -0.1583
 4874SOL     OW21785   4.311   9.238   2.060 -0.1179  0.2694  0.1839
 4874SOL    HW121786   4.223   9.271   2.094 -0.4179 -1.2368  0.9414
 4874SOL    HW221787   4.343   9.164   2.119  2.4966  1.9280  0.9491
 4875SOL     OW21788   4.579   1.239   0.984  0.7864 -0.0048 -0.2135
 4875SOL    HW121789   4.497   1.258   1.038 -0.1000 -1.7995 -0.8846
 4875SOL    HW221790   4.619   1.326   0.953 -1.7580  0.8789 -1.1870
 4878SOL     OW21791   1.453   8.723   0.020  0.0464 -0.2529  0.7671
 4878SOL    HW121792   1.468   8.630  -0.014 -0.9275 -0.1085 -0.0942
 4878SOL    HW221793   1.371   8.761  -0.023  1.0589  1.4205  0.2492
 4879SOL     OW21794   2.890   9.407   2.169 -0.2918  0.0937  0.3384
 4879SOL    HW121795   2.884   9.416   2.069 -1.8808  0.4860  0.4613
 4879SOL    HW221796   2.799   9.417   2.209  0.3832  0.2600  1.8619
 4880SOL     OW21797   1.720   5.391   0.912  0.0737  0.1411 -0.0064
 4880SOL    HW121798   1.655   5.467   0.910 -0.9208 -0.6975  0.0483
 4880SOL    HW221799   1.759   5.379   0.821 -1.3063 -0.5818 -0.5198
 4881SOL     OW21800   2.461   6.434   0.395 -0.0706 -0.0253  0.2175
 4881SOL    HW121801   2.403   6.506   0.433 -1.6176 -0.8175 -0.5335
 4881SOL    HW221802   2.494   6.374   0.468 -0.1050  0.5214  0.6770
 4883SOL     OW21803   2.301   4.266   0.031  0.4226 -0.0228 -0.3565
 4883SOL    HW121804   2.352   4.193  -0.015  1.3457  1.0872 -1.1094
 4883SOL    HW221805   2.334   4.355   0.000 -0.9088  0.7287  0.3149
 4884SOL     OW21806   9.612   1.158   1.074 -0.4233  0.1170 -0.2671
 4884SOL    HW121807   9.566   1.214   1.143  1.3821  0.6043  0.5844
 4884SOL    HW221808   9.651   1.077   1.118  0.1535  0.0807 -0.8400
 4886SOL     OW21809   0.034   6.858   0.233 -0.4085  0.3775  0.3248
 4886SOL    HW121810  -0.017   6.939   0.204  0.1880  1.5535  2.5311
 4886SOL    HW221811  -0.024   6.802   0.292 -1.3836 -1.6800 -2.4699
 4887SOL     OW21812   0.089   0.914   0.699  0.3681 -0.0897  0.1979
 4887SOL    HW121813   0.116   0.930   0.794  0.4271 -0.7709  0.2976
 4887SOL    HW221814  -0.010   0.918   0.691  0.3696  0.0876  0.2621
 4888SOL     OW21815   2.281   3.679   1.139 -0.5352 -0.2919  0.3776
 4888SOL    HW121816   2.220   3.614   1.093  0.2862 -0.5302 -0.4136
 4888SOL    HW221817   2.307   3.751   1.074 -0.0379 -0.1583  0.7214
 4890SOL     OW21818   9.858   8.072   1.764  0.1871 -0.0669  0.2674
 4890SOL    HW121819   9.933   8.076   1.830  0.4032  0.7702 -0.0247
 4890SOL    HW221820   9.889   8.027   1.680  0.0827 -0.5917  0.5071
 4891SOL     OW21821   0.094   3.474   1.909  0.1488  0.2325 -0.0195
 4891SOL    HW121822   0.054   3.388   1.942 -0.6888  0.4228 -0.5253
 4891SOL    HW221823   0.153   3.513   1.980  2.2115 -1.8123 -0.5724
 4892SOL     OW21824   1.529   0.986   1.569  0.0887 -1.0916 -0.2229
 4892SOL    HW121825   1.515   0.892   1.538  1.5674 -0.9997 -1.2379
 4892SOL    HW221826   1.616   1.021   1.532  0.5489 -0.0256  1.7948
 4893SOL     OW21827   0.247   9.327   0.351 -0.3385  0.0377 -0.7256
 4893SOL    HW121828   0.278   9.316   0.257 -0.0545 -1.7028 -0.4441
 4893SOL    HW221829   0.147   9.319   0.355 -0.3269 -0.1479 -0.8374
 4894SOL     OW21830   4.380   1.742   1.775 -0.4543  0.0196 -0.2653
 4894SOL    HW121831   4.429   1.718   1.859  0.2044 -0.9457 -0.9151
 4894SOL    HW221832   4.407   1.834   1.745 -0.2384  0.1257  0.2478
 4895SOL     OW21833   0.862   3.454   0.723  0.1122 -0.0264 -0.0728
 4895SOL    HW121834   0.833   3.532   0.667  0.7416 -0.7341 -1.3924
 4895SOL    HW221835   0.783   3.398   0.745 -0.4102  1.1857  1.2157
 4896SOL     OW21836   2.517   1.752   0.280  0.2671 -0.0735 -0.1619
 4896SOL    HW121837   2.571   1.814   0.223  1.2366 -2.3298 -1.7740
 4896SOL    HW221838   2.572   1.721   0.357  0.1391  0.2607  0.0627
 4897SOL     OW21839   0.871   4.660   1.726 -0.1577 -0.7811  0.1447
 4897SOL    HW121840   0.797   4.695   1.783 -0.3474  0.5218 -0.8823
 4897SOL    HW221841   0.891   4.565   1.751 -2.0407 -1.0785  0.5579
 4898SOL     OW21842   2.300   7.520   1.111  0.2463  0.3506 -0.5041
 4898SOL    HW121843   2.254   7.550   1.027  0.0688  0.6726 -0.2908
 4898SOL    HW221844   2.351   7.597   1.150  0.5295  0.1358 -0.4499
 4899SOL     OW21845   0.662   3.818   0.937  0.1416 -0.2385 -0.1213
 4899SOL    HW121846   0.580   3.876   0.941 -0.7488 -1.4143 -0.9623
 4899SOL    HW221847   0.712   3.825   1.023  0.1885  1.9642 -0.2822
 4900SOL     OW21848   3.212   5.878   0.792  0.3276 -0.4094  0.4689
 4900SOL    HW121849   3.217   5.917   0.701 -0.6747 -1.2858  0.0364
 4900SOL    HW221850   3.151   5.932   0.849  0.0826 -0.5074  0.2978
 4901SOL     OW21851   0.635   3.272   1.439 -0.5964 -0.1871  0.8651
 4901SOL    HW121852   0.712   3.329   1.468 -1.0807  0.5270  0.7473
 4901SOL    HW221853   0.662   3.175   1.445  0.5349  0.0738  0.1603
 4902SOL     OW21854   1.331   3.526   1.062 -0.3235 -0.2538  0.2405
 4902SOL    HW121855   1.331   3.602   0.998  0.0825  0.0143  0.5619
 4902SOL    HW221856   1.242   3.480   1.059 -0.8776  0.7852  0.7098
 4906SOL     OW21857   3.087   2.306   0.954 -0.3085  0.2635 -0.3955
 4906SOL    HW121858   3.063   2.386   1.008  2.5337  0.1127  1.1963
 4906SOL    HW221859   3.105   2.229   1.016  0.4155 -0.6360 -1.7158
 4907SOL     OW21860   9.394   4.806   0.399  0.0260 -0.9322 -0.1126
 4907SOL    HW121861   9.375   4.710   0.378  1.0259 -0.9903 -0.7865
 4907SOL    HW221862   9.390   4.860   0.315  1.9351 -0.8113 -0.1665
 4908SOL     OW21863   8.371   2.150   0.538  0.9806  0.4867  0.2433
 4908SOL    HW121864   8.351   2.248   0.536  0.4380  0.3713 -0.2221
 4908SOL    HW221865   8.467   2.136   0.515  0.8895  0.8701 -0.4020
 4909SOL     OW21866   9.776   9.426   0.047 -0.2065 -0.1070  0.1219
 4909SOL    HW121867   9.775   9.472  -0.042 -0.4763 -0.9824 -0.3431
 4909SOL    HW221868   9.779   9.494   0.120 -1.6127  0.6839 -0.5234
 4910SOL     OW21869   9.116   1.929   2.293  0.2019  0.0331  0.4200
 4910SOL    HW121870   9.075   1.973   2.373  1.9329  0.2985  1.1943
 4910SOL    HW221871   9.044   1.892   2.234 -1.1214  0.5146  1.7059
 4911SOL     OW21872   0.445   0.987   0.300 -0.5800 -0.1161 -0.6184
 4911SOL    HW121873   0.385   0.930   0.244 -0.9085  1.1695 -1.5881
 4911SOL    HW221874   0.448   1.080   0.263 -0.7137  0.7389  1.4237
 4913SOL     OW21875   1.749   8.543   0.659 -0.6106 -0.1055 -0.1419
 4913SOL    HW121876   1.812   8.610   0.621  0.0251  0.9300  2.6274
 4913SOL    HW221877   1.792   8.452   0.657  0.4419  0.3757  0.5267
 4914SOL     OW21878   0.145   8.000   2.290  0.2128 -0.1785 -0.1738
 4914SOL    HW121879   0.052   7.994   2.254  0.7275  0.4227 -1.6123
 4914SOL    HW221880   0.204   8.043   2.223  1.5592 -0.6296  0.7086
 4915SOL     OW21881   4.815   3.965   0.379 -0.2723  0.1439  0.1775
 4915SOL    HW121882   4.772   3.882   0.343  0.6394 -0.5844  0.7565
 4915SOL    HW221883   4.811   4.037   0.310 -3.8679  0.6137  0.7650
 4916SOL     OW21884   8.862   0.044   0.698  0.3951 -0.3248 -0.4156
 4916SOL    HW121885   8.764   0.046   0.684  0.0139 -1.3887  1.8531
 4916SOL    HW221886   8.898  -0.047   0.680  1.1635  0.2939 -2.2121
 4917SOL     OW21887   9.906   6.634   1.825  0.0563  0.3613  0.1039
 4917SOL    HW121888   9.971   6.623   1.750 -0.3428  0.5084 -0.2720
 4917SOL    HW221889   9.945   6.692   1.896  1.5461 -2.0969  1.3493
 4918SOL     OW21890   9.671   0.882   2.276  0.9673 -0.0869 -0.4257
 4918SOL    HW121891   9.654   0.858   2.371 -0.0768  1.5120 -0.1969
 4918SOL    HW221892   9.589   0.862   2.222  1.9787 -2.1801 -1.2428
 4919SOL     OW21893   9.767   8.827   0.951  1.0284 -0.2015 -0.0769
 4919SOL    HW121894   9.686   8.831   0.892  1.3774 -0.2849 -0.5655
 4919SOL    HW221895   9.792   8.731   0.967 -0.4443 -0.2478  2.1202
 4920SOL     OW21896   0.248   6.439   1.960 -0.5273  0.4803  0.0031
 4920SOL    HW121897   0.316   6.377   1.998 -2.3454 -1.3338  0.3375
 4920SOL    HW221898   0.292   6.501   1.894  1.9112  1.0924  2.1462
 4921SOL     OW21899   8.616   0.211   0.294  0.6584  0.2063  0.2088
 4921SOL    HW121900   8.637   0.220   0.391  0.9492  1.3695  0.0369
 4921SOL    HW221901   8.541   0.145   0.283 -1.0137  1.8629  1.4020
 4922SOL     OW21902   4.177   2.912   0.112 -0.6311  0.0017 -0.1759
 4922SOL    HW121903   4.191   2.859   0.028  1.5261 -0.8867  0.6992
 4922SOL    HW221904   4.164   2.849   0.189 -0.7934  0.7800  0.4432
 4923SOL     OW21905   3.987   5.408   1.486 -0.1913 -0.4746  0.0100
 4923SOL    HW121906   3.988   5.358   1.573  0.1704  0.3617  0.4880
 4923SOL    HW221907   3.997   5.505   1.504  0.0855 -0.3219 -0.9914
 4924SOL     OW21908   2.188   0.346   2.049  0.0927  0.2117  0.5120
 4924SOL    HW121909   2.251   0.360   1.973  0.4004  1.2642  0.9559
 4924SOL    HW221910   2.130   0.426   2.061 -0.4715 -0.2446  0.9099
 4925SOL     OW21911   9.257   8.588   0.700 -0.2756 -0.2032  0.4312
 4925SOL    HW121912   9.298   8.655   0.762  0.9841 -0.7200  0.1831
 4925SOL    HW221913   9.270   8.618   0.605 -1.4159  0.1509  0.3877
 4926SOL     OW21914   8.546   7.294   0.325 -0.1053  0.3977  0.1730
 4926SOL    HW121915   8.604   7.348   0.263 -0.2838 -0.9794 -1.2332
 4926SOL    HW221916   8.451   7.325   0.317 -0.1648  0.0686 -0.4233
 4927SOL     OW21917   2.739   4.382   1.027 -0.4785  0.0021  0.0587
 4927SOL    HW121918   2.654   4.333   1.011 -0.1918 -0.4499 -0.0943
 4927SOL    HW221919   2.730   4.477   0.995 -1.4184  0.3842  1.4268
 4928SOL     OW21920   7.400   9.553   2.026 -0.0472 -0.2346 -0.5673
 4928SOL    HW121921   7.359   9.638   1.994 -0.0751 -0.6595 -1.6641
 4928SOL    HW221922   7.387   9.546   2.125  0.8298  1.5072 -0.2993
 4929SOL     OW21923   2.259   0.953   1.241 -0.1151  0.1176 -0.2749
 4929SOL    HW121924   2.325   0.881   1.261  0.8479  1.0421 -0.0708
 4929SOL    HW221925   2.223   0.940   1.149  0.3373 -0.4146 -0.3790
 4930SOL     OW21926   8.784   8.022   0.205 -0.8689 -0.2928 -0.0442
 4930SOL    HW121927   8.798   7.986   0.297 -0.4299 -2.4819 -0.9546
 4930SOL    HW221928   8.833   8.109   0.195  1.2184 -1.3323  0.9771
 4931SOL     OW21929   0.916   7.859   1.406 -0.0009  0.0822  0.4084
 4931SOL    HW121930   0.905   7.953   1.376 -2.9996 -0.6506 -0.9829
 4931SOL    HW221931   0.898   7.853   1.504 -1.0426  0.7707  0.2669
 4934SOL     OW21932   3.302   3.868   0.103  0.1219  0.2526  0.6091
 4934SOL    HW121933   3.324   3.935   0.174  1.5803 -0.8616  1.2341
 4934SOL    HW221934   3.346   3.781   0.125 -0.1397 -0.3511 -1.2100
 4935SOL     OW21935   8.573   3.298   1.663  0.5082  0.2157 -0.3564
 4935SOL    HW121936   8.570   3.263   1.757  0.6387  1.0305 -0.0433
 4935SOL    HW221937   8.514   3.242   1.605 -1.1173  0.8722  0.6208
 4936SOL     OW21938   0.509   3.723   0.267  0.2009 -0.0790 -0.0445
 4936SOL    HW121939   0.448   3.726   0.188  1.0976  1.5436 -0.6850
 4936SOL    HW221940   0.494   3.803   0.325 -1.0193 -1.6482  1.8981
 4937SOL     OW21941   0.328   6.624   0.317  0.6019  0.2328  0.7604
 4937SOL    HW121942   0.392   6.654   0.246 -0.2879 -1.5837 -0.8640
 4937SOL    HW221943   0.288   6.704   0.362  0.1986  1.4666 -1.6965
 4938SOL     OW21944   1.013   6.850   1.823 -0.1147 -0.0587  0.5334
 4938SOL    HW121945   1.050   6.906   1.748  1.3638 -0.3846  0.9905
 4938SOL    HW221946   0.914   6.863   1.829 -0.1873  0.3257 -1.1735
 4939SOL     OW21947   0.307   7.382   1.900  0.3783 -0.7555  0.3133
 4939SOL    HW121948   0.329   7.317   1.827 -0.1813 -0.1668 -0.3858
 4939SOL    HW221949   0.288   7.333   1.984 -0.7487 -1.5474 -0.3893
 4940SOL     OW21950   0.652   1.689   1.931  0.4587 -0.2779  0.2349
 4940SOL    HW121951   0.683   1.622   1.999 -0.1253 -0.6317  0.1582
 4940SOL    HW221952   0.717   1.692   1.855 -0.6926 -2.4744 -0.8834
 4941SOL     OW21953   9.909   3.625   0.192  0.3608  0.3298 -0.5295
 4941SOL    HW121954   9.974   3.631   0.268  0.0622  0.5650 -0.2897
 4941SOL    HW221955   9.937   3.553   0.129  0.2859 -0.2682  0.1155
 4942SOL     OW21956   3.666   5.896   0.303 -0.1293  0.7184  0.5073
 4942SOL    HW121957   3.751   5.946   0.319  1.5539 -1.5686 -0.9894
 4942SOL    HW221958   3.601   5.917   0.376  1.4682  2.9918  1.3444
 4944SOL     OW21959   4.060   3.167   0.109 -0.2469  0.3727 -0.5337
 4944SOL    HW121960   4.097   3.074   0.116 -1.9289 -0.2164  0.9999
 4944SOL    HW221961   3.994   3.182   0.183 -0.5870  2.5188 -1.2485
 4945SOL     OW21962   0.968   5.145   1.316 -0.0623 -0.1684 -0.2607
 4945SOL    HW121963   0.979   5.066   1.376  1.3498  0.4040  0.2720
 4945SOL    HW221964   0.961   5.228   1.371 -0.2321  0.2141 -0.8483
 4946SOL     OW21965   3.719   5.471   1.410  0.3385 -0.1839  0.0369
 4946SOL    HW121966   3.653   5.435   1.477  0.9264  1.1952  1.3726
 4946SOL    HW221967   3.804   5.417   1.415  0.7320  0.5240  1.0909
 4947SOL     OW21968   9.541   3.259   0.218  0.0827 -0.3556  0.2333
 4947SOL    HW121969   9.576   3.324   0.152  0.4867 -1.4256 -0.6155
 4947SOL    HW221970   9.458   3.296   0.260  0.7054  1.0007  0.2801
 4948SOL     OW21971   8.886   7.810   0.088 -0.0978 -0.3632  0.1058
 4948SOL    HW121972   8.812   7.745   0.109  0.4575 -0.6624  1.1723
 4948SOL    HW221973   8.856   7.902   0.112  0.2578 -0.6139  1.5333
 4949SOL     OW21974   2.616   5.420   1.017 -0.2152 -0.5128 -0.7602
 4949SOL    HW121975   2.657   5.375   0.938  2.5054 -0.0158  0.3314
 4949SOL    HW221976   2.548   5.359   1.058  0.2519 -1.8414 -1.9138
 4950SOL     OW21977   0.294   7.277   2.152 -0.2049 -0.2914 -0.0296
 4950SOL    HW121978   0.347   7.336   2.213  1.4393 -1.1762 -0.5902
 4950SOL    HW221979   0.248   7.206   2.207 -0.6015  0.2979  0.4162
 4952SOL     OW21980   3.180   1.874   1.236 -0.0230 -0.5852 -0.5200
 4952SOL    HW121981   3.174   1.786   1.189  1.0264 -0.8291 -0.2190
 4952SOL    HW221982   3.265   1.877   1.290  0.0621  0.6920 -0.7115
 4954SOL     OW21983   2.146   8.683   1.266  0.0469 -0.1631 -0.5288
 4954SOL    HW121984   2.100   8.640   1.344 -0.0789 -0.1068 -0.5717
 4954SOL    HW221985   2.201   8.760   1.298  0.1821 -0.2863 -0.4659
 4955SOL     OW21986   2.527   1.453   1.197  0.4355  0.1480  0.4010
 4955SOL    HW121987   2.485   1.362   1.200  0.5564  0.0798  0.0856
 4955SOL    HW221988   2.593   1.457   1.121  2.6829 -0.4677  2.2681
 4956SOL     OW21989   9.372   8.325   0.725 -0.7099 -0.5575  0.5285
 4956SOL    HW121990   9.319   8.406   0.747 -1.3739 -1.1923  1.3063
 4956SOL    HW221991   9.469   8.350   0.715 -0.9837  0.4036  0.2507
 4958SOL     OW21992   4.091   9.422   1.501  0.2780 -0.2499 -0.4150
 4958SOL    HW121993   4.090   9.329   1.538  0.7406 -0.5384 -1.0974
 4958SOL    HW221994   4.083   9.488   1.575 -0.5247 -0.8436  0.0410
 4959SOL     OW21995  -0.001   9.115   1.754  0.2560 -0.4080  0.0994
 4959SOL    HW121996  -0.014   9.196   1.811  0.3405 -0.9949  0.9637
 4959SOL    HW221997   0.091   9.114   1.716  0.0682  0.1892 -0.3776
 4960SOL     OW21998   2.037   4.538   1.415  0.5924  0.0136  0.3936
 4960SOL    HW121999   1.997   4.449   1.435 -0.7915  0.4521 -0.3907
 4960SOL    HW222000   2.036   4.594   1.498 -0.2420 -0.0398  0.4198
 4961SOL     OW22001   9.889   4.507   1.358 -0.8224 -0.2752  0.0667
 4961SOL    HW122002   9.909   4.605   1.360  1.9305 -0.8163  0.8060
 4961SOL    HW222003   9.910   4.471   1.268 -0.7574 -0.4048  0.1341
 4965SOL     OW22004   1.824   6.489   1.769 -0.3052  0.0830  0.3493
 4965SOL    HW122005   1.816   6.556   1.842 -0.6928  0.5252 -0.0886
 4965SOL    HW222006   1.766   6.410   1.789  0.7301 -0.4582  1.2250
 4966SOL     OW22007   0.866   2.715   1.577  0.5525 -0.0227  0.1726
 4966SOL    HW122008   0.875   2.616   1.563  2.8132  0.2498 -0.4720
 4966SOL    HW222009   0.953   2.759   1.558 -0.9415  2.3402 -1.5325
 4967SOL     OW22010   0.076   1.806   0.217  0.1015  0.1341 -0.5877
 4967SOL    HW122011   0.135   1.882   0.244  2.0273 -1.5824  0.1620
 4967SOL    HW222012   0.118   1.758   0.139  0.5075 -2.0218  0.9122
 4968SOL     OW22013   2.554   0.649   0.522 -0.2308 -0.0825 -0.0771
 4968SOL    HW122014   2.499   0.566   0.509 -1.4794  0.8930 -1.1007
 4968SOL    HW222015   2.532   0.715   0.451  0.2583  1.4115  1.1293
 4969SOL     OW22016   9.091   5.039   1.393  0.1142  0.1475 -0.4351
 4969SOL    HW122017   9.128   4.965   1.449  1.0634  2.2120  1.7469
 4969SOL    HW222018   9.137   5.040   1.305 -1.2689 -3.0503 -1.2627
 4973SOL     OW22019   0.409   4.468   0.034  0.7582  0.0984 -0.3716
 4973SOL    HW122020   0.401   4.498   0.129 -0.2142  1.3611 -0.8393
 4973SOL    HW222021   0.395   4.369   0.029 -1.2511  0.3153  0.5561
 4974SOL     OW22022   8.488   3.022   0.757  0.3987  0.1061  0.1302
 4974SOL    HW122023   8.513   3.112   0.793 -1.9688  0.0967  1.9277
 4974SOL    HW222024   8.461   2.962   0.833 -2.6816 -0.5794 -1.4412
 4975SOL     OW22025   9.760   9.943   0.170 -0.5499 -0.5422  0.3246
 4975SOL    HW122026   9.812   9.881   0.228  0.8780  0.6517  0.3446
 4975SOL    HW222027   9.821   9.987   0.105 -2.2050 -2.4432 -2.6663
 4976SOL     OW22028   4.736   2.347   1.588 -0.4787 -0.5406 -1.0128
 4976SOL    HW122029   4.748   2.248   1.592 -1.9667 -0.7431 -1.2750
 4976SOL    HW222030   4.653   2.372   1.638  0.8461  0.7626  0.5534
 4978SOL     OW22031   1.789   3.090   1.665 -0.1563 -0.2774 -0.0940
 4978SOL    HW122032   1.713   3.081   1.728  0.1322 -1.2882  0.1192
 4978SOL    HW222033   1.830   3.181   1.674 -0.1179 -0.4153  1.1665
 4979SOL     OW22034   1.297   1.894   0.061 -0.0166  0.0653 -0.3483
 4979SOL    HW122035   1.335   1.808   0.094 -0.4663  0.4834  1.3267
 4979SOL    HW222036   1.238   1.877  -0.017 -0.8978 -1.2661  0.6003
 4980SOL     OW22037   1.110   7.162   0.086 -0.0503  0.7419 -0.0164
 4980SOL    HW122038   1.029   7.114   0.053  1.2606 -0.5391 -1.4198
 4980SOL    HW222039   1.166   7.192   0.009  0.0412  3.0592  0.8791
 4981SOL     OW22040   2.594   1.897   0.807  0.1709  0.4149 -0.0242
 4981SOL    HW122041   2.536   1.950   0.745  1.5057  0.9441 -0.8584
 4981SOL    HW222042   2.566   1.802   0.806 -1.1221  0.7893  0.1172
 4982SOL     OW22043   1.654   3.468   1.822 -0.7285  0.2163  0.6644
 4982SOL    HW122044   1.696   3.424   1.902  0.1562 -1.7619 -0.8391
 4982SOL    HW222045   1.721   3.529   1.780 -1.3350  1.5830  1.6648
 4983SOL     OW22046   1.921   3.120   0.825  0.6267 -0.0371 -0.7830
 4983SOL    HW122047   2.007   3.169   0.807  0.4469  0.4184 -0.4176
 4983SOL    HW222048   1.921   3.034   0.775  1.4195 -0.1678 -0.5656
 4984SOL     OW22049   0.016   7.741   1.135 -0.0263 -0.2111  0.4683
 4984SOL    HW122050  -0.072   7.727   1.179  0.1804 -0.9090  0.6674
 4984SOL    HW222051   0.002   7.779   1.043 -0.4241  1.7772  1.3354
 4985SOL     OW22052   7.579   0.266   0.241  0.2518  0.4777 -0.0417
 4985SOL    HW122053   7.632   0.181   0.240  0.8660  0.8446  0.9080
 4985SOL    HW222054   7.563   0.294   0.336 -0.8787  0.8517 -0.3292
 4986SOL     OW22055   7.922   8.228   2.307  0.7179 -0.3632  0.7761
 4986SOL    HW122056   7.967   8.271   2.386  0.8719 -0.4375  0.7296
 4986SOL    HW222057   7.848   8.287   2.275  0.2497 -0.6217  1.3674
 4987SOL     OW22058   3.879   4.424   1.251  0.0559 -0.0805 -0.1992
 4987SOL    HW122059   3.794   4.426   1.304  1.3882  0.5641  1.9517
 4987SOL    HW222060   3.949   4.374   1.301  2.0625  2.6175 -0.1577
 4989SOL     OW22061   1.523   7.024   0.074  0.3222  0.0854  0.4565
 4989SOL    HW122062   1.517   7.119   0.044 -1.8093  0.2913  1.4946
 4989SOL    HW222063   1.608   7.010   0.125  1.5251  0.9580 -1.2582
 4990SOL     OW22064   0.990   8.645   1.486  0.4605 -0.3343  0.1284
 4990SOL    HW122065   0.917   8.610   1.428  0.0333 -0.3513  0.6700
 4990SOL    HW222066   0.999   8.587   1.567  2.8363 -1.9120 -1.1861
 4991SOL     OW22067   9.175   3.018   2.232  0.5148  0.4734 -0.0997
 4991SOL    HW122068   9.116   3.085   2.276  1.5912  0.5534  1.2440
 4991SOL    HW222069   9.213   3.057   2.147 -0.5079  0.7956 -0.4149
 4992SOL     OW22070   1.539   3.106   0.196 -0.0450 -0.0362 -0.0687
 4992SOL    HW122071   1.635   3.130   0.212 -0.4667 -1.1116  4.6614
 4992SOL    HW222072   1.482   3.188   0.205  0.2239  0.2657 -1.0538
 4993SOL     OW22073   4.376   1.382   1.829  0.2105  0.5538 -0.3715
 4993SOL    HW122074   4.322   1.316   1.776  0.5176 -0.4998  0.6041
 4993SOL    HW222075   4.464   1.341   1.853  0.7503  1.6365 -0.4735
 4994SOL     OW22076   2.154   7.676   1.552 -0.2926  0.8377 -0.3024
 4994SOL    HW122077   2.200   7.587   1.559 -0.7609  0.4620 -1.6612
 4994SOL    HW222078   2.213   7.748   1.588  0.9451  0.2391 -1.1000
 4995SOL     OW22079   9.897   6.782   0.710  0.3437  0.1990 -0.0872
 4995SOL    HW122080   9.799   6.800   0.701  0.0067 -2.0886 -1.2867
 4995SOL    HW222081   9.940   6.858   0.759 -1.6724  2.1786 -1.2832
 4996SOL     OW22082   3.410   3.448   0.532 -0.4062  0.5471  0.0295
 4996SOL    HW122083   3.352   3.486   0.604 -1.0181 -1.1548  0.4574
 4996SOL    HW222084   3.488   3.401   0.573  0.5025  1.5678 -0.5012
 4997SOL     OW22085   8.206   1.052   1.558  0.1179  0.3023  0.3144
 4997SOL    HW122086   8.149   1.038   1.638  0.1146  0.1442  0.2851
 4997SOL    HW222087   8.292   1.001   1.568  0.1068  0.2616  0.2064
 4998SOL     OW22088   8.007   0.152   2.199 -0.0622 -0.0520  0.7900
 4998SOL    HW122089   7.914   0.169   2.230 -0.5292  0.3431 -0.7836
 4998SOL    HW222090   8.023   0.053   2.195 -0.3944 -0.1197  1.1285
 5000SOL     OW22091   0.266   4.405   2.247 -0.0127 -0.0240  0.1286
 5000SOL    HW122092   0.210   4.446   2.175  2.2640 -1.2167 -2.4002
 5000SOL    HW222093   0.271   4.306   2.233  0.2643 -0.3173  2.1046
 5001SOL     OW22094   0.863   4.786   0.407  0.3961  0.5004  1.0356
 5001SOL    HW122095   0.942   4.824   0.359  1.8107 -1.6150  1.6066
 5001SOL    HW222096   0.841   4.842   0.487  2.2620  0.2989  1.7114
 5002SOL     OW22097   9.793   3.677   1.402 -0.5237 -0.1887 -0.1890
 5002SOL    HW122098   9.721   3.736   1.365  1.3179  1.8093 -0.6369
 5002SOL    HW222099   9.802   3.692   1.500  1.8350  2.4319 -0.7365
 5004SOL     OW22100   0.365   2.117   1.730  0.1033 -0.5528  0.1922
 5004SOL    HW122101   0.413   2.033   1.757  1.2099  0.2488  0.7675
 5004SOL    HW222102   0.273   2.094   1.700  0.1909 -1.9214  0.9041
 5005SOL     OW22103   0.421   6.324   1.522  0.0184  0.2145  0.3561
 5005SOL    HW122104   0.460   6.409   1.487  0.9382 -0.6642 -0.7675
 5005SOL    HW222105   0.462   6.303   1.611  1.0259  0.0750 -0.1338
 5006SOL     OW22106   3.431   1.949   1.329 -0.0614 -0.3834  0.3421
 5006SOL    HW122107   3.436   1.994   1.419 -2.2396  0.3017  0.1548
 5006SOL    HW222108   3.450   2.016   1.258 -1.7008 -0.0975  0.1462
 5007SOL     OW22109   1.691   0.102   2.030 -0.1068  0.3925 -1.0341
 5007SOL    HW122110   1.650   0.108   1.939 -1.7370  0.7179 -0.3007
 5007SOL    HW222111   1.626   0.136   2.098  0.0498 -2.3251  0.5437
 5008SOL     OW22112   4.313   0.588   0.834 -0.7500 -0.1709  0.4511
 5008SOL    HW122113   4.408   0.617   0.824 -1.0442  0.7765  0.3392
 5008SOL    HW222114   4.310   0.492   0.859  0.1909 -0.8529 -1.9168
 5009SOL     OW22115   0.812   0.433   2.178 -0.4668 -0.0977 -0.6829
 5009SOL    HW122116   0.860   0.483   2.251  1.6081 -2.6749 -0.1767
 5009SOL    HW222117   0.835   0.472   2.089 -0.5094  1.1224 -0.1603
 5010SOL     OW22118   9.570   9.177   1.227 -0.0438  0.5106  0.6321
 5010SOL    HW122119   9.575   9.231   1.144  1.0303 -1.0675 -0.3683
 5010SOL    HW222120   9.660   9.177   1.272 -0.2386  0.1985  1.0284
 5011SOL     OW22121   9.105   2.048   1.698 -0.2237  0.2349  0.5845
 5011SOL    HW122122   9.148   2.127   1.741  0.2865  0.4185 -0.2574
 5011SOL    HW222123   9.006   2.051   1.715 -0.1638  0.8711  0.8356
 5013SOL     OW22124   1.970   7.219   0.269  0.0448 -0.5585  0.4142
 5013SOL    HW122125   2.005   7.267   0.349 -0.7080 -0.4907  0.7075
 5013SOL    HW222126   1.973   7.279   0.190 -0.5489 -0.1521  0.7008
 5015SOL     OW22127   4.388   3.522   0.585 -0.4317  0.2502 -0.2214
 5015SOL    HW122128   4.479   3.547   0.619 -0.1651 -0.4808 -0.3853
 5015SOL    HW222129   4.344   3.604   0.547  0.1454  0.6190 -0.1197
 5017SOL     OW22130   9.553   8.876   1.631 -0.3779 -0.1550  0.5375
 5017SOL    HW122131   9.493   8.949   1.601  0.6071  1.7756  3.0425
 5017SOL    HW222132   9.645   8.912   1.647  0.9998 -2.6448 -1.3531
 5018SOL     OW22133   8.682   7.499   0.813 -0.3177 -0.0535 -0.3603
 5018SOL    HW122134   8.709   7.407   0.841 -0.9779 -0.0146  0.4391
 5018SOL    HW222135   8.711   7.515   0.719  1.2139 -0.4886  0.0305
 5020SOL     OW22136   1.247   3.312   0.801 -0.0372 -0.2065 -0.1154
 5020SOL    HW122137   1.188   3.243   0.759 -0.5645  0.9471 -1.2868
 5020SOL    HW222138   1.275   3.281   0.892  0.1772 -2.2176 -0.8381
 5022SOL     OW22139   1.444   6.106   0.776  0.0233 -0.7751  0.4489
 5022SOL    HW122140   1.352   6.071   0.792 -0.3407 -0.2193 -0.4014
 5022SOL    HW222141   1.455   6.128   0.679  0.9294 -0.4952  0.6128
 5024SOL     OW22142   9.366   9.959   1.600 -0.2463  0.1184  0.4215
 5024SOL    HW122143   9.319   9.973   1.512  0.6960 -0.2301 -0.1420
 5024SOL    HW222144   9.381  10.047   1.644 -1.3276  0.2437  0.5512
 5026SOL     OW22145   4.060   0.241   2.100 -0.2472  0.7610  0.3062
 5026SOL    HW122146   4.084   0.266   2.194  1.4882  0.4521 -0.0290
 5026SOL    HW222147   4.106   0.156   2.076 -1.8078  0.0964 -0.3644
 5027SOL     OW22148   0.241   5.565   0.019 -0.0610  0.1306  0.7859
 5027SOL    HW122149   0.293   5.481   0.036  1.1715  0.4506 -1.3200
 5027SOL    HW222150   0.151   5.541  -0.019  0.5572 -0.2126 -0.4786
 5028SOL     OW22151   1.269   0.224   1.552  0.0551  0.0956  0.3310
 5028SOL    HW122152   1.233   0.281   1.477 -3.1092 -2.2743 -0.0807
 5028SOL    HW222153   1.242   0.263   1.640  1.2091  1.2730  0.1754
 5029SOL     OW22154   0.081   1.768   1.686  0.0579  0.2407 -0.4086
 5029SOL    HW122155   0.103   1.672   1.668  1.0925  0.1427  1.2473
 5029SOL    HW222156  -0.017   1.776   1.706  0.2954 -0.8023  1.3425
 5031SOL     OW22157   1.968   2.899   1.785 -0.5119 -0.0688  0.4352
 5031SOL    HW122158   1.907   2.956   1.730 -1.1404  0.1113  1.3048
 5031SOL    HW222159   1.978   2.939   1.876  0.7143 -0.2324  0.3878
 5033SOL     OW22160   2.643   3.521   2.209  0.5382  0.2321 -0.3098
 5033SOL    HW122161   2.656   3.468   2.125 -1.6071 -1.4130  0.3513
 5033SOL    HW222162   2.693   3.608   2.202  0.5520  0.0404 -3.1860
 5034SOL     OW22163   0.578   8.573   1.100  0.1769  0.4940 -0.1973
 5034SOL    HW122164   0.649   8.506   1.075 -0.1464  0.2433 -0.4447
 5034SOL    HW222165   0.533   8.606   1.017  1.3824  2.1857 -0.1949
 5035SOL     OW22166   0.905   9.432   1.292  0.5809  0.5417  0.2751
 5035SOL    HW122167   0.919   9.389   1.203  0.3666  2.1121 -0.5244
 5035SOL    HW222168   0.992   9.466   1.327  0.5191  0.7499  0.2299
 5036SOL     OW22169   4.162   2.084   1.898 -0.2862 -0.0912  0.6394
 5036SOL    HW122170   4.250   2.124   1.925 -0.0364  0.2537 -0.6424
 5036SOL    HW222171   4.113   2.053   1.980 -0.0987  2.0312  1.6147
 5039SOL     OW22172   0.602   7.527   0.449 -0.2868 -0.1555  0.5407
 5039SOL    HW122173   0.686   7.479   0.473 -0.6963 -1.0834  0.1259
 5039SOL    HW222174   0.538   7.464   0.406 -0.3241  1.0394 -1.2037
 5041SOL     OW22175   2.339   8.923   0.133  0.1003 -0.1439  0.0794
 5041SOL    HW122176   2.333   9.022   0.145  1.0098 -0.1050  0.2496
 5041SOL    HW222177   2.293   8.878   0.209  0.9732  0.1375  0.7811
 5042SOL     OW22178   3.138   3.166   0.052  0.3226  0.2189  0.6797
 5042SOL    HW122179   3.201   3.141   0.125 -1.5007 -1.1803  1.8043
 5042SOL    HW222180   3.046   3.178   0.089 -0.6036 -0.3877 -1.3305
 5043SOL     OW22181   2.755   2.301   0.825  0.3607  0.4631 -0.6772
 5043SOL    HW122182   2.837   2.255   0.791 -1.2970 -3.5165  0.4809
 5043SOL    HW222183   2.710   2.348   0.749  1.9865  0.0115 -1.9566
 5044SOL     OW22184   2.505   0.280   2.209  0.1743  0.7001  0.5197
 5044SOL    HW122185   2.502   0.231   2.297 -0.7974  1.7425  1.0790
 5044SOL    HW222186   2.412   0.297   2.177  0.5271  0.2529 -0.7730
 5045SOL     OW22187   2.557   5.646   2.093 -0.1577  0.0157 -0.0949
 5045SOL    HW122188   2.601   5.653   2.004 -0.4922  0.7884 -0.2021
 5045SOL    HW222189   2.608   5.582   2.151  0.8351  0.5442 -0.3777
 5049SOL     OW22190   8.549   4.346   2.099 -0.1516  0.0589  0.1718
 5049SOL    HW122191   8.489   4.312   2.027  0.3096 -0.4560  0.0326
 5049SOL    HW222192   8.629   4.287   2.107  1.1701  1.6782 -0.7838
 5050SOL     OW22193   1.989   0.663   1.819 -0.3406 -0.5984  0.1443
 5050SOL    HW122194   2.058   0.735   1.809 -0.2330 -0.9971 -2.1426
 5050SOL    HW222195   1.914   0.680   1.755 -1.0798 -1.6497  0.7190
 5051SOL     OW22196   2.888   1.618   2.239  0.4188  0.0862 -0.4679
 5051SOL    HW122197   2.832   1.654   2.165  1.9754 -0.1593 -1.7961
 5051SOL    HW222198   2.950   1.689   2.271  0.3621 -0.0731 -0.0047
 5052SOL     OW22199   2.221   9.162   0.203  0.2110 -0.5518 -0.4627
 5052SOL    HW122200   2.242   9.256   0.231  2.0082 -0.8681 -0.7089
 5052SOL    HW222201   2.133   9.135   0.241 -0.7742  1.5636 -1.1546
 5053SOL     OW22202   1.483   3.925   2.262 -0.2593 -0.3062  0.5472
 5053SOL    HW122203   1.467   3.826   2.260 -2.2678  0.0086 -0.7151
 5053SOL    HW222204   1.475   3.962   2.169 -0.4698  1.1759  1.1368
 5054SOL     OW22205   1.598   9.534   1.064 -1.0451 -0.1142  0.0395
 5054SOL    HW122206   1.651   9.585   0.997 -3.2292  2.1168 -0.0508
 5054SOL    HW222207   1.541   9.466   1.017 -2.1083  1.0197 -0.3213
 5055SOL     OW22208   0.240   8.323   2.247  0.5814  0.3949  0.2221
 5055SOL    HW122209   0.270   8.398   2.188  0.7781 -0.6288 -1.0105
 5055SOL    HW222210   0.256   8.236   2.200 -2.2992 -0.3011  0.4321
 5056SOL     OW22211   1.795   5.439   1.339 -0.1253  0.8364 -0.0302
 5056SOL    HW122212   1.762   5.359   1.289 -0.5763  1.4493 -0.7289
 5056SOL    HW222213   1.873   5.413   1.396  0.8997  0.3039 -1.6527
 5057SOL     OW22214   9.123   4.311   2.205  0.2617  0.1777  1.0129
 5057SOL    HW122215   9.031   4.311   2.244 -0.3893  0.9437 -0.4723
 5057SOL    HW222216   9.187   4.350   2.271 -0.6290  0.4172  1.7443
 5058SOL     OW22217   7.707   0.639   0.444  0.2881 -0.9798  0.0223
 5058SOL    HW122218   7.709   0.605   0.350  0.7438 -0.5647 -0.1167
 5058SOL    HW222219   7.623   0.607   0.489  0.4361 -1.8092 -0.2832
 5060SOL     OW22220   0.275   6.371   0.772  0.9396 -0.5111  0.1527
 5060SOL    HW122221   0.178   6.353   0.792  0.4096  1.2786 -0.7005
 5060SOL    HW222222   0.298   6.332   0.684  0.3326  1.1548 -0.7621
 5061SOL     OW22223   0.860   1.362   1.685 -0.3338 -0.0788  0.0340
 5061SOL    HW122224   0.766   1.387   1.710 -0.6248 -1.0583 -0.0674
 5061SOL    HW222225   0.905   1.441   1.642 -1.5900 -0.0708 -1.2880
 5062SOL     OW22226   8.327   6.655   0.813 -0.4459  0.4629 -0.3070
 5062SOL    HW122227   8.410   6.709   0.824 -0.0057 -0.3879  0.6347
 5062SOL    HW222228   8.288   6.671   0.722  0.1391  1.7025 -0.3444
 5065SOL     OW22229   9.816   9.963   0.466  0.0190 -0.0380  0.0435
 5065SOL    HW122230   9.907   9.951   0.505  0.3986 -0.8007 -1.0383
 5065SOL    HW222231   9.820  10.035   0.396 -0.3580  0.4036  0.4787
 5066SOL     OW22232   9.078   8.063   1.262  0.3186  0.2184  0.3882
 5066SOL    HW122233   9.140   8.036   1.188  1.1004 -1.0237  1.4810
 5066SOL    HW222234   8.983   8.051   1.232  0.5773  1.7775 -1.1631
 5067SOL     OW22235   9.313   4.049   1.548  0.4853  0.2634 -0.6386
 5067SOL    HW122236   9.278   4.035   1.456  0.4910 -1.2195 -0.4195
 5067SOL    HW222237   9.379   3.978   1.571 -0.9304 -0.5007  1.2076
 5068SOL     OW22238   0.990   2.116   1.605  0.4793 -0.3815  0.1898
 5068SOL    HW122239   0.968   2.048   1.535  2.0193 -0.6122 -0.0749
 5068SOL    HW222240   1.085   2.106   1.634  0.8122  1.8032 -0.0375
 5069SOL     OW22241   8.310   2.631   0.677  0.5038 -0.4622  0.3304
 5069SOL    HW122242   8.330   2.715   0.627 -0.5601 -0.2163  0.3065
 5069SOL    HW222243   8.300   2.555   0.613 -1.0254 -0.1153  0.1438
 5071SOL     OW22244   1.691   4.670   0.159  0.5190  0.3408  0.3167
 5071SOL    HW122245   1.694   4.768   0.179  2.2113  0.4060 -0.1621
 5071SOL    HW222246   1.716   4.655   0.063  2.8822 -0.7339  1.0632
 5074SOL     OW22247   8.455   7.819   1.711  0.1856  0.1690 -0.2209
 5074SOL    HW122248   8.527   7.829   1.779 -0.5229  1.0419  0.4150
 5074SOL    HW222249   8.392   7.897   1.717  0.4941  0.6159 -2.3427
 5075SOL     OW22250   0.259   1.880   2.311 -0.0730 -0.6740 -0.8468
 5075SOL    HW122251   0.316   1.798   2.322 -1.2531 -1.6208 -1.6832
 5075SOL    HW222252   0.166   1.853   2.286 -0.3194  0.9482 -1.7492
 5076SOL     OW22253   1.439   4.797   0.300  0.5716  0.0693 -0.1751
 5076SOL    HW122254   1.413   4.730   0.230  0.1872 -1.7205  1.6496
 5076SOL    HW222255   1.452   4.886   0.257  1.2659 -1.1922 -2.6944
 5077SOL     OW22256   0.818   6.351   1.663  0.1219 -0.1824  0.1808
 5077SOL    HW122257   0.918   6.348   1.653  0.1580  1.2544  0.0141
 5077SOL    HW222258   0.781   6.259   1.650  1.3634 -0.6045 -0.5070
 5078SOL     OW22259   0.637   4.555   0.230  0.1396 -0.3214 -0.4896
 5078SOL    HW122260   0.621   4.610   0.313 -1.1152 -0.9205 -0.3224
 5078SOL    HW222261   0.732   4.522   0.230 -0.0092 -0.8191  1.0203
 5079SOL     OW22262   1.259   6.934   0.640 -0.2501 -0.1547  0.3137
 5079SOL    HW122263   1.333   6.901   0.582 -0.7689 -0.6552 -0.0652
 5079SOL    HW222264   1.269   7.032   0.653  0.4279 -0.2008  0.1889
 5082SOL     OW22265   1.489   7.654   1.201  0.3018 -0.3161 -0.1876
 5082SOL    HW122266   1.585   7.665   1.175  0.1832  0.5066 -0.2916
 5082SOL    HW222267   1.481   7.656   1.301  0.2540  0.8535 -0.2083
 5083SOL     OW22268   9.362   6.770   0.716 -0.0895 -0.1263 -0.1439
 5083SOL    HW122269   9.310   6.833   0.773  0.0799  0.7216 -0.9044
 5083SOL    HW222270   9.330   6.777   0.621  1.6506  0.6778 -0.6860
 5085SOL     OW22271   1.120   6.974   1.131  0.4140 -0.4989  0.2134
 5085SOL    HW122272   1.047   7.038   1.107  0.0694 -0.5181  1.1845
 5085SOL    HW222273   1.204   6.998   1.082  0.3257  0.7751  0.6784
 5086SOL     OW22274   8.848   8.361   1.879 -0.0370 -0.1876  0.0521
 5086SOL    HW122275   8.820   8.431   1.945  0.9715  0.7703 -0.4997
 5086SOL    HW222276   8.948   8.359   1.875  0.0334 -3.2062  1.6705
 5087SOL     OW22277   3.536   3.297   1.126  0.1827 -0.3473  0.1814
 5087SOL    HW122278   3.535   3.282   1.027  0.1945  0.6220  0.0239
 5087SOL    HW222279   3.505   3.214   1.173  1.0937 -1.1337 -0.5842
 5088SOL     OW22280   2.375   4.978   0.312  0.0926  0.5197 -0.3639
 5088SOL    HW122281   2.407   4.928   0.392 -1.0706 -0.0313 -0.2493
 5088SOL    HW222282   2.350   5.071   0.339  0.0569  0.4524 -0.1673
 5089SOL     OW22283   4.614   0.807   1.501 -0.1773 -0.3649 -0.6982
 5089SOL    HW122284   4.555   0.765   1.432  2.2336 -1.5283 -2.1257
 5089SOL    HW222285   4.652   0.736   1.560  0.5050  0.2684 -0.3672
 5095SOL     OW22286   1.690   7.313   0.657  0.5566  0.1360 -0.0611
 5095SOL    HW122287   1.672   7.407   0.687 -1.9628 -0.5568  0.7260
 5095SOL    HW222288   1.715   7.313   0.561 -0.6428  1.5234 -0.3948
 5096SOL     OW22289   0.996   5.770   1.427  0.2666  0.0586  0.0163
 5096SOL    HW122290   0.945   5.786   1.342  1.2253  0.1337 -0.5492
 5096SOL    HW222291   0.931   5.758   1.502 -0.5511  1.7625 -0.3961
 5097SOL     OW22292   8.770   2.202   0.899 -0.0257  0.0276  0.2531
 5097SOL    HW122293   8.702   2.129   0.894  0.8624 -0.8994  1.4232
 5097SOL    HW222294   8.783   2.229   0.995  1.6254 -0.1742  0.1056
 5098SOL     OW22295   0.766   9.555   2.132 -0.7871 -0.3183 -0.1525
 5098SOL    HW122296   0.736   9.576   2.039  1.1943  0.5424 -0.6053
 5098SOL    HW222297   0.761   9.456   2.147  1.6823 -0.8012 -2.1663
 5099SOL     OW22298   2.807   1.997   1.393  0.0677 -0.0884  0.5383
 5099SOL    HW122299   2.825   2.069   1.325  0.5858 -0.8676 -0.1505
 5099SOL    HW222300   2.816   2.036   1.484  2.2563  0.2906  0.1886
 5100SOL     OW22301   1.092   8.903   0.901 -0.0218 -0.0891 -0.0065
 5100SOL    HW122302   1.083   8.915   1.000  1.9054 -1.2836  0.3296
 5100SOL    HW222303   1.103   8.992   0.858 -2.2761  0.5712  0.6783
 5101SOL     OW22304   2.717   7.857   1.619  0.2459 -0.5399  0.0110
 5101SOL    HW122305   2.809   7.845   1.580  0.3373  0.9226 -0.2524
 5101SOL    HW222306   2.657   7.785   1.586  1.2013 -1.2690 -0.1447
 5103SOL     OW22307   2.522   4.074   0.368 -0.1904 -0.0429 -0.1201
 5103SOL    HW122308   2.532   3.985   0.323  0.7125 -0.5282  1.0112
 5103SOL    HW222309   2.526   4.061   0.467  1.1391  1.4003  0.0257
 5104SOL     OW22310   8.645   3.284   0.795 -0.3024  0.5659 -1.0273
 5104SOL    HW122311   8.680   3.367   0.839  1.7702 -0.6208 -0.3894
 5104SOL    HW222312   8.704   3.260   0.718 -0.7444 -0.4994 -1.0328
 5105SOL     OW22313   3.534   5.078   1.142 -0.1329 -0.3603  0.1520
 5105SOL    HW122314   3.597   5.036   1.076 -1.0532 -2.0702  0.3185
 5105SOL    HW222315   3.541   5.177   1.137  0.8520 -0.4988 -1.5049
 5106SOL     OW22316   1.470   4.083   0.679 -0.3877 -0.5256 -0.0436
 5106SOL    HW122317   1.498   4.157   0.740  1.3247  0.8849 -2.4626
 5106SOL    HW222318   1.505   3.996   0.713  1.6104  0.4121  0.3175
 5107SOL     OW22319   3.087   1.053   1.923 -0.1669  0.0595 -0.0659
 5107SOL    HW122320   3.129   1.122   1.982 -2.4799 -0.9414  2.8702
 5107SOL    HW222321   3.152   0.978   1.908 -0.0685 -0.3971  2.5077
 5108SOL     OW22322   8.379   7.376   1.369  0.1525 -0.3130 -0.8469
 5108SOL    HW122323   8.376   7.475   1.355  1.2455 -0.1431  0.0418
 5108SOL    HW222324   8.470   7.350   1.403  0.0730 -1.6915 -1.6338
 5109SOL     OW22325   0.628   2.619   0.668  0.3923  0.0986  0.3921
 5109SOL    HW122326   0.690   2.597   0.743  0.9320 -1.9097 -0.6049
 5109SOL    HW222327   0.642   2.714   0.640  2.3950 -0.0685  0.7710
 5112SOL     OW22328   1.500   9.939   1.221  0.4551 -0.5467  0.3995
 5112SOL    HW122329   1.530   9.852   1.261  0.4290 -0.1731  1.2613
 5112SOL    HW222330   1.446   9.921   1.139 -1.1276 -1.4548  1.5802
 5114SOL     OW22331   9.949   0.101   0.010 -0.7096  0.0312 -0.4713
 5114SOL    HW122332  10.027   0.038   0.001 -2.2225 -1.8168 -0.9936
 5114SOL    HW222333   9.928   0.141  -0.079 -0.4232  0.4501 -0.3508
 5115SOL     OW22334   3.245   4.614   0.983 -0.3781 -0.6711  0.3517
 5115SOL    HW122335   3.158   4.656   1.007 -0.2335 -0.3141  0.2531
 5115SOL    HW222336   3.313   4.635   1.054  0.4992  1.7599 -1.1580
 5116SOL     OW22337   8.394   2.462   1.731 -0.5473 -0.1924  0.0794
 5116SOL    HW122338   8.317   2.503   1.682 -0.4036  0.3327  0.2941
 5116SOL    HW222339   8.376   2.461   1.829 -0.4343 -0.3983  0.1003
 5117SOL     OW22340   0.044   4.019   0.136 -0.5335 -0.1764 -0.3831
 5117SOL    HW122341  -0.019   3.943   0.154  1.5982 -1.8990 -0.0253
 5117SOL    HW222342   0.094   4.000   0.052  2.0587 -0.5733  1.2141
 5119SOL     OW22343   2.892   7.696   2.189 -0.2725  0.1875 -0.0863
 5119SOL    HW122344   2.926   7.781   2.148  0.1247 -0.1794 -0.5309
 5119SOL    HW222345   2.948   7.673   2.269  0.1295 -0.0766 -0.4398
 5120SOL     OW22346   0.628   3.785   2.098  0.1526 -0.3304 -0.4707
 5120SOL    HW122347   0.572   3.703   2.110 -1.0079  0.5031 -0.2089
 5120SOL    HW222348   0.716   3.758   2.059  1.3041 -2.2178  3.1470
 5121SOL     OW22349   8.789   7.204   0.035  0.0772 -1.1308 -0.1144
 5121SOL    HW122350   8.875   7.244   0.003  0.6015 -0.6024  1.8463
 5121SOL    HW222351   8.712   7.257   0.001  0.7065  0.6895  1.2651
 5122SOL     OW22352   3.568   8.517   0.360 -0.1004  0.0183 -0.9306
 5122SOL    HW122353   3.575   8.426   0.402  1.8841  0.5197 -0.1236
 5122SOL    HW222354   3.607   8.585   0.422 -1.5628  1.4376 -1.5364
 5124SOL     OW22355   1.048   2.252   0.357 -0.1652 -0.3846  0.0436
 5124SOL    HW122356   1.089   2.172   0.313 -1.3187 -0.1476 -1.4722
 5124SOL    HW222357   0.954   2.230   0.385 -0.7144  0.6471 -0.9734
 5125SOL     OW22358   4.103   1.752   0.686 -0.6429 -0.0232  0.1952
 5125SOL    HW122359   4.047   1.767   0.604  1.6172 -1.7231 -1.7343
 5125SOL    HW222360   4.119   1.654   0.698  0.3146  0.3116  1.8104
 5127SOL     OW22361   1.263   0.578   1.211  0.2228 -0.5197 -0.1807
 5127SOL    HW122362   1.225   0.606   1.122 -1.1704  0.8597  0.8102
 5127SOL    HW222363   1.306   0.657   1.255  1.9373 -1.4689 -0.1175
 5128SOL     OW22364   1.737   5.673   2.200  0.4287 -0.2231 -0.0494
 5128SOL    HW122365   1.757   5.613   2.123 -1.6811  0.5721 -1.2552
 5128SOL    HW222366   1.729   5.619   2.284 -1.3113 -1.6571 -1.0915
 5132SOL     OW22367   0.521   4.902   0.032 -0.1831 -0.4929 -0.1104
 5132SOL    HW122368   0.522   4.984  -0.025  0.0918  0.6571  1.5172
 5132SOL    HW222369   0.614   4.871   0.048 -0.0693  0.7759  1.9083
 5133SOL     OW22370   3.176   8.352   0.797  0.2541 -0.1431  0.2677
 5133SOL    HW122371   3.157   8.422   0.866 -0.9631 -0.5292  0.3292
 5133SOL    HW222372   3.179   8.262   0.841 -0.8822 -0.4312 -0.2260
 5134SOL     OW22373   3.334   5.470   1.437  0.5184  0.6216 -0.0370
 5134SOL    HW122374   3.418   5.442   1.484  0.6212  1.0570  0.0400
 5134SOL    HW222375   3.264   5.492   1.505 -0.4741 -2.1371 -0.0896
 5135SOL     OW22376   4.934   4.444   0.069  0.5801  0.5057 -0.2305
 5135SOL    HW122377   4.943   4.501  -0.012  1.6388  0.8349  0.1149
 5135SOL    HW222378   4.930   4.348   0.042  0.8995  0.6149 -0.6791
 5136SOL     OW22379   0.168   4.359   1.148  0.1405  0.0779 -0.1119
 5136SOL    HW122380   0.169   4.259   1.152  0.0718  0.0248 -1.2900
 5136SOL    HW222381   0.080   4.389   1.110 -0.2266  0.6241  1.1478
 5137SOL     OW22382   3.242   9.904   0.967 -0.2901 -0.4144 -0.5518
 5137SOL    HW122383   3.339   9.886   0.956 -0.3393 -1.5419  0.7503
 5137SOL    HW222384   3.191   9.862   0.892  0.2748  0.8053 -1.6384
 5138SOL     OW22385   4.090   4.714   0.866 -0.4269  0.0322  0.7166
 5138SOL    HW122386   4.086   4.723   0.965 -1.6397  1.4229  0.5627
 5138SOL    HW222387   4.015   4.766   0.825  0.0362 -0.5642 -0.9240
 5139SOL     OW22388   3.668   0.916   0.276 -0.4129 -0.1581 -0.4377
 5139SOL    HW122389   3.575   0.938   0.245 -0.1532  0.9758 -0.4589
 5139SOL    HW222390   3.721   1.001   0.284  0.9279 -0.8816 -1.4039
 5140SOL     OW22391   2.001   6.131   1.131 -0.3379  0.0472 -0.1877
 5140SOL    HW122392   2.034   6.225   1.127 -2.5871  0.9217  0.9968
 5140SOL    HW222393   1.940   6.114   1.054  2.8966 -1.6392 -2.5076
 5141SOL     OW22394   3.433   2.488   0.917  0.3907  0.5254 -0.0270
 5141SOL    HW122395   3.358   2.554   0.913 -0.1663 -0.0741  0.4644
 5141SOL    HW222396   3.473   2.478   0.826 -0.2732  0.6708 -0.3374
 5142SOL     OW22397   0.361   9.756   0.922 -0.0157  0.1936  0.5106
 5142SOL    HW122398   0.432   9.698   0.961 -0.4465 -1.0599 -0.5146
 5142SOL    HW222399   0.280   9.700   0.901  0.8082  0.4289 -3.8097
 5143SOL     OW22400   9.086   5.608   1.919 -0.0692 -0.3557 -0.2631
 5143SOL    HW122401   9.051   5.701   1.932  1.2903  0.0483  0.6419
 5143SOL    HW222402   9.132   5.579   2.002  0.1064 -1.5937 -0.7912
 5144SOL     OW22403   0.512   7.753   0.571  0.3777  0.2052  0.1931
 5144SOL    HW122404   0.559   7.671   0.536  0.2659  0.2881 -0.1593
 5144SOL    HW222405   0.535   7.831   0.513 -1.7090 -0.1376 -1.1654
 5145SOL     OW22406   1.779   0.664   1.633  0.6031 -0.1575 -0.9454
 5145SOL    HW122407   1.790   0.614   1.547  1.3502  0.7949 -1.4267
 5145SOL    HW222408   1.692   0.641   1.675  0.7194 -1.4685 -1.4080
 5146SOL     OW22409   9.962   7.389   2.178  0.0803  0.3349  0.6686
 5146SOL    HW122410   9.903   7.375   2.098  2.3241  0.7737 -1.1212
 5146SOL    HW222411   9.966   7.305   2.232 -0.0504 -0.5391 -0.6610
 5147SOL     OW22412   9.319   8.222   2.225 -0.2101 -0.0947  0.2832
 5147SOL    HW122413   9.365   8.135   2.245 -1.0404  0.0682  2.9519
 5147SOL    HW222414   9.357   8.259   2.140  3.0369 -1.0472  1.2246
 5148SOL     OW22415   0.631   9.059   0.851 -0.1742 -0.2836  0.0020
 5148SOL    HW122416   0.705   9.103   0.801 -0.2572 -0.9115 -0.6838
 5148SOL    HW222417   0.595   8.983   0.797 -0.6761 -0.5827  0.7475
 5149SOL     OW22418   0.932   8.282   0.306  0.7344 -0.0019  0.0481
 5149SOL    HW122419   0.952   8.215   0.234  1.3049 -1.2151  1.3215
 5149SOL    HW222420   0.844   8.326   0.287  0.8728 -0.3156 -1.3784
 5150SOL     OW22421   2.682   0.991   2.279 -0.4732  0.1365  0.2981
 5150SOL    HW122422   2.776   0.995   2.244 -0.2059  2.1802  1.1931
 5150SOL    HW222423   2.632   1.072   2.248 -1.2553  0.2132  1.7706
 5151SOL     OW22424   9.473   0.616   1.781  0.3334 -0.5094 -0.2577
 5151SOL    HW122425   9.481   0.583   1.875 -0.6922  0.2407  0.0961
 5151SOL    HW222426   9.406   0.561   1.732 -0.1504 -0.0291 -0.1446
 5152SOL     OW22427   3.472   0.183   0.320 -0.5064 -0.4101  0.4073
 5152SOL    HW122428   3.548   0.119   0.315 -0.7809 -0.6184 -1.5326
 5152SOL    HW222429   3.385   0.133   0.312 -0.8193 -0.0707  1.5927
 5155SOL     OW22430   3.586   0.497   1.574 -0.2753  0.0213 -0.3729
 5155SOL    HW122431   3.651   0.429   1.606  1.4555  1.6422 -0.3084
 5155SOL    HW222432   3.508   0.452   1.531  0.1598 -2.0039  0.9063
 5156SOL     OW22433   9.262   5.652   0.963  0.3660 -0.6811 -0.5159
 5156SOL    HW122434   9.182   5.612   1.008 -0.4838  1.0191 -0.4745
 5156SOL    HW222435   9.344   5.630   1.016 -0.1721 -1.7314 -0.1017
 5157SOL     OW22436   1.999   0.028   0.583  0.0160  0.5251  0.5868
 5157SOL    HW122437   2.097   0.011   0.581  0.0123  0.5487  0.1269
 5157SOL    HW222438   1.956  -0.017   0.505 -0.4940 -0.4440  1.4021
 5158SOL     OW22439   2.891   6.435   0.306 -0.7439  0.5577  0.2356
 5158SOL    HW122440   2.883   6.356   0.366 -0.9893  0.6872  0.3754
 5158SOL    HW222441   2.970   6.423   0.245  0.4385  1.1346  1.6341
 5159SOL     OW22442   2.738   1.530   1.372  0.0076  0.3209 -0.2287
 5159SOL    HW122443   2.764   1.467   1.446 -1.7208 -1.0614 -0.7723
 5159SOL    HW222444   2.660   1.493   1.323  0.2907  1.9042 -1.9097
 5161SOL     OW22445   8.787   1.628   1.901 -0.3765 -0.1169 -0.1367
 5161SOL    HW122446   8.861   1.694   1.888 -0.0445 -0.6721 -1.1596
 5161SOL    HW222447   8.826   1.539   1.925 -0.4415 -1.3145 -4.1465
 5162SOL     OW22448   0.678   4.374   0.507  0.3372  0.1516  0.0070
 5162SOL    HW122449   0.603   4.437   0.526  0.1500  0.4717 -1.7284
 5162SOL    HW222450   0.643   4.293   0.459  0.8179 -0.5748  0.8492
 5163SOL     OW22451   9.810   8.051   0.873  0.0628  0.3079  0.1759
 5163SOL    HW122452   9.836   8.120   0.805  0.6615 -0.0532  0.0304
 5163SOL    HW222453   9.713   8.059   0.893  0.0088  0.8178 -0.2687
 5164SOL     OW22454   9.300   6.815   1.110  0.2106 -0.2157 -0.2400
 5164SOL    HW122455   9.238   6.737   1.105 -0.7229  0.4438  0.8268
 5164SOL    HW222456   9.266   6.888   1.051 -0.8494  0.6931  1.4518
 5165SOL     OW22457   0.870   7.157   1.077 -0.0263  0.0286  0.6102
 5165SOL    HW122458   0.936   7.230   1.058 -0.4935  0.4460  0.5635
 5165SOL    HW222459   0.803   7.190   1.144 -1.0593  0.1214 -0.4558
 5168SOL     OW22460   1.394   6.595   1.839 -0.6409 -0.2909  0.0051
 5168SOL    HW122461   1.428   6.610   1.747 -0.5891  0.2044  0.1034
 5168SOL    HW222462   1.296   6.574   1.836 -1.2411  2.2922  0.0200
 5169SOL     OW22463   9.420   0.575   1.091 -0.2829 -0.3016 -0.0936
 5169SOL    HW122464   9.458   0.504   1.150 -1.0428 -0.8422 -0.2509
 5169SOL    HW222465   9.397   0.655   1.146 -1.1247 -0.8600  0.3768
 5171SOL     OW22466   1.714   8.790   1.936  0.7662  0.5841 -0.5250
 5171SOL    HW122467   1.635   8.810   1.994  0.9035 -2.7435  0.9171
 5171SOL    HW222468   1.684   8.741   1.854  1.1732  0.6688 -0.7248
 5172SOL     OW22469   8.528   2.630   0.831 -0.3628  0.1767  0.1043
 5172SOL    HW122470   8.593   2.570   0.784 -0.7624 -1.2671  1.3535
 5172SOL    HW222471   8.439   2.623   0.786 -0.4379 -0.2692  0.3163
 5173SOL     OW22472   1.412   5.663   2.216 -0.5148 -0.2275 -0.3412
 5173SOL    HW122473   1.510   5.676   2.227 -0.5901  0.3131 -0.3311
 5173SOL    HW222474   1.367   5.666   2.306 -0.3905 -1.7248 -0.2070
 5174SOL     OW22475   2.283   6.412   0.702 -0.6754  0.3518  0.3413
 5174SOL    HW122476   2.235   6.347   0.762 -2.3496  0.7307 -0.5381
 5174SOL    HW222477   2.269   6.505   0.736  0.5072  0.3603  0.7935
 5175SOL     OW22478   1.696   4.166   1.648  0.0504  0.1601 -0.9978
 5175SOL    HW122479   1.603   4.146   1.620 -0.5309  2.0827 -0.5518
 5175SOL    HW222480   1.752   4.188   1.568  0.6463 -2.9086 -1.4609
 5176SOL     OW22481   8.915   1.018   0.386  0.0101 -0.6438  0.0572
 5176SOL    HW122482   8.952   0.954   0.453  0.7617 -0.5971 -0.3047
 5176SOL    HW222483   8.840   0.974   0.336  0.8973 -1.4580 -0.5808
 5177SOL     OW22484   2.817   3.762   0.504  0.7225 -0.0603 -1.0451
 5177SOL    HW122485   2.778   3.712   0.427  0.9382 -0.0604 -1.1544
 5177SOL    HW222486   2.745   3.784   0.570  0.3704  0.7016 -1.6666
 5178SOL     OW22487   2.730   3.103   1.140  0.4479  0.0074  0.1767
 5178SOL    HW122488   2.682   3.141   1.220 -0.3775  0.9863 -0.7727
 5178SOL    HW222489   2.745   3.176   1.073 -0.0380 -1.0743 -1.1318
 5180SOL     OW22490   8.419   8.196   1.412 -0.8495 -0.5093 -0.5978
 5180SOL    HW122491   8.374   8.107   1.418 -0.1187 -0.7815  1.0988
 5180SOL    HW222492   8.516   8.182   1.391 -0.2497 -0.2602  1.8564
 5184SOL     OW22493   1.339   0.917   0.560  0.9745 -0.4873  0.1310
 5184SOL    HW122494   1.425   0.876   0.527  2.0529  1.6450  0.2062
 5184SOL    HW222495   1.309   0.987   0.497 -0.5288 -0.9551  0.3178
 5185SOL     OW22496   8.152   8.604   0.836 -0.3686 -0.3280  0.8779
 5185SOL    HW122497   8.131   8.595   0.933  0.8332 -1.4744  1.0598
 5185SOL    HW222498   8.189   8.695   0.818 -1.1356  0.0909  1.3760
 5186SOL     OW22499   9.541   8.081   0.939  0.0175 -0.2617 -0.0471
 5186SOL    HW122500   9.468   8.024   0.899 -0.6409  0.3922  0.2186
 5186SOL    HW222501   9.500   8.151   0.997  0.8087  0.7659 -0.7277
 5187SOL     OW22502   2.302   7.452   1.539  0.0660  0.9958  0.1008
 5187SOL    HW122503   2.380   7.440   1.478  0.0834  1.4843  0.0311
 5187SOL    HW222504   2.303   7.379   1.608  0.0828  0.4777 -0.4343
 5188SOL     OW22505   0.234   4.123   0.818 -0.1383  0.1735  0.3733
 5188SOL    HW122506   0.195   4.172   0.740  1.0236  0.5810  0.0322
 5188SOL    HW222507   0.169   4.123   0.894 -0.8148  0.7905 -0.2017
 5189SOL     OW22508   1.395   4.169   1.589  0.4745  0.1173  0.2680
 5189SOL    HW122509   1.356   4.078   1.576  1.3138 -0.2424  0.1934
 5189SOL    HW222510   1.345   4.217   1.661  1.0064 -1.0143  1.4246
 5190SOL     OW22511   8.625   2.752   1.713  0.4257  0.4217  0.6250
 5190SOL    HW122512   8.527   2.759   1.732  0.2440  1.1272 -0.5179
 5190SOL    HW222513   8.654   2.832   1.662  1.1010 -0.9442 -1.1553
 5191SOL     OW22514   1.848   4.691   0.553 -0.4380 -0.6418 -0.4949
 5191SOL    HW122515   1.935   4.741   0.552 -1.1265  0.6330  1.6594
 5191SOL    HW222516   1.860   4.603   0.507  1.3255  0.6001 -2.4978
 5192SOL     OW22517   3.255   0.815   1.628  0.1820  0.2700  0.7155
 5192SOL    HW122518   3.342   0.769   1.647 -0.6978 -0.8085  2.2799
 5192SOL    HW222519   3.270   0.913   1.616  1.8976 -0.2021 -1.1845
 5193SOL     OW22520   1.448   5.005   0.670  0.1540  0.5658 -0.1627
 5193SOL    HW122521   1.389   4.957   0.735 -1.9435  0.8198 -1.7914
 5193SOL    HW222522   1.516   4.942   0.633 -0.7616 -0.4166 -0.1919
 5194SOL     OW22523   1.856   3.722   0.417  0.0195  0.0743  0.6564
 5194SOL    HW122524   1.882   3.650   0.352 -0.6299  0.4825 -0.0601
 5194SOL    HW222525   1.822   3.801   0.367 -1.2333  0.0950  1.5233
 5195SOL     OW22526   2.138   2.121   2.075 -0.3062  0.3283 -0.3399
 5195SOL    HW122527   2.068   2.087   2.014 -2.0280  1.4953  0.9343
 5195SOL    HW222528   2.126   2.081   2.166 -0.8083  2.3526  0.5108
 5196SOL     OW22529   9.117   7.787   2.050 -0.0642  0.3490 -0.7588
 5196SOL    HW122530   9.200   7.841   2.058  0.1530 -0.0683 -0.1911
 5196SOL    HW222531   9.118   7.713   2.118 -1.4824  1.1111  0.1131
 5200SOL     OW22532   3.020   1.424   0.524  0.0327 -0.0276  0.2583
 5200SOL    HW122533   3.012   1.415   0.424  2.5762  0.7204 -0.0514
 5200SOL    HW222534   3.098   1.370   0.556  0.4785  1.3449  1.5647
 5201SOL     OW22535   3.409   2.759   0.056 -0.1965 -0.0127 -0.2395
 5201SOL    HW122536   3.334   2.803   0.107  0.3450 -0.7102  1.1943
 5201SOL    HW222537   3.392   2.767  -0.042 -1.2981  1.3137  0.0453
 5202SOL     OW22538   1.948   8.692   2.229  0.4049 -0.4672 -0.2386
 5202SOL    HW122539   1.872   8.742   2.269  0.9938  0.0261  0.2796
 5202SOL    HW222540   1.926   8.667   2.135 -0.6047 -0.7961  0.0845
 5203SOL     OW22541   0.276   4.439   1.422  0.2635 -0.1416  0.2383
 5203SOL    HW122542   0.348   4.370   1.427  0.2089 -0.1321  1.2673
 5203SOL    HW222543   0.224   4.428   1.337  0.8323 -0.7852 -0.0258
 5204SOL     OW22544   8.997   1.740   1.711 -0.0744  0.5139  0.1752
 5204SOL    HW122545   9.080   1.791   1.737 -0.2157  0.8322  0.0073
 5204SOL    HW222546   8.946   1.793   1.643 -0.0783  0.0176 -0.2092
 5208SOL     OW22547   0.007   3.896   1.173  0.0525 -0.0885  0.8598
 5208SOL    HW122548   0.010   3.803   1.209 -2.0599 -1.0115 -1.1801
 5208SOL    HW222549  -0.083   3.936   1.192  0.6426  1.2224  0.9547
 5209SOL     OW22550   8.990   9.727   1.317 -0.2006  0.1931  0.5110
 5209SOL    HW122551   9.030   9.663   1.383  2.3935 -1.6509 -2.7347
 5209SOL    HW222552   9.052   9.803   1.301 -0.5892  0.3807 -0.1446
 5210SOL     OW22553   0.030   2.028   2.078  0.2088 -0.3646  0.0517
 5210SOL    HW122554  -0.029   1.947   2.081  0.2472 -0.4558 -1.2770
 5210SOL    HW222555   0.124   2.000   2.055  0.2275  0.0576 -0.3821
 5211SOL     OW22556   8.691   0.218   1.045  0.6008  0.2354 -0.1099
 5211SOL    HW122557   8.756   0.144   1.026 -0.2914 -0.9556  1.2908
 5211SOL    HW222558   8.672   0.220   1.144 -2.8182 -0.6130 -0.6703
 5212SOL     OW22559   3.737   3.094   0.477 -0.6172  0.0355  0.4863
 5212SOL    HW122560   3.829   3.090   0.516 -0.8327  1.7554  1.2208
 5212SOL    HW222561   3.697   3.002   0.476  0.4455 -0.4580  1.7636
 5213SOL     OW22562   9.528   5.043   0.610  0.0804  0.7854  0.1823
 5213SOL    HW122563   9.593   5.103   0.657 -1.0031  1.0269  1.4247
 5213SOL    HW222564   9.577   4.975   0.556  1.3359  1.8636 -0.0365
 5215SOL     OW22565   1.968   3.491   0.680  0.3137  0.0176 -0.3312
 5215SOL    HW122566   1.942   3.587   0.669 -0.2121 -0.0294  0.4493
 5215SOL    HW222567   1.888   3.433   0.667  0.1782 -0.1813  1.2807
 5216SOL     OW22568   9.732   9.378   1.751  0.3077 -0.4722  0.6480
 5216SOL    HW122569   9.686   9.346   1.833  0.3221 -1.0032  0.4528
 5216SOL    HW222570   9.675   9.361   1.671  0.3999 -0.1842  0.5172
 5217SOL     OW22571   2.606   8.423   0.621 -0.8330  0.1182  0.7933
 5217SOL    HW122572   2.660   8.390   0.699 -0.2448 -0.0084  0.3382
 5217SOL    HW222573   2.637   8.515   0.596  0.0620 -0.4714 -0.2935
 5219SOL     OW22574   2.415   2.440   1.945  0.2216  0.2769  0.2618
 5219SOL    HW122575   2.439   2.532   1.977 -1.0615 -0.5846  3.8221
 5219SOL    HW222576   2.317   2.433   1.931  0.5146 -0.0305 -1.8698
 5220SOL     OW22577   2.808   3.645   0.794 -0.9728 -0.8081  0.1571
 5220SOL    HW122578   2.713   3.675   0.807 -0.7920 -0.1800  0.0667
 5220SOL    HW222579   2.851   3.703   0.725 -0.1752 -0.3307  1.0371
 5224SOL     OW22580   9.821   3.636   2.175 -0.0122 -0.1021 -0.2277
 5224SOL    HW122581   9.895   3.599   2.231  1.0498  1.5156 -0.5204
 5224SOL    HW222582   9.846   3.632   2.078 -1.5346 -2.2033 -0.5634
 5225SOL     OW22583   3.177   8.870   0.277  0.4074 -0.4903 -0.2071
 5225SOL    HW122584   3.210   8.864   0.183 -0.0529  0.9779 -0.4692
 5225SOL    HW222585   3.252   8.901   0.337  0.4118 -0.3970 -0.2606
 5226SOL     OW22586   3.117   1.750   0.584 -0.3213 -0.2010 -0.5041
 5226SOL    HW122587   3.204   1.772   0.628 -0.2538 -0.3033 -0.5861
 5226SOL    HW222588   3.134   1.698   0.500 -0.5047 -1.0465 -0.0193
 5227SOL     OW22589   4.067   9.020   1.446 -0.4200  0.0221  0.2751
 5227SOL    HW122590   4.107   9.071   1.523 -2.4041  1.7198  0.2401
 5227SOL    HW222591   4.084   8.922   1.458  1.3413  0.4737  1.6458
 5229SOL     OW22592   9.339   3.789   1.244  0.5885 -0.4098  1.0084
 5229SOL    HW122593   9.294   3.879   1.252  0.1662 -0.5154 -0.1078
 5229SOL    HW222594   9.274   3.717   1.269  0.6716 -0.4547  1.0970
 5230SOL     OW22595   3.212   2.706   0.889  0.2093 -0.2029  0.5385
 5230SOL    HW122596   3.212   2.703   0.789  0.8432  0.9439  0.4990
 5230SOL    HW222597   3.188   2.798   0.920 -0.6266 -0.7178  1.4536
 5231SOL     OW22598   3.384   8.921   0.699  0.4351  0.5343 -0.2390
 5231SOL    HW122599   3.336   8.999   0.660  0.7082  1.1456  0.6306
 5231SOL    HW222600   3.319   8.860   0.743  0.2123  0.2224 -0.9890
 5232SOL     OW22601   2.721   1.889   0.186 -0.2841 -0.3117  0.7170
 5232SOL    HW122602   2.812   1.848   0.191 -0.7340 -1.2790  0.9710
 5232SOL    HW222603   2.696   1.903   0.090  0.3784  0.5346  0.6563
 5233SOL     OW22604   4.076   8.566   2.086  1.0139  0.7535 -0.1575
 5233SOL    HW122605   4.175   8.555   2.086  0.9205 -0.1052  0.3492
 5233SOL    HW222606   4.033   8.484   2.123  0.0943  0.9754 -0.7060
 5234SOL     OW22607   8.297   9.182   0.719  0.5953  0.5311  0.9026
 5234SOL    HW122608   8.393   9.191   0.747  1.0970 -1.3822 -0.1408
 5234SOL    HW222609   8.293   9.176   0.619 -0.6062  0.3271  0.9654
 5235SOL     OW22610   1.207   3.986   1.949  0.3857  0.6759 -0.0359
 5235SOL    HW122611   1.164   3.972   2.038  0.4739  1.0494  0.0658
 5235SOL    HW222612   1.306   3.977   1.957  0.3878  0.6286 -0.1109
 5236SOL     OW22613   9.485   5.905   1.897  0.0496 -0.4723 -0.4400
 5236SOL    HW122614   9.557   5.970   1.872  0.1880 -0.7568 -0.7830
 5236SOL    HW222615   9.520   5.812   1.890  0.3802 -0.5285  1.6983
 5237SOL     OW22616   9.414   8.895   0.590 -0.1498 -0.1732  0.2960
 5237SOL    HW122617   9.454   8.872   0.502 -0.8738 -2.1832  0.4689
 5237SOL    HW222618   9.384   8.991   0.590  0.5158  0.0375 -1.3766
 5238SOL     OW22619   9.166   0.696   0.454  0.1972 -0.6613  0.3420
 5238SOL    HW122620   9.075   0.709   0.492 -0.2419 -1.5150 -0.3893
 5238SOL    HW222621   9.233   0.685   0.528 -0.1114  1.1087  0.8946
 5239SOL     OW22622   8.823   5.400   2.142 -0.1414 -0.5292 -0.1893
 5239SOL    HW122623   8.800   5.465   2.070  0.1130 -0.6626 -0.3966
 5239SOL    HW222624   8.900   5.435   2.195 -0.8132 -0.0859  0.4974
 5240SOL     OW22625   9.021   2.952   1.567  0.3260  0.0790  0.4196
 5240SOL    HW122626   9.065   2.891   1.501  0.6030 -0.1311  0.7963
 5240SOL    HW222627   8.922   2.948   1.555  0.3985  0.4507 -0.3443
 5241SOL     OW22628   1.936   0.318   1.558 -0.0105  0.1210  0.0192
 5241SOL    HW122629   1.890   0.243   1.606  1.9545  0.2360  2.2014
 5241SOL    HW222630   1.993   0.369   1.623  0.1253  2.3840 -1.8018
 5242SOL     OW22631   9.393   0.651   0.060  0.9302  1.3577 -0.4159
 5242SOL    HW122632   9.488   0.671   0.039  1.6524 -0.6924  0.8196
 5242SOL    HW222633   9.344   0.629  -0.024  1.9679  0.7151 -0.8637
 5243SOL     OW22634   2.146   3.338   0.839  0.5644 -0.5734 -0.3766
 5243SOL    HW122635   2.105   3.390   0.764  0.8821  0.6829  0.3077
 5243SOL    HW222636   2.245   3.333   0.826  0.8957  1.5739  1.1007
 5246SOL     OW22637   9.327   1.737   0.293  0.1779 -0.3731  0.2926
 5246SOL    HW122638   9.327   1.674   0.215 -1.4108 -0.8813  0.6855
 5246SOL    HW222639   9.289   1.691   0.373  1.6120  0.2161  1.3268
 5247SOL     OW22640   3.011   4.009   1.811 -0.2245  0.6932  0.8005
 5247SOL    HW122641   2.942   3.954   1.857 -0.3378 -0.3095 -0.5088
 5247SOL    HW222642   3.101   3.967   1.823 -0.6255 -1.2512 -2.2621
 5248SOL     OW22643   9.989   8.957   2.185  0.0667 -0.0658  0.2559
 5248SOL    HW122644   9.904   8.909   2.207 -0.0610 -0.4132 -0.9780
 5248SOL    HW222645   9.996   8.970   2.086  2.0747 -1.2064  0.2219
 5250SOL     OW22646   1.117   0.381   1.327  0.4118 -0.3666  0.2113
 5250SOL    HW122647   1.071   0.432   1.399  0.7776  0.4057 -0.1015
 5250SOL    HW222648   1.181   0.441   1.279 -1.0349 -0.4372 -1.8472
 5251SOL     OW22649   3.177   3.278   0.858  0.2223 -0.1281  0.3738
 5251SOL    HW122650   3.186   3.244   0.764 -1.0613  0.8540 -0.1228
 5251SOL    HW222651   3.261   3.260   0.909  0.8716 -0.7973 -0.9272
 5253SOL     OW22652   0.985   9.068   0.246 -0.0236 -0.1773 -0.5871
 5253SOL    HW122653   0.951   9.147   0.298 -0.4999 -2.4842  2.8027
 5253SOL    HW222654   0.996   8.990   0.308  1.0483 -2.6169 -3.7161
 5255SOL     OW22655   1.249   0.842   1.518 -0.3134 -0.3213 -0.2668
 5255SOL    HW122656   1.327   0.779   1.519 -0.4040 -0.4313  1.5834
 5255SOL    HW222657   1.164   0.790   1.512 -0.3179 -0.2837 -0.5417
 5256SOL     OW22658   4.372   9.479   1.035 -0.0018 -0.4195 -0.0092
 5256SOL    HW122659   4.332   9.478   1.126 -0.0635  0.9038 -0.0176
 5256SOL    HW222660   4.441   9.408   1.028  2.0648  1.3424  2.0012
 5257SOL     OW22661   0.832   6.505   1.432 -0.2832  0.2375  0.3671
 5257SOL    HW122662   0.825   6.420   1.380 -5.3877  1.4398 -1.2048
 5257SOL    HW222663   0.827   6.484   1.530  3.0754 -1.5148  0.2549
 5258SOL     OW22664   2.029   0.870   0.135 -0.5597  0.7881 -0.0628
 5258SOL    HW122665   2.126   0.845   0.124 -0.3809  1.1028  0.8174
 5258SOL    HW222666   1.978   0.790   0.168 -0.3954  0.9403  0.5633
 5259SOL     OW22667   8.055   8.250   2.078 -0.0842  0.0863  0.0814
 5259SOL    HW122668   8.021   8.200   2.157  1.1867  0.7186  1.0419
 5259SOL    HW222669   8.005   8.336   2.069 -0.4512 -0.1362  0.0065
 5260SOL     OW22670   3.517   9.964   1.491 -0.2578  0.3920 -0.2186
 5260SOL    HW122671   3.437   9.975   1.549  0.2587  0.6587  0.4513
 5260SOL    HW222672   3.507   9.882   1.435 -0.0125 -0.8041  1.4691
 5262SOL     OW22673   3.371   2.933   1.067 -0.1072 -0.6484  0.6112
 5262SOL    HW122674   3.429   2.959   1.145 -0.1516 -0.0291  0.4407
 5262SOL    HW222675   3.278   2.917   1.099 -0.0803 -0.5929  0.7182
 5264SOL     OW22676   1.686   7.083   2.024  0.4027  0.0894 -0.4819
 5264SOL    HW122677   1.746   7.103   1.947  0.0318  1.5313 -0.4210
 5264SOL    HW222678   1.728   7.116   2.108 -0.5206  1.2330 -0.4585
 5265SOL     OW22679   3.613   4.219   0.836  0.0557 -0.1659 -0.2640
 5265SOL    HW122680   3.553   4.295   0.861  0.4370  0.1596 -0.3341
 5265SOL    HW222681   3.647   4.174   0.918  0.1722  0.0087 -0.2167
 5266SOL     OW22682   8.089   8.371   1.388  0.4340  0.0029 -0.2914
 5266SOL    HW122683   8.121   8.442   1.450  2.0219 -0.1820 -0.8826
 5266SOL    HW222684   8.152   8.361   1.311 -0.4662 -1.1290 -0.9205
 5267SOL     OW22685   1.821   5.057   0.578  0.6874 -0.2352  0.0194
 5267SOL    HW122686   1.895   5.011   0.529 -0.2535 -1.2704 -0.4703
 5267SOL    HW222687   1.766   5.110   0.514 -1.0725 -2.2964 -0.2569
 5268SOL     OW22688   8.804   4.149   2.051  0.3497  0.3172 -0.4540
 5268SOL    HW122689   8.838   4.206   2.126  0.2290 -1.0041  0.6237
 5268SOL    HW222690   8.777   4.060   2.087 -0.5151 -0.0314 -1.9445
 5269SOL     OW22691   9.592   9.311   2.277 -0.0749 -0.5746  0.2643
 5269SOL    HW122692   9.648   9.392   2.293 -0.5882 -0.1894  0.1050
 5269SOL    HW222693   9.606   9.246   2.351 -0.5820  0.1680  1.0110
 5270SOL     OW22694   3.084   5.524   1.992 -0.2175  0.3099 -0.1027
 5270SOL    HW122695   3.053   5.453   2.055  0.5183  0.4340  0.4110
 5270SOL    HW222696   3.183   5.537   2.002 -0.0606  0.2248 -1.3990
 5271SOL     OW22697   4.583   9.745   1.843  0.5798 -0.2260 -0.2480
 5271SOL    HW122698   4.536   9.753   1.931  1.3540  0.8476  0.0850
 5271SOL    HW222699   4.543   9.810   1.778  1.8489  0.9854  0.1589
 5272SOL     OW22700   4.789   3.937   0.873 -0.9071 -0.1236  0.0117
 5272SOL    HW122701   4.781   3.988   0.787  0.2486 -1.3278 -0.8253
 5272SOL    HW222702   4.883   3.909   0.886 -1.1032 -0.0703  1.6286
 5273SOL     OW22703   1.577   9.665   0.076  0.4904 -0.0700  0.1137
 5273SOL    HW122704   1.510   9.608   0.029  1.2953 -0.3939 -0.6679
 5273SOL    HW222705   1.537   9.755   0.096  0.2344  0.2101 -1.5548
 5274SOL     OW22706   2.051   2.823   1.289 -0.4399  0.1214 -0.3194
 5274SOL    HW122707   1.978   2.891   1.295 -0.1018  0.5860 -1.2661
 5274SOL    HW222708   2.020   2.736   1.328 -1.1581  0.5888  0.1560
 5275SOL     OW22709   1.665   4.139   1.084 -0.1634  0.4655  0.7707
 5275SOL    HW122710   1.691   4.073   1.154 -0.2089 -0.5828 -0.1997
 5275SOL    HW222711   1.743   4.161   1.026 -0.3648  0.5926  0.5411
 5278SOL     OW22712   3.652   5.257   1.950 -0.0652  0.0890 -0.1809
 5278SOL    HW122713   3.592   5.328   1.985  0.2765  0.3437 -0.1127
 5278SOL    HW222714   3.683   5.282   1.858 -2.6521 -1.5616 -1.5731
 5279SOL     OW22715   2.913   8.994   1.097 -0.3682  0.0571  0.0516
 5279SOL    HW122716   2.961   9.048   1.165  1.2231  1.5241 -2.1403
 5279SOL    HW222717   2.820   8.974   1.128  0.3361  0.6486  2.6157
 5280SOL     OW22718   9.242   7.849   1.086 -0.1563 -0.1399  0.5079
 5280SOL    HW122719   9.147   7.823   1.102 -1.3044  0.1278 -4.9429
 5280SOL    HW222720   9.295   7.768   1.061 -0.2105  0.4850 -1.6645
 5281SOL     OW22721   3.213   0.335   0.954 -0.3545 -0.3930  0.0559
 5281SOL    HW122722   3.207   0.290   0.865 -1.6757  0.3777 -0.2759
 5281SOL    HW222723   3.272   0.416   0.946 -0.8069 -0.0841 -0.2436
 5283SOL     OW22724   8.720   4.936   1.876  0.0243 -0.1362 -0.5973
 5283SOL    HW122725   8.696   4.840   1.860  0.3864 -0.2702 -0.3470
 5283SOL    HW222726   8.770   4.971   1.797 -2.0616  0.5138 -1.6775
 5284SOL     OW22727   9.093   3.353   1.986 -0.1808  0.0338 -0.3914
 5284SOL    HW122728   9.054   3.443   2.006  0.8455  0.4741 -0.3764
 5284SOL    HW222729   9.020   3.285   1.990 -0.8624  0.7777  0.1699
 5285SOL     OW22730   8.163   9.259   1.338  0.0598  0.1486  0.7643
 5285SOL    HW122731   8.230   9.327   1.369 -1.0664  0.6123  2.2755
 5285SOL    HW222732   8.074   9.282   1.376 -0.5498 -1.5871  0.3983
 5288SOL     OW22733   9.595   5.598   0.412 -0.1715 -0.4988  0.7371
 5288SOL    HW122734   9.497   5.600   0.395  0.0527 -0.0561 -0.5770
 5288SOL    HW222735   9.629   5.691   0.427  0.4274 -0.3552 -1.2625
 5289SOL     OW22736   1.948   2.065   1.873 -0.2580 -0.2164 -0.1388
 5289SOL    HW122737   1.909   2.103   1.789  1.8983 -0.2707 -1.1977
 5289SOL    HW222738   1.933   1.967   1.876 -0.9017 -0.1203 -0.1339
 5290SOL     OW22739   1.046   2.630   0.769  0.9236 -0.2426 -0.0925
 5290SOL    HW122740   0.949   2.618   0.791  1.0520 -0.0235  0.6048
 5290SOL    HW222741   1.075   2.557   0.706 -0.1430  0.7608 -1.7962
 5291SOL     OW22742   9.677   0.679   0.020  0.8211  0.3457 -0.3468
 5291SOL    HW122743   9.751   0.646   0.079  1.6771  0.5769 -1.2682
 5291SOL    HW222744   9.687   0.777   0.005  1.2741  0.0916 -1.7796
 5294SOL     OW22745   3.447   3.874   1.676 -0.2077  0.0121  0.4782
 5294SOL    HW122746   3.370   3.816   1.648  0.1690  0.3059 -1.2495
 5294SOL    HW222747   3.528   3.850   1.623 -0.2907  2.7151 -0.9920
 5295SOL     OW22748   3.530   2.649   1.919 -0.0775 -0.2372  0.1190
 5295SOL    HW122749   3.464   2.576   1.901  0.1070 -0.5264  0.6057
 5295SOL    HW222750   3.495   2.707   1.993 -0.5082  0.5314 -0.6859
 5296SOL     OW22751   9.760   4.021   1.187 -0.1674 -0.0441 -0.0747
 5296SOL    HW122752   9.703   3.956   1.236 -0.2087 -1.2045 -1.6392
 5296SOL    HW222753   9.713   4.109   1.182 -1.3417 -0.6868 -0.4298
 5297SOL     OW22754   3.601   5.409   2.245 -0.2070  0.1802 -0.0927
 5297SOL    HW122755   3.556   5.467   2.313  0.6258  1.4642 -0.6187
 5297SOL    HW222756   3.656   5.466   2.184 -0.9260 -0.9478 -1.8504
 5299SOL     OW22757   2.433   1.207   1.199 -0.5038  0.6525 -0.5138
 5299SOL    HW122758   2.430   1.163   1.109 -2.8022  1.0700 -0.6734
 5299SOL    HW222759   2.390   1.147   1.267  3.6987 -0.8828  0.8972
 5300SOL     OW22760   2.902   7.881   1.254 -0.2828 -0.0082  0.3102
 5300SOL    HW122761   2.810   7.843   1.262 -0.0808 -0.9843 -1.7512
 5300SOL    HW222762   2.935   7.870   1.161  1.6862  0.9247  0.8622
 5301SOL     OW22763   8.332   6.901   2.093  0.2706  0.3701 -0.1032
 5301SOL    HW122764   8.395   6.832   2.128  0.1965 -0.1065 -0.8938
 5301SOL    HW222765   8.240   6.882   2.127  0.1889 -0.1225 -0.5801
 5302SOL     OW22766   2.901   6.522   2.282  0.6145  0.2855  0.3811
 5302SOL    HW122767   2.896   6.617   2.311 -0.8385  0.2007  0.4462
 5302SOL    HW222768   2.844   6.466   2.343 -0.8455 -0.1877 -1.3863
 5303SOL     OW22769   2.085   5.921   0.687 -0.2004  0.0766 -0.0781
 5303SOL    HW122770   2.107   5.843   0.745 -1.4001  0.2954  0.6945
 5303SOL    HW222771   1.990   5.913   0.656 -1.0035  2.3241  1.7412
 5304SOL     OW22772   8.977   3.645   0.722 -0.0852  0.4459  0.1321
 5304SOL    HW122773   9.048   3.714   0.735 -0.5463  0.7878  0.9333
 5304SOL    HW222774   8.997   3.590   0.641 -0.3412  2.2913 -1.2010
 5305SOL     OW22775   8.484   1.519   1.504 -0.1513  0.3069 -0.5660
 5305SOL    HW122776   8.511   1.605   1.460 -0.7864  1.8177  1.8385
 5305SOL    HW222777   8.385   1.520   1.520 -0.0305 -0.4932  0.2634
 5306SOL     OW22778   1.473   9.550   1.799 -0.6758  0.1275 -0.8624
 5306SOL    HW122779   1.514   9.469   1.757  0.9232  0.5124 -0.0906
 5306SOL    HW222780   1.450   9.616   1.728 -0.6819 -0.4202 -1.3758
 5307SOL     OW22781   0.613   0.767   0.004 -0.2669 -0.6181 -0.4455
 5307SOL    HW122782   0.539   0.784  -0.061 -0.0760  0.3131 -0.4290
 5307SOL    HW222783   0.632   0.851   0.055 -0.5420 -1.3967  0.9511
 5308SOL     OW22784   1.724   8.036   1.351 -0.3223  0.0869  0.1003
 5308SOL    HW122785   1.740   8.122   1.399  2.0453  1.3057 -2.6866
 5308SOL    HW222786   1.717   7.962   1.417 -0.8795  2.1735  2.4787
 5311SOL     OW22787   2.427   2.189   2.039 -0.3368 -0.3924 -0.2190
 5311SOL    HW122788   2.431   2.288   2.022  0.2881 -0.6750 -1.8621
 5311SOL    HW222789   2.337   2.154   2.015 -0.7086 -0.1473  0.8124
 5312SOL     OW22790   1.073   6.728   0.780 -0.1877 -0.7267  0.2159
 5312SOL    HW122791   1.001   6.693   0.840 -0.7425 -1.3966 -0.8278
 5312SOL    HW222792   1.147   6.766   0.835 -1.6683  0.6248  1.2847
 5313SOL     OW22793   1.657   0.471   0.007  0.2258  0.5073 -0.0343
 5313SOL    HW122794   1.643   0.528  -0.074  0.4484  1.9395  0.9164
 5313SOL    HW222795   1.584   0.403   0.012  0.9059 -0.4042 -2.0982
 5314SOL     OW22796   1.093   0.537   0.974  0.6730 -0.7300  0.8315
 5314SOL    HW122797   1.109   0.441   0.950 -0.6075 -1.1273  1.5055
 5314SOL    HW222798   1.008   0.544   1.027  0.3025  0.8919  0.0445
 5315SOL     OW22799   3.502   2.488   0.658  0.1228 -0.5251 -0.3975
 5315SOL    HW122800   3.573   2.515   0.593 -1.4827  2.4817 -0.9779
 5315SOL    HW222801   3.449   2.411   0.620  0.8309 -0.4836 -1.4845
 5316SOL     OW22802   3.465   0.944   2.128 -0.2512 -0.5998  0.3514
 5316SOL    HW122803   3.427   0.987   2.046 -0.3872 -1.1742  0.1084
 5316SOL    HW222804   3.552   0.987   2.152  1.4564 -2.6093 -2.0053
 5317SOL     OW22805   9.665   5.406   1.531  0.4632 -0.0524  0.2786
 5317SOL    HW122806   9.619   5.491   1.556 -2.6420 -1.4079 -0.5767
 5317SOL    HW222807   9.651   5.338   1.603  2.1547 -0.1280  0.5450
 5318SOL     OW22808   1.761   1.101   1.431  0.1843  0.4420 -0.8850
 5318SOL    HW122809   1.811   1.138   1.509  0.2061 -0.9871 -0.2016
 5318SOL    HW222810   1.696   1.169   1.398 -1.4200  0.3235  1.8021
 5322SOL     OW22811   1.182   4.885   1.404 -0.3041  0.3747  0.5552
 5322SOL    HW122812   1.164   4.823   1.480  0.4954  1.1131  1.3552
 5322SOL    HW222813   1.277   4.915   1.408 -0.8931  2.2564  0.6070
 5323SOL     OW22814   2.511   8.672   2.237  0.2883  0.5083 -0.5844
 5323SOL    HW122815   2.501   8.581   2.279 -1.2326  0.3884 -1.1636
 5323SOL    HW222816   2.465   8.673   2.148  1.4384  1.4708 -1.1812
 5324SOL     OW22817   1.394   7.117   0.302  0.6725  0.0677  0.7164
 5324SOL    HW122818   1.365   7.212   0.288 -2.9421 -0.7183  2.2767
 5324SOL    HW222819   1.440   7.084   0.220 -2.5359  1.6279 -1.8321
 5325SOL     OW22820   8.213   0.925   1.169  0.0704  0.5839 -0.0511
 5325SOL    HW122821   8.171   1.000   1.220  0.4577 -0.6395  2.1493
 5325SOL    HW222822   8.141   0.869   1.128 -0.3561  0.3218  1.0243
 5326SOL     OW22823   0.314   4.144   2.262 -0.2874 -0.3584 -0.3233
 5326SOL    HW122824   0.296   4.071   2.328  2.3629 -1.1899 -0.4621
 5326SOL    HW222825   0.339   4.104   2.174 -1.6314  0.7458 -1.2287
 5327SOL     OW22826   9.051   5.924   1.389 -0.0797  0.2312 -0.1323
 5327SOL    HW122827   9.071   5.985   1.466 -0.2917 -0.7427  0.7002
 5327SOL    HW222828   8.966   5.951   1.345 -0.4935  0.1525  0.6222
 5328SOL     OW22829   1.900   1.262   1.063  0.0350 -0.3726  0.0862
 5328SOL    HW122830   1.897   1.191   1.133 -1.1716  0.4163  0.8491
 5328SOL    HW222831   1.972   1.328   1.087  0.4198 -0.7341 -0.0539
 5329SOL     OW22832   0.053   4.948   2.216 -0.1217  0.5708  0.0707
 5329SOL    HW122833   0.081   4.998   2.298  1.9039  1.9481 -1.4193
 5329SOL    HW222834   0.120   4.962   2.144  0.3383 -4.0496 -0.5475
 5330SOL     OW22835   4.695   0.716   1.873  0.1142 -0.3227 -0.1719
 5330SOL    HW122836   4.770   0.649   1.877  1.0213  0.8031  2.1756
 5330SOL    HW222837   4.610   0.670   1.898 -0.0636 -1.6501 -3.0038
 5331SOL     OW22838   2.268   1.661   2.198  0.0910  0.1721  0.2009
 5331SOL    HW122839   2.185   1.688   2.149  0.5386 -0.4340 -0.9235
 5331SOL    HW222840   2.347   1.705   2.156  0.7777 -2.4252 -1.3512
 5332SOL     OW22841   8.700   8.815   1.897  0.0207  0.3476  0.8390
 5332SOL    HW122842   8.630   8.743   1.902  1.0589 -0.5713  3.0525
 5332SOL    HW222843   8.697   8.870   1.980 -1.2378  3.3924 -1.1532
 5334SOL     OW22844   3.805   3.864   1.884 -0.0267 -0.4318  0.1681
 5334SOL    HW122845   3.901   3.859   1.911 -0.2984 -1.4840  0.9618
 5334SOL    HW222846   3.768   3.771   1.872 -0.5225 -0.0265 -1.6620
 5335SOL     OW22847   4.252   2.937   0.745  0.3891 -0.4114 -0.2678
 5335SOL    HW122848   4.351   2.927   0.735  0.2771 -2.4706  0.3484
 5335SOL    HW222849   4.224   3.026   0.712  2.1590 -0.6348 -2.5013
 5336SOL     OW22850   9.831   4.415   0.285  0.6798  0.0113  0.2745
 5336SOL    HW122851   9.746   4.443   0.241  0.4536  0.0389  0.7331
 5336SOL    HW222852   9.813   4.385   0.379  1.3013  0.8059  0.6506
 5337SOL     OW22853   9.102   5.496   1.684  0.1317 -0.0380  0.3554
 5337SOL    HW122854   9.112   5.523   1.780 -0.5469  2.4439 -0.2393
 5337SOL    HW222855   9.148   5.408   1.669  1.5435  0.2718  2.6272
 5338SOL     OW22856   1.328   4.497  -0.000 -0.3761 -0.3070 -0.4453
 5338SOL    HW122857   1.418   4.487   0.043  0.1306  0.2128 -1.3527
 5338SOL    HW222858   1.257   4.474   0.066  0.3865  0.2810  0.6055
 5340SOL     OW22859   0.158   2.474   1.846 -0.4549  0.4281 -0.6759
 5340SOL    HW122860   0.238   2.523   1.811 -1.1264  0.5370 -2.1212
 5340SOL    HW222861   0.094   2.458   1.771 -0.9346 -1.3372  0.0931
 5342SOL     OW22862   9.116   6.847   1.577 -0.3976  0.0056 -0.3332
 5342SOL    HW122863   9.167   6.923   1.538 -0.2044 -0.8596 -1.7733
 5342SOL    HW222864   9.163   6.761   1.557 -2.0422 -0.7375 -1.0745
 5343SOL     OW22865   3.532   5.035   1.629 -0.0684 -0.5032 -0.3841
 5343SOL    HW122866   3.538   4.946   1.675 -1.0283 -0.9890 -1.1747
 5343SOL    HW222867   3.489   5.023   1.539  0.7703  0.6028 -0.9394
 5344SOL     OW22868   9.961   5.380   2.177 -0.2352 -0.2041  0.5802
 5344SOL    HW122869  10.004   5.450   2.119  1.1270 -1.1844  0.4017
 5344SOL    HW222870  10.024   5.354   2.250 -1.0848 -0.6295  1.1690
 5345SOL     OW22871   3.778   1.257   0.494  0.2374  0.2907 -0.5957
 5345SOL    HW122872   3.825   1.201   0.563 -2.2183 -1.8303 -0.5847
 5345SOL    HW222873   3.801   1.223   0.403 -1.6961 -1.1193 -0.5703
 5349SOL     OW22874   8.247   0.750   1.478  0.0032  0.6814 -0.3169
 5349SOL    HW122875   8.214   0.660   1.449 -0.0626  0.1173  1.4987
 5349SOL    HW222876   8.174   0.817   1.465 -0.3778  0.2411 -0.4662
 5350SOL     OW22877   8.757   3.512   1.120  0.1607  0.1272  0.2290
 5350SOL    HW122878   8.770   3.611   1.131  1.1440  0.1778 -1.1891
 5350SOL    HW222879   8.752   3.468   1.209 -1.8080  1.6451  0.9010
 5351SOL     OW22880   0.300   1.505   1.046  0.4725  0.6806  0.0639
 5351SOL    HW122881   0.214   1.556   1.036  0.2020 -0.0274 -1.2709
 5351SOL    HW222882   0.286   1.410   1.018  1.3219  0.1790  1.2786
 5352SOL     OW22883   0.391   8.541   0.509  0.0291 -0.2930  0.2721
 5352SOL    HW122884   0.375   8.495   0.422  0.8130 -0.9033  0.4560
 5352SOL    HW222885   0.304   8.554   0.556 -0.2044 -1.5094  0.1857
 5353SOL     OW22886   3.423   2.096   1.932  0.2575  0.5904  0.3722
 5353SOL    HW122887   3.366   2.034   1.878  0.6842  1.6784 -1.3679
 5353SOL    HW222888   3.457   2.169   1.873  2.7872  0.4106  1.5523
 5354SOL     OW22889   2.906   6.622   0.543  0.1673 -0.3186  0.1765
 5354SOL    HW122890   2.896   6.584   0.451 -0.5364  1.5171 -0.5521
 5354SOL    HW222891   2.818   6.620   0.590  0.1442  0.2717  0.1694
 5355SOL     OW22892   3.158   5.828   1.299  0.3343 -0.2570 -0.4174
 5355SOL    HW122893   3.075   5.816   1.245 -0.1180  0.2053  0.1576
 5355SOL    HW222894   3.230   5.767   1.266 -0.3990 -1.0194 -0.6029
 5356SOL     OW22895   9.302   1.599   0.068  0.1760  0.0584 -0.0500
 5356SOL    HW122896   9.364   1.535   0.023 -0.4399 -0.1672 -0.5755
 5356SOL    HW222897   9.208   1.566   0.061 -0.2975  1.5982 -1.3741
 5357SOL     OW22898   1.461   4.014   1.977 -0.0075 -0.3669  0.1006
 5357SOL    HW122899   1.467   4.111   1.955  1.5574  0.0179  2.0615
 5357SOL    HW222900   1.546   3.969   1.950  0.1716 -0.7379  1.2512
 5359SOL     OW22901   9.652   0.222   2.045  0.3101  0.3284  0.5205
 5359SOL    HW122902   9.627   0.125   2.047  1.0048  0.1558  1.0232
 5359SOL    HW222903   9.736   0.234   1.992 -0.5607  0.8472 -0.7651
 5360SOL     OW22904   4.209   8.512   0.119  0.2996 -0.1450  0.2323
 5360SOL    HW122905   4.303   8.527   0.088 -0.5323 -0.9607 -2.8743
 5360SOL    HW222906   4.155   8.595   0.104  0.1465 -0.1979  0.4959
 5361SOL     OW22907   4.158   9.446   2.302 -0.1558 -0.1353 -0.3169
 5361SOL    HW122908   4.097   9.406   2.371 -0.8729  0.1490 -0.7853
 5361SOL    HW222909   4.245   9.397   2.303  0.4268  0.8925  1.9086
 5363SOL     OW22910   4.516   2.852   0.028 -0.1598 -0.7903 -0.5440
 5363SOL    HW122911   4.519   2.778   0.096  1.5551 -0.8982 -0.7084
 5363SOL    HW222912   4.444   2.916   0.052  2.1362  0.6436  2.9402
 5364SOL     OW22913   3.790   0.252   0.691  0.2178 -0.2071 -0.4270
 5364SOL    HW122914   3.844   0.313   0.634  0.8582  0.5153  0.9225
 5364SOL    HW222915   3.693   0.277   0.684  0.3933  0.4781 -0.4657
 5365SOL     OW22916   3.250   0.795   0.854 -0.1039  0.2941  0.9930
 5365SOL    HW122917   3.183   0.834   0.917 -3.4273 -2.5975 -0.5937
 5365SOL    HW222918   3.266   0.699   0.876  0.2632 -0.2062 -1.2635
 5367SOL     OW22919   9.825   2.619   1.940  0.2306 -0.7066 -0.1732
 5367SOL    HW122920   9.787   2.647   1.852 -0.7265 -1.8101 -0.1162
 5367SOL    HW222921   9.921   2.645   1.944  0.0689  0.0909 -1.2166
 5368SOL     OW22922   0.905   5.822   1.810 -0.1674 -0.8145 -0.0751
 5368SOL    HW122923   0.946   5.769   1.885  0.4509 -0.9642 -0.5204
 5368SOL    HW222924   0.892   5.763   1.731 -1.4902 -0.8354  0.1381
 5369SOL     OW22925   3.221   3.610   0.646 -0.6456  0.0539 -0.0521
 5369SOL    HW122926   3.190   3.698   0.611 -0.7627 -0.2222 -0.6460
 5369SOL    HW222927   3.191   3.600   0.741  1.1206  1.5358  0.7112
 5371SOL     OW22928   8.996   9.337   0.359 -0.3993  0.8223 -0.4671
 5371SOL    HW122929   9.034   9.314   0.269 -2.0683 -0.6658 -0.8304
 5371SOL    HW222930   8.896   9.326   0.356 -0.3663 -0.2373  1.8772
 5372SOL     OW22931   1.137   2.106   1.338 -0.1602 -0.0104 -0.0909
 5372SOL    HW122932   1.122   2.024   1.282  2.0143  0.3531 -1.2798
 5372SOL    HW222933   1.075   2.179   1.309 -0.0577 -0.2987 -1.0274
 5376SOL     OW22934   0.775   8.399   1.075  0.1683  0.3042  0.7425
 5376SOL    HW122935   0.756   8.313   1.123 -1.0955 -0.0772 -0.4083
 5376SOL    HW222936   0.839   8.383   1.001  1.3555  0.7152  1.6555
 5377SOL     OW22937   8.283   6.744   1.255 -0.3565  0.3198 -0.2655
 5377SOL    HW122938   8.358   6.781   1.309 -1.1607 -1.0838  1.8745
 5377SOL    HW222939   8.197   6.787   1.283 -0.8588 -0.8554  0.0221
 5378SOL     OW22940   1.476   7.078   2.301  0.7201  0.5023 -0.5488
 5378SOL    HW122941   1.546   7.147   2.280  2.0535  0.1819  2.5101
 5378SOL    HW222942   1.521   6.992   2.325 -0.7213  0.1838  1.0767
 5379SOL     OW22943   4.177   4.779   1.674 -0.7965 -0.3771  0.1249
 5379SOL    HW122944   4.081   4.787   1.701 -0.9930 -2.9175  0.2556
 5379SOL    HW222945   4.186   4.713   1.600  0.4364  2.4960 -2.3763
 5381SOL     OW22946   9.515   3.284   1.525  0.2871 -0.2327 -0.1079
 5381SOL    HW122947   9.591   3.292   1.460 -0.7402  1.4969 -1.1255
 5381SOL    HW222948   9.539   3.334   1.609 -0.0960  1.1562 -0.8028
 5382SOL     OW22949   9.930   0.631   0.143 -0.2010  0.3818  0.5363
 5382SOL    HW122950   9.960   0.597   0.054 -0.0012 -1.6666  1.3690
 5382SOL    HW222951   9.982   0.713   0.167 -0.0008  0.7300 -1.0525
 5383SOL     OW22952   0.251   2.082   1.226  1.4205 -0.3323 -0.0460
 5383SOL    HW122953   0.192   2.163   1.223  2.5661  0.5033 -0.4881
 5383SOL    HW222954   0.277   2.056   1.133  0.9379 -1.3012  0.0875
 5384SOL     OW22955   1.976   9.662   1.704 -0.3033  0.1742 -0.0108
 5384SOL    HW122956   2.006   9.568   1.719  0.5274  0.5486  0.7247
 5384SOL    HW222957   2.036   9.705   1.636  0.6640  0.8286  1.2374
 5386SOL     OW22958   2.836   1.045   0.779  0.0075 -0.3553  0.5740
 5386SOL    HW122959   2.859   1.097   0.861  0.1099 -0.5487  0.6667
 5386SOL    HW222960   2.814   1.108   0.705 -0.4247 -0.1828  0.8474
 5387SOL     OW22961   9.106   4.683   1.062  0.4490  0.1172 -0.5646
 5387SOL    HW122962   9.062   4.632   1.137 -0.1527  1.7052  0.1717
 5387SOL    HW222963   9.037   4.707   0.994  0.4367  1.3150 -0.1383
 5388SOL     OW22964   3.036   5.024   1.735 -0.6103  0.4002 -0.3948
 5388SOL    HW122965   2.991   5.103   1.693  0.2353 -0.4225 -2.9504
 5388SOL    HW222966   3.128   5.051   1.765 -1.5128  1.2029  1.7789
 5390SOL     OW22967   2.106   2.897   0.317  0.6562 -0.7715  0.0413
 5390SOL    HW122968   2.074   2.915   0.411 -0.3598 -0.1102 -0.4160
 5390SOL    HW222969   2.157   2.976   0.284  0.4601 -0.7378 -0.1854
 5391SOL     OW22970   8.871   5.623   0.372 -0.2954 -0.0686  0.2156
 5391SOL    HW122971   8.820   5.566   0.307 -0.6827  0.3634  0.1395
 5391SOL    HW222972   8.853   5.590   0.465 -0.3517 -0.2040  0.1579
 5392SOL     OW22973   0.214   2.144   0.029  0.3241  0.1552 -0.3225
 5392SOL    HW122974   0.271   2.129  -0.052  0.7959 -0.5054  0.1263
 5392SOL    HW222975   0.124   2.177   0.000  0.4567 -0.1607 -1.1221
 5394SOL     OW22976   3.633   0.169   1.335 -0.0138  0.3303  0.3396
 5394SOL    HW122977   3.629   0.077   1.373  1.0128  0.4444  0.7489
 5394SOL    HW222978   3.560   0.181   1.268 -0.8952 -0.3829  1.1565
 5395SOL     OW22979   2.073   5.693   0.851 -0.5621 -0.9247 -0.0484
 5395SOL    HW122980   2.026   5.605   0.861  1.2081 -1.9318 -0.5105
 5395SOL    HW222981   2.134   5.707   0.929  0.8052 -1.1078 -1.0890
 5397SOL     OW22982   1.416   8.653   0.281  0.1265 -0.1872  0.6323
 5397SOL    HW122983   1.437   8.700   0.195 -0.4389  0.3057  0.7681
 5397SOL    HW222984   1.478   8.575   0.291 -0.2227 -0.6373 -0.5414
 5398SOL     OW22985   1.120   7.242   0.922  0.3109 -0.0103  0.2627
 5398SOL    HW122986   1.096   7.276   0.831  0.6744  0.9107  0.5022
 5398SOL    HW222987   1.176   7.159   0.913 -0.5361 -0.5273 -0.3311
 5399SOL     OW22988   9.669   6.268   0.212  0.5236  0.3608 -1.0514
 5399SOL    HW122989   9.741   6.292   0.277  2.1823 -1.6406 -2.0815
 5399SOL    HW222990   9.679   6.323   0.129  0.3004  0.7242 -0.8387
 5402SOL     OW22991   0.685   3.442   1.024  1.0457  0.3648  0.0717
 5402SOL    HW122992   0.609   3.506   1.036  0.2863 -0.1104 -1.9692
 5402SOL    HW222993   0.688   3.411   0.929  1.8335 -2.0899  0.8527
 5403SOL     OW22994   1.731   2.735   1.754  0.4404  0.0047 -0.1504
 5403SOL    HW122995   1.829   2.744   1.774  0.4288  0.5561 -0.3428
 5403SOL    HW222996   1.719   2.717   1.656  0.3904 -0.8344  0.0061
 5404SOL     OW22997   0.127   3.386   1.253 -0.4518 -0.7146  0.5963
 5404SOL    HW122998   0.188   3.356   1.326 -0.7671  0.6514  1.4304
 5404SOL    HW222999   0.133   3.321   1.177  1.5362 -0.9517  0.9227
 5406SOL     OW23000   8.419   3.332   0.167 -0.0529 -0.2474 -0.5246
 5406SOL    HW123001   8.371   3.288   0.091 -0.2078  0.4829 -0.8489
 5406SOL    HW223002   8.354   3.352   0.240  0.1130 -1.0421 -0.1490
 5407SOL     OW23003   1.792   0.851   0.497  0.6331  0.1320 -0.4041
 5407SOL    HW123004   1.846   0.819   0.574  0.4442 -1.6819 -0.9963
 5407SOL    HW223005   1.705   0.801   0.494  0.5698  0.2884 -1.6942
 5408SOL     OW23006   8.257   7.863   1.319  0.1641  0.0191 -0.1624
 5408SOL    HW123007   8.193   7.794   1.352  1.0011  0.1707  1.8298
 5408SOL    HW223008   8.221   7.954   1.339  1.5750  0.0960  2.1396
 5409SOL     OW23009   0.893   5.607   0.099  0.6090 -0.0535 -0.7277
 5409SOL    HW123010   0.846   5.684   0.055  1.2624  0.8496  0.1422
 5409SOL    HW223011   0.890   5.618   0.198  0.6304 -1.2091 -0.5824
 5411SOL     OW23012   8.223   8.122   2.302  0.0680  0.1817 -0.2230
 5411SOL    HW123013   8.270   8.057   2.243  1.0174 -0.0436  0.7662
 5411SOL    HW223014   8.183   8.072   2.380 -0.1779  0.6340 -0.0591
 5414SOL     OW23015   0.344   1.659   1.316  0.2073 -0.0841 -0.5753
 5414SOL    HW123016   0.311   1.653   1.222 -0.1602  0.1567 -0.4601
 5414SOL    HW223017   0.312   1.744   1.358 -0.2529 -0.5417  0.0136
 5415SOL     OW23018   8.555   6.722   0.435  0.0557  0.0356 -0.2021
 5415SOL    HW123019   8.647   6.762   0.439 -0.3699  1.1283 -1.0987
 5415SOL    HW223020   8.508   6.754   0.353 -0.6940 -1.4842 -0.3817
 5416SOL     OW23021   9.854   0.741   1.115 -0.1129  0.4599  0.2026
 5416SOL    HW123022   9.861   0.698   1.025  1.5545  0.5305  0.2941
 5416SOL    HW223023   9.845   0.670   1.185  0.3294  0.3511  0.1461
 5417SOL     OW23024   1.446   7.497   0.983 -0.4697 -0.6905 -0.6535
 5417SOL    HW123025   1.520   7.441   1.020  1.5551  1.8000 -0.8111
 5417SOL    HW223026   1.417   7.563   1.052 -1.1756 -0.3287 -1.2874
 5418SOL     OW23027   0.303   4.943   1.070  0.4224  0.2770  0.3743
 5418SOL    HW123028   0.305   5.042   1.080  0.1293  0.1740  1.4331
 5418SOL    HW223029   0.267   4.901   1.153  1.2535 -0.7624  0.2241
 5419SOL     OW23030   8.792   7.828   0.428 -0.1364  0.5049 -0.2682
 5419SOL    HW123031   8.700   7.830   0.389  1.3015  1.0387 -3.7809
 5419SOL    HW223032   8.798   7.754   0.495 -2.6762 -0.4886 -1.0843
 5420SOL     OW23033   1.450   1.831   1.409  0.2967  0.1271  0.3996
 5420SOL    HW123034   1.487   1.794   1.324 -0.1534  1.1140 -0.2433
 5420SOL    HW223035   1.521   1.881   1.458  0.6337 -0.6971  0.7521
 5421SOL     OW23036   1.548   0.735   1.987  0.2274  0.3723 -0.0613
 5421SOL    HW123037   1.618   0.801   1.961  2.2493 -1.8663 -0.4809
 5421SOL    HW223038   1.552   0.718   2.085 -0.6946  1.2989  0.1448
 5423SOL     OW23039   2.358   7.377   1.965 -0.2916  0.0505 -0.4562
 5423SOL    HW123040   2.401   7.461   1.935 -0.3250  0.1537 -0.2167
 5423SOL    HW223041   2.338   7.319   1.886  4.1193 -1.8632 -0.3284
 5424SOL     OW23042   8.732   9.240   0.321  0.0708  0.4075 -0.0416
 5424SOL    HW123043   8.633   9.245   0.306 -0.1593 -1.4093  0.7107
 5424SOL    HW223044   8.760   9.144   0.321  1.6366  0.8626  1.0164
 5425SOL     OW23045   7.523   0.084   1.868 -0.3486  0.0284  0.2951
 5425SOL    HW123046   7.585   0.024   1.917 -0.2762  0.2178  0.4389
 5425SOL    HW223047   7.482   0.035   1.791  0.6370  0.1554 -0.3234
 5426SOL     OW23048   2.428   6.732   1.336  0.1381  0.9498 -0.0216
 5426SOL    HW123049   2.409   6.783   1.419  1.3469  0.9380  0.2721
 5426SOL    HW223050   2.515   6.682   1.346 -0.8271 -0.8623 -0.4387
 5427SOL     OW23051   8.842   3.636   2.261  0.0860 -0.3257  0.0821
 5427SOL    HW123052   8.853   3.557   2.321  1.6379 -0.1803  0.0010
 5427SOL    HW223053   8.916   3.638   2.194  0.1934  1.3131  0.2294
 5428SOL     OW23054   2.263   1.213   1.468  0.3106  0.1099 -0.8139
 5428SOL    HW123055   2.200   1.276   1.423 -1.3639  0.6854  2.1673
 5428SOL    HW223056   2.241   1.119   1.443 -0.5023  0.4300 -1.2903
 5429SOL     OW23057   0.576   3.607   1.606 -0.1568 -0.6066  0.6531
 5429SOL    HW123058   0.536   3.638   1.519  1.3938  1.0465  0.4997
 5429SOL    HW223059   0.523   3.530   1.641 -2.6586  0.6596 -0.2131
 5430SOL     OW23060   3.369   1.002   0.476  1.0804  0.0465  0.0413
 5430SOL    HW123061   3.336   1.094   0.497 -2.6231 -1.2486  0.3601
 5430SOL    HW223062   3.392   0.996   0.379 -0.7124  0.7735 -0.4563
 5431SOL     OW23063   0.854   7.040   2.947 -0.1738  0.2839 -0.1440
 5431SOL    HW123064   0.881   6.952   2.907 -2.6886 -0.4364 -0.3176
 5431SOL    HW223065   0.812   7.097   2.876 -0.8256  0.6481  0.5286
 5432SOL     OW23066   3.389   1.939   0.294 -0.1012 -0.4768 -0.3451
 5432SOL    HW123067   3.349   1.852   0.324 -1.8440  0.3995 -0.1071
 5432SOL    HW223068   3.438   1.981   0.371  0.6026 -1.1489 -0.4157
 5433SOL     OW23069   9.987   3.887   0.532 -0.0636  0.5273  0.1236
 5433SOL    HW123070  10.073   3.889   0.584  0.6706 -2.0041 -0.9335
 5433SOL    HW223071   9.984   3.965   0.469  0.9360  1.2598  0.9626
 5434SOL     OW23072   8.515   7.137   0.666 -0.1031 -0.8327  0.5768
 5434SOL    HW123073   8.498   7.089   0.580  0.7504  1.2294 -0.7879
 5434SOL    HW223074   8.447   7.210   0.678  0.7462 -0.0684  0.8256
 5435SOL     OW23075   2.182   5.345   1.808 -0.8604 -0.1230  0.4508
 5435SOL    HW123076   2.242   5.267   1.827 -0.9676 -0.2332  0.3386
 5435SOL    HW223077   2.175   5.357   1.709  1.6029  1.9068  0.4703
 5436SOL     OW23078   2.391   6.097   2.211 -0.0962  0.5087 -0.2332
 5436SOL    HW123079   2.473   6.047   2.239 -0.6760 -1.1264 -1.3593
 5436SOL    HW223080   2.396   6.114   2.112 -1.3494 -0.0871 -0.4077
 5437SOL     OW23081   9.742   9.630   0.222 -0.6353 -0.3141  0.1574
 5437SOL    HW123082   9.661   9.674   0.185 -0.6471 -0.4814 -0.0138
 5437SOL    HW223083   9.756   9.660   0.316 -0.2434  0.6017 -0.1854
 5439SOL     OW23084   2.952   2.140   0.642 -0.7926  0.3795  0.7613
 5439SOL    HW123085   3.033   2.196   0.664 -0.1400  0.4514 -1.6730
 5439SOL    HW223086   2.937   2.074   0.715  1.5316  0.3203  1.2461
 5440SOL     OW23087   7.542   9.616   1.148  0.4754  0.2300  0.2153
 5440SOL    HW123088   7.532   9.614   1.049  0.1327  0.5760  0.2402
 5440SOL    HW223089   7.622   9.670   1.173  1.1318 -0.6787  0.0944
 5441SOL     OW23090   0.335   2.636   0.315 -0.7365  0.1368 -0.1852
 5441SOL    HW123091   0.314   2.540   0.298  2.0086 -0.3410 -0.9922
 5441SOL    HW223092   0.328   2.654   0.414  0.7988 -1.4077  0.2231
 5442SOL     OW23093   9.399   5.334   2.050  0.0279 -0.7962  0.1443
 5442SOL    HW123094   9.492   5.305   2.026 -0.0762 -0.1443 -1.0785
 5442SOL    HW223095   9.335   5.301   1.980 -0.4533  0.0314  0.1867
 5443SOL     OW23096   4.025   2.372   0.625 -0.2474 -0.0984 -0.5519
 5443SOL    HW123097   4.096   2.303   0.636 -0.4753  0.0598  2.1277
 5443SOL    HW223098   3.962   2.344   0.552  0.5602 -1.9149 -0.5675
 5444SOL     OW23099   8.502   8.499   2.248 -0.3637  0.2232 -0.4053
 5444SOL    HW123100   8.578   8.460   2.300 -1.8021  1.0293  2.4127
 5444SOL    HW223101   8.440   8.426   2.221  0.1274 -0.1415 -0.5746
 5445SOL     OW23102   0.885   8.715   0.896  0.1068  0.2319  0.0159
 5445SOL    HW123103   0.959   8.777   0.870  1.2019 -0.7466  0.7076
 5445SOL    HW223104   0.878   8.642   0.827 -1.1294  1.0657 -0.7603
 5446SOL     OW23105   0.910   5.363   0.724  0.0403 -0.5136  0.1496
 5446SOL    HW123106   0.984   5.302   0.751  0.1133 -0.6853 -0.4277
 5446SOL    HW223107   0.851   5.317   0.658 -0.6305 -0.4047  0.6748
 5449SOL     OW23108   8.345   9.439   0.443 -0.0299 -0.2138  0.4875
 5449SOL    HW123109   8.418   9.382   0.403  0.9209  2.1119 -1.2197
 5449SOL    HW223110   8.381   9.487   0.523 -0.1611 -0.2587  0.5730
 5450SOL     OW23111   0.147   7.120   2.290  0.9304 -0.0350 -0.2437
 5450SOL    HW123112   0.162   7.062   2.371 -0.5594  0.6741  0.5769
 5450SOL    HW223113   0.054   7.106   2.257  0.4600  2.0589  0.1151
 5452SOL     OW23114   4.254   8.887   2.014  0.1130  0.2940 -0.1793
 5452SOL    HW123115   4.322   8.935   1.959 -0.0475  0.0769 -0.5718
 5452SOL    HW223116   4.274   8.789   2.015  0.6924  0.4137  0.9830
 5453SOL     OW23117   0.057   2.822   0.021  0.1226  0.4259  0.2392
 5453SOL    HW123118   0.154   2.833   0.042  0.2062  0.7119 -0.2810
 5453SOL    HW223119   0.039   2.728  -0.007  0.1360  0.2198  0.9011
 5454SOL     OW23120   9.057   6.908   1.822 -0.6709 -0.1888 -0.3486
 5454SOL    HW123121   9.087   6.861   1.739 -1.0621  1.5173 -1.4857
 5454SOL    HW223122   9.135   6.958   1.862 -0.6588 -0.4053 -0.1009
 5457SOL     OW23123   2.340   8.434   0.571  0.5170  0.3386  1.1675
 5457SOL    HW123124   2.283   8.460   0.649  2.8962  2.7851  2.1774
 5457SOL    HW223125   2.435   8.424   0.601  0.9702 -1.7082 -0.8555
 5458SOL     OW23126   8.787   0.046   0.115 -0.1102 -0.0634 -0.5208
 5458SOL    HW123127   8.875   0.005   0.088  0.2871  0.1915  0.3573
 5458SOL    HW223128   8.804   0.136   0.154 -0.7837  0.0383 -0.4699
 5459SOL     OW23129   2.548   1.211   2.116 -0.2047 -0.1766  0.0814
 5459SOL    HW123130   2.458   1.251   2.134  0.2906  0.9311  0.1368
 5459SOL    HW223131   2.548   1.170   2.025  0.2154  2.7485 -1.2903
 5460SOL     OW23132   8.264   8.349   0.028  0.2460 -0.1420 -0.0236
 5460SOL    HW123133   8.193   8.414   0.000  1.1916  0.2846 -1.5321
 5460SOL    HW223134   8.241   8.258  -0.007 -1.5892 -0.8850  2.9367
 5462SOL     OW23135   1.859   0.493   1.339 -0.7268 -0.1469  0.2650
 5462SOL    HW123136   1.884   0.429   1.412  0.9236  0.0531 -0.1199
 5462SOL    HW223137   1.863   0.446   1.251  1.8689  0.8001 -0.1769
 5463SOL     OW23138   0.576   1.099   1.526  0.0168 -0.1660 -0.0909
 5463SOL    HW123139   0.537   1.085   1.435 -3.2060 -0.1273  1.1941
 5463SOL    HW223140   0.664   1.052   1.532  0.1693 -0.3796 -3.1210
 5464SOL     OW23141   1.039   5.666   2.045  0.0067 -0.0229 -0.0627
 5464SOL    HW123142   1.103   5.598   2.008 -1.3381 -1.7643  0.7077
 5464SOL    HW223143   1.089   5.732   2.102  1.0095 -2.0046  1.4299
 5465SOL     OW23144   8.411   0.868   1.661  0.2507 -0.4968  0.6863
 5465SOL    HW123145   8.372   0.848   1.750 -0.8335 -1.5883 -0.0171
 5465SOL    HW223146   8.378   0.801   1.594  2.0949 -0.5027 -0.2530
 5467SOL     OW23147   2.428   5.630   0.609 -0.5902  0.1034 -0.1212
 5467SOL    HW123148   2.477   5.588   0.533  0.1781  2.4348 -0.9410
 5467SOL    HW223149   2.482   5.621   0.693 -0.4322 -0.5232 -0.2869
 5468SOL     OW23150   2.024   1.350   1.357 -0.5597  0.0475 -0.4424
 5468SOL    HW123151   1.967   1.268   1.358 -0.3001 -0.1216  2.4155
 5468SOL    HW223152   1.977   1.424   1.403  0.7851  0.4224  0.3593
 5469SOL     OW23153   4.611   3.786   0.310 -0.5235  0.6529 -0.1513
 5469SOL    HW123154   4.588   3.817   0.402  0.2680  0.2236  0.2015
 5469SOL    HW223155   4.597   3.687   0.303  0.2665  0.5439 -0.2211
 5470SOL     OW23156   3.216   0.762   1.297 -0.0765  0.1590  0.3876
 5470SOL    HW123157   3.314   0.776   1.309 -0.3513  2.1834  0.5558
 5470SOL    HW223158   3.189   0.675   1.337  1.6238 -0.3379  0.4749
 5471SOL     OW23159   8.559   9.870   1.819 -0.3399 -0.0533  0.2181
 5471SOL    HW123160   8.626   9.939   1.844 -0.2837 -0.2495  0.6067
 5471SOL    HW223161   8.473   9.914   1.795  0.6096  0.3626 -2.5804
 5472SOL     OW23162   0.475   7.924   1.919 -0.3649  0.1474  0.9648
 5472SOL    HW123163   0.384   7.882   1.917 -0.0395 -0.5515  0.5424
 5472SOL    HW223164   0.499   7.946   2.014 -1.6438  1.8407  0.9054
 5473SOL     OW23165   3.116   8.168   1.890 -0.2502 -0.3109  0.3398
 5473SOL    HW123166   3.039   8.172   1.953 -1.5977  2.0638 -1.3446
 5473SOL    HW223167   3.099   8.096   1.822  0.0445 -1.2286  1.2324
 5474SOL     OW23168   4.456   1.507   0.575 -0.2071 -0.5223  1.4895
 5474SOL    HW123169   4.445   1.577   0.505  1.5241 -1.2991  0.3728
 5474SOL    HW223170   4.459   1.417   0.531  1.8636 -0.9536  2.4269
 5475SOL     OW23171   8.736   5.544   1.936  0.1018 -0.6751  0.6866
 5475SOL    HW123172   8.651   5.529   1.886  0.0795  0.1663  0.4683
 5475SOL    HW223173   8.813   5.507   1.885  0.0275 -0.2003  0.2242
 5477SOL     OW23174   8.820   9.070   1.025  0.4800  0.4534  0.0898
 5477SOL    HW123175   8.813   9.086   0.927  0.8937 -0.3385 -0.0732
 5477SOL    HW223176   8.729   9.060   1.064  0.3154  0.7367 -0.2210
 5478SOL     OW23177   0.357   2.672   1.869 -0.4309  0.0819  0.0526
 5478SOL    HW123178   0.427   2.723   1.918 -0.4236  0.4486 -0.3383
 5478SOL    HW223179   0.366   2.688   1.771  0.9919 -2.4413 -0.2766
 5479SOL     OW23180   9.137   9.279   1.532  0.5021  0.1482  0.4442
 5479SOL    HW123181   9.197   9.320   1.463  0.2451  0.0237  0.1446
 5479SOL    HW223182   9.097   9.195   1.496 -1.0668  1.0313  0.0505
 5480SOL     OW23183   8.993   3.226   1.678  0.0026 -0.1327  0.0552
 5480SOL    HW123184   9.066   3.273   1.629  1.3134 -0.8082  1.3323
 5480SOL    HW223185   8.999   3.128   1.660 -0.2710 -0.2456  0.5913
 5482SOL     OW23186   4.365   2.529   1.505  0.0691 -0.2034 -0.6319
 5482SOL    HW123187   4.331   2.465   1.436  0.4008 -1.9197  0.7587
 5482SOL    HW223188   4.288   2.576   1.548 -0.2935 -1.0149 -0.3889
 5483SOL     OW23189   2.977   7.835   1.518  0.2694 -0.0982  0.0527
 5483SOL    HW123190   3.017   7.923   1.540 -0.2803  0.0969  0.2929
 5483SOL    HW223191   2.959   7.830   1.419 -0.2142  0.2794  0.1198
 5485SOL     OW23192   9.556   9.546   2.076 -0.1380  0.0832 -0.3182
 5485SOL    HW123193   9.541   9.578   1.983  0.1279  2.1119  0.3175
 5485SOL    HW223194   9.585   9.450   2.074 -0.4848  0.0001 -2.2881
 5486SOL     OW23195   1.927   9.867   1.424  0.3914 -0.1710 -0.0431
 5486SOL    HW123196   2.006   9.858   1.363  1.0573  2.3735  0.3819
 5486SOL    HW223197   1.953   9.920   1.504 -2.0754  1.9171 -0.5390
 5487SOL     OW23198   9.942   3.595   1.172  0.0349 -0.6782 -0.0895
 5487SOL    HW123199   9.870   3.627   1.233  0.0847  1.2030 -1.0038
 5487SOL    HW223200   9.979   3.508   1.207 -0.7173 -0.2191  1.9116
 5488SOL     OW23201   1.031   9.564   1.883 -0.2601 -0.4015  0.5059
 5488SOL    HW123202   1.021   9.650   1.833 -0.1772 -1.1056 -0.7663
 5488SOL    HW223203   0.941   9.527   1.904 -0.2959  0.0106  1.0772
 5489SOL     OW23204   4.594   8.715   2.284  0.3926 -0.2149  0.0950
 5489SOL    HW123205   4.594   8.630   2.337 -1.0210 -0.4836 -0.3112
 5489SOL    HW223206   4.500   8.742   2.265  0.8612  0.0866 -1.9171
 5491SOL     OW23207   0.151   1.534   0.476 -0.3976 -0.2356 -0.3171
 5491SOL    HW123208   0.241   1.503   0.508  0.4112 -1.7960 -3.8391
 5491SOL    HW223209   0.138   1.630   0.501  2.7068  0.3159 -0.6208
 5492SOL     OW23210   0.077   7.340   0.317 -0.4223 -0.1898 -0.2056
 5492SOL    HW123211   0.038   7.283   0.389  1.3742 -1.1415  0.0518
 5492SOL    HW223212   0.123   7.281   0.250 -0.1573  0.8350 -0.9349
 5493SOL     OW23213   4.736   3.674   0.937 -0.4695 -0.2419 -0.6992
 5493SOL    HW123214   4.832   3.647   0.943 -0.4973 -0.5298 -1.4897
 5493SOL    HW223215   4.729   3.774   0.932 -0.3340 -0.0990  1.5559
 5495SOL     OW23216   8.896   3.062   0.280 -0.0657  0.4205  0.4664
 5495SOL    HW123217   8.817   3.000   0.279 -0.5148  0.9864  0.1530
 5495SOL    HW223218   8.977   3.014   0.246 -0.6695  0.3372 -0.8762
 5496SOL     OW23219   1.590   1.084   0.828  0.1829  0.5173 -0.3405
 5496SOL    HW123220   1.594   1.147   0.905  1.0542 -0.2694  0.2701
 5496SOL    HW223221   1.521   1.014   0.845  0.9976 -0.1805  0.1421
 5498SOL     OW23222   3.055   3.830   2.299  0.3767  0.1336 -0.0169
 5498SOL    HW123223   3.137   3.879   2.270  1.5657 -1.9369 -0.1949
 5498SOL    HW223224   3.051   3.826   2.399  0.7431 -0.2093 -0.0190
 5499SOL     OW23225   8.220   1.372   0.313 -0.4294  0.3870  0.4687
 5499SOL    HW123226   8.258   1.382   0.222 -1.3292  0.7141  0.1294
 5499SOL    HW223227   8.286   1.404   0.381  0.3456 -0.1155 -0.0470
 5500SOL     OW23228   9.170   9.180   2.266 -0.4145 -0.0401 -0.0905
 5500SOL    HW123229   9.244   9.210   2.206  0.3953  1.5662  1.6664
 5500SOL    HW223230   9.093   9.244   2.258 -0.5195 -0.1357  0.1684
 5501SOL     OW23231   0.975   2.940   2.196  0.1438 -0.1134  0.0566
 5501SOL    HW123232   1.059   2.885   2.196  1.4584  1.8387 -1.7656
 5501SOL    HW223233   0.975   3.000   2.276  0.1162 -0.6426  0.4579
 5502SOL     OW23234   1.760   9.468   1.932 -0.3150  0.1321  0.2976
 5502SOL    HW123235   1.779   9.553   1.883 -1.1527  0.0883 -0.1032
 5502SOL    HW223236   1.673   9.476   1.981  0.7129  0.3255  2.1345
 5503SOL     OW23237   9.576   8.569   1.034 -0.1165 -0.0173  0.0603
 5503SOL    HW123238   9.629   8.635   1.088 -0.6846  1.4072 -1.1161
 5503SOL    HW223239   9.480   8.598   1.030 -1.1982 -2.9517  2.7711
 5504SOL     OW23240   2.008   6.773   1.358 -0.3724 -0.3874  0.0548
 5504SOL    HW123241   1.911   6.779   1.379 -0.5635  2.2753 -1.3003
 5504SOL    HW223242   2.020   6.740   1.265  0.0601 -1.5591  0.5223
 5505SOL     OW23243   1.563   9.105   1.389  0.0319 -0.5667  0.1342
 5505SOL    HW123244   1.480   9.148   1.354  0.4942  0.1996 -0.0443
 5505SOL    HW223245   1.585   9.024   1.335 -1.0715 -1.2629  0.7227
 5506SOL     OW23246   9.344   0.217   1.690  0.2558 -0.3004  0.7025
 5506SOL    HW123247   9.309   0.222   1.783  0.1580 -0.7044  0.6906
 5506SOL    HW223248   9.315   0.297   1.638  0.5191  0.0442  1.0924
 5507SOL     OW23249   9.173   2.196   2.119 -0.4772  0.8643 -0.2588
 5507SOL    HW123250   9.211   2.103   2.115 -0.8899  0.6397  0.9950
 5507SOL    HW223251   9.082   2.193   2.159 -1.2193  1.6051 -1.8550
 5508SOL     OW23252   2.621   8.140   1.497 -0.4037 -0.0463  0.1072
 5508SOL    HW123253   2.602   8.189   1.582 -0.8655 -0.9939  0.5582
 5508SOL    HW223254   2.621   8.042   1.515  0.1397 -0.2280 -0.8617
 5509SOL     OW23255   4.239   1.174   1.711 -0.3609 -0.3112 -0.2884
 5509SOL    HW123256   4.241   1.124   1.798 -3.4504  0.7683  0.4709
 5509SOL    HW223257   4.162   1.142   1.657  0.4997  0.2850 -1.8891
 5512SOL     OW23258   4.909   8.832   1.988 -0.5367  0.0456 -0.5565
 5512SOL    HW123259   4.908   8.784   2.076  0.2269 -1.3545 -1.2884
 5512SOL    HW223260   4.821   8.819   1.941 -0.7913  0.4435 -0.1964
 5514SOL     OW23261   2.860   2.278   0.231  0.3930 -0.0140  0.3609
 5514SOL    HW123262   2.855   2.180   0.251 -0.5823 -0.1196 -0.3460
 5514SOL    HW223263   2.932   2.320   0.285  0.1105 -0.9341  1.4674
 5515SOL     OW23264   1.534   4.445   0.165  0.3498  0.0712 -0.7066
 5515SOL    HW123265   1.607   4.512   0.174  0.5451 -0.2641  0.2452
 5515SOL    HW223266   1.572   4.353   0.173 -0.0994 -0.1147 -0.7010
 5517SOL     OW23267   0.049   2.902   0.600 -0.4730  0.3047  0.4976
 5517SOL    HW123268  -0.009   2.980   0.573 -0.6866  0.9119  2.5990
 5517SOL    HW223269   0.145   2.930   0.599 -0.2284 -0.5339 -2.4276
 5518SOL     OW23270   3.320   5.122   2.134 -0.4540  0.0954  0.2369
 5518SOL    HW123271   3.239   5.180   2.143 -0.3163  0.2305  0.6054
 5518SOL    HW223272   3.358   5.103   2.224  0.0929  0.2705  0.0484
 5519SOL     OW23273   4.515   0.727   1.014 -0.1691  0.1265  0.3533
 5519SOL    HW123274   4.550   0.715   0.921 -0.3784  0.5211  0.2257
 5519SOL    HW223275   4.474   0.818   1.023  0.1359  0.2055  0.9218
 5520SOL     OW23276   3.486   9.783   0.950  0.1197 -0.6180 -0.0489
 5520SOL    HW123277   3.455   9.713   1.015  1.4327  0.0166  1.3090
 5520SOL    HW223278   3.538   9.739   0.877 -0.0822 -1.1980  0.1491
 5521SOL     OW23279   0.986   6.232   0.114  0.7182  0.7003 -0.1292
 5521SOL    HW123280   0.979   6.234   0.014 -1.7914 -1.0587 -0.0627
 5521SOL    HW223281   0.905   6.275   0.153  0.7321 -0.3638  1.1015
 5522SOL     OW23282   3.703   2.142   0.929  0.2336 -0.1451  0.1625
 5522SOL    HW123283   3.603   2.150   0.920  0.0713  1.5956  2.9620
 5522SOL    HW223284   3.740   2.098   0.847 -2.7659 -0.3637 -1.1546
 5523SOL     OW23285   4.190   4.511   0.139  0.3391  0.0759  0.2198
 5523SOL    HW123286   4.117   4.469   0.192  0.9920  0.3469  1.3495
 5523SOL    HW223287   4.155   4.593   0.093  0.2967  1.0603  1.9680
 5524SOL     OW23288   1.452   5.131   2.233 -0.1161  0.1920  0.3924
 5524SOL    HW123289   1.453   5.035   2.203  2.7889  0.4570 -0.5303
 5524SOL    HW223290   1.417   5.136   2.327 -2.6308 -1.4604 -0.4004
 5525SOL     OW23291   0.045   4.122   1.002  0.4818 -0.5108  0.5997
 5525SOL    HW123292  -0.042   4.153   0.963  0.5058 -1.5492 -0.2808
 5525SOL    HW223293   0.028   4.046   1.064  0.6074  0.2332  1.5626
 5527SOL     OW23294   2.253   2.394   1.434 -0.5674 -0.0137  0.2914
 5527SOL    HW123295   2.336   2.426   1.389 -0.6209 -0.8024 -0.3854
 5527SOL    HW223296   2.277   2.346   1.518 -0.3838  0.3485  0.4452
 5528SOL     OW23297   3.938   1.571   1.612  0.5804 -0.5266 -0.1666
 5528SOL    HW123298   4.022   1.531   1.577  1.1206  0.0610  0.4590
 5528SOL    HW223299   3.952   1.602   1.706 -0.8493 -2.0857  0.5856
 5529SOL     OW23300   0.941   8.098   1.896  0.2626 -0.3267 -0.0399
 5529SOL    HW123301   0.973   8.115   1.803  0.0557 -0.9591 -0.2304
 5529SOL    HW223302   0.942   7.999   1.914 -0.4757 -0.2659  0.3452
 5530SOL     OW23303   9.055   3.716   1.205 -0.1691 -0.3723 -0.2169
 5530SOL    HW123304   9.037   3.657   1.284 -0.0760  1.0518  0.8856
 5530SOL    HW223305   8.970   3.762   1.178 -0.3261 -1.2919 -1.3185
 5531SOL     OW23306   1.546   5.742   1.410  0.1004 -0.2057  0.8470
 5531SOL    HW123307   1.606   5.820   1.426  1.1149 -0.8278  0.1232
 5531SOL    HW223308   1.455   5.762   1.447 -0.0047  1.8049 -0.4237
 5532SOL     OW23309   9.234   2.322   0.945  0.4848 -0.2016  0.1454
 5532SOL    HW123310   9.162   2.355   0.883  1.5513  2.5471  0.3066
 5532SOL    HW223311   9.200   2.243   0.995 -1.2545 -1.0022 -2.1979
 5533SOL     OW23312   7.880   0.639   1.143  0.7378 -0.2956  0.0428
 5533SOL    HW123313   7.919   0.556   1.183  0.5391 -0.2378  0.3616
 5533SOL    HW223314   7.855   0.703   1.216  0.5356 -0.1150 -0.1818
 5536SOL     OW23315   3.434   9.733   0.354  0.8359 -0.2095 -0.3742
 5536SOL    HW123316   3.402   9.640   0.373  1.8451 -0.1773  1.6352
 5536SOL    HW223317   3.392   9.767   0.269  0.4522 -2.4802 -1.1163
 5537SOL     OW23318   9.349   9.111   0.276  0.7883  0.1218  0.0722
 5537SOL    HW123319   9.384   9.163   0.199  1.2278 -1.3684 -0.7636
 5537SOL    HW223320   9.399   9.025   0.284  0.6280  0.1721  1.9136
 5538SOL     OW23321   1.547   9.885   0.289  0.6184 -0.5213  0.5058
 5538SOL    HW123322   1.608   9.912   0.364  1.2149 -0.5149  0.0218
 5538SOL    HW223323   1.470   9.833   0.326  0.6370 -0.0705  1.1811
 5539SOL     OW23324   3.240   1.980   1.769 -0.3393  0.0298 -0.8763
 5539SOL    HW123325   3.208   1.985   1.674 -2.7410 -0.6794 -0.1278
 5539SOL    HW223326   3.228   1.887   1.803 -1.6918  0.8304  0.8708
 5540SOL     OW23327   1.361   9.964   0.717 -0.0446  0.0557 -0.3441
 5540SOL    HW123328   1.345  10.062   0.732  1.2279  0.4960 -1.8334
 5540SOL    HW223329   1.306   9.932   0.640  1.4687  0.1888 -1.5022
 5541SOL     OW23330   1.999   7.914   1.269 -0.1970  0.1848 -0.2378
 5541SOL    HW123331   1.933   7.986   1.291  1.1374  0.6932  2.2770
 5541SOL    HW223332   1.979   7.833   1.324  0.9043  0.1354  0.0976
 5542SOL     OW23333   2.733   3.554   0.317  0.8756 -0.1190 -0.2248
 5542SOL    HW123334   2.771   3.528   0.406  1.6228 -2.2544 -1.1242
 5542SOL    HW223335   2.673   3.481   0.285  0.2868  0.8322 -1.2948
 5543SOL     OW23336   4.376   4.130   0.788  0.1024  0.4682  0.2065
 5543SOL    HW123337   4.376   4.216   0.840  2.4519  0.1027  0.8510
 5543SOL    HW223338   4.410   4.056   0.846  0.1594 -0.4779 -1.0248
 5544SOL     OW23339   3.367   3.634   1.452  0.0465 -0.0782 -0.1977
 5544SOL    HW123340   3.393   3.623   1.356  0.0427 -1.4228 -0.0550
 5544SOL    HW223341   3.449   3.646   1.508 -0.0053  1.9752 -0.4934
 5545SOL     OW23342   2.892   4.931   1.979 -0.0311 -0.3393 -0.3292
 5545SOL    HW123343   2.958   4.955   1.907  1.0340 -0.4685  0.5846
 5545SOL    HW223344   2.888   4.831   1.988  0.5815 -0.3039  0.4464
 5546SOL     OW23345   1.025   4.200   1.209  0.6053 -0.0495 -0.1803
 5546SOL    HW123346   1.121   4.216   1.190  0.7814  0.1893  0.8816
 5546SOL    HW223347   0.982   4.157   1.129  1.4381  0.4176 -0.8881
 5547SOL     OW23348   3.418   5.796   0.943 -0.6428  0.0758 -0.4546
 5547SOL    HW123349   3.428   5.702   0.910  0.3011  0.1390 -0.3775
 5547SOL    HW223350   3.345   5.842   0.892 -2.7483 -1.4144  1.1404
 5548SOL     OW23351   2.673   0.400   1.895 -0.7639 -0.0757 -0.3364
 5548SOL    HW123352   2.706   0.329   1.957 -0.1589  1.4434  1.1065
 5548SOL    HW223353   2.738   0.409   1.819  0.3675  0.5001  0.6770
 5550SOL     OW23354   3.022   2.592   1.518 -0.1008 -0.7447 -0.1661
 5550SOL    HW123355   2.954   2.536   1.471  0.1797  0.4443 -2.0202
 5550SOL    HW223356   3.098   2.611   1.457 -0.0620  1.4443  0.5268
 5551SOL     OW23357   3.633   8.541   1.779  0.7229 -0.0720 -0.2685
 5551SOL    HW123358   3.711   8.587   1.820 -1.7272  2.1082  2.2211
 5551SOL    HW223359   3.561   8.608   1.761 -0.6006 -2.0134 -2.4806
 5552SOL     OW23360   1.149   3.081   0.346 -0.4278 -0.0474 -0.1220
 5552SOL    HW123361   1.062   3.057   0.387 -0.3636 -0.7625 -0.3980
 5552SOL    HW223362   1.222   3.070   0.414 -0.3736 -0.8430 -0.2983
 5556SOL     OW23363   9.632   2.256   1.422  0.4912  0.2372 -0.1643
 5556SOL    HW123364   9.719   2.288   1.461  0.3770 -0.4338  0.6578
 5556SOL    HW223365   9.650   2.206   1.338  0.8614  0.5363 -0.2637
 5557SOL     OW23366   9.684   0.592   0.713  0.6236  0.0512  0.3062
 5557SOL    HW123367   9.670   0.494   0.698 -0.0146  0.0406  0.9401
 5557SOL    HW223368   9.625   0.623   0.787  1.0674  0.8503  0.3319
 5559SOL     OW23369   1.994   9.070   0.957  0.5709  0.3530 -0.1467
 5559SOL    HW123370   1.905   9.082   1.001  0.1783  1.6137 -1.2608
 5559SOL    HW223371   2.066   9.099   1.021  0.0654  1.2407  0.0227
 5560SOL     OW23372   9.692   9.567   2.314 -0.3244  0.3529  0.0817
 5560SOL    HW123373   9.704   9.646   2.374  0.2342 -0.2073  0.7205
 5560SOL    HW223374   9.638   9.593   2.234  0.5834  1.5846 -0.1354
 5562SOL     OW23375   9.585   5.241   1.164  0.3753 -0.2452  0.2185
 5562SOL    HW123376   9.502   5.221   1.216  0.1568 -0.8040 -0.3358
 5562SOL    HW223377   9.606   5.338   1.170  0.6336 -0.3832  1.7636
 5563SOL     OW23378   0.429   5.261   2.288 -0.1037  0.1653 -0.0883
 5563SOL    HW123379   0.472   5.307   2.366 -0.5718 -0.5322  0.5810
 5563SOL    HW223380   0.481   5.179   2.264 -0.2414  0.1101 -0.1988
 5564SOL     OW23381   0.998   9.215   2.233  0.1323 -0.0585 -0.1793
 5564SOL    HW123382   1.056   9.293   2.211 -0.6031 -0.4175 -3.5544
 5564SOL    HW223383   0.903   9.245   2.240 -0.0486 -0.5136 -0.6851
 5566SOL     OW23384   4.457   0.631   1.983 -0.3802 -0.1917 -0.0896
 5566SOL    HW123385   4.481   0.611   2.078 -0.7295  1.9377  0.4856
 5566SOL    HW223386   4.403   0.556   1.945  1.0547 -1.7486  0.9005
 5568SOL     OW23387   3.486   4.302   0.335 -0.0955 -0.2821  0.0995
 5568SOL    HW123388   3.500   4.368   0.408 -2.3980  0.6072 -0.2199
 5568SOL    HW223389   3.571   4.290   0.284  0.8679  0.9412  1.3649
 5569SOL     OW23390   9.977   9.318   0.750  0.1171 -0.4243  0.2300
 5569SOL    HW123391   9.900   9.270   0.791 -1.2789  0.8244 -0.9037
 5569SOL    HW223392   9.944   9.382   0.681  2.2100 -0.2455 -0.6369
 5570SOL     OW23393   2.627   4.457   0.023 -0.2513  0.5646  0.4244
 5570SOL    HW123394   2.582   4.501   0.101 -1.3939  1.2575 -0.6229
 5570SOL    HW223395   2.668   4.526  -0.036  0.3709  0.0538  0.2475
 5571SOL     OW23396   1.261   0.600   0.638 -0.0164  0.1681 -0.2952
 5571SOL    HW123397   1.257   0.509   0.597 -0.1734 -0.3955  0.9436
 5571SOL    HW223398   1.174   0.647   0.623 -0.3899 -0.3752  0.1440
 5572SOL     OW23399   2.960   4.665   2.052  0.2008  0.0128  0.3309
 5572SOL    HW123400   2.902   4.589   2.023  1.9843 -0.6277 -1.6728
 5572SOL    HW223401   3.023   4.634   2.123  0.9993 -0.4553 -0.5595
 5573SOL     OW23402   2.188   1.414   1.718  0.2999 -0.5717  0.0116
 5573SOL    HW123403   2.186   1.365   1.631 -0.1964  2.1156 -1.5605
 5573SOL    HW223404   2.256   1.372   1.779  1.1543 -2.0683 -1.9172
 5574SOL     OW23405   8.746   1.363   0.910 -0.6057  0.0529 -0.2682
 5574SOL    HW123406   8.832   1.398   0.873 -1.2403  1.0920 -0.7600
 5574SOL    HW223407   8.738   1.265   0.889 -0.4201  0.3725 -1.8682
 5577SOL     OW23408   7.282   9.789   1.963 -0.2686 -0.2877  0.0367
 5577SOL    HW123409   7.266   9.785   2.062 -0.9969  2.4705  0.0908
 5577SOL    HW223410   7.195   9.803   1.916  0.0550 -1.7471 -1.0362
 5578SOL     OW23411   8.183   8.288   0.643  0.3831  0.5058  1.0683
 5578SOL    HW123412   8.123   8.210   0.659  0.0241  0.8109  1.2011
 5578SOL    HW223413   8.139   8.371   0.674  0.1588  0.9580 -0.4208
 5580SOL     OW23414   0.956   1.620   1.436  0.2298  0.1255 -0.2014
 5580SOL    HW123415   0.943   1.545   1.372  2.2350  0.9494 -1.6458
 5580SOL    HW223416   1.051   1.650   1.432 -0.3788  2.2699  0.8551
 5581SOL     OW23417   2.280   4.431   1.229  0.4640  0.7826  0.3521
 5581SOL    HW123418   2.220   4.423   1.149 -0.0084 -0.2383  0.8073
 5581SOL    HW223419   2.226   4.452   1.310  0.5357 -1.5301  1.0292
 5582SOL     OW23420   1.145   5.240   0.734 -0.3206  0.3240 -0.0008
 5582SOL    HW123421   1.128   5.256   0.637  1.8691  0.3498 -0.3963
 5582SOL    HW223422   1.234   5.277   0.760 -1.5603  1.7510  2.3980
 5583SOL     OW23423   3.343   5.680   1.186  0.0618  0.0324  0.0996
 5583SOL    HW123424   3.348   5.737   1.103 -3.6183 -0.4511 -0.5214
 5583SOL    HW223425   3.431   5.684   1.233  1.2502  2.8645 -2.1445
 5585SOL     OW23426   8.807   3.371   1.387  0.2834 -0.5673 -0.2061
 5585SOL    HW123427   8.786   3.288   1.335  0.7967 -0.3322 -0.8054
 5585SOL    HW223428   8.777   3.360   1.481 -2.1690 -0.3870 -0.9258
 5586SOL     OW23429   1.559   0.324   1.804  0.1973  0.1197  0.0193
 5586SOL    HW123430   1.502   0.261   1.857 -0.2708  0.1410 -0.4608
 5586SOL    HW223431   1.655   0.305   1.823  0.0725 -1.1313 -0.5587
 5587SOL     OW23432   1.744   4.632   2.016 -0.3196 -0.2600  0.4210
 5587SOL    HW123433   1.819   4.679   1.971  0.4251 -1.0013  0.8895
 5587SOL    HW223434   1.710   4.559   1.957 -0.9211  0.3058  0.0553
 5588SOL     OW23435   7.635   0.892   0.423  0.0375 -0.4411 -0.4147
 5588SOL    HW123436   7.654   0.796   0.442 -0.2253 -0.9782 -2.6896
 5588SOL    HW223437   7.694   0.924   0.349  0.8639  1.4688  1.0393
 5589SOL     OW23438   2.428   2.794   1.748 -0.3789  0.5032 -0.2238
 5589SOL    HW123439   2.393   2.888   1.742  0.6224  0.9293  0.4425
 5589SOL    HW223440   2.417   2.761   1.841 -1.6309 -0.4053 -0.6923
 5590SOL     OW23441   4.004   9.668   1.315  0.5182 -0.1764  0.1408
 5590SOL    HW123442   4.028   9.575   1.343  0.2305 -0.4482 -0.4944
 5590SOL    HW223443   4.042   9.734   1.379  0.5453 -0.7485  0.7093
 5592SOL     OW23444   1.561   1.971   2.094 -0.4900  0.1349  0.0783
 5592SOL    HW123445   1.576   1.902   2.164  0.6193  0.2875  0.0091
 5592SOL    HW223446   1.484   2.030   2.121  1.1177  1.3993  2.1471
 5593SOL     OW23447   9.416   9.122   1.793 -0.0862 -0.2984  0.0465
 5593SOL    HW123448   9.333   9.133   1.739 -0.6268  0.8547  1.0713
 5593SOL    HW223449   9.404   9.046   1.857 -0.3408 -0.1426  0.1840
 5594SOL     OW23450   9.930   0.870   1.920  0.2337 -0.4491 -0.1980
 5594SOL    HW123451   9.901   0.798   1.983 -1.5424 -0.5143 -1.0767
 5594SOL    HW223452   9.852   0.902   1.867  1.7283 -0.4515 -2.4475
 5597SOL     OW23453   3.275   6.497   0.796  0.4203 -0.7005 -0.3567
 5597SOL    HW123454   3.299   6.575   0.739 -0.3649 -0.3842 -0.2654
 5597SOL    HW223455   3.175   6.491   0.803  0.5113 -0.3439  1.5103
 5598SOL     OW23456   8.711   8.844   0.640  0.0398  0.5185  0.3289
 5598SOL    HW123457   8.802   8.814   0.611 -1.1059 -0.5084 -2.3735
 5598SOL    HW223458   8.676   8.781   0.709 -0.3154 -1.6625 -1.7332
 5599SOL     OW23459   8.785   4.453   0.002 -0.1043  0.5018 -0.2349
 5599SOL    HW123460   8.697   4.432   0.046  0.4625 -1.8746 -0.2052
 5599SOL    HW223461   8.814   4.375  -0.053  1.9173  1.3401 -0.3773
 5600SOL     OW23462   3.079   2.570   1.076  0.5503 -0.7528  0.5631
 5600SOL    HW123463   3.119   2.613   0.995 -0.6558  0.7024  0.7229
 5600SOL    HW223464   3.107   2.621   1.157  1.2430 -1.8407  1.0253
 5601SOL     OW23465   0.679   2.644   1.785 -0.1348 -0.4769  0.2189
 5601SOL    HW123466   0.764   2.679   1.747  0.2670 -2.0658 -0.3422
 5601SOL    HW223467   0.658   2.555   1.746 -2.9317  0.6094 -0.9327
 5602SOL     OW23468   0.451   8.251   1.241 -0.3631 -0.7809 -0.0753
 5602SOL    HW123469   0.426   8.334   1.191 -1.3437  0.0870  1.7965
 5602SOL    HW223470   0.369   8.196   1.257  0.1132 -1.5669 -0.3493
 5604SOL     OW23471   3.285   1.223   0.582  0.2201  0.2647 -0.2047
 5604SOL    HW123472   3.242   1.223   0.672  0.9957 -1.4197  0.1953
 5604SOL    HW223473   3.383   1.243   0.592  0.7368 -1.9793 -0.4033
 5605SOL     OW23474   0.550   7.304   1.482  0.2601  0.3249 -0.6954
 5605SOL    HW123475   0.549   7.402   1.500  1.2814  0.7115 -2.5930
 5605SOL    HW223476   0.456   7.270   1.479 -0.0748  1.0816  0.7190
 5606SOL     OW23477   2.861   4.057   1.426 -0.5592 -0.1197 -0.3861
 5606SOL    HW123478   2.949   4.009   1.413 -0.8613 -0.9954  0.7419
 5606SOL    HW223479   2.854   4.131   1.359  1.8534  1.1520  0.7069
 5609SOL     OW23480   1.556   3.781   1.652  0.1677  0.0599 -0.2624
 5609SOL    HW123481   1.478   3.841   1.669 -0.3220 -0.8645  0.8175
 5609SOL    HW223482   1.564   3.765   1.554  0.9667  2.7376 -0.6933
 5610SOL     OW23483   9.203   5.306   0.921  0.3562 -0.0837 -0.2095
 5610SOL    HW123484   9.225   5.353   1.006  0.7598  1.0924 -0.9671
 5610SOL    HW223485   9.264   5.227   0.910  1.7958  1.0459 -0.4990
 5611SOL     OW23486   9.943   4.033   1.945  0.1493 -0.1625  0.3338
 5611SOL    HW123487   9.979   4.120   1.980 -0.8886  0.0434  0.8981
 5611SOL    HW223488   9.889   3.988   2.016  1.0866 -1.5175  0.2082
 5612SOL     OW23489   3.834   8.803   0.241 -0.3666  0.3932 -0.4946
 5612SOL    HW123490   3.826   8.898   0.211 -1.0427  0.3159 -0.5656
 5612SOL    HW223491   3.787   8.791   0.328 -2.5512 -0.4510 -1.7522
 5613SOL     OW23492   8.055   9.562   0.115  0.2813 -0.0767  0.0150
 5613SOL    HW123493   8.096   9.473   0.096 -0.5179 -0.3452 -0.5047
 5613SOL    HW223494   8.108   9.610   0.184 -0.8347 -2.0987  2.3561
 5614SOL     OW23495   1.034   1.407   2.248 -0.3067 -0.3199  0.5929
 5614SOL    HW123496   1.060   1.408   2.151  0.7797  1.0179  0.8837
 5614SOL    HW223497   1.068   1.323   2.291 -1.6268 -1.3904 -0.3827
 5615SOL     OW23498   3.181   8.272   0.285  0.0147  0.0409 -0.2214
 5615SOL    HW123499   3.154   8.317   0.370  0.2049 -0.5179  0.1334
 5615SOL    HW223500   3.276   8.294   0.265 -0.0304  0.1737 -0.2935
 5616SOL     OW23501   2.996   1.381   1.948 -0.6717  0.2356 -0.1519
 5616SOL    HW123502   2.921   1.329   1.988 -1.1758  1.3431  0.3550
 5616SOL    HW223503   3.083   1.349   1.985 -0.9586 -0.4598 -0.0809
 5617SOL     OW23504   3.947   1.779   0.462 -0.2404 -0.2135 -0.1664
 5617SOL    HW123505   3.898   1.692   0.453  0.3177 -0.6166  0.6405
 5617SOL    HW223506   3.899   1.849   0.410 -0.4805 -1.0929 -1.1485
 5618SOL     OW23507   0.868   8.915   0.597 -0.3041  0.6467 -0.1814
 5618SOL    HW123508   0.779   8.940   0.559 -0.6538 -0.4389 -0.1021
 5618SOL    HW223509   0.857   8.836   0.658  0.9720 -0.6362 -1.5779
 5619SOL     OW23510   9.186   7.762   1.484  0.6426 -0.1661  0.1544
 5619SOL    HW123511   9.140   7.757   1.572  1.4774  0.1039  0.6083
 5619SOL    HW223512   9.130   7.717   1.414  0.3739 -1.1109  0.9773
 5621SOL     OW23513   0.287   8.107   2.061  0.2295  0.4352  0.1396
 5621SOL    HW123514   0.360   8.158   2.015 -0.8009 -0.4069 -2.4628
 5621SOL    HW223515   0.226   8.066   1.994 -1.1385 -1.1231  2.2520
 5623SOL     OW23516   2.534   2.831   1.220 -0.0076 -0.5653  0.3743
 5623SOL    HW123517   2.588   2.890   1.279  0.5993 -1.3895  0.6567
 5623SOL    HW223518   2.588   2.806   1.139  0.1725 -1.6790  0.8283
 5624SOL     OW23519   4.047   0.564   0.156  0.2463 -0.0970 -0.0941
 5624SOL    HW123520   4.105   0.619   0.097  0.1405  1.5030  1.2607
 5624SOL    HW223521   4.000   0.623   0.222  0.9350 -1.8523  2.0638
 5626SOL     OW23522   3.398   6.194   2.033 -0.8724  0.3776 -0.3206
 5626SOL    HW123523   3.402   6.176   2.131 -1.8047  1.8533  0.0119
 5626SOL    HW223524   3.489   6.188   1.994 -0.6221 -1.1096  0.4608
 5627SOL     OW23525   2.224   8.342   1.948 -0.0308  0.4890 -0.2429
 5627SOL    HW123526   2.278   8.263   1.919 -0.2428  0.7271 -1.3060
 5627SOL    HW223527   2.138   8.344   1.897 -0.7516  0.4875  0.9606
 5628SOL     OW23528   1.567   9.536   0.322  0.0313 -0.0515  0.1068
 5628SOL    HW123529   1.627   9.583   0.258  1.0794 -1.8650 -0.2781
 5628SOL    HW223530   1.479   9.585   0.327  0.3410  0.7611 -1.8301
 5630SOL     OW23531   1.526   4.290   1.359 -0.5536 -0.3729  0.3225
 5630SOL    HW123532   1.485   4.354   1.294 -0.5763 -0.9825 -0.2647
 5630SOL    HW223533   1.465   4.279   1.438  0.0274  1.2970  1.0262
 5631SOL     OW23534   1.923   5.657   0.476  0.4267  0.3297 -0.3699
 5631SOL    HW123535   2.020   5.680   0.478  0.3407  0.7036 -0.4911
 5631SOL    HW223536   1.908   5.578   0.416  0.6201  0.4370 -0.5598
 5632SOL     OW23537   9.595   8.072   1.644 -0.3644 -0.1386 -0.6038
 5632SOL    HW123538   9.602   8.135   1.567 -0.1607  0.5355 -0.0411
 5632SOL    HW223539   9.686   8.053   1.680 -0.4869 -0.1587 -0.3040
 5633SOL     OW23540   2.125   1.924   2.262 -0.1708  0.5847  0.5019
 5633SOL    HW123541   2.219   1.893   2.250 -0.3638 -0.2827  1.1298
 5633SOL    HW223542   2.063   1.847   2.247 -0.7833  1.1616  0.0508
 5634SOL     OW23543   4.464   2.511   2.002  0.2321  0.3484 -0.2669
 5634SOL    HW123544   4.520   2.483   2.080  1.3115  2.1434 -0.3734
 5634SOL    HW223545   4.374   2.540   2.035  0.3557  0.2016  0.2050
 5636SOL     OW23546   3.473   1.637   1.350 -0.5062  0.1820 -0.0724
 5636SOL    HW123547   3.556   1.581   1.350 -0.7773 -0.3066  2.5791
 5636SOL    HW223548   3.486   1.717   1.292  0.9167 -1.1474 -1.6277
 5639SOL     OW23549   8.673   2.890   2.023  0.0550  0.6892 -0.0779
 5639SOL    HW123550   8.597   2.842   2.067 -0.1168 -1.0548 -2.1840
 5639SOL    HW223551   8.745   2.824   1.999  0.8185  1.8249 -0.9832
 5640SOL     OW23552   2.146   4.428   2.201  0.1731 -0.1280  0.1839
 5640SOL    HW123553   2.114   4.420   2.295  0.3413  0.1447  0.2674
 5640SOL    HW223554   2.159   4.337   2.161  1.8242 -0.2770  1.0139
 5641SOL     OW23555   2.032   8.262   0.114  0.2877 -0.2786 -0.3025
 5641SOL    HW123556   1.993   8.289   0.026  1.2736  1.9784 -0.0855
 5641SOL    HW223557   2.108   8.199   0.099  0.1885 -0.2259 -1.0404
 5642SOL     OW23558   0.240   6.838   1.772  0.3812  0.1161  0.2899
 5642SOL    HW123559   0.208   6.898   1.847 -1.9118 -0.7939  0.0846
 5642SOL    HW223560   0.339   6.847   1.763  0.5242  1.3215  2.5039
 5643SOL     OW23561   4.694   0.785   0.205  0.0923  0.0821 -0.0794
 5643SOL    HW123562   4.649   0.698   0.184  1.6925 -0.5423 -1.0507
 5643SOL    HW223563   4.757   0.772   0.282  0.6063  0.2847 -0.4645
 5645SOL     OW23564   1.145   4.749   1.166 -0.2365  0.4087  0.5638
 5645SOL    HW123565   1.150   4.795   1.255 -0.7061  1.6925 -0.0552
 5645SOL    HW223566   1.154   4.817   1.093 -0.0977 -0.6003 -0.3708
 5647SOL     OW23567   5.648   2.199   0.771 -0.0112  0.7378 -0.0467
 5647SOL    HW123568   5.637   2.161   0.680 -1.6581 -1.8596  1.1660
 5647SOL    HW223569   5.627   2.297   0.769 -0.2276  0.6742 -2.3849
 5650SOL     OW23570   3.913   1.701   2.059  0.2992 -0.3033 -0.0014
 5650SOL    HW123571   3.853   1.693   1.979 -0.2637  2.6385  0.0536
 5650SOL    HW223572   4.001   1.739   2.031 -0.4147  2.1580  0.9250
 5651SOL     OW23573   9.505   6.375   1.845  0.3929 -0.2905 -0.2205
 5651SOL    HW123574   9.426   6.430   1.870 -0.7015 -2.0531  0.3108
 5651SOL    HW223575   9.588   6.416   1.883 -0.1816  1.8580 -1.2298
 5652SOL     OW23576   9.073   5.558   1.282  0.3331 -0.2137 -0.4036
 5652SOL    HW123577   9.040   5.470   1.247  0.3625 -0.3656 -0.0425
 5652SOL    HW223578   9.058   5.628   1.212  0.9353 -0.6344 -0.9616
 5653SOL     OW23579   2.977   0.207   1.109 -0.2546 -0.4509  0.1128
 5653SOL    HW123580   2.921   0.256   1.176 -1.7985 -1.9889 -0.0044
 5653SOL    HW223581   3.014   0.271   1.042 -1.0555  0.7279  0.7786
 5655SOL     OW23582   1.106   6.337   0.338  0.4463  0.5336  0.4277
 5655SOL    HW123583   1.093   6.282   0.420  0.4487 -0.4922 -0.2590
 5655SOL    HW223584   1.101   6.279   0.256  0.4460  1.5390 -0.3045
 5656SOL     OW23585   1.975   2.922   2.068 -0.3686 -0.3850  0.0256
 5656SOL    HW123586   1.895   2.863   2.084 -0.1765 -0.6709 -0.0656
 5656SOL    HW223587   2.047   2.898   2.132 -0.5590  0.2596  0.4860
 5659SOL     OW23588   2.937   0.550   0.087 -0.0234 -0.2754  0.8978
 5659SOL    HW123589   2.926   0.603   0.003  1.5565  1.3338  1.6641
 5659SOL    HW223590   3.026   0.505   0.087 -0.8439 -1.9329  0.8189
 5662SOL     OW23591   2.560   7.160   0.923 -0.1060  0.0082  0.8550
 5662SOL    HW123592   2.496   7.134   0.851 -0.6705  0.0326  1.3394
 5662SOL    HW223593   2.516   7.226   0.984  0.5405  0.3746  0.9301
 5663SOL     OW23594   2.279   7.275   0.841  0.7765 -1.1063  0.0806
 5663SOL    HW123595   2.364   7.320   0.814  0.5265  0.1233  1.3331
 5663SOL    HW223596   2.271   7.188   0.792  1.8437 -0.3652 -1.4467
 5664SOL     OW23597   1.626   7.291   1.069  0.2515  0.1888  0.6795
 5664SOL    HW123598   1.633   7.266   1.165 -0.2927  0.9381  0.9178
 5664SOL    HW223599   1.690   7.236   1.015  0.7107 -0.0728  1.4950
 5665SOL     OW23600   1.201   9.851   1.880  0.7944  0.8776  0.0394
 5665SOL    HW123601   1.121   9.836   1.823  0.0307 -0.5435  1.4320
 5665SOL    HW223602   1.283   9.818   1.833  0.5081  1.8281 -1.1584
 5666SOL     OW23603   3.027   9.162   1.294 -0.0504  0.3636 -0.0910
 5666SOL    HW123604   3.112   9.145   1.344 -0.3926 -0.4633  0.2205
 5666SOL    HW223605   2.968   9.222   1.349 -0.9948 -1.6374  1.1333
 5667SOL     OW23606   9.928   1.523   1.965  0.1072 -0.2841  0.0095
 5667SOL    HW123607  10.019   1.563   1.982 -0.3150  0.7659 -0.1569
 5667SOL    HW223608   9.891   1.487   2.050  1.0067 -1.4091 -0.0659
 5668SOL     OW23609   9.004   8.096   1.766  0.4379  0.2734 -0.0299
 5668SOL    HW123610   9.060   8.072   1.687  0.0626 -1.6809  0.2721
 5668SOL    HW223611   9.032   8.186   1.801  1.4615  0.5789 -1.5929
 5669SOL     OW23612   1.304   6.397   2.187  0.2034 -0.3017  0.2741
 5669SOL    HW123613   1.206   6.399   2.167 -0.1626 -1.5198  1.8175
 5669SOL    HW223614   1.330   6.483   2.231 -0.5128 -0.5676  1.2529
 5670SOL     OW23615   1.140   2.016   0.288 -0.0876  0.0643  0.2633
 5670SOL    HW123616   1.089   1.955   0.349 -1.1132  1.6152  0.9591
 5670SOL    HW223617   1.181   1.961   0.215 -2.0985 -1.3223  0.1213
 5671SOL     OW23618   4.935   3.317   1.131 -0.6124 -0.1842 -0.3708
 5671SOL    HW123619   4.947   3.372   1.213 -0.7115  1.4893 -1.4582
 5671SOL    HW223620   4.861   3.251   1.146 -0.8038  0.2791  0.7788
 5672SOL     OW23621   9.443   9.542   1.795  0.0282 -0.6910 -0.3010
 5672SOL    HW123622   9.378   9.467   1.785  0.4891 -1.1596  0.1921
 5672SOL    HW223623   9.499   9.549   1.712  1.2506 -2.0972  0.4113
 5674SOL     OW23624   1.489   9.288   2.246  0.9462  0.2974 -0.2426
 5674SOL    HW123625   1.543   9.361   2.206  1.7815  0.1842  0.6420
 5674SOL    HW223626   1.524   9.199   2.216  0.3770  0.2444 -0.7608
 5675SOL     OW23627   2.786   5.546   2.252  0.1931 -0.0004 -0.7868
 5675SOL    HW123628   2.784   5.526   2.350 -2.5845  3.2549 -0.0992
 5675SOL    HW223629   2.832   5.633   2.237 -0.3521  0.0345 -2.2924
 5676SOL     OW23630   9.184   4.935   1.151 -0.1835  0.7279 -0.6406
 5676SOL    HW123631   9.135   4.855   1.187  0.6955  1.0056  1.2710
 5676SOL    HW223632   9.263   4.903   1.098  0.4827  0.3047  0.5760
 5677SOL     OW23633   9.566   6.840   1.133 -0.0284 -0.2890  0.2075
 5677SOL    HW123634   9.606   6.760   1.089  0.9307 -0.6440  1.7124
 5677SOL    HW223635   9.466   6.834   1.127  0.0388 -1.5600  0.2616
 5678SOL     OW23636   2.481   2.179   0.888 -0.3578  0.1108  0.8049
 5678SOL    HW123637   2.561   2.219   0.843  0.9057 -2.2833  0.8044
 5678SOL    HW223638   2.511   2.112   0.956 -2.3560 -0.1029  1.5206
 5679SOL     OW23639   8.405   9.579   2.036 -0.8250 -0.0930 -0.1004
 5679SOL    HW123640   8.374   9.487   2.012  0.0928 -0.9196  1.7799
 5679SOL    HW223641   8.501   9.576   2.063 -0.6830  1.4914 -0.3760
 5680SOL     OW23642   2.266   6.226   0.113 -0.4506  0.0605 -0.1374
 5680SOL    HW123643   2.265   6.158   0.186 -0.8921  0.3980  0.1719
 5680SOL    HW223644   2.223   6.310   0.144  0.3687  0.5956 -0.4178
 5681SOL     OW23645   3.558   3.385   2.293 -0.3824  0.0492 -0.1080
 5681SOL    HW123646   3.617   3.464   2.276 -0.2627 -0.1315 -0.5396
 5681SOL    HW223647   3.499   3.370   2.214 -1.7023  0.8231  0.6965
 5682SOL     OW23648   8.571   0.040   0.713  0.3741 -0.3937 -0.1080
 5682SOL    HW123649   8.495   0.015   0.654  1.1897 -0.6081 -1.0820
 5682SOL    HW223650   8.537   0.056   0.806 -0.7860 -0.9076 -0.4327
 5683SOL     OW23651   2.871   7.494   0.318 -0.0425 -0.0924 -0.2393
 5683SOL    HW123652   2.826   7.563   0.262 -0.3222 -0.0532  0.0369
 5683SOL    HW223653   2.937   7.444   0.261 -0.5167 -0.2354 -0.6691
 5684SOL     OW23654   2.245   4.069   0.477  0.1748 -0.0268 -0.1709
 5684SOL    HW123655   2.241   4.037   0.383 -1.2689 -0.1510 -0.0893
 5684SOL    HW223656   2.290   4.158   0.480 -0.1113  0.1551 -1.0376
 5685SOL     OW23657   1.492   7.683   2.049  0.4772  0.0832 -0.1792
 5685SOL    HW123658   1.400   7.646   2.066  0.7508 -1.0828 -1.1807
 5685SOL    HW223659   1.508   7.760   2.110 -2.0029  1.6881 -1.4614
 5686SOL     OW23660   4.599   2.151   1.836  0.6365  0.3047 -0.3355
 5686SOL    HW123661   4.580   2.238   1.792  1.5293  0.4021 -0.5334
 5686SOL    HW223662   4.555   2.149   1.926 -0.8244  0.2769 -1.0303
 5687SOL     OW23663   3.071   3.631   1.288 -0.1431  0.7146 -0.2318
 5687SOL    HW123664   3.122   3.687   1.353  0.4146 -0.0850  0.0185
 5687SOL    HW223665   3.076   3.535   1.315 -0.9082  0.5134 -0.7890
 5689SOL     OW23666   9.975   1.454   1.153  0.5382  0.4615  1.1626
 5689SOL    HW123667   9.997   1.482   1.246  0.8209  2.3118  0.5634
 5689SOL    HW223668   9.956   1.536   1.097  0.9077 -0.5805 -0.5260
 5691SOL     OW23669   9.936   7.742   0.549  0.1181  0.0490 -0.9507
 5691SOL    HW123670   9.983   7.680   0.612 -0.2680 -0.3843 -1.0844
 5691SOL    HW223671   9.972   7.730   0.456 -2.1442 -2.3177 -1.5998
 5692SOL     OW23672   0.866   1.177   1.992 -0.0664 -0.2527 -1.1047
 5692SOL    HW123673   0.793   1.242   1.969  0.6466  0.5697 -1.0542
 5692SOL    HW223674   0.898   1.132   1.909 -1.3251 -1.3639 -1.0033
 5694SOL     OW23675   1.673   1.365   0.471 -0.3430  0.2142  0.3318
 5694SOL    HW123676   1.692   1.271   0.499  0.8952  0.1054 -0.8683
 5694SOL    HW223677   1.752   1.423   0.489  0.6882  0.0469 -3.3381
 5695SOL     OW23678   9.632   1.892   1.916 -0.1096  0.1733 -0.2405
 5695SOL    HW123679   9.588   1.832   1.849 -1.1789  1.1038 -0.3860
 5695SOL    HW223680   9.584   1.980   1.919 -0.1685  0.0868  1.8686
 5696SOL     OW23681   2.508   8.254   1.725 -0.0187 -0.0333  0.4371
 5696SOL    HW123682   2.483   8.206   1.809  1.6044  2.0632  2.1589
 5696SOL    HW223683   2.492   8.352   1.736  2.2205  0.5227 -0.9064
 5697SOL     OW23684   2.661   3.390   0.595 -0.8877  0.1260 -0.4032
 5697SOL    HW123685   2.668   3.388   0.694 -1.2791  2.5730 -0.2798
 5697SOL    HW223686   2.579   3.341   0.566 -0.5533 -0.9406  0.4500
 5698SOL     OW23687   4.430   9.088   0.916  0.1769  0.0230 -0.0397
 5698SOL    HW123688   4.419   8.989   0.925 -1.5454  0.2446  0.4888
 5698SOL    HW223689   4.366   9.121   0.846 -0.1004  0.9172  0.6380
 5699SOL     OW23690   3.138   6.250   2.086 -0.1069 -0.2016  0.0934
 5699SOL    HW123691   3.223   6.218   2.046 -0.1971 -0.1365 -0.1520
 5699SOL    HW223692   3.135   6.350   2.084 -1.4873 -0.2458 -2.6522
 5700SOL     OW23693   9.544   0.655   0.342  0.1477  0.2975  0.3982
 5700SOL    HW123694   9.637   0.686   0.362  0.6943 -1.9097  1.5421
 5700SOL    HW223695   9.501   0.717   0.276  2.7537  0.8556 -0.8597
 5703SOL     OW23696   8.532   8.083   1.050 -0.5881  0.6516 -0.5075
 5703SOL    HW123697   8.533   8.177   1.016 -0.9393  1.5910  2.0164
 5703SOL    HW223698   8.437   8.049   1.051 -0.3662 -0.1566 -2.4088
 5705SOL     OW23699   2.516   3.847   2.121 -0.3626 -0.0553  0.5728
 5705SOL    HW123700   2.535   3.936   2.080 -0.8497 -0.4081 -0.4557
 5705SOL    HW223701   2.513   3.855   2.220  3.7104  0.2877  0.7200
 5707SOL     OW23702   3.271   8.635   1.389  0.1240  0.0209  0.1478
 5707SOL    HW123703   3.359   8.587   1.389 -0.7606 -1.6503 -1.6952
 5707SOL    HW223704   3.275   8.712   1.326 -0.3876 -1.3623 -1.6188
 5708SOL     OW23705   3.279   6.343   1.015  0.3572  0.2637  0.3285
 5708SOL    HW123706   3.330   6.260   0.991  0.4310  0.6737 -1.0093
 5708SOL    HW223707   3.291   6.411   0.942 -1.6464  0.5716  0.2484
 5709SOL     OW23708   0.166   2.835   1.142  0.2492  0.8056 -0.1627
 5709SOL    HW123709   0.132   2.915   1.191 -1.0055 -0.0381  0.3831
 5709SOL    HW223710   0.223   2.864   1.066 -0.5866  2.2320 -0.2607
 5710SOL     OW23711   1.901   1.601   1.528  0.6007 -0.2641  0.4347
 5710SOL    HW123712   1.908   1.666   1.452 -0.8213 -0.8725 -0.2332
 5710SOL    HW223713   1.935   1.644   1.611 -0.8427  1.5780  0.1254
 5711SOL     OW23714   8.784   9.532   1.607 -0.5895  0.8871 -0.2114
 5711SOL    HW123715   8.696   9.563   1.645 -0.8573  2.9884 -2.4052
 5711SOL    HW223716   8.855   9.600   1.628 -0.0266  0.4136 -0.5727
 5712SOL     OW23717   8.782   4.815   0.541  0.0219  0.5389  0.1690
 5712SOL    HW123718   8.813   4.860   0.625  0.5356  1.3548 -0.4451
 5712SOL    HW223719   8.780   4.716   0.554  1.5571  0.5665  0.6750
 5713SOL     OW23720   2.052   9.130   1.485 -0.3793 -0.4217 -0.2307
 5713SOL    HW123721   2.068   9.128   1.386  0.4890  0.7067 -0.1295
 5713SOL    HW223722   1.961   9.094   1.505 -0.7964 -0.1074 -1.4999
 5714SOL     OW23723   0.644   8.758   0.756 -0.1008  0.4909 -0.2632
 5714SOL    HW123724   0.699   8.748   0.839 -0.2553  1.5579 -0.0261
 5714SOL    HW223725   0.549   8.732   0.775  0.3845 -1.7149 -0.7691
 5715SOL     OW23726   8.642   1.103   0.568 -0.7759 -0.2709  0.3343
 5715SOL    HW123727   8.578   1.044   0.519 -2.5311 -0.0075  2.2149
 5715SOL    HW223728   8.667   1.181   0.510  1.1619 -2.5259 -1.9735
 5716SOL     OW23729   2.492   7.925   0.053  0.0628  0.1052 -0.2413
 5716SOL    HW123730   2.562   7.997   0.049  0.9000 -0.7683 -1.4599
 5716SOL    HW223731   2.454   7.910  -0.038 -1.6072  0.4417  0.3795
 5717SOL     OW23732   0.158   1.040   1.251 -0.1011 -0.1362 -0.1787
 5717SOL    HW123733   0.167   1.002   1.343 -0.8356  0.9332  0.3475
 5717SOL    HW223734   0.068   1.082   1.240 -0.4322 -1.2225 -1.7613
 5718SOL     OW23735   2.686   5.917   0.837  0.1664  0.1279 -0.3713
 5718SOL    HW123736   2.608   5.952   0.785  0.5876 -1.3841 -2.0770
 5718SOL    HW223737   2.676   5.819   0.851  1.3041  0.0814  0.2306
 5719SOL     OW23738   4.322   9.799   0.073  0.1201  0.2419  0.1491
 5719SOL    HW123739   4.299   9.849   0.156 -2.5541  1.0949 -1.0594
 5719SOL    HW223740   4.262   9.719   0.064  0.0085  0.4638 -1.2215
 5720SOL     OW23741   9.477   2.623   1.613  0.3085  0.3739 -0.0583
 5720SOL    HW123742   9.474   2.562   1.692  0.2507  1.7348  0.9971
 5720SOL    HW223743   9.410   2.593   1.545 -0.0286 -0.4687  0.6364
 5721SOL     OW23744   8.378   2.098   1.365 -0.0445  0.0948 -0.0399
 5721SOL    HW123745   8.397   2.189   1.401 -0.6935  0.9258 -1.7717
 5721SOL    HW223746   8.352   2.104   1.269 -0.6530 -1.8683 -0.0275
 5722SOL     OW23747   9.459   2.555   2.942  0.1202  0.0660  0.1861
 5722SOL    HW123748   9.385   2.595   2.888 -0.0529 -2.4941 -1.5217
 5722SOL    HW223749   9.541   2.612   2.932 -0.7336  1.2112 -0.4348
 5723SOL     OW23750   0.659   3.080   1.912  0.5996  0.5205  0.0638
 5723SOL    HW123751   0.633   3.111   2.003  0.0204  0.7983 -0.1934
 5723SOL    HW223752   0.611   3.135   1.843 -0.7100 -1.1580 -0.3979
 5724SOL     OW23753   9.349   3.821   2.192 -0.3244  0.0108 -0.0482
 5724SOL    HW123754   9.359   3.886   2.117  0.9825 -0.4618 -0.2953
 5724SOL    HW223755   9.403   3.740   2.173  1.1356  0.4605  2.0245
 5725SOL     OW23756   2.741   1.331   0.119 -0.3673 -0.3177 -0.2466
 5725SOL    HW123757   2.658   1.379   0.145  0.1687  0.4424  0.0578
 5725SOL    HW223758   2.744   1.243   0.166 -1.2568 -0.5837 -0.6675
 5726SOL     OW23759   0.694   0.815   2.278  0.3392 -0.2368 -0.1590
 5726SOL    HW123760   0.715   0.831   2.181  0.1227 -2.9637 -0.6837
 5726SOL    HW223761   0.770   0.768   2.322 -0.8543 -1.8896  0.1871
 5729SOL     OW23762   2.509   0.031   1.105  0.3777 -0.2947 -0.5411
 5729SOL    HW123763   2.585  -0.028   1.131 -0.9784 -0.4618  3.3198
 5729SOL    HW223764   2.439  -0.024   1.059  1.2333 -0.6980 -1.4018
 5730SOL     OW23765   8.389   0.444   2.167  0.5931  0.6513 -0.7100
 5730SOL    HW123766   8.409   0.383   2.244  1.4101  3.1322  1.1018
 5730SOL    HW223767   8.305   0.414   2.122 -0.5132 -0.2056  1.8405
 5731SOL     OW23768   9.316   7.284   0.822 -0.1056  0.2484 -0.6192
 5731SOL    HW123769   9.404   7.298   0.868 -0.3736  0.3373 -0.1314
 5731SOL    HW223770   9.332   7.246   0.731  0.2855 -2.5822  0.6008
 5732SOL     OW23771   9.342   8.175   1.697 -0.3071  0.3787 -0.3453
 5732SOL    HW123772   9.289   8.119   1.633 -0.4279 -0.3397  0.3788
 5732SOL    HW223773   9.439   8.155   1.688 -0.3009  0.4785 -0.5032
 5733SOL     OW23774   2.024   3.791   0.621 -0.1102 -0.0412 -0.6249
 5733SOL    HW123775   1.980   3.777   0.532 -1.0649  0.9215 -0.3138
 5733SOL    HW223776   1.955   3.818   0.688  0.4505 -1.6459  0.6380
 5734SOL     OW23777   2.673   0.864   0.963  0.2955  0.1391  0.1925
 5734SOL    HW123778   2.756   0.903   0.924  0.0759 -0.1035 -0.5387
 5734SOL    HW223779   2.660   0.771   0.928 -1.0474  0.6955 -0.8796
 5736SOL     OW23780   0.336   9.566   0.519  0.0619  0.1525  0.8500
 5736SOL    HW123781   0.258   9.594   0.575 -0.2443  1.7947 -0.3475
 5736SOL    HW223782   0.307   9.495   0.455 -0.8268  1.7126 -0.5201
 5737SOL     OW23783   4.119   0.857   1.234 -0.0936 -0.0058  0.2240
 5737SOL    HW123784   4.063   0.939   1.248 -1.0620 -0.5990 -0.1174
 5737SOL    HW223785   4.087   0.808   1.153  0.4872 -0.7195  0.4154
 5738SOL     OW23786   1.712   1.088   1.873  0.5326 -0.2670 -0.3737
 5738SOL    HW123787   1.732   1.131   1.960 -1.0414  0.3738 -0.3078
 5738SOL    HW223788   1.615   1.098   1.852  1.0058  0.1562 -2.5058
 5739SOL     OW23789   2.435   2.399   2.261  0.0753 -0.2332 -0.2422
 5739SOL    HW123790   2.354   2.434   2.213 -0.4696 -0.3648  0.5731
 5739SOL    HW223791   2.482   2.332   2.203  0.5625  1.0941 -1.4137
 5740SOL     OW23792   0.641   2.159   1.098  0.2407 -0.3096  0.3779
 5740SOL    HW123793   0.681   2.248   1.077 -0.5344  0.2001  1.0313
 5740SOL    HW223794   0.669   2.131   1.190  0.5422 -0.7752  0.1448
 5742SOL     OW23795   3.561   4.808   1.773 -0.0711  0.6644  0.1341
 5742SOL    HW123796   3.630   4.765   1.830 -1.1716 -0.9265  0.2855
 5742SOL    HW223797   3.534   4.745   1.700 -1.2848  1.3079  0.0121
 5743SOL     OW23798   1.270   3.904   1.522  0.3426  0.3638  0.0943
 5743SOL    HW123799   1.262   3.839   1.446  0.3584 -0.4551  0.7793
 5743SOL    HW223800   1.241   3.859   1.606 -0.8318  1.6404  0.3797
 5744SOL     OW23801   4.351   3.184   0.672 -0.2383  0.2393 -0.0031
 5744SOL    HW123802   4.325   3.272   0.632 -1.7591  0.7558  2.0300
 5744SOL    HW223803   4.439   3.155   0.636  0.8446  3.1765  0.1761
 5745SOL     OW23804   3.208   3.104   1.910  0.1752 -0.1324  0.2202
 5745SOL    HW123805   3.124   3.137   1.866 -0.0156 -0.4328  0.3561
 5745SOL    HW223806   3.252   3.180   1.959 -0.9462 -0.3559  1.6100
 5747SOL     OW23807   1.357   3.251   2.093 -0.6656  0.9256  0.2100
 5747SOL    HW123808   1.341   3.198   2.010 -2.6958 -1.8594  2.2729
 5747SOL    HW223809   1.408   3.196   2.159 -2.6369  1.5654  2.3315
 5748SOL     OW23810   9.222   1.779   1.062  0.4040 -0.3153  0.2583
 5748SOL    HW123811   9.212   1.771   1.162  0.2705  0.2215  0.2894
 5748SOL    HW223812   9.274   1.701   1.028  0.2931 -0.5988  0.7269
 5750SOL     OW23813   0.917   8.334   0.860 -0.1863 -0.3528  0.2661
 5750SOL    HW123814   1.007   8.289   0.854 -0.0682  0.0428 -0.9847
 5750SOL    HW223815   0.903   8.392   0.780 -1.5472 -0.3750  0.4771
 5751SOL     OW23816   1.115   0.872   1.192  0.0704 -0.6005  0.1848
 5751SOL    HW123817   1.092   0.826   1.107  0.9444  1.0315 -0.9678
 5751SOL    HW223818   1.207   0.911   1.185 -0.4499  0.8981  1.2860
 5752SOL     OW23819   1.088   0.306   2.200 -0.3918 -0.0725  0.3866
 5752SOL    HW123820   0.989   0.303   2.218 -0.0879 -1.8930  1.8678
 5752SOL    HW223821   1.108   0.253   2.118 -0.3195 -2.1400  1.7178
 5753SOL     OW23822   8.168   0.043   1.322  0.9362  0.3258  0.8723
 5753SOL    HW123823   8.180   0.130   1.275  1.4827  0.5520  1.4274
 5753SOL    HW223824   8.252   0.020   1.372  1.0012 -0.7872  0.2805
 5755SOL     OW23825   7.611   9.980   1.185 -0.2979 -0.3890  0.4585
 5755SOL    HW123826   7.695   9.928   1.202 -1.0513 -1.3264  1.4248
 5755SOL    HW223827   7.549   9.970   1.263 -1.6065 -0.3008 -0.5378
 5756SOL     OW23828   3.702   0.667   0.178  0.3810  0.0570 -0.9407
 5756SOL    HW123829   3.682   0.757   0.217  2.9955  0.8408 -1.3045
 5756SOL    HW223830   3.766   0.677   0.102  1.2713 -2.1798 -0.5264
 5757SOL     OW23831   4.304   2.524   0.195  0.5834 -0.4827  0.3721
 5757SOL    HW123832   4.386   2.582   0.196 -1.0146  1.8796 -0.9105
 5757SOL    HW223833   4.263   2.523   0.286  1.5629 -1.0301  0.8227
 5759SOL     OW23834   8.736   8.466   1.280  0.6285 -0.2856 -0.1940
 5759SOL    HW123835   8.690   8.441   1.365 -0.8804  0.9102 -0.6560
 5759SOL    HW223836   8.758   8.563   1.281  1.0003 -0.3564 -0.9970
 5760SOL     OW23837   2.506   4.662   1.750 -0.5293 -0.2292 -0.0801
 5760SOL    HW123838   2.513   4.570   1.790 -0.0248  0.1125  0.6329
 5760SOL    HW223839   2.423   4.707   1.782 -0.4648 -0.2075  0.0554
 5761SOL     OW23840   2.837   2.240   1.226  0.3249  0.7728 -0.4678
 5761SOL    HW123841   2.792   2.299   1.159  0.5541  1.2245 -0.2315
 5761SOL    HW223842   2.850   2.291   1.312 -2.4633 -0.6556  0.8795
 5764SOL     OW23843   7.331   9.391   1.439 -0.2565  0.5793  0.1748
 5764SOL    HW123844   7.345   9.480   1.396 -0.0420  0.3481 -0.2272
 5764SOL    HW223845   7.242   9.391   1.485 -1.1668  0.3284 -1.5245
 5765SOL     OW23846   0.156   9.956   1.433  0.2722  0.0894 -0.4457
 5765SOL    HW123847   0.083  10.022   1.452  0.2050 -0.5524  1.6700
 5765SOL    HW223848   0.116   9.867   1.411  0.3908  0.3029 -1.5481
 5766SOL     OW23849   9.150   5.005   1.945  0.3637 -0.9485  0.2101
 5766SOL    HW123850   9.071   5.054   1.982  0.3156 -1.3575  0.6712
 5766SOL    HW223851   9.209   4.977   2.020  1.2469 -0.1429 -0.1857
 5767SOL     OW23852   2.360   8.777   0.842 -0.0014 -0.1848  0.6501
 5767SOL    HW123853   2.393   8.863   0.881  1.0565 -0.9751  1.5174
 5767SOL    HW223854   2.405   8.760   0.755 -1.7369  1.1577 -0.5413
 5769SOL     OW23855   4.258   0.502   0.547 -0.5156 -0.3046 -0.4119
 5769SOL    HW123856   4.244   0.571   0.476  0.0211  0.0736 -0.1566
 5769SOL    HW223857   4.273   0.548   0.635 -0.2306 -0.7464 -0.2260
 5770SOL     OW23858   0.223   1.452   1.598  0.8020 -0.1623 -0.5865
 5770SOL    HW123859   0.292   1.523   1.585  0.5728  0.4132  1.1697
 5770SOL    HW223860   0.253   1.388   1.669 -1.0364  0.9049  1.2244
 5771SOL     OW23861   4.516   9.606   2.943  0.1566 -0.2436  0.7138
 5771SOL    HW123862   4.454   9.678   2.975 -0.2470 -0.0736 -0.4180
 5771SOL    HW223863   4.567   9.639   2.863  0.9743 -0.7372  1.0269
 5772SOL     OW23864   9.810   7.456   1.092  0.3395  0.0817 -0.0201
 5772SOL    HW123865   9.900   7.418   1.113 -0.0741 -1.3065 -0.7436
 5772SOL    HW223866   9.746   7.434   1.166  0.3847  0.3885  0.1134
 5773SOL     OW23867   2.169   8.204   2.176 -0.2155  0.0345  0.0724
 5773SOL    HW123868   2.180   8.268   2.100 -1.6191  0.6196  0.3540
 5773SOL    HW223869   2.078   8.213   2.215 -0.1589 -1.5909  0.6299
 5774SOL     OW23870   0.385   0.728   1.459  0.2537  0.6605 -0.0928
 5774SOL    HW123871   0.315   0.799   1.453  1.4016  2.0588  2.2259
 5774SOL    HW223872   0.428   0.731   1.549  1.3056 -2.0889 -0.4367
 5775SOL     OW23873   9.118   5.892   2.018 -0.5801  0.3265  0.4867
 5775SOL    HW123874   9.168   5.911   1.934  0.8110  2.5127  1.7602
 5775SOL    HW223875   9.020   5.895   2.000 -0.3198 -1.1745 -1.4269
 5776SOL     OW23876   0.688   0.089   1.910  0.6928 -0.3115  0.5080
 5776SOL    HW123877   0.782   0.066   1.883  0.6182 -0.7118  0.5907
 5776SOL    HW223878   0.681   0.188   1.924  0.9311 -0.1998 -0.1635
 5777SOL     OW23879   4.756   4.033   2.267 -0.0444  0.2632  0.0043
 5777SOL    HW123880   4.700   4.026   2.350  0.3191  2.4949  0.4586
 5777SOL    HW223881   4.702   4.006   2.188 -0.7397 -0.7886  0.8156
 5778SOL     OW23882   2.869   4.276   1.240  0.3632 -0.0913  0.3889
 5778SOL    HW123883   2.965   4.247   1.233 -0.5663 -2.9127 -1.6125
 5778SOL    HW223884   2.845   4.329   1.159  0.1020  0.2038  0.6614
 5779SOL     OW23885   9.695   5.095   0.329 -0.0133  0.4258  0.6518
 5779SOL    HW123886   9.633   5.062   0.400 -1.1550 -1.7612 -1.3062
 5779SOL    HW223887   9.785   5.111   0.368 -0.9821  0.6521  2.8833
 5780SOL     OW23888   3.415   1.856   2.102 -0.3148  0.3751 -0.8249
 5780SOL    HW123889   3.322   1.848   2.066 -0.7512  0.1076  0.3345
 5780SOL    HW223890   3.451   1.948   2.083 -0.2970  0.0561 -2.4527
 5781SOL     OW23891   4.322   3.948   1.412  0.3359  0.1056  0.1059
 5781SOL    HW123892   4.256   3.949   1.337 -0.2608  0.8107  0.6356
 5781SOL    HW223893   4.297   4.017   1.480  2.0493  0.9187 -0.0621
 5782SOL     OW23894   3.002   8.582   1.491 -0.4367 -0.2154 -0.5197
 5782SOL    HW123895   3.101   8.584   1.481 -0.4492 -2.1267 -1.1336
 5782SOL    HW223896   2.962   8.660   1.443  0.6272 -0.5424 -1.9543
 5783SOL     OW23897   8.635   6.365   0.461  0.1019 -0.2477 -0.6909
 5783SOL    HW123898   8.564   6.432   0.440 -1.8698 -2.0265  0.1545
 5783SOL    HW223899   8.643   6.354   0.560  1.9511  0.3404 -0.7631
 5784SOL     OW23900   3.339   9.404   0.671 -0.1654 -0.1209  0.1695
 5784SOL    HW123901   3.286   9.475   0.717  0.2323  0.9942 -1.0540
 5784SOL    HW223902   3.436   9.415   0.693  0.1294  0.9457 -1.5721
 5785SOL     OW23903   4.986   9.589   2.088 -0.0590 -0.6564 -0.2423
 5785SOL    HW123904   4.887   9.595   2.091 -0.0619 -1.0937  0.5796
 5785SOL    HW223905   5.015   9.497   2.112  0.5779 -0.3087  0.3596
 5786SOL     OW23906   8.626   7.244   1.900 -0.3653 -0.0635 -0.0441
 5786SOL    HW123907   8.625   7.249   2.000  1.7309 -0.6892  0.0354
 5786SOL    HW223908   8.652   7.152   1.871  1.1181  0.6646 -1.1273
 5787SOL     OW23909   8.741   4.018   0.385 -0.4110  0.3201  0.5186
 5787SOL    HW123910   8.692   4.104   0.378  0.3396  0.7078 -0.0731
 5787SOL    HW223911   8.835   4.030   0.351 -0.2162 -0.6536  0.6909
 5788SOL     OW23912   9.554   0.374   0.025 -0.8986 -0.3728 -0.4057
 5788SOL    HW123913   9.497   0.455   0.040 -0.0790  0.2994 -0.9299
 5788SOL    HW223914   9.625   0.370   0.095 -1.9582 -1.5594  0.6350
 5789SOL     OW23915   8.730   6.651   1.213  0.2288 -0.3217 -0.0219
 5789SOL    HW123916   8.650   6.676   1.268  0.2623  0.6459 -0.3920
 5789SOL    HW223917   8.722   6.694   1.122  0.5425 -1.2712 -0.5041
 5790SOL     OW23918   9.419   3.702   0.720 -0.2000 -0.3449 -0.4827
 5790SOL    HW123919   9.411   3.756   0.637 -0.2908 -1.2073 -1.0405
 5790SOL    HW223920   9.498   3.641   0.714  0.2140  0.0940  0.3610
 5792SOL     OW23921   9.088   4.676   0.386 -0.0868  0.2206 -0.0431
 5792SOL    HW123922   9.085   4.702   0.483 -0.9812 -1.4122  0.3738
 5792SOL    HW223923   9.177   4.633   0.366  0.4820  1.4454 -0.1917
 5793SOL     OW23924   3.805   5.080   1.680  0.1542  0.0340 -0.1506
 5793SOL    HW123925   3.816   4.990   1.721  1.6243  0.8996  1.3953
 5793SOL    HW223926   3.709   5.096   1.660 -0.8148  0.1189  4.2086
 5794SOL     OW23927   9.417   5.643   1.212 -0.3438 -0.6298 -0.0326
 5794SOL    HW123928   9.413   5.623   1.310 -0.8225 -0.1649  0.0468
 5794SOL    HW223929   9.382   5.735   1.195  0.7962 -0.2811 -0.5175
 5795SOL     OW23930   9.540   4.006   0.058  0.0987 -0.0151 -0.0122
 5795SOL    HW123931   9.550   4.102   0.031 -1.0383  0.5881  1.6795
 5795SOL    HW223932   9.565   3.948  -0.020  1.0065  1.6287 -0.9951
 5796SOL     OW23933   7.776   0.233   1.895  0.5793 -0.1354 -0.2166
 5796SOL    HW123934   7.783   0.266   1.989  0.0495 -0.6899  0.0242
 5796SOL    HW223935   7.684   0.197   1.879  1.1652 -1.5438 -0.4550
 5798SOL     OW23936   0.948   2.222   2.243 -0.3424  0.2273  0.3093
 5798SOL    HW123937   0.912   2.299   2.296 -1.9670  0.0260 -0.4660
 5798SOL    HW223938   0.917   2.136   2.283 -0.4571  0.0393 -0.1776
 5799SOL     OW23939   0.282   3.242   0.658  0.0022  0.1015 -0.3422
 5799SOL    HW123940   0.286   3.334   0.618 -2.5365 -0.2756 -1.6053
 5799SOL    HW223941   0.245   3.248   0.750  2.7100  0.6243  0.7607
 5800SOL     OW23942   1.897   8.862   1.104  0.2418  0.5103 -0.4364
 5800SOL    HW123943   1.948   8.916   1.037  0.1041  0.3126 -0.7003
 5800SOL    HW223944   1.961   8.807   1.157  0.1681 -1.0575 -1.9372
 5801SOL     OW23945   3.275   2.098   0.092  0.1850  0.4524 -0.0972
 5801SOL    HW123946   3.185   2.056   0.083  0.2635  0.4415 -0.8567
 5801SOL    HW223947   3.327   2.051   0.163  0.2709 -0.7270 -0.9253
 5802SOL     OW23948   1.880   3.360   1.612  0.4979 -0.0083 -0.2048
 5802SOL    HW123949   1.976   3.379   1.590 -0.3358  1.5729 -2.7711
 5802SOL    HW223950   1.833   3.447   1.629 -0.8805 -0.6262 -0.8409
 5804SOL     OW23951   1.291   9.194   1.362 -0.4108  0.2801 -0.0410
 5804SOL    HW123952   1.262   9.101   1.343 -1.9224  0.7695 -0.2083
 5804SOL    HW223953   1.248   9.226   1.447  0.5062  0.6437  0.2889
 5806SOL     OW23954   1.276   0.482   2.165 -1.2429 -0.0729  0.0431
 5806SOL    HW123955   1.245   0.527   2.082  0.6397  2.1789  0.5220
 5806SOL    HW223956   1.216   0.405   2.185 -0.6313 -1.8375 -4.4097
 5808SOL     OW23957   4.243   3.260   0.939 -0.0783  0.2178 -0.5225
 5808SOL    HW123958   4.300   3.241   0.859 -1.8497 -0.4262 -1.6824
 5808SOL    HW223959   4.223   3.174   0.987  0.7751  0.5716  0.4740
 5809SOL     OW23960   1.967   1.419   1.857  0.6961 -0.0939  0.6533
 5809SOL    HW123961   1.958   1.344   1.924 -1.2326 -1.4222 -1.0059
 5809SOL    HW223962   2.056   1.413   1.813  1.5787  0.1634  2.3555
 5810SOL     OW23963   8.541   8.785   1.264 -0.2663  0.2346 -0.1503
 5810SOL    HW123964   8.625   8.789   1.319 -0.0840 -0.4240 -0.3824
 5810SOL    HW223965   8.533   8.868   1.209  0.2625  0.2669 -0.1732
 5811SOL     OW23966   2.015   1.615   0.266 -0.3133 -0.2997  0.1793
 5811SOL    HW123967   1.975   1.561   0.340 -0.0071 -1.6619 -0.6261
 5811SOL    HW223968   2.086   1.675   0.303 -1.3747  0.3101  1.2433
 5812SOL     OW23969   1.230   8.476   0.146  0.5886 -0.3361  0.3173
 5812SOL    HW123970   1.244   8.380   0.171  2.7507 -0.2999 -0.6075
 5812SOL    HW223971   1.301   8.532   0.188 -0.9445  0.9490  1.2469
 5813SOL     OW23972   4.653   1.261   1.873 -0.2873 -0.4512 -0.1173
 5813SOL    HW123973   4.634   1.163   1.883 -0.4146 -0.4634 -0.4687
 5813SOL    HW223974   4.749   1.278   1.892 -0.2710 -0.6410 -0.0252
 5814SOL     OW23975   1.526   7.281   1.941 -0.1100  0.1102  0.1773
 5814SOL    HW123976   1.594   7.339   1.898  0.3040 -0.4423  0.0734
 5814SOL    HW223977   1.572   7.210   1.995 -0.6092  0.1996  0.7318
 5815SOL     OW23978   0.770   2.044   1.720 -0.3159 -0.1095  0.6536
 5815SOL    HW123979   0.749   2.044   1.818  0.6611 -1.1245  0.8780
 5815SOL    HW223980   0.855   2.094   1.705 -0.3183 -0.1941  0.3614
 5816SOL     OW23981   3.219   5.030   0.652 -0.0474 -0.0553 -0.3115
 5816SOL    HW123982   3.241   5.036   0.750  0.5848 -0.6163 -0.4157
 5816SOL    HW223983   3.220   5.122   0.612  2.4624 -0.0684 -0.3811
 5817SOL     OW23984   0.894   2.311   1.207 -0.2549  0.0668 -0.1158
 5817SOL    HW123985   0.869   2.236   1.268 -0.0331 -0.9667 -1.2774
 5817SOL    HW223986   0.812   2.363   1.182 -0.4149  0.1859  0.6402
 5818SOL     OW23987   1.782   9.268   1.026 -0.0970  0.0594 -0.5928
 5818SOL    HW123988   1.685   9.277   1.049  0.0999  1.2085 -0.1636
 5818SOL    HW223989   1.832   9.347   1.061  0.9387 -0.3376 -1.1449
 5819SOL     OW23990   1.094   9.705   1.223  0.0560 -0.1485  0.2281
 5819SOL    HW123991   1.075   9.624   1.168  1.2100  0.3749 -0.9625
 5819SOL    HW223992   1.133   9.777   1.165 -0.6485  1.1502  1.3235
 5820SOL     OW23993   2.409   0.892   0.912 -0.1792  0.6323 -0.8883
 5820SOL    HW123994   2.505   0.889   0.941  0.0975  0.9153 -1.7707
 5820SOL    HW223995   2.382   0.803   0.875 -0.0782  0.7462 -1.2299
 5821SOL     OW23996   1.152   1.790   1.696 -0.2290  0.1606  0.0345
 5821SOL    HW123997   1.166   1.844   1.613  0.0937  0.5795  0.3578
 5821SOL    HW223998   1.185   1.842   1.775  2.1368 -1.3987  0.1172
 5822SOL     OW23999   8.539   3.125   1.900 -0.4301 -0.1777 -0.5467
 5822SOL    HW124000   8.484   3.176   1.966 -0.1074 -0.4636 -0.0591
 5822SOL    HW224001   8.616   3.081   1.946 -0.2702 -0.4796 -1.0901
 5823SOL     OW24002   0.469   5.399   0.609  0.4771  0.4386 -0.0256
 5823SOL    HW124003   0.378   5.367   0.584  0.8216 -0.5766 -0.0011
 5823SOL    HW224004   0.468   5.498   0.620 -1.2620  0.1823  2.6166
 5824SOL     OW24005   2.437   7.900   0.528  0.5808 -0.5289  0.0473
 5824SOL    HW124006   2.353   7.846   0.525  0.4443 -0.3617  0.7724
 5824SOL    HW224007   2.416   7.995   0.548  0.8762 -0.3124 -0.6347
 5825SOL     OW24008   2.421   9.448   1.285 -0.8384 -0.3180 -0.0606
 5825SOL    HW124009   2.491   9.377   1.281 -0.7405 -0.2536  0.4498
 5825SOL    HW224010   2.463   9.536   1.305 -1.1173 -0.3659  0.7550
 5826SOL     OW24011   8.911   1.672   1.322 -0.6086 -0.1477 -0.2121
 5826SOL    HW124012   8.883   1.581   1.293  0.7678 -0.1901 -1.4374
 5826SOL    HW224013   8.918   1.732   1.241 -1.7099  1.1139  0.5920
 5827SOL     OW24014   3.837   1.551   0.728 -0.0180  0.3787 -0.2338
 5827SOL    HW124015   3.811   1.532   0.823  1.5064 -0.1495  0.0898
 5827SOL    HW224016   3.919   1.499   0.705 -0.7394 -0.0046 -2.0574
 5828SOL     OW24017   3.215   4.370   0.501  0.2915 -0.2508  0.2900
 5828SOL    HW124018   3.305   4.408   0.479 -0.6685  0.6507 -2.3399
 5828SOL    HW224019   3.189   4.305   0.429 -0.7232 -1.2973  1.5893
 5829SOL     OW24020   8.179   1.173   1.301  0.1106 -0.3553 -0.3018
 5829SOL    HW124021   8.216   1.143   1.389 -0.7714  1.1735  0.6315
 5829SOL    HW224022   8.250   1.220   1.249 -0.1125  1.3835  0.9042
 5830SOL     OW24023   1.449   8.310   2.086 -0.2472  0.0598  0.1375
 5830SOL    HW124024   1.404   8.355   2.163 -0.0111  1.9261 -0.7764
 5830SOL    HW224025   1.531   8.263   2.118 -0.0413  0.9925  1.0082
 5831SOL     OW24026   3.489   2.037   1.586  0.0677  0.2993  0.4223
 5831SOL    HW124027   3.545   1.954   1.581  0.6541  0.7639 -1.1398
 5831SOL    HW224028   3.394   2.012   1.608  0.3074 -0.7504  0.3034
 5833SOL     OW24029   2.985   2.285   1.851  0.3737  0.3833 -0.4829
 5833SOL    HW124030   3.048   2.271   1.927 -0.8262  1.4414  0.7320
 5833SOL    HW224031   2.962   2.196   1.810  0.6856 -0.2403  0.6841
 5834SOL     OW24032   1.046   7.349   0.671 -0.1569  0.5432 -0.3690
 5834SOL    HW124033   1.022   7.315   0.581  1.2578  0.3636 -0.6863
 5834SOL    HW224034   0.966   7.393   0.712 -1.5697 -1.7288 -0.5873
 5837SOL     OW24035   8.938   6.068   0.855 -0.3522 -0.3771  0.0274
 5837SOL    HW124036   9.014   6.005   0.838  1.4755  1.8745 -0.4120
 5837SOL    HW224037   8.872   6.061   0.781  0.3462 -1.0258 -0.5415
 5838SOL     OW24038   7.814   9.655   0.613 -0.6894  0.2879  0.0850
 5838SOL    HW124039   7.832   9.672   0.517 -0.8348 -0.1475 -0.0203
 5838SOL    HW224040   7.727   9.699   0.639 -0.3222  0.9655  0.1826
 5839SOL     OW24041   2.238   0.154   1.245 -0.4064  0.5800 -0.4663
 5839SOL    HW124042   2.176   0.121   1.173 -0.1746 -1.4533  0.2165
 5839SOL    HW224043   2.332   0.152   1.211 -0.4083  0.6511 -0.4746
 5840SOL     OW24044   8.055   2.075   0.241  0.6658 -0.0623 -0.0378
 5840SOL    HW124045   8.059   2.039   0.334  1.2719 -1.3478 -0.5445
 5840SOL    HW224046   8.098   2.165   0.238 -0.8673  0.7180  1.2508
 5841SOL     OW24047   1.421   4.306   1.895  0.0611 -0.1526 -0.5093
 5841SOL    HW124048   1.519   4.312   1.872  0.3600 -2.1837  0.1038
 5841SOL    HW224049   1.394   4.386   1.948  2.0157 -0.7627  1.4720
 5843SOL     OW24050   0.388   5.927   0.775  0.2057 -0.4212  0.2056
 5843SOL    HW124051   0.391   5.943   0.873 -1.9148  0.1597  0.2053
 5843SOL    HW224052   0.378   6.014   0.727  0.4581 -0.7649 -0.4760
 5844SOL     OW24053   3.602   9.974   0.671  0.0119 -0.0724  0.0275
 5844SOL    HW124054   3.641   9.985   0.579 -1.2293 -0.6529 -0.5899
 5844SOL    HW224055   3.675   9.975   0.739  0.9016  0.8748 -0.9259
 5845SOL     OW24056   0.703   8.892   2.164 -0.0973 -0.0291  0.2042
 5845SOL    HW124057   0.649   8.923   2.241 -0.4062 -1.0979  0.4305
 5845SOL    HW224058   0.800   8.901   2.185 -0.1825 -0.8448  0.9325
 5846SOL     OW24059   0.202   4.898   1.314  0.4311 -0.0439  0.2137
 5846SOL    HW124060   0.219   4.990   1.351  0.6000  0.2384 -0.5583
 5846SOL    HW224061   0.270   4.835   1.350  0.6091  0.2378  0.3728
 5847SOL     OW24062   0.827   5.412   1.675 -0.6592 -0.3223 -0.4369
 5847SOL    HW124063   0.865   5.319   1.680 -1.6868 -0.7520 -0.4881
 5847SOL    HW224064   0.841   5.459   1.762 -0.7442 -0.7696 -0.1814
 5850SOL     OW24065   1.033   2.628   1.875 -0.1812  0.0521  0.1153
 5850SOL    HW124066   1.054   2.722   1.851 -0.0146  0.0141  0.1121
 5850SOL    HW224067   1.069   2.607   1.965 -0.6554  0.1415  0.3260
 5851SOL     OW24068   2.574   0.451   0.259 -0.3469  0.1028 -0.1680
 5851SOL    HW124069   2.623   0.526   0.303  1.3886 -1.8137  1.2507
 5851SOL    HW224070   2.499   0.488   0.205  1.5661  2.9769 -0.9623
 5852SOL     OW24071   9.826   3.155   1.411  0.5285  0.0818 -0.1122
 5852SOL    HW124072   9.774   3.240   1.414  0.5038  0.0399  0.7581
 5852SOL    HW224073   9.793   3.097   1.336  1.2038  1.2560 -1.3318
 5853SOL     OW24074   9.727   7.168   1.254  0.3576  0.1330 -0.2261
 5853SOL    HW124075   9.726   7.091   1.318 -2.3173 -0.4839 -0.9226
 5853SOL    HW224076   9.741   7.133   1.161 -0.3308  0.5360 -0.4821
 5855SOL     OW24077   7.786   1.354   0.181  1.0944  0.2896  0.1825
 5855SOL    HW124078   7.771   1.395   0.091  1.7855 -0.8393 -0.4689
 5855SOL    HW224079   7.729   1.399   0.249 -1.0889 -0.2805 -1.2259
 5857SOL     OW24080   9.726   9.726   0.519  0.4536 -0.1788  0.2318
 5857SOL    HW124081   9.627   9.739   0.522  0.6357  0.9560  1.8197
 5857SOL    HW224082   9.771   9.814   0.504  1.2463 -0.5992  0.0996
 5858SOL     OW24083   8.175   0.473   1.460 -0.2004 -0.4821  0.0096
 5858SOL    HW124084   8.265   0.433   1.481  1.2756  2.1128 -1.1329
 5858SOL    HW224085   8.140   0.434   1.375  1.2425  0.6502 -1.1255
 5859SOL     OW24086   9.912   8.651   1.734  0.1877  0.1751  0.1453
 5859SOL    HW124087   9.878   8.683   1.646 -0.1732 -0.8857 -0.1022
 5859SOL    HW224088  10.010   8.630   1.727  0.2216  0.3509  0.0764
 5860SOL     OW24089   2.579   1.407   0.504 -0.2065 -0.3063  0.4561
 5860SOL    HW124090   2.655   1.461   0.468 -1.2874  0.0918 -1.3165
 5860SOL    HW224091   2.512   1.469   0.547  0.8518 -0.7326  2.8388
 5861SOL     OW24092   8.419   8.876   0.706 -0.0153  0.1307  0.2575
 5861SOL    HW124093   8.400   8.927   0.622 -0.0182 -0.9035 -0.3737
 5861SOL    HW224094   8.517   8.885   0.729  0.0524  0.1311 -0.0358
 5862SOL     OW24095   0.879   2.799   1.111  0.4553  0.1753 -0.3262
 5862SOL    HW124096   0.905   2.879   1.056 -0.9663 -1.4592 -3.4958
 5862SOL    HW224097   0.961   2.757   1.149  1.5449  1.0017 -1.6994
 5863SOL     OW24098   8.512   3.179   1.351 -0.2605  0.5025 -0.2460
 5863SOL    HW124099   8.549   3.172   1.258  1.4210 -1.1724  0.4963
 5863SOL    HW224100   8.486   3.273   1.370  2.1996  1.4608 -1.3768
 5864SOL     OW24101   2.363   7.529   2.180  0.3897 -0.6820 -0.2308
 5864SOL    HW124102   2.338   7.463   2.108 -2.1141  0.2625 -0.2636
 5864SOL    HW224103   2.448   7.575   2.154  1.0987 -2.4402 -1.1664
 5867SOL     OW24104   8.588   9.840   2.104 -0.3991 -0.0744 -0.3748
 5867SOL    HW124105   8.513   9.806   2.159 -0.3064 -1.1622 -0.9021
 5867SOL    HW224106   8.573   9.816   2.008  1.1723 -1.3073 -0.3263
 5869SOL     OW24107   8.984   9.708   1.767 -1.0133 -0.2308  0.1353
 5869SOL    HW124108   9.084   9.701   1.765 -0.8705  1.7910 -1.2929
 5869SOL    HW224109   8.950   9.670   1.853  0.9455 -1.3193  0.4732
 5870SOL     OW24110   2.029   1.294   0.277  0.3954 -0.1911  0.0997
 5870SOL    HW124111   2.073   1.298   0.366  0.8522 -0.6301 -0.1024
 5870SOL    HW224112   1.985   1.205   0.265  1.5218 -0.6564 -0.6611
 5871SOL     OW24113   9.306   8.614   0.423  0.2116 -0.1443  0.3797
 5871SOL    HW124114   9.226   8.638   0.367  0.0429  0.2968  0.8078
 5871SOL    HW224115   9.377   8.578   0.364 -0.4261 -0.8502  0.0348
 5873SOL     OW24116   0.681   9.569   1.227 -0.6655 -0.1305  0.6484
 5873SOL    HW124117   0.693   9.663   1.261 -2.4346 -0.4111  2.1647
 5873SOL    HW224118   0.763   9.516   1.247  0.4726  1.1495 -0.4901
 5874SOL     OW24119   7.941   2.360   2.942 -0.2254  0.0789  0.2408
 5874SOL    HW124120   7.879   2.313   2.879  1.0913 -0.4026 -0.7326
 5874SOL    HW224121   8.016   2.298   2.966 -0.0494  0.6981  1.2853
 5875SOL     OW24122   0.835   2.456   1.456  0.7015  0.0356 -0.2825
 5875SOL    HW124123   0.791   2.517   1.390  0.7245  2.2170  1.6478
 5875SOL    HW224124   0.765   2.406   1.507  0.5040  1.6411  1.0586
 5876SOL     OW24125   4.359   0.962   1.130 -0.4409  0.2768 -0.6282
 5876SOL    HW124126   4.335   0.976   1.034 -1.9612 -1.0927 -0.4705
 5876SOL    HW224127   4.283   0.917   1.178  1.2513 -1.3808  0.6246
 5877SOL     OW24128   1.645   0.039   0.590 -0.1815  0.0078  0.2126
 5877SOL    HW124129   1.562  -0.018   0.599 -0.3724  0.2494 -0.0290
 5877SOL    HW224130   1.724  -0.021   0.577 -0.3584 -0.2126  0.1301
 5878SOL     OW24131   0.346   3.702   0.008 -0.2357 -0.1832 -0.1278
 5878SOL    HW124132   0.322   3.795  -0.020  0.5552 -0.0791 -0.4651
 5878SOL    HW224133   0.431   3.674  -0.036 -1.6709 -1.9482 -1.9038
 5879SOL     OW24134   9.215   6.990   0.859  0.4984 -0.0121 -0.3724
 5879SOL    HW124135   9.118   6.987   0.838  0.7000  0.1380 -1.3541
 5879SOL    HW224136   9.247   7.085   0.855  0.9163 -0.1806 -1.1670
 5880SOL     OW24137   2.316   4.869   1.092  0.1743  0.3789  0.1407
 5880SOL    HW124138   2.278   4.886   1.183  0.1526  2.2777 -0.2053
 5880SOL    HW224139   2.354   4.776   1.089 -2.3886 -0.7710  1.1929
 5881SOL     OW24140   3.010   8.555   2.132 -0.7234  0.1230  0.0282
 5881SOL    HW124141   2.944   8.552   2.058  0.0833  0.4826 -0.7126
 5881SOL    HW224142   3.074   8.630   2.117  0.3827 -0.7506  0.2788
 5882SOL     OW24143   0.810   7.121   2.069  0.3133  0.0438  0.2210
 5882SOL    HW124144   0.837   7.128   2.165 -1.5580  0.4820  0.7267
 5882SOL    HW224145   0.712   7.137   2.060  0.9165  3.0072 -2.1032
 5883SOL     OW24146   0.952   5.138   1.705  0.5207  0.0019  0.4593
 5883SOL    HW124147   1.045   5.170   1.727  1.3411 -2.5724  0.9715
 5883SOL    HW224148   0.946   5.040   1.726 -1.1196 -0.7761 -3.3908
 5884SOL     OW24149   4.033   3.582   0.167 -0.1563 -0.0902  0.5802
 5884SOL    HW124150   4.008   3.674   0.136  0.8144  0.2251  0.7082
 5884SOL    HW224151   4.125   3.585   0.206 -0.6702 -0.8471  1.8547
 5885SOL     OW24152   2.650   4.167   0.049 -0.3023 -0.4181 -0.3601
 5885SOL    HW124153   2.645   4.264   0.026  0.6617 -0.8189 -2.3721
 5885SOL    HW224154   2.574   4.119   0.006  0.0079 -0.7573 -0.5337
 5886SOL     OW24155   2.323   1.954   0.805 -0.3532  0.3714  0.1702
 5886SOL    HW124156   2.365   2.041   0.829  1.6518 -0.4960 -0.1214
 5886SOL    HW224157   2.230   1.951   0.842  0.4210  1.6302  2.3230
 5887SOL     OW24158   1.812   3.177   0.183  0.3506 -0.7476  0.0277
 5887SOL    HW124159   1.896   3.232   0.179  0.3736 -0.5712  2.2783
 5887SOL    HW224160   1.834   3.081   0.165  1.3400 -0.9622  2.1634
 5888SOL     OW24161   8.851   9.924   1.637  0.4758 -0.1722  0.1554
 5888SOL    HW124162   8.903   9.841   1.655 -0.4759 -0.6671  0.7062
 5888SOL    HW224163   8.781   9.935   1.708 -0.1672  0.4725 -0.5729
 5889SOL     OW24164   1.197   1.763   2.205  0.3702  0.4997 -0.0838
 5889SOL    HW124165   1.188   1.836   2.137 -0.2176  0.7234  0.2328
 5889SOL    HW224166   1.178   1.799   2.296 -0.4509 -0.1527  0.0186
 5890SOL     OW24167   3.727   0.041   0.440  0.0791 -0.4249  0.5929
 5890SOL    HW124168   3.755   0.134   0.418 -0.9309 -0.0370  0.9520
 5890SOL    HW224169   3.766  -0.022   0.373  0.0203  0.3461 -0.1671
 5891SOL     OW24170   2.574   6.003   1.819  0.3032 -0.3946  0.1932
 5891SOL    HW124171   2.527   5.919   1.792  0.9778 -1.3259  1.8205
 5891SOL    HW224172   2.507   6.072   1.845 -0.2293 -0.8443  0.0268
 5892SOL     OW24173   0.028   9.063   0.221  0.8646  0.4015  0.4608
 5892SOL    HW124174   0.049   9.135   0.155 -0.2120  0.4970  0.2129
 5892SOL    HW224175   0.108   9.046   0.278  0.9453  2.2204  0.9242
 5894SOL     OW24176   1.702   4.847   0.958 -0.6056  0.4202  0.4991
 5894SOL    HW124177   1.637   4.836   0.883  0.3970  1.0154 -0.4494
 5894SOL    HW224178   1.765   4.922   0.938  1.8172 -1.5787  0.3861
 5895SOL     OW24179   0.228   1.143   1.961  0.2451  0.2287 -0.3167
 5895SOL    HW124180   0.157   1.194   2.010  1.0639  1.1703 -0.0704
 5895SOL    HW224181   0.282   1.207   1.906  2.0627 -0.1788  0.9371
  10.00000  10.00000   2.94101
