chitosan Film  in water:acetic acid 2%
10386
    1CHTO  H203    1   3.776   5.975   0.739  0.1548  0.2720  1.2904
    1CHTO   O82    2   3.860   5.991   0.700 -0.2638 -0.2955  0.1087
    1CHTO  C123    3   3.969   5.954   0.786 -0.1224 -0.1295 -0.3580
    1CHTO  H227    4   3.931   5.942   0.888  0.2763 -0.2896 -0.2274
    1CHTO   O77    5   4.011   5.822   0.745 -0.2896 -0.0008  0.2063
    1CHTO  C118    6   4.122   5.761   0.813 -0.1163  0.4280  0.4412
    1CHTO  H222    7   4.101   5.757   0.921  1.0722  1.5559  0.7428
    1CHTO  C125    8   4.140   5.612   0.759  0.2103 -0.5345  0.5028
    1CHTO   O84    9   4.166   5.613   0.619  0.4097 -0.5140  0.0811
    1CHTO  H205   10   4.172   5.525   0.586 -2.2288 -1.3454  1.6511
    1CHTO  C114   11   4.250   5.850   0.792  0.9274 -0.4597  0.2027
    1CHTO  H218   12   4.260   5.860   0.684 -2.4474 -0.4977 -0.1742
    1CHTO  C116   13   4.223   5.992   0.852  0.2720 -0.1544  0.2785
    1CHTO  H220   14   4.203   5.977   0.960 -0.2817 -0.1800  0.1776
    1CHTO   O79   15   4.340   6.080   0.833  0.5040 -0.0277 -0.1311
    1CHTO  H201   16   4.322   6.171   0.821  2.1643  0.1549 -1.4251
    1CHTO  C120   17   4.087   6.060   0.779 -0.6624 -0.8278 -0.2515
    1CHTO  H224   18   4.114   6.078   0.672 -0.9025 -1.2377 -0.3841
    1CHTO   N21   19   4.048   6.191   0.838 -0.0399  0.0741  0.8736
    1CHTO  H211   20   4.105   6.276   0.803 -0.9515  0.6028  0.6346
    1CHTO  H212   21   4.066   6.172   0.942 -0.3862 -1.4066  0.6812
    1CHTO   O75   22   4.365   5.778   0.840 -0.3316  0.0118 -0.1047
    1CHTO  C112   23   4.507   5.815   0.760  0.2846  0.8378  0.6687
    1CHTO  H216   24   4.492   5.912   0.710 -1.2754 -0.3294 -1.2010
    1CHTO   O73   25   4.527   5.707   0.664  0.5129  0.9701 -0.1368
    1CHTO  C113   26   4.650   5.715   0.584 -0.8464 -0.3389  0.2386
    1CHTO  H217   27   4.645   5.817   0.540  1.4800 -0.9846 -1.6266
    1CHTO  C124   28   4.655   5.607   0.475  0.6211 -0.7119  0.0864
    1CHTO   O83   29   4.538   5.602   0.391 -0.1294  0.5702  0.4192
    1CHTO  H204   30   4.549   5.664   0.322  0.0041 -1.2058 -1.2147
    1CHTO  C109   31   4.772   5.694   0.683 -0.5112 -0.3023  0.2375
    1CHTO  H213   32   4.757   5.596   0.730 -1.8451 -0.8429 -1.2641
    1CHTO  C110   33   4.759   5.810   0.789 -0.9962 -0.0827 -0.5863
    1CHTO  H214   34   4.783   5.909   0.751  1.9110 -0.6012 -0.2056
    1CHTO   O78   35   4.870   5.788   0.885 -0.3898  0.5330  0.2969
    1CHTO  H200   36   4.947   5.827   0.849  0.6802 -0.3978  1.5385
    1CHTO  C111   37   4.620   5.811   0.867 -0.8740 -0.0083  0.8353
    1CHTO  H215   38   4.613   5.718   0.925 -0.4841 -0.5402  0.0331
    1CHTO   N19   39   4.610   5.926   0.965 -0.2889  0.0091  0.1084
    1CHTO  H207   40   4.705   5.957   1.007  0.4117 -2.6290  0.5889
    1CHTO  H208   41   4.557   6.011   0.924  0.8243  0.6651  0.0013
    1CHTO   O74   42   4.903   5.697   0.613 -0.2214 -0.0500 -0.3347
    1CHTO  C115   43   5.003   5.573   0.638 -0.4099 -0.4468 -0.3961
    1CHTO  H219   44   5.021   5.552   0.743  3.5930 -2.0989 -1.3243
    1CHTO   O76   45   4.943   5.431   0.579  0.3751 -0.1355  0.1564
    1CHTO  C122   46   5.037   5.322   0.562 -0.0029 -0.0309  0.0164
    1CHTO  H226   47   4.991   5.250   0.494 -2.1971  1.7388 -0.4255
    1CHTO  C126   48   5.065   5.248   0.696  0.2800 -0.0714 -0.4069
    1CHTO   O85   49   5.139   5.130   0.671 -0.0377  0.8285 -0.4688
    1CHTO  H206   50   5.104   5.078   0.601  0.1430  1.7092 -1.2253
    1CHTO  C121   51   5.163   5.362   0.485  0.3892  0.0044 -0.4174
    1CHTO  H225   52   5.224   5.272   0.467 -0.4015 -0.4572 -0.8350
    1CHTO   O81   53   5.133   5.410   0.350  0.1714 -0.6496  0.1936
    1CHTO  H202   54   5.058   5.369   0.313 -1.3429 -0.9638  3.3977
    1CHTO  C119   55   5.237   5.475   0.565 -0.6425 -0.6813  0.3520
    1CHTO  H223   56   5.252   5.440   0.667  0.8449 -1.5085 -0.1482
    1CHTO  C117   57   5.145   5.605   0.581  0.1414 -0.1049  0.1713
    1CHTO  H221   58   5.123   5.660   0.490  1.3083 -1.4279 -0.9289
    1CHTO   N20   59   5.215   5.703   0.668  0.5087  0.1018  0.3107
    1CHTO  H209   60   5.315   5.725   0.634  0.1490  2.2628  0.5782
    1CHTO  H210   61   5.230   5.659   0.765  2.0081 -1.1788 -0.4824
    1CHTO   O80   62   5.390   5.498   0.513 -0.1324  0.3642 -0.2966
    1CHTO  C103   63   5.501   5.378   0.511  0.2392  0.0486  0.6986
    1CHTO  H190   64   5.478   5.293   0.576 -1.3014 -1.3414 -1.5771
    1CHTO  C101   65   5.552   5.324   0.370 -0.3300 -0.0166  0.4376
    1CHTO  H188   66   5.580   5.407   0.305  1.4755 -0.4188  0.6761
    1CHTO   O68   67   5.436   5.243   0.293 -0.3771 -0.3173  0.0839
    1CHTO  H168   68   5.435   5.246   0.199  2.4516 -0.9390 -0.0331
    1CHTO   C99   69   5.687   5.236   0.387 -0.2671 -0.9041  0.2197
    1CHTO  H186   70   5.670   5.142   0.444 -0.3178 -0.8386  0.3131
    1CHTO   N17   71   5.749   5.189   0.256  0.6373  0.3122 -0.4293
    1CHTO  H174   72   5.832   5.122   0.272 -0.5460 -1.2845 -0.9424
    1CHTO  H175   73   5.777   5.278   0.201 -2.1173  1.2987 -0.2949
    1CHTO   C97   74   5.793   5.316   0.480 -0.8386  0.2082 -0.8285
    1CHTO  H184   75   5.839   5.396   0.420  0.6330  0.8870  1.1558
    1CHTO   O64   76   5.734   5.368   0.603 -0.2044  0.0825  0.8345
    1CHTO  C104   77   5.620   5.454   0.581 -0.0532  0.6574  0.5472
    1CHTO  H191   78   5.649   5.540   0.520  0.9742 -1.8457 -2.6193
    1CHTO  C108   79   5.592   5.508   0.718 -0.2903  0.0943 -0.4653
    1CHTO   O71   80   5.553   5.398   0.806 -0.1904 -0.2630 -0.1747
    1CHTO  H171   81   5.470   5.362   0.781 -0.1339  0.7972 -1.9383
    1CHTO   O62   82   5.905   5.234   0.522  0.5067 -0.0706 -0.5480
    1CHTO   C91   83   6.038   5.233   0.464 -0.2394 -0.5698  0.1006
    1CHTO  H178   84   6.023   5.277   0.366  0.5222  0.0726  0.2661
    1CHTO   C92   85   6.089   5.090   0.430  0.3933 -0.1705  0.2594
    1CHTO  H179   86   6.094   5.043   0.529  1.7599  0.7590  0.6474
    1CHTO   O66   87   5.998   5.020   0.344  0.5993  0.5344  0.1607
    1CHTO  H166   88   5.908   5.026   0.370  0.2161 -0.8510 -0.7925
    1CHTO   C93   89   6.233   5.077   0.372  0.3631 -0.2868  0.2802
    1CHTO  H180   90   6.247   5.111   0.268 -0.7825 -1.0900 -0.1338
    1CHTO   N16   91   6.287   4.938   0.371  0.3356  0.0130 -0.5545
    1CHTO  H172   92   6.377   4.926   0.312 -0.2210  1.7270 -1.8130
    1CHTO  H173   93   6.286   4.893   0.469  1.2129  1.2496  0.0354
    1CHTO   C94   94   6.327   5.166   0.472 -0.2148  0.3403 -0.7618
    1CHTO  H181   95   6.319   5.130   0.574 -0.0459  3.4892  0.4137
    1CHTO   O61   96   6.288   5.299   0.485  1.0104 -0.5030 -0.0288
    1CHTO   C95   97   6.154   5.324   0.532 -0.1542  0.0829 -0.4402
    1CHTO  H182   98   6.142   5.300   0.638 -2.5260 -0.9134 -0.8858
    1CHTO  C106   99   6.129   5.475   0.500 -0.5016 -0.3936 -0.4803
    1CHTO   O69  100   6.212   5.559   0.565 -0.5408 -0.5342  0.4154
    1CHTO  H169  101   6.235   5.632   0.510 -1.7325 -0.2450  0.2822
    1CHTO   O63  102   6.492   5.153   0.424  0.2407 -0.1909 -0.7911
    1CHTO   C96  103   6.590   5.155   0.557 -0.0250  0.0279  0.3580
    1CHTO  H183  104   6.557   5.243   0.612 -0.6186 -0.3835  0.6622
    1CHTO   C98  105   6.741   5.169   0.517  0.5253  0.6564 -0.1162
    1CHTO  H185  106   6.741   5.257   0.451  3.9968  0.0250 -1.0226
    1CHTO   O67  107   6.818   5.204   0.637  0.1850  0.2738  0.1161
    1CHTO  H167  108   6.803   5.137   0.700  0.0235  1.3197  1.2118
    1CHTO  C102  109   6.811   5.049   0.443  0.1160  0.2002  0.6583
    1CHTO  H189  110   6.919   5.070   0.441  0.1363  0.3080  2.0737
    1CHTO   N18  111   6.770   5.035   0.299  0.4136  0.2278 -0.5872
    1CHTO  H176  112   6.784   5.122   0.236 -1.9848 -0.1584 -1.7079
    1CHTO  H177  113   6.817   4.950   0.254  0.0070 -0.7962  0.8913
    1CHTO  C105  114   6.791   4.922   0.530  0.8749  0.0084  0.3245
    1CHTO  H192  115   6.802   4.831   0.470  1.9706  0.1211  0.3365
    1CHTO   O65  116   6.671   4.914   0.611  0.4785 -0.2561 -0.3833
    1CHTO  C100  117   6.573   5.014   0.640 -0.1398  0.2668 -1.0343
    1CHTO  H187  118   6.474   4.979   0.608 -0.4673 -0.0651  0.3223
    1CHTO  C107  119   6.569   5.052   0.787  0.0142 -0.0535  1.0925
    1CHTO   O70  120   6.556   4.936   0.868  0.1790 -0.0955 -0.0201
    1CHTO  H170  121   6.473   4.895   0.853  0.8998 -1.8667  0.7904
    1CHTO   O57  122   6.911   4.925   0.632  0.3260  0.1996  0.0420
    1CHTO   C85  123   7.038   4.868   0.595  0.1707 -0.4534 -0.2624
    1CHTO  H157  124   7.071   4.903   0.495  1.4084  0.5341  0.4756
    1CHTO   C83  125   7.027   4.712   0.574 -0.1186 -0.5172 -0.4214
    1CHTO  H155  126   6.952   4.689   0.497  0.8197 -1.4468 -1.0757
    1CHTO   O56  127   6.980   4.640   0.693 -0.1689  0.6192 -0.0177
    1CHTO  H135  128   6.951   4.553   0.671  0.7049 -0.1125  1.6455
    1CHTO   C81  129   7.168   4.659   0.525 -0.5644  0.3893  0.3004
    1CHTO  H153  130   7.197   4.711   0.434  0.4221  0.4757  0.6534
    1CHTO   N14  131   7.166   4.519   0.485  0.1113  0.0109  0.3321
    1CHTO  H141  132   7.120   4.448   0.551 -0.0227 -0.5644 -0.3828
    1CHTO  H142  133   7.140   4.485   0.387 -1.9091 -1.1249  1.2112
    1CHTO   C79  134   7.272   4.699   0.631 -0.2822  0.3055  0.1705
    1CHTO  H151  135   7.371   4.674   0.592  0.5329  1.5309  1.4342
    1CHTO   O52  136   7.279   4.842   0.661 -0.1221 -0.1120 -0.0103
    1CHTO   C86  137   7.153   4.893   0.705  0.9002  0.0200  0.0192
    1CHTO  H158  138   7.128   4.834   0.795  3.0870 -0.0354  0.6160
    1CHTO   C90  139   7.157   5.043   0.747  0.6054 -0.1707  0.3940
    1CHTO   O60  140   7.035   5.081   0.816  0.0297  0.7062  0.1948
    1CHTO  H138  141   6.960   5.045   0.772  1.7512 -0.6711 -1.7327
    1CHTO   O50  142   7.253   4.629   0.758 -0.5998  0.2542  0.1765
    1CHTO   C73  143   7.314   4.541   0.856 -0.2095 -0.2763 -0.4492
    1CHTO  H145  144   7.378   4.458   0.823 -0.5007 -0.8075  0.3131
    1CHTO   C74  145   7.204   4.463   0.922  0.5618  0.8152 -0.8480
    1CHTO  H146  146   7.142   4.414   0.846  1.7308  0.6962 -1.7509
    1CHTO   O54  147   7.274   4.366   1.002 -0.5664  0.3112  0.5458
    1CHTO  H133  148   7.208   4.314   1.044 -0.9694 -2.5426 -3.3067
    1CHTO   C75  149   7.117   4.565   1.012 -0.9525  0.7877 -0.0154
    1CHTO  H147  150   7.078   4.641   0.942 -0.8538 -0.0074 -0.9494
    1CHTO   N13  151   7.000   4.490   1.070  0.2284 -0.0435  0.5502
    1CHTO  H139  152   6.967   4.414   1.001  2.1703  0.1700 -0.6512
    1CHTO  H140  153   6.914   4.554   1.075  1.8080  2.1861  0.1919
    1CHTO   C76  154   7.207   4.639   1.115 -0.2501  0.2323 -0.3317
    1CHTO  H148  155   7.246   4.569   1.189  1.1564  0.3782 -0.9178
    1CHTO   O49  156   7.315   4.708   1.048  0.4102  0.3252  0.3249
    1CHTO   C77  157   7.393   4.625   0.967  0.0137 -0.3881  0.0475
    1CHTO  H149  158   7.449   4.560   1.034  0.8421  1.1089  0.8225
    1CHTO   C88  159   7.503   4.705   0.888 -0.2710 -0.0662 -0.7763
    1CHTO   O58  160   7.620   4.741   0.975  0.3425 -0.4120  0.3755
    1CHTO  H136  161   7.648   4.663   1.019 -2.7267 -0.5796  2.2444
    1CHTO   O51  162   7.111   4.753   1.203 -0.0489  0.4500  0.1387
    1CHTO   C78  163   7.113   4.899   1.142  0.5746 -0.4286  0.3953
    1CHTO  H150  164   7.140   4.904   1.034  1.4226 -0.0921  0.6244
    1CHTO   C80  165   7.223   4.975   1.217 -0.7251  0.1312 -0.3676
    1CHTO  H152  166   7.202   4.970   1.326 -2.2879 -0.3552 -0.6876
    1CHTO   O55  167   7.360   4.921   1.201 -0.6495  0.3653  0.0898
    1CHTO  H134  168   7.360   4.828   1.214 -0.5186  0.1295 -1.5180
    1CHTO   C84  169   7.213   5.130   1.175 -1.2033  0.4591 -0.1955
    1CHTO  H156  170   7.256   5.137   1.075  0.9158 -0.5037  0.6327
    1CHTO   N15  171   7.303   5.217   1.262  0.0455  0.2427 -0.1253
    1CHTO  H143  172   7.363   5.280   1.200 -1.6727  3.0562  0.9597
    1CHTO  H144  173   7.366   5.150   1.317 -1.7441 -0.8208  0.6913
    1CHTO   C87  174   7.066   5.183   1.184 -0.2625  0.3101  0.4847
    1CHTO  H159  175   7.050   5.185   1.291  1.4773 -2.9297  0.8884
    1CHTO   O53  176   6.964   5.095   1.109 -0.3702  0.6054 -0.4494
    1CHTO   C82  177   6.970   4.956   1.152 -0.0778 -0.3377  0.0435
    1CHTO  H154  178   6.936   4.958   1.255 -0.6208 -1.4734 -0.1068
    1CHTO   C89  179   6.869   4.874   1.074  0.1368 -0.1330 -0.6258
    1CHTO   O59  180   6.729   4.891   1.098  0.2123 -0.1309 -0.1410
    1CHTO  H137  181   6.707   4.811   1.142  1.4066 -0.7623 -0.6690
    1CHTO   O45  182   7.069   5.344   1.104  0.1584 -0.6404  0.2851
    1CHTO   C67  183   6.955   5.432   1.118  0.1146  0.1581  0.7717
    1CHTO  H124  184   6.993   5.531   1.095 -2.1529  0.5112 -1.5915
    1CHTO   C65  185   6.848   5.398   1.010 -0.1932  0.4669 -0.5721
    1CHTO  H122  186   6.855   5.294   0.977 -0.5149 -0.1065  1.1178
    1CHTO   O44  187   6.883   5.470   0.890 -0.8450 -0.2099 -0.2529
    1CHTO  H102  188   6.826   5.542   0.874  0.1617  0.1993 -2.1074
    1CHTO   C63  189   6.695   5.422   1.064  0.0267 -0.3439 -0.5393
    1CHTO  H120  190   6.666   5.344   1.134 -0.2630  1.1697  1.0481
    1CHTO   N11  191   6.597   5.423   0.958 -0.2574  0.0177 -0.3698
    1CHTO  H108  192   6.494   5.429   0.987  0.2560  2.4046  1.0956
    1CHTO  H109  193   6.615   5.509   0.897 -1.5746  0.5250 -0.0650
    1CHTO   C61  194   6.695   5.543   1.169 -0.4227  0.1097 -0.2911
    1CHTO  H118  195   6.603   5.536   1.228  0.0213 -2.1201  0.1756
    1CHTO   O40  196   6.804   5.545   1.264 -0.1960  0.1398  0.0740
    1CHTO   C68  197   6.895   5.435   1.263 -0.4477 -0.0645  0.5076
    1CHTO  H125  198   6.842   5.341   1.289 -3.3297  2.0527  2.5585
    1CHTO   C72  199   6.997   5.470   1.376  0.3588 -0.0355  0.4757
    1CHTO   O48  200   6.922   5.461   1.504  0.3176  0.0430  0.0034
    1CHTO  H105  201   6.953   5.531   1.558 -0.1041  0.5360 -0.3945
    1CHTO   O38  202   6.693   5.672   1.104 -0.9444 -0.1127 -0.3947
    1CHTO   C55  203   6.631   5.778   1.175 -0.5503 -0.3184 -0.3249
    1CHTO  H112  204   6.647   5.766   1.283  1.2786 -0.9221 -0.6423
    1CHTO   C56  205   6.477   5.776   1.134  0.1782  0.7113  0.3960
    1CHTO  H113  206   6.458   5.730   1.036  0.6044 -0.3022  0.7859
    1CHTO   O42  207   6.413   5.679   1.224 -0.3202 -0.1903 -0.2143
    1CHTO  H100  208   6.320   5.688   1.223 -0.2199  0.9978  0.1678
    1CHTO   C57  209   6.397   5.914   1.154  0.3269  0.5987 -0.6376
    1CHTO  H114  210   6.381   5.932   1.260  1.5679 -2.1690  0.0681
    1CHTO   N10  211   6.266   5.926   1.093 -0.3869  0.0509  0.3268
    1CHTO  H106  212   6.284   5.950   0.990  1.3470  1.3002  0.8978
    1CHTO  H107  213   6.207   5.836   1.106 -2.0397  1.4391  3.1526
    1CHTO   C58  214   6.496   6.033   1.103  0.5739 -0.0859  0.0689
    1CHTO  H115  215   6.520   6.016   0.996 -0.8994  0.5676 -0.3858
    1CHTO   O37  216   6.618   6.025   1.167  0.1755 -0.2126  0.2301
    1CHTO   C59  217   6.702   5.912   1.134  0.5801  0.1030 -0.4156
    1CHTO  H116  218   6.718   5.917   1.026 -0.5653  0.4374 -0.5701
    1CHTO   C70  219   6.840   5.921   1.201  0.6291  0.0714  0.2670
    1CHTO   O46  220   6.933   5.817   1.158 -0.4257  0.8006  0.0556
    1CHTO  H103  221   6.948   5.764   1.235  0.9924 -0.8412 -1.3128
    1CHTO   O39  222   6.437   6.194   1.133 -0.2910 -0.6682  0.0546
    1CHTO   C60  223   6.504   6.291   1.050  0.1451 -0.5426 -0.3954
    1CHTO  H117  224   6.610   6.264   1.041 -0.5195 -3.0977 -0.8024
    1CHTO   C62  225   6.450   6.298   0.905 -0.1383  0.1203 -0.2337
    1CHTO  H119  226   6.467   6.199   0.857 -1.8830  0.0643 -0.7562
    1CHTO   O43  227   6.308   6.309   0.908 -0.0840 -0.4991 -0.3041
    1CHTO  H101  228   6.264   6.326   0.827 -0.6226 -1.9447 -0.3411
    1CHTO   C66  229   6.516   6.417   0.817  0.3729  0.0926  0.8616
    1CHTO  H123  230   6.624   6.401   0.814  0.4995  1.0783 -0.0002
    1CHTO   N12  231   6.474   6.415   0.676 -0.8229  0.2014  0.5139
    1CHTO  H110  232   6.441   6.510   0.638 -2.7300 -1.7975 -3.1651
    1CHTO  H111  233   6.397   6.342   0.657  1.0217 -1.8696  0.7446
    1CHTO   C69  234   6.495   6.548   0.890  0.1163  0.0260  0.1435
    1CHTO  H126  235   6.388   6.569   0.907  0.4906  0.7003  1.7956
    1CHTO   O41  236   6.572   6.531   1.034 -0.2585 -0.3603  0.1495
    1CHTO   C64  237   6.496   6.425   1.119 -0.0754 -0.1581 -1.2917
    1CHTO  H121  238   6.390   6.455   1.134  0.3167  0.1333  1.0683
    1CHTO   C71  239   6.573   6.421   1.255  0.0333  0.2565 -0.2830
    1CHTO   O47  240   6.561   6.541   1.329  0.4127  0.0997 -0.6791
    1CHTO  H104  241   6.576   6.531   1.421 -1.4667 -0.7014 -0.4410
    1CHTO   O34  242   6.574   6.674   0.802  0.3163 -0.5655 -0.6922
    1CHTO   C49  243   6.686   6.800   0.842 -0.1389 -0.0750  0.3342
    1CHTO   H91  244   6.670   6.865   0.756  1.4114  0.7191  0.6223
    1CHTO   C47  245   6.835   6.737   0.835 -0.2103  0.3282  0.4020
    1CHTO   H89  246   6.868   6.751   0.730  0.1332  0.7052  0.5546
    1CHTO   O33  247   6.830   6.596   0.855  0.6757 -0.4283 -0.2435
    1CHTO   H70  248   6.908   6.545   0.871  0.2603 -0.9450  0.1724
    1CHTO   C45  249   6.932   6.816   0.932 -0.2290 -0.3090  0.3543
    1CHTO   H87  250   6.931   6.769   1.032  3.3525  0.0254  0.5915
    1CHTO    N8  251   7.069   6.810   0.878  0.1153  0.5219  0.4273
    1CHTO   H75  252   7.103   6.912   0.865 -0.3769  0.6162 -0.1174
    1CHTO   H76  253   7.135   6.766   0.951  0.4667 -0.1528 -0.2827
    1CHTO   C43  254   6.881   6.966   0.964 -0.0961  0.1299  0.2702
    1CHTO   H85  255   6.957   7.001   1.034 -4.8181  1.4857  5.0443
    1CHTO   O29  256   6.752   6.966   1.024  0.0241 -0.2944 -0.1263
    1CHTO   C50  257   6.652   6.881   0.974  0.5805  0.5760  0.3014
    1CHTO   H92  258   6.623   6.813   1.055  0.9348 -2.3687 -1.9377
    1CHTO   C54  259   6.513   6.951   0.955  0.7899 -0.0253  0.6796
    1CHTO   O36  260   6.461   7.004   1.074  0.2683  0.1444  0.1162
    1CHTO   H72  261   6.371   7.019   1.052 -0.3269 -2.7983  0.2890
    1CHTO   O27  262   6.882   7.045   0.842 -0.0647 -0.3920 -0.2253
    1CHTO   C37  263   6.941   7.167   0.792  0.8040 -0.5532  1.0150
    1CHTO   H79  264   6.927   7.247   0.867  2.6628 -0.6510  1.4861
    1CHTO   C38  265   7.090   7.149   0.779 -0.1742 -0.2535 -1.0362
    1CHTO   H80  266   7.109   7.055   0.726 -1.5379 -1.2134  0.1590
    1CHTO   O31  267   7.146   7.137   0.915 -0.0429 -0.7472  0.6697
    1CHTO   H68  268   7.106   7.190   0.981 -1.1578 -3.4013  2.2151
    1CHTO   C39  269   7.158   7.269   0.699  0.0662  0.5414 -0.4622
    1CHTO   H81  270   7.137   7.353   0.764 -2.8353  0.0276 -0.6561
    1CHTO    N7  271   7.304   7.272   0.681  0.8104 -0.3194  0.3039
    1CHTO   H73  272   7.350   7.278   0.779  0.7115 -2.1766  0.4932
    1CHTO   H74  273   7.342   7.344   0.610 -1.9082 -1.8103 -2.7804
    1CHTO   C40  274   7.086   7.290   0.564 -0.2088  0.9720 -0.3924
    1CHTO   H82  275   7.094   7.196   0.509  1.3502  1.6753 -1.4255
    1CHTO   O26  276   6.951   7.323   0.594 -0.1835 -0.4761 -0.5185
    1CHTO   C41  277   6.870   7.216   0.658  0.1997 -0.5469  0.1223
    1CHTO   H83  278   6.869   7.141   0.578  1.2707 -1.1756  0.6913
    1CHTO   C52  279   6.733   7.268   0.681 -0.0833  0.6392  0.1874
    1CHTO   O35  280   6.662   7.292   0.539 -0.0849  0.0031 -0.7601
    1CHTO   H71  281   6.621   7.215   0.505  1.6619 -1.3034  0.0197
    1CHTO   O28  282   7.132   7.394   0.478  0.7848 -0.1719  0.3689
    1CHTO   C42  283   7.128   7.388   0.329 -0.5073 -0.1244 -0.2186
    1CHTO   H84  284   7.071   7.303   0.294 -0.2362  0.6335 -2.6280
    1CHTO   C44  285   7.268   7.381   0.267  0.3725  0.0470  0.1632
    1CHTO   H86  286   7.326   7.467   0.301 -1.3471  1.4366 -0.3660
    1CHTO   O32  287   7.330   7.262   0.326 -0.3370 -0.7130  0.6696
    1CHTO   H69  288   7.286   7.180   0.316  1.5140 -1.3394 -3.1837
    1CHTO   C48  289   7.265   7.384   0.109 -0.5542  0.1064 -0.4549
    1CHTO   H90  290   7.214   7.294   0.073 -0.1776 -0.0693 -0.5511
    1CHTO    N9  291   7.399   7.376   0.043 -0.1565 -0.0971  0.0909
    1CHTO   H77  292   7.442   7.475   0.049 -1.7525  0.5580  1.3639
    1CHTO   H78  293   7.381   7.351  -0.061  0.9309 -1.4046  0.2055
    1CHTO   C51  294   7.187   7.507   0.055  0.1116 -0.7790 -0.0345
    1CHTO   H93  295   7.240   7.601   0.067 -3.2823  1.0907  0.7264
    1CHTO   O30  296   7.060   7.506   0.118  0.6678  0.8361 -0.1900
    1CHTO   C46  297   7.054   7.512   0.279 -0.3293  0.3000  0.4824
    1CHTO   H88  298   7.103   7.605   0.305  0.3440  0.0627  0.0875
    1CHTO   C53  299   6.906   7.518   0.327  0.8315 -0.3852 -0.0276
    1CHTO   O72  300   6.836   7.394   0.308  0.3859  0.3333  0.4959
    1CHTO  H199  301   6.817   7.385   0.216  2.4622 -2.3713  0.2623
    1CHTO   O22  302   7.167   7.503  -0.088  0.6380  0.4473  0.3502
    1CHTO   C31  303   7.048   7.538  -0.161 -0.6434  0.4318 -0.2348
    1CHTO   H59  304   6.960   7.525  -0.095 -0.8582  1.6661 -0.2624
    1CHTO   C29  305   7.049   7.682  -0.206 -0.5682 -0.4637 -0.7456
    1CHTO   H57  306   7.132   7.688  -0.278  0.0903  0.9162  0.1004
    1CHTO   O21  307   7.077   7.763  -0.087 -0.0214 -0.1620  0.0160
    1CHTO   H37  308   7.106   7.850  -0.104 -2.2481  0.7556  0.6544
    1CHTO   C27  309   6.913   7.735  -0.269  0.4527 -0.0204  0.4550
    1CHTO   H55  310   6.835   7.731  -0.192  0.2389 -1.9593  0.1796
    1CHTO    N5  311   6.911   7.869  -0.326  0.5475 -0.8801  0.7858
    1CHTO   H43  312   6.988   7.866  -0.401 -0.5794 -1.8541 -0.3467
    1CHTO   H44  313   6.940   7.939  -0.249  0.6722  0.8106 -0.7512
    1CHTO   C25  314   6.868   7.622  -0.375  0.4791  0.3867  0.6743
    1CHTO   H53  315   6.940   7.636  -0.457  1.0913 -1.5196  0.8655
    1CHTO   O17  316   6.885   7.482  -0.330 -0.2776 -0.1355  0.2699
    1CHTO   C32  317   7.015   7.446  -0.281 -0.0938 -0.1560  0.6777
    1CHTO   H60  318   7.097   7.451  -0.352 -1.9550 -1.7120 -1.6804
    1CHTO   C36  319   7.014   7.287  -0.246  0.3273 -0.6263  0.1313
    1CHTO   O25  320   6.941   7.204  -0.337 -0.3323  0.1339  0.0170
    1CHTO   H40  321   6.856   7.242  -0.348 -0.3404  0.3522  0.7864
    1CHTO   O15  322   6.713   7.636  -0.420 -0.0650  0.4325  0.2974
    1CHTO   C19  323   6.607   7.551  -0.471  0.1527  0.5737  0.0190
    1CHTO   H47  324   6.521   7.619  -0.458  0.2369  1.2152 -2.4429
    1CHTO   C20  325   6.626   7.513  -0.621  0.0180 -0.7535 -0.0730
    1CHTO   H48  326   6.725   7.471  -0.644 -0.4181 -1.7137 -0.2226
    1CHTO   O19  327   6.624   7.632  -0.700 -0.0305 -0.5069  0.5740
    1CHTO   H35  328   6.635   7.612  -0.791 -3.0465 -0.1187  0.0577
    1CHTO   C21  329   6.516   7.410  -0.673 -0.1386  0.1716 -0.4782
    1CHTO   H49  330   6.418   7.457  -0.685 -0.3729 -0.7103 -2.2828
    1CHTO    N4  331   6.548   7.358  -0.812 -0.3772 -0.0171 -0.0589
    1CHTO   H41  332   6.467   7.298  -0.851  0.9542 -1.5818 -0.4717
    1CHTO   H42  333   6.570   7.435  -0.885 -0.3437 -0.0406 -0.0737
    1CHTO   C22  334   6.495   7.294  -0.568  0.0868  0.4381  0.2182
    1CHTO   H50  335   6.587   7.236  -0.564  0.0987  0.4939  0.7732
    1CHTO   O14  336   6.467   7.353  -0.435 -0.3505  0.2088  0.9355
    1CHTO   C23  337   6.583   7.423  -0.384  0.2621  0.1553  0.0112
    1CHTO   H51  338   6.666   7.351  -0.398  0.7728  0.3825  1.7703
    1CHTO   C34  339   6.551   7.439  -0.234 -0.3290  0.3639  0.4532
    1CHTO   O23  340   6.502   7.327  -0.170 -0.1159  0.4860 -0.3548
    1CHTO   H38  341   6.437   7.353  -0.108  0.7084  1.9008 -0.0642
    1CHTO   O16  342   6.384   7.209  -0.586  0.4104  0.2938 -0.0498
    1CHTO   C24  343   6.436   7.054  -0.620 -0.1520  0.8241 -0.0794
    1CHTO   H52  344   6.540   7.051  -0.652  0.6499  0.9794  2.3986
    1CHTO   C26  345   6.343   6.987  -0.726  0.5124 -0.5873 -0.2269
    1CHTO   H54  346   6.240   7.004  -0.690  0.8387 -1.9063  1.3698
    1CHTO   O20  347   6.371   7.054  -0.849 -0.4308 -0.0946 -0.1464
    1CHTO   H36  348   6.314   7.128  -0.851  1.3683  1.3147 -0.3014
    1CHTO   C30  349   6.358   6.832  -0.726 -0.2773 -0.2337 -0.2840
    1CHTO   H58  350   6.455   6.795  -0.762 -0.8220 -0.1605 -1.8936
    1CHTO    N6  351   6.273   6.770  -0.829 -0.1323  0.3023  0.3343
    1CHTO   H45  352   6.327   6.769  -0.922  0.2952  2.3250  0.5340
    1CHTO   H46  353   6.251   6.669  -0.797  1.6821 -0.3908 -0.5730
    1CHTO   C33  354   6.323   6.775  -0.582  0.0045  0.2957 -0.0407
    1CHTO   H61  355   6.228   6.820  -0.549 -0.5549 -0.2081 -0.9584
    1CHTO   O18  356   6.434   6.833  -0.510 -0.2471  0.2109  0.1823
    1CHTO   C28  357   6.425   6.975  -0.485 -0.0052 -0.3116  0.4132
    1CHTO   H56  358   6.328   6.995  -0.439  1.3916  2.4641  2.2597
    1CHTO   C35  359   6.549   7.005  -0.390  0.6804 -0.4574 -0.4193
    1CHTO   O24  360   6.559   6.927  -0.268  0.3746 -0.2027 -0.4476
    1CHTO   H39  361   6.482   6.934  -0.215  0.9204 -0.3468  0.3724
    1CHTO    O9  362   6.311   6.631  -0.559 -0.3930  0.5328  0.4550
    1CHTO   C13  363   6.284   6.591  -0.409  0.2392 -0.0808  1.1026
    1CHTO   H26  364   6.235   6.679  -0.362  0.3230 -0.0327  1.1005
    1CHTO   C11  365   6.406   6.555  -0.334  0.1228 -0.0702  0.0586
    1CHTO   H24  366   6.467   6.647  -0.333 -0.6480  0.4667  2.9151
    1CHTO    O8  367   6.473   6.447  -0.408  0.0798 -0.2229 -0.3973
    1CHTO    H3  368   6.488   6.462  -0.499 -0.6438 -0.0266 -0.4882
    1CHTO    C9  369   6.365   6.516  -0.193  0.1386  0.0301 -0.0101
    1CHTO   H22  370   6.318   6.605  -0.147  0.8520  0.3748  0.0623
    1CHTO    N2  371   6.478   6.501  -0.102 -0.1230  0.2369 -0.2909
    1CHTO   H10  372   6.536   6.592  -0.107  0.2275 -0.0415 -1.5038
    1CHTO   H11  373   6.450   6.481   0.000  2.1292  1.5268  0.6101
    1CHTO    C7  374   6.264   6.395  -0.186  0.0006 -0.1699  0.4461
    1CHTO   H20  375   6.235   6.391  -0.079 -1.0558 -0.7618  0.1468
    1CHTO    O4  376   6.146   6.427  -0.268 -1.0867  0.2304  0.7272
    1CHTO   C14  377   6.161   6.487  -0.400  0.3110 -0.2505  0.1995
    1CHTO   H27  378   6.064   6.539  -0.406  1.0203  1.5208  3.0061
    1CHTO   C18  379   6.160   6.375  -0.501  0.2097 -0.2025  0.1940
    1CHTO   O13  380   6.050   6.285  -0.509 -0.3681 -0.0582 -0.2060
    1CHTO    H7  381   5.977   6.332  -0.544 -0.2798  1.2423  1.2831
    1CHTO    O2  382   6.327   6.245  -0.237  0.1651  0.3643 -0.4056
    1CHTO    C1  383   6.351   6.145  -0.137  0.0289 -0.2668 -0.1041
    1CHTO   H14  384   6.347   6.201  -0.041 -0.7353 -1.9418  0.8686
    1CHTO    C2  385   6.488   6.068  -0.151 -0.3178 -0.4190  0.5419
    1CHTO   H15  386   6.488   6.033  -0.256  0.6619  1.6699 -0.1892
    1CHTO    O6  387   6.599   6.164  -0.129 -0.2109  0.0866  0.2277
    1CHTO    H1  388   6.679   6.119  -0.109 -1.3215 -1.7072  0.7068
    1CHTO    C3  389   6.498   5.943  -0.047  0.0549  0.2380 -0.2581
    1CHTO   H16  390   6.508   5.988   0.053 -0.7807 -2.2693  0.9843
    1CHTO    N1  391   6.626   5.862  -0.076 -0.2599 -0.2807  0.1461
    1CHTO    H8  392   6.715   5.914  -0.043  0.1794  0.1673 -1.6477
    1CHTO    H9  393   6.638   5.835  -0.180  1.4699 -0.5085  0.3922
    1CHTO    C4  394   6.370   5.856  -0.037 -0.3360 -0.1881  0.1781
    1CHTO   H17  395   6.363   5.795  -0.127 -2.4711  1.3785 -0.7818
    1CHTO    O1  396   6.260   5.942  -0.021  0.0748  0.2024 -0.5156
    1CHTO    C5  397   6.240   6.038  -0.134 -0.1435 -0.0925  0.5120
    1CHTO   H18  398   6.252   5.986  -0.229  0.6249  0.2186  0.4328
    1CHTO   C16  399   6.101   6.100  -0.126  0.7690 -0.5549 -0.5610
    1CHTO   O11  400   6.006   6.000  -0.136 -0.9047 -0.3019  0.0748
    1CHTO    H5  401   6.010   5.944  -0.211 -1.3853 -0.4081  0.1288
    1CHTO    O3  402   6.360   5.766   0.072 -0.0599 -0.6856  0.2110
    1CHTO    C6  403   6.279   5.643   0.045  0.3814  0.0789  0.7291
    1CHTO   H19  404   6.232   5.647  -0.053  0.3746  1.1867  0.7676
    1CHTO    C8  405   6.370   5.511   0.029  0.0195 -0.4265 -0.2932
    1CHTO   H21  406   6.429   5.509   0.120 -1.5159  2.9697  0.8878
    1CHTO    O7  407   6.465   5.528  -0.078 -0.6069 -0.2439 -0.4836
    1CHTO    H2  408   6.522   5.454  -0.070 -1.7442 -1.2639 -1.5984
    1CHTO   C12  409   6.291   5.381   0.009 -0.2921 -0.0058 -0.3261
    1CHTO   H25  410   6.264   5.382  -0.098  0.3986  0.7818 -0.4984
    1CHTO    N3  411   6.387   5.265   0.024 -0.7163 -0.2279 -0.0373
    1CHTO   H12  412   6.440   5.267   0.118  0.1332  1.2613 -0.5307
    1CHTO   H13  413   6.457   5.259  -0.058  0.9856 -1.8704  1.5164
    1CHTO   C15  414   6.166   5.367   0.101  0.2558 -0.3804  0.1302
    1CHTO   H28  415   6.184   5.323   0.199 -0.0851 -0.4548  0.1621
    1CHTO   O10  416   6.061   5.265   0.023  0.0244 -0.2930 -0.1477
    1CHTO    H4  417   6.106   5.214  -0.042  0.2229 -1.7989  1.1326
    1CHTO    O5  418   6.095   5.492   0.115  0.0869  0.3158 -1.2172
    1CHTO   C10  419   6.167   5.607   0.151  0.2905 -0.1635  0.5627
    1CHTO   H23  420   6.217   5.587   0.245 -0.7753  0.9740  1.3795
    1CHTO   C17  421   6.063   5.718   0.164  0.1832 -0.0904 -0.4514
    1CHTO   O12  422   5.955   5.688   0.259 -0.1132  0.0274  0.6692
    1CHTO    H6  423   5.893   5.755   0.238  1.5010  2.1587  2.4817
    2CHTO  H203  424   3.801   3.764   1.717 -0.2142 -0.3871  0.3051
    2CHTO   O82  425   3.880   3.732   1.756  0.0902  0.6384  0.5434
    2CHTO  C123  426   3.977   3.842   1.761 -0.1691  1.2015 -0.6668
    2CHTO  H227  427   4.072   3.798   1.795 -0.9378  2.1694  3.0005
    2CHTO   O77  428   3.982   3.883   1.619  0.5958  0.3102 -0.0298
    2CHTO  C118  429   4.058   4.004   1.591 -0.3384 -0.0958  0.2368
    2CHTO  H222  430   4.158   3.988   1.635 -1.3926 -0.8325  2.4432
    2CHTO  C125  431   4.075   4.025   1.432 -0.6103  0.0750 -0.1898
    2CHTO   O84  432   4.160   3.922   1.374  0.0744 -0.0649 -0.1819
    2CHTO  H205  433   4.108   3.844   1.385 -0.5291  0.2041 -1.0269
    2CHTO  C114  434   3.982   4.119   1.658  0.3342 -0.5091 -0.0156
    2CHTO  H218  435   3.878   4.108   1.627  0.4221 -0.4495 -0.3303
    2CHTO  C116  436   3.990   4.105   1.817  0.1811 -0.0088  0.3849
    2CHTO  H220  437   4.097   4.093   1.843  0.3295  0.2754 -0.0971
    2CHTO   O79  438   3.938   4.218   1.883  0.1167 -0.0578 -0.3102
    2CHTO  H201  439   3.955   4.207   1.975  1.0475 -1.3454 -0.6273
    2CHTO  C120  440   3.925   3.962   1.851 -0.6347  0.2452  0.0211
    2CHTO  H224  441   3.817   3.981   1.832 -0.8026 -1.1186 -0.4383
    2CHTO   N21  442   3.942   3.922   1.996 -0.0674 -0.1704  0.0071
    2CHTO  H211  443   4.009   3.838   2.006  1.2919  0.8214 -0.6401
    2CHTO  H212  444   3.967   4.000   2.066 -0.4920 -0.9452  1.0465
    2CHTO   O75  445   4.043   4.236   1.601 -0.8157 -0.5275 -0.1905
    2CHTO  C112  446   3.960   4.370   1.592  0.2274  0.1570 -0.5802
    2CHTO  H216  447   3.950   4.411   1.693 -0.6555  2.2695 -1.4929
    2CHTO   O73  448   3.835   4.341   1.532  0.6312  0.5847  0.0428
    2CHTO  C113  449   3.754   4.458   1.511 -0.1139  0.1502  0.2842
    2CHTO  H217  450   3.743   4.523   1.600  0.0590  2.5022 -1.3394
    2CHTO  C124  451   3.615   4.416   1.471 -0.3046 -0.1660  0.2125
    2CHTO   O83  452   3.552   4.340   1.573  0.0563 -0.2660 -0.5113
    2CHTO  H204  453   3.473   4.303   1.538  0.2599  0.6933 -2.0462
    2CHTO  C109  454   3.823   4.540   1.401  0.0254 -0.4336  0.2001
    2CHTO  H213  455   3.842   4.474   1.315 -1.6309  1.3663 -1.5690
    2CHTO  C110  456   3.959   4.586   1.455  0.3417  0.3424  0.4751
    2CHTO  H214  457   3.940   4.656   1.536  0.8496  2.7319 -1.4187
    2CHTO   O78  458   4.032   4.676   1.366  0.8514  0.2796  0.0248
    2CHTO  H200  459   3.985   4.758   1.361 -1.2743 -0.9355 -0.5324
    2CHTO  C111  460   4.049   4.466   1.504  0.8312  0.2899  0.4734
    2CHTO  H215  461   4.083   4.408   1.417 -0.2905  1.3258 -0.6799
    2CHTO   N19  462   4.173   4.513   1.578 -0.3452 -0.3139  0.1867
    2CHTO  H207  463   4.261   4.467   1.534 -1.6805  0.1145 -3.0448
    2CHTO  H208  464   4.189   4.619   1.571  0.5696 -0.4023  0.7543
    2CHTO   O74  465   3.734   4.650   1.365  0.1566 -0.3178 -0.0599
    2CHTO  C115  466   3.732   4.696   1.196 -0.0160  0.4294  0.6903
    2CHTO  H219  467   3.801   4.777   1.174  0.3590  0.0663  0.5077
    2CHTO   O76  468   3.774   4.577   1.104 -0.0556  0.1341 -0.3838
    2CHTO  C122  469   3.671   4.482   1.090  0.2985  0.1712 -0.4973
    2CHTO  H226  470   3.644   4.453   1.191  2.9480  1.5828  0.6550
    2CHTO  C126  471   3.728   4.351   1.020 -0.9338 -0.2074 -0.9942
    2CHTO   O85  472   3.828   4.286   1.092 -0.0815  0.0237  0.1399
    2CHTO  H206  473   3.793   4.213   1.139 -1.0928  0.9792  0.9069
    2CHTO  C121  474   3.553   4.542   1.010  0.5377 -1.2690 -0.1544
    2CHTO  H225  475   3.585   4.528   0.904 -0.1340  0.1688 -0.5614
    2CHTO   O81  476   3.442   4.468   1.043  0.0388 -0.2272 -0.5449
    2CHTO  H202  477   3.382   4.459   0.971 -1.4305  0.8934  0.5165
    2CHTO  C119  478   3.533   4.697   1.025 -0.2900  0.3770  0.1813
    2CHTO  H223  479   3.599   4.742   0.950 -0.9489 -0.2245 -0.7655
    2CHTO  C117  480   3.579   4.742   1.167 -0.9837 -0.6524 -0.9506
    2CHTO  H221  481   3.521   4.702   1.249  0.3430 -1.1840 -0.2474
    2CHTO   N20  482   3.577   4.887   1.183  0.2295  0.1065  0.4045
    2CHTO  H209  483   3.472   4.906   1.165 -0.0620 -2.3459 -0.7908
    2CHTO  H210  484   3.644   4.937   1.114  1.9757 -0.4555  1.6402
    2CHTO   O80  485   3.383   4.753   0.966  0.4540  0.2247  0.4934
    2CHTO  C103  486   3.369   4.799   0.842  0.5852  0.1366  0.5751
    2CHTO  H190  487   3.469   4.815   0.800  0.4750  3.7210  1.4349
    2CHTO  C101  488   3.285   4.703   0.746  0.0375  0.5964 -0.0351
    2CHTO  H188  489   3.190   4.678   0.793 -0.5831  0.6175 -1.2624
    2CHTO   O68  490   3.358   4.579   0.720 -0.3936  0.0987 -0.1465
    2CHTO  H168  491   3.317   4.532   0.649 -0.3849 -0.6020  0.3068
    2CHTO   C99  492   3.257   4.784   0.614  0.1315  0.5503 -0.3033
    2CHTO  H186  493   3.353   4.795   0.560  0.1177  0.6001 -0.3181
    2CHTO   N17  494   3.157   4.711   0.526  0.1086 -0.2343  0.2110
    2CHTO  H174  495   3.141   4.770   0.436  1.5543  0.0485  0.1349
    2CHTO  H175  496   3.188   4.612   0.498 -3.7289 -1.9651  1.7465
    2CHTO   C97  497   3.207   4.927   0.642  0.1233 -0.0200 -0.1421
    2CHTO  H184  498   3.109   4.915   0.690 -0.6956  0.3259 -1.6895
    2CHTO   O64  499   3.299   4.999   0.727  0.2601 -0.1553  0.5749
    2CHTO  C104  500   3.301   4.944   0.855 -0.5734  0.7230 -0.4111
    2CHTO  H191  501   3.205   4.937   0.906 -0.4225 -1.2349 -0.3614
    2CHTO  C108  502   3.387   5.037   0.944  0.6740  0.2393 -0.1129
    2CHTO   O71  503   3.357   5.181   0.946  0.4749 -0.3059  0.5284
    2CHTO  H171  504   3.282   5.191   1.000  0.4674 -1.8684  0.8454
    2CHTO   O62  505   3.204   5.025   0.536 -0.7748  0.3473  0.2313
    2CHTO   C91  506   3.075   5.075   0.501 -0.3003  0.6055  0.0651
    2CHTO  H178  507   2.994   5.009   0.531 -1.0683  0.4343 -2.2977
    2CHTO   C92  508   3.065   5.071   0.341 -0.4918 -0.6185 -0.1687
    2CHTO  H179  509   3.123   5.146   0.285  0.3810 -0.8099  0.4832
    2CHTO   O66  510   3.111   4.945   0.303  0.6312  0.2776 -0.1513
    2CHTO  H166  511   3.046   4.903   0.251  1.0694 -1.7574  0.8991
    2CHTO   C93  512   2.907   5.094   0.312 -0.5721 -0.9573 -0.0195
    2CHTO  H180  513   2.858   5.002   0.348 -1.6426 -0.6396 -0.6225
    2CHTO   N16  514   2.875   5.101   0.165  0.0903  0.4184 -0.5282
    2CHTO  H172  515   2.964   5.106   0.104  0.6376 -1.1084  0.1210
    2CHTO  H173  516   2.812   5.186   0.145 -0.8294  0.0544  0.7630
    2CHTO   C94  517   2.852   5.225   0.380 -0.1841  0.2958 -0.7554
    2CHTO  H181  518   2.881   5.318   0.331 -1.1864  1.2753  0.4737
    2CHTO   O61  519   2.898   5.233   0.521  0.4717 -0.2887 -0.1970
    2CHTO   C95  520   3.036   5.214   0.545 -0.4029  1.0601 -0.1624
    2CHTO  H182  521   3.091   5.284   0.482  1.9843  0.1276  0.8314
    2CHTO  C106  522   3.060   5.244   0.699  0.8112 -0.0914  0.0677
    2CHTO   O69  523   3.198   5.268   0.714  0.0594  1.0985 -0.2259
    2CHTO  H169  524   3.231   5.289   0.799  3.0088 -0.4083 -0.9553
    2CHTO   O63  525   2.685   5.228   0.381 -0.2637 -0.4057 -0.1159
    2CHTO   C96  526   2.627   5.359   0.395 -0.6151 -0.0652  0.7145
    2CHTO  H183  527   2.519   5.350   0.394 -0.5566 -0.8027  0.9783
    2CHTO   C98  528   2.648   5.455   0.279 -0.2369 -0.6021  0.4339
    2CHTO  H185  529   2.754   5.469   0.255 -0.1851 -0.6979  0.6086
    2CHTO   O67  530   2.595   5.388   0.152 -0.6804  0.1533  0.0457
    2CHTO  H167  531   2.626   5.302   0.134 -1.1239  0.0493 -0.2331
    2CHTO  C102  532   2.582   5.602   0.306 -0.5130 -0.0312 -0.0422
    2CHTO  H189  533   2.473   5.583   0.307 -0.3428 -1.1912 -1.1655
    2CHTO   N18  534   2.603   5.701   0.199  0.1070 -0.0807  0.5196
    2CHTO  H176  535   2.549   5.654   0.119  1.1492 -1.2903  0.5111
    2CHTO  H177  536   2.708   5.716   0.179 -0.3543  0.6345 -1.4728
    2CHTO  C105  537   2.627   5.651   0.443  0.3405  0.4464 -0.5706
    2CHTO  H192  538   2.736   5.659   0.448  0.2903  0.7629  0.2104
    2CHTO   O65  539   2.594   5.552   0.548  0.0773 -0.4728  0.0280
    2CHTO  C100  540   2.664   5.426   0.536  0.5572  0.5380 -0.6588
    2CHTO  H187  541   2.771   5.454   0.534  0.4084  1.0824 -2.0989
    2CHTO  C107  542   2.635   5.332   0.658 -0.2599  0.1778 -0.1056
    2CHTO   O70  543   2.679   5.396   0.781  0.5236 -0.1397  0.2899
    2CHTO  H170  544   2.729   5.339   0.836  1.2378  0.1061 -0.1083
    2CHTO   O57  545   2.555   5.791   0.489 -0.2230  0.1118 -0.0065
    2CHTO   C85  546   2.621   5.888   0.577 -0.2676 -0.3809 -0.1237
    2CHTO  H157  547   2.560   5.882   0.669 -1.7207  1.0766 -0.9769
    2CHTO   C83  548   2.594   6.028   0.512  0.3212 -0.4593  0.5756
    2CHTO  H155  549   2.490   6.058   0.529  0.1846 -0.2231 -0.6619
    2CHTO   O56  550   2.602   6.019   0.368 -1.1140 -0.0302  0.2922
    2CHTO  H135  551   2.579   5.934   0.333  1.7572 -0.6562 -0.1405
    2CHTO   C81  552   2.685   6.138   0.574  0.1772  0.2688  0.1033
    2CHTO  H153  553   2.662   6.148   0.680  0.6290 -2.4074  0.4778
    2CHTO   N14  554   2.662   6.281   0.531 -0.5178  0.8129 -0.3152
    2CHTO  H141  555   2.742   6.339   0.571 -0.0761  0.5947 -0.8714
    2CHTO  H142  556   2.574   6.314   0.581 -0.1320  2.3620 -0.6478
    2CHTO   C79  557   2.834   6.100   0.563 -0.6599 -0.3619  0.3910
    2CHTO  H151  558   2.891   6.183   0.603 -0.0605 -0.3989 -0.3675
    2CHTO   O52  559   2.854   5.980   0.645 -0.1626  0.0806 -0.1168
    2CHTO   C86  560   2.782   5.870   0.600  0.0612  0.1249 -0.0691
    2CHTO  H158  561   2.831   5.835   0.507  1.6699  2.8027 -0.2969
    2CHTO   C90  562   2.802   5.750   0.704 -0.1570  0.1471  0.5271
    2CHTO   O60  563   2.756   5.770   0.841 -0.2446 -0.3818  0.5992
    2CHTO  H138  564   2.668   5.805   0.842 -0.3669 -0.7024  0.8805
    2CHTO   O50  565   2.893   6.082   0.435  0.3741 -0.3033  0.3041
    2CHTO   C73  566   2.999   6.125   0.346 -0.3351  0.2599 -0.4039
    2CHTO  H145  567   3.008   6.235   0.345 -1.2199  0.3507  0.4829
    2CHTO   C74  568   2.953   6.077   0.208 -0.1035 -0.4329 -0.0394
    2CHTO  H146  569   2.851   6.106   0.178  0.8907  1.6993 -1.4920
    2CHTO   O54  570   3.051   6.135   0.116 -0.2952  0.2430 -0.2728
    2CHTO  H133  571   3.037   6.228   0.110 -0.0136  0.2182 -1.6399
    2CHTO   C75  572   2.971   5.923   0.207 -0.6644 -0.3113  0.0894
    2CHTO  H147  573   2.891   5.879   0.270 -2.8117  1.6087 -1.2138
    2CHTO   N13  574   2.944   5.853   0.076  0.4536 -0.6935  0.8110
    2CHTO  H139  575   3.031   5.809   0.031  1.3370  1.4066  0.4340
    2CHTO  H140  576   2.905   5.926   0.007  0.6743  1.3832  2.8046
    2CHTO   C76  577   3.113   5.874   0.261  0.0492 -0.2797 -0.1451
    2CHTO  H148  578   3.186   5.917   0.193 -0.7334 -0.1895 -0.9336
    2CHTO   O49  579   3.139   5.918   0.397 -0.2941 -0.1045  0.4683
    2CHTO   C77  580   3.137   6.063   0.397 -0.2942 -0.0389 -0.1572
    2CHTO  H149  581   3.221   6.095   0.335  1.0425 -1.2346  1.0000
    2CHTO   C88  582   3.165   6.107   0.538 -0.0851 -0.1523  0.0574
    2CHTO   O58  583   3.161   6.263   0.550 -0.0201 -0.3459 -0.2155
    2CHTO  H136  584   3.113   6.290   0.626  0.8344  1.5951 -0.3295
    2CHTO   O51  585   3.118   5.718   0.269  0.6278 -0.1937  0.2665
    2CHTO   C78  586   3.263   5.661   0.322 -0.0833 -0.8600 -0.9396
    2CHTO  H150  587   3.314   5.738   0.384  0.2655 -1.8072 -0.0303
    2CHTO   C80  588   3.355   5.621   0.202 -0.5274  0.0811  0.8090
    2CHTO  H152  589   3.294   5.547   0.146  1.8993 -0.7108 -0.8437
    2CHTO   O55  590   3.390   5.745   0.126 -0.1220 -0.3058  0.2782
    2CHTO  H134  591   3.317   5.757   0.069  1.4663 -1.2083 -2.0236
    2CHTO   C84  592   3.481   5.551   0.259  0.4576 -0.5701 -0.5128
    2CHTO  H156  593   3.547   5.626   0.303 -0.1523 -1.4610  2.0347
    2CHTO   N15  594   3.569   5.495   0.158 -0.3926  0.3178  0.1478
    2CHTO  H143  595   3.650   5.435   0.194 -1.0423 -1.1086 -0.7488
    2CHTO  H144  596   3.601   5.558   0.078  1.9977  0.9276  1.5319
    2CHTO   C87  597   3.450   5.442   0.370  0.2674  0.0335 -0.5930
    2CHTO  H159  598   3.412   5.349   0.329 -0.5409 -0.4417  1.1742
    2CHTO   O53  599   3.359   5.491   0.459  0.1737 -0.1131  0.2126
    2CHTO   C82  600   3.239   5.551   0.420  0.6439 -0.0594  0.5496
    2CHTO  H154  601   3.174   5.477   0.374  2.6985 -0.7218 -1.3868
    2CHTO   C89  602   3.169   5.594   0.547 -0.1718  0.4191 -0.0999
    2CHTO   O59  603   3.030   5.614   0.519 -0.0931  0.4633 -0.2987
    2CHTO  H137  604   3.003   5.673   0.587 -1.3169  1.6486 -1.7676
    2CHTO   O45  605   3.599   5.410   0.459 -1.1396 -0.2490 -0.3773
    2CHTO   C67  606   3.624   5.490   0.580 -0.5831 -0.1312  0.3992
    2CHTO  H124  607   3.553   5.573   0.573  0.4914  0.7189 -0.6360
    2CHTO   C65  608   3.601   5.408   0.708 -0.1126  0.5035  0.0538
    2CHTO  H122  609   3.629   5.306   0.682 -2.9455 -0.3948  0.2719
    2CHTO   O44  610   3.461   5.414   0.740  0.1218 -0.0696  0.2912
    2CHTO  H102  611   3.456   5.411   0.834  0.4657  1.5849  0.3858
    2CHTO   C63  612   3.700   5.448   0.820  0.7744  0.0698 -0.0905
    2CHTO  H120  613   3.799   5.408   0.799  0.7439  0.1547 -0.4013
    2CHTO   N11  614   3.671   5.383   0.953 -0.0480  0.0349 -0.7097
    2CHTO  H108  615   3.736   5.298   0.967 -2.0557 -1.2718  0.9960
    2CHTO  H109  616   3.700   5.447   1.033  0.1250  1.0577 -1.5870
    2CHTO   C61  617   3.715   5.611   0.814 -0.1026  0.5467  0.4791
    2CHTO  H118  618   3.789   5.644   0.889  1.2102 -0.7484 -0.2185
    2CHTO   O40  619   3.773   5.652   0.687 -0.1108  0.3532  0.4477
    2CHTO   C68  620   3.764   5.561   0.576 -0.2583 -0.2517  0.8309
    2CHTO  H125  621   3.847   5.488   0.587  0.3588  0.0660 -1.5808
    2CHTO   C72  622   3.798   5.643   0.448  0.0775 -0.5181  0.1646
    2CHTO   O48  623   3.908   5.734   0.455  0.5219 -0.0498 -0.3939
    2CHTO  H105  624   3.899   5.806   0.396  0.8343  0.8364  0.6229
    2CHTO   O38  625   3.587   5.668   0.825 -0.0235  0.0218  0.5314
    2CHTO   C55  626   3.573   5.789   0.903 -0.0071  0.1301  0.5715
    2CHTO  H112  627   3.664   5.848   0.919 -0.6010  1.5788 -1.0838
    2CHTO   C56  628   3.502   5.754   1.041  0.2275  0.2097 -0.1521
    2CHTO  H113  629   3.421   5.682   1.021 -0.1633  0.3539  0.9016
    2CHTO   O42  630   3.586   5.670   1.120 -0.0808 -0.4748  0.2324
    2CHTO  H100  631   3.662   5.713   1.154  0.4029 -1.5466  0.5307
    2CHTO   C57  632   3.463   5.882   1.121  0.0801  0.4062 -0.2563
    2CHTO  H114  633   3.559   5.932   1.141 -0.8576  2.6941 -1.2483
    2CHTO   N10  634   3.386   5.865   1.249 -0.5163  0.3424 -0.4776
    2CHTO  H106  635   3.423   5.779   1.304  0.9905  0.5368 -1.1715
    2CHTO  H107  636   3.281   5.852   1.226 -0.6673 -0.6407  0.7012
    2CHTO   C58  637   3.385   5.974   1.020  0.0632  0.0399  0.3521
    2CHTO  H115  638   3.289   5.924   0.994 -1.4421  2.1721  1.6657
    2CHTO   O37  639   3.456   6.006   0.901 -0.2255  0.4451 -0.0620
    2CHTO   C59  640   3.482   5.889   0.822 -0.2668  0.0016  0.4737
    2CHTO  H116  641   3.387   5.838   0.806 -0.7481  0.7964  0.7595
    2CHTO   C70  642   3.536   5.934   0.682 -0.2990  0.0735 -0.0637
    2CHTO   O46  643   3.511   5.840   0.578  0.1662  0.0593  0.4532
    2CHTO  H103  644   3.542   5.756   0.607  2.6464  1.4574  2.1132
    2CHTO   O39  645   3.355   6.109   1.084 -0.4102  0.2334  0.3840
    2CHTO   C60  646   3.247   6.187   1.021 -0.1163 -0.4914  0.0029
    2CHTO  H117  647   3.247   6.167   0.914  2.0061 -3.3833  0.4853
    2CHTO   C62  648   3.102   6.151   1.077 -0.6555 -0.3275  0.2613
    2CHTO  H119  649   3.084   6.048   1.041  1.5732 -0.2740 -1.0741
    2CHTO   O43  650   3.090   6.162   1.226  0.5742 -0.4221 -0.2934
    2CHTO  H101  651   3.119   6.247   1.252  0.2893 -0.0492 -1.1646
    2CHTO   C66  652   2.997   6.252   1.003  0.2278  0.2689 -0.2020
    2CHTO  H123  653   3.019   6.249   0.896 -0.9969  1.5417 -0.4986
    2CHTO   N12  654   2.855   6.214   1.019 -0.1807 -0.2801 -0.5669
    2CHTO  H110  655   2.828   6.258   1.114  1.1600  0.6582 -0.6196
    2CHTO  H111  656   2.866   6.107   1.031  2.2971  0.0565  0.4254
    2CHTO   C69  657   3.029   6.400   1.050  0.2518  0.1252 -0.3101
    2CHTO  H126  658   3.019   6.410   1.161  0.7318 -0.3894 -0.2187
    2CHTO   O41  659   3.159   6.438   1.008  0.6594 -0.4776  0.3529
    2CHTO   C64  660   3.283   6.335   1.044  0.0063 -0.1842 -0.0753
    2CHTO  H121  661   3.296   6.352   1.153 -1.7973 -0.6350  0.2279
    2CHTO   C71  662   3.411   6.396   0.977  0.5666  0.0972  0.3406
    2CHTO   O47  663   3.385   6.463   0.856  0.2467  0.5029  0.6036
    2CHTO  H104  664   3.352   6.550   0.864 -2.1202 -0.0401 -2.3476
    2CHTO   O34  665   2.924   6.521   0.992 -0.2980  0.5624 -0.0329
    2CHTO   C49  666   2.862   6.606   1.080 -0.0217  0.2911  0.1027
    2CHTO   H91  667   2.821   6.539   1.155  0.1293 -0.9610 -0.9144
    2CHTO   C47  668   2.753   6.692   1.012  0.3193 -0.6346 -0.2862
    2CHTO   H89  669   2.702   6.749   1.093  1.5128 -0.6572  0.4973
    2CHTO   O33  670   2.657   6.611   0.945 -0.3534  0.5283 -0.2775
    2CHTO   H70  671   2.622   6.543   0.998 -1.0138  1.7554  0.9017
    2CHTO   C45  672   2.829   6.799   0.909  0.4828 -0.5207 -0.0989
    2CHTO   H87  673   2.890   6.737   0.842  0.7407 -0.6702  0.2733
    2CHTO    N8  674   2.733   6.872   0.828 -0.3902 -0.3038 -0.2796
    2CHTO   H75  675   2.786   6.921   0.748 -0.7767 -1.3541 -1.2118
    2CHTO   H76  676   2.665   6.940   0.877 -0.1961  0.1366 -0.6173
    2CHTO   C43  677   2.934   6.897   0.988 -1.2138 -0.0411 -0.3971
    2CHTO   H85  678   2.994   6.933   0.905  0.7199 -2.1321  0.0488
    2CHTO   O29  679   3.021   6.813   1.073 -0.4935 -0.0166 -0.1756
    2CHTO   C50  680   2.962   6.705   1.149  0.4187 -0.1051 -0.3105
    2CHTO   H92  681   3.047   6.638   1.169  0.1970  0.4608  2.8481
    2CHTO   C54  682   2.913   6.778   1.284  0.6121 -0.1014  0.4673
    2CHTO   O36  683   2.828   6.700   1.373  0.1220 -0.1567  0.6642
    2CHTO   H72  684   2.869   6.615   1.370  2.4552  0.9296  0.6037
    2CHTO   O27  685   2.861   7.003   1.056  0.0808 -0.2887 -0.1837
    2CHTO   C37  686   2.783   7.124   1.094 -0.2944 -0.3572 -0.4695
    2CHTO   H79  687   2.742   7.161   0.999 -0.7772  0.2343 -0.0369
    2CHTO   C38  688   2.657   7.069   1.183  0.1071 -0.2868  0.1217
    2CHTO   H80  689   2.700   7.001   1.257 -0.9024 -2.1711 -0.9937
    2CHTO   O31  690   2.576   6.985   1.099  0.4214 -0.1023  0.3549
    2CHTO   H68  691   2.511   6.956   1.160  1.3707  0.1972  1.5401
    2CHTO   C39  692   2.577   7.193   1.244 -0.4814  0.7302  0.1679
    2CHTO   H81  693   2.523   7.237   1.160 -1.8059  0.4423  0.8706
    2CHTO    N7  694   2.472   7.152   1.348 -0.7123 -0.0508  0.0909
    2CHTO   H73  695   2.454   7.231   1.420  0.7952  2.9433 -2.6679
    2CHTO   H74  696   2.502   7.061   1.396  1.7619  0.3770 -0.5678
    2CHTO   C40  697   2.673   7.300   1.310 -0.1425 -0.1885 -0.5036
    2CHTO   H82  698   2.715   7.247   1.395 -0.6351 -3.6155 -2.3032
    2CHTO   O26  699   2.775   7.339   1.217 -0.2132 -0.1367  0.3267
    2CHTO   C41  700   2.863   7.236   1.169 -0.2640  0.3812  0.2585
    2CHTO   H83  701   2.913   7.188   1.254  1.7971 -0.1171 -1.2019
    2CHTO   C52  702   2.971   7.285   1.067  0.1742  0.4870  0.4088
    2CHTO   O35  703   3.062   7.397   1.125 -0.3093 -0.5374 -0.4937
    2CHTO   H71  704   3.153   7.388   1.105 -0.3701 -0.8229 -0.6397
    2CHTO   O28  705   2.608   7.428   1.345 -0.3102 -0.2988  0.0789
    2CHTO   C42  706   2.658   7.497   1.466 -0.4940 -0.1263  0.3579
    2CHTO   H84  707   2.628   7.601   1.454  0.7127  0.2047  0.0635
    2CHTO   C44  708   2.815   7.504   1.482  0.3278  0.0670 -1.0017
    2CHTO   H86  709   2.854   7.403   1.468  0.6448  0.3947 -2.4872
    2CHTO   O32  710   2.855   7.577   1.366  0.3020  0.0142  0.0578
    2CHTO   H69  711   2.862   7.669   1.382  1.1239  0.0469 -0.4589
    2CHTO   C48  712   2.866   7.566   1.618 -0.2702 -0.3861  0.5686
    2CHTO   H90  713   2.839   7.672   1.618 -0.7633 -0.5115  0.3171
    2CHTO    N9  714   3.016   7.570   1.628  0.2282 -0.0136 -0.4440
    2CHTO   H77  715   3.053   7.499   1.700 -2.2443  0.1680  1.0627
    2CHTO   H78  716   3.068   7.539   1.539 -1.1980  0.6475 -1.5304
    2CHTO   C51  717   2.801   7.486   1.741  0.3797  0.1481 -0.2764
    2CHTO   H93  718   2.833   7.382   1.742  0.4499  0.1434 -2.2234
    2CHTO   O30  719   2.661   7.501   1.740  0.1836 -0.0148  0.3192
    2CHTO   C46  720   2.594   7.444   1.602  0.7048 -0.2760 -0.2715
    2CHTO   H88  721   2.600   7.336   1.609  0.4934 -0.1680  2.4246
    2CHTO   C53  722   2.441   7.478   1.606 -0.8370  0.6663  0.6450
    2CHTO   O72  723   2.355   7.410   1.707 -0.1388  0.3256 -0.5528
    2CHTO  H199  724   2.393   7.422   1.792 -2.1126  1.6468  0.1753
    2CHTO   O22  725   2.833   7.542   1.875 -0.0512  0.2032 -0.3465
    2CHTO   C31  726   2.797   7.481   2.009  0.1602 -1.0919  0.9213
    2CHTO   H59  727   2.866   7.529   2.082  0.0022 -0.1299  0.4461
    2CHTO   C29  728   2.654   7.515   2.056 -0.2470  0.8818  0.0651
    2CHTO   H57  729   2.587   7.457   1.991  0.6898  1.6325 -1.5840
    2CHTO   O21  730   2.628   7.654   2.024  0.3203  0.1698 -0.0784
    2CHTO   H37  731   2.554   7.694   2.065 -0.1215 -2.3745  1.7557
    2CHTO   C27  732   2.635   7.474   2.201 -0.5019  0.2416 -0.2209
    2CHTO   H55  733   2.716   7.513   2.264 -0.6806 -1.1873  0.9177
    2CHTO    N5  734   2.505   7.508   2.260  0.2350  0.6692 -0.5193
    2CHTO   H43  735   2.504   7.525   2.367  0.3011 -2.1113 -0.0584
    2CHTO   H44  736   2.437   7.433   2.223  1.2454 -0.1523 -0.7372
    2CHTO   C25  737   2.665   7.324   2.216 -0.0955 -0.0980 -0.9111
    2CHTO   H53  738   2.588   7.264   2.164 -1.5305  0.6656  0.2986
    2CHTO   O17  739   2.803   7.294   2.159 -0.7473  0.3038  0.1523
    2CHTO   C32  740   2.824   7.333   2.023  0.1823 -0.0848 -0.3674
    2CHTO   H60  741   2.765   7.277   1.950  2.3800 -0.7693 -1.6715
    2CHTO   C36  742   2.976   7.307   2.005 -0.2604 -0.0767  0.2823
    2CHTO   O25  743   2.986   7.165   1.977  0.1951 -0.0577 -0.0442
    2CHTO   H40  744   2.977   7.106   2.049  0.4853  0.0183  0.0550
    2CHTO   O15  745   2.654   7.270   2.376  0.3812  0.1012  0.6657
    2CHTO   C19  746   2.706   7.250   2.504  0.1140 -0.1346 -0.7621
    2CHTO   H47  747   2.688   7.144   2.525  0.1599  0.4380  2.3095
    2CHTO   C20  748   2.863   7.287   2.503 -0.0445 -0.3960  0.0876
    2CHTO   H48  749   2.880   7.393   2.481  1.9723 -0.6204  0.4513
    2CHTO   O19  750   2.933   7.196   2.409 -0.2265 -0.1118 -0.8398
    2CHTO   H35  751   2.941   7.239   2.326 -0.6471 -2.4731 -2.1433
    2CHTO   C21  752   2.920   7.276   2.645  0.2452  0.0583 -0.2313
    2CHTO   H49  753   2.905   7.171   2.669 -0.9703  0.3004  0.0986
    2CHTO    N4  754   3.061   7.315   2.665  0.3346 -0.3258  0.1281
    2CHTO   H41  755   3.114   7.352   2.578 -3.5562  2.5453 -1.1626
    2CHTO   H42  756   3.118   7.233   2.707 -0.0788 -1.1523 -0.9132
    2CHTO   C22  757   2.832   7.355   2.744  0.2064 -0.4903 -0.5790
    2CHTO   H50  758   2.844   7.463   2.733  1.3164 -0.6337 -0.7836
    2CHTO   O14  759   2.694   7.310   2.735  0.1321  0.2100 -0.4537
    2CHTO   C23  760   2.631   7.333   2.612 -0.2155 -0.4046 -0.2242
    2CHTO   H51  761   2.634   7.441   2.593 -2.9945 -0.0973  0.8680
    2CHTO   C34  762   2.481   7.296   2.631  0.0708  0.2649  0.5381
    2CHTO   O23  763   2.428   7.327   2.757  0.4265 -0.0577 -0.0739
    2CHTO   H38  764   2.415   7.247   2.804 -0.4951 -0.4034 -0.8868
    2CHTO   O16  765   2.853   7.319   2.882  0.1157 -0.2384 -0.1091
    2CHTO   C24  766   2.828   7.426   2.997  0.7816 -0.1912  0.0215
    2CHTO   H52  767   2.765   7.507   2.961  0.1253 -1.5319 -1.9118
    2CHTO   C26  768   2.966   7.488   3.030  0.0740  0.0133 -0.8089
    2CHTO   H54  769   3.039   7.411   3.065  0.7411  0.4538 -1.2114
    2CHTO   O20  770   3.014   7.551   2.907 -0.3826 -0.1774  0.4293
    2CHTO   H36  771   2.950   7.564   2.840  1.0143  0.0560 -0.8958
    2CHTO   C30  772   2.936   7.592   3.144  0.2194 -0.1418 -0.1883
    2CHTO   H58  773   2.857   7.669   3.133 -1.7161 -2.3383 -2.2961
    2CHTO    N6  774   3.053   7.682   3.171  0.4186  0.0981 -0.0034
    2CHTO   H45  775   3.033   7.775   3.223  0.1342  0.3501 -0.5599
    2CHTO   H46  776   3.128   7.627   3.226  1.2859 -0.1364 -1.3888
    2CHTO   C33  777   2.887   7.505   3.262 -0.3566  0.2027 -0.0054
    2CHTO   H61  778   2.959   7.424   3.279 -2.4568 -1.8729 -0.7145
    2CHTO   O18  779   2.756   7.452   3.224  0.5049  0.3242  0.1028
    2CHTO   C28  780   2.758   7.355   3.117  0.0019 -0.2310 -0.4212
    2CHTO   H56  781   2.817   7.266   3.140 -1.0446 -0.9434 -0.5112
    2CHTO   C35  782   2.615   7.307   3.088  0.3251 -0.1659 -0.3649
    2CHTO   O24  783   2.550   7.227   3.190 -0.4275 -0.4497  0.3610
    2CHTO   H39  784   2.479   7.272   3.232  0.2385 -0.9310  2.0868
    2CHTO    O9  785   2.882   7.581   3.390  0.1087  0.0658 -0.0387
    2CHTO   C13  786   2.832   7.491   3.519 -0.6969  0.0166  0.1243
    2CHTO   H26  787   2.872   7.388   3.505  0.1708  0.1729  1.3755
    2CHTO   C11  788   2.671   7.492   3.524 -0.2722  0.7829  0.3654
    2CHTO   H24  789   2.635   7.442   3.433  0.8521 -1.8261  1.3040
    2CHTO    O8  790   2.627   7.627   3.511  0.2530 -0.0424  0.2985
    2CHTO    H3  791   2.649   7.671   3.591  2.5034 -0.9487  0.2355
    2CHTO    C9  792   2.628   7.423   3.653  0.4666  1.0266  0.2496
    2CHTO   H22  793   2.667   7.320   3.647  1.2418  1.2287  1.5476
    2CHTO    N2  794   2.481   7.382   3.645  0.8649 -0.5441  0.4484
    2CHTO   H10  795   2.419   7.471   3.641  0.8783 -0.5954 -1.3239
    2CHTO   H11  796   2.447   7.314   3.721  0.3570  0.2197  0.9094
    2CHTO    C7  797   2.682   7.489   3.783 -0.1144  0.0287  0.6835
    2CHTO   H20  798   2.669   7.412   3.862 -1.9016  1.8985  2.2816
    2CHTO    O4  799   2.832   7.512   3.771 -0.2781  0.0318  0.5417
    2CHTO   C14  800   2.902   7.544   3.647  0.1229 -0.0559 -0.5016
    2CHTO   H27  801   2.998   7.489   3.660  0.2103 -0.0506 -1.0774
    2CHTO   C18  802   2.941   7.695   3.648  0.5475 -0.1440 -0.5650
    2CHTO   O13  803   3.063   7.724   3.716  0.5032  0.3304  0.0667
    2CHTO    H7  804   3.129   7.659   3.703 -0.2927 -0.4651 -0.0394
    2CHTO    O2  805   2.609   7.637   3.812 -0.1917  0.4132  0.0497
    2CHTO    C1  806   2.568   7.649   3.951 -0.1752 -0.8065  0.6542
    2CHTO   H14  807   2.610   7.570   4.016  0.7132  0.4423  1.6262
    2CHTO    C2  808   2.418   7.665   3.973  0.3183 -0.1792  0.6633
    2CHTO   H15  809   2.392   7.747   3.905 -0.4484 -0.5152  0.5399
    2CHTO    O6  810   2.347   7.545   3.931  0.3582 -0.4954 -0.2917
    2CHTO    H1  811   2.254   7.551   3.945  0.5149 -0.2342  0.6482
    2CHTO    C3  812   2.385   7.698   4.125  0.1366  0.2305 -1.0056
    2CHTO   H16  813   2.411   7.611   4.187 -1.0140  2.1874  2.3511
    2CHTO    N1  814   2.235   7.723   4.157  0.7308  0.3027  0.2753
    2CHTO    H8  815   2.218   7.730   4.263 -0.6462 -1.0817  0.1541
    2CHTO    H9  816   2.176   7.646   4.109 -0.6238  1.4718  0.0278
    2CHTO    C4  817   2.462   7.825   4.180 -0.4863 -0.6402  0.5827
    2CHTO   H17  818   2.425   7.919   4.140  1.9681 -0.9383 -2.6409
    2CHTO    O1  819   2.604   7.819   4.143  0.5145  0.2197  0.2765
    2CHTO    C5  820   2.635   7.780   4.006 -0.3326 -0.1181  0.3582
    2CHTO   H18  821   2.602   7.858   3.937  1.6485 -0.2462 -0.7891
    2CHTO   C16  822   2.787   7.772   3.996  0.1642  0.0945  1.0052
    2CHTO   O11  823   2.847   7.900   4.006  0.2084 -0.0533  0.2093
    2CHTO    H5  824   2.909   7.901   4.077 -2.4086 -1.1938  2.6192
    2CHTO    O3  825   2.470   7.821   4.323 -0.7300  0.3742  0.7156
    2CHTO    C6  826   2.475   7.952   4.386  0.1881  0.4950  0.3103
    2CHTO   H19  827   2.520   8.025   4.318  0.4053  0.0179 -0.0569
    2CHTO    C8  828   2.333   7.997   4.424 -0.3967  0.0105  0.4308
    2CHTO   H21  829   2.279   7.910   4.461 -1.1517  1.2358  2.3001
    2CHTO    O7  830   2.272   8.045   4.305 -0.0338  0.3557  0.3564
    2CHTO    H2  831   2.207   8.110   4.318  0.6066  1.7792 -2.9316
    2CHTO   C12  832   2.325   8.113   4.534 -0.0977 -0.2453  0.1818
    2CHTO   H25  833   2.345   8.209   4.482  0.2127  0.3259  1.3322
    2CHTO    N3  834   2.185   8.130   4.588 -0.0886  0.0462 -0.5213
    2CHTO   H12  835   2.112   8.095   4.516  0.2090 -0.1872 -0.7095
    2CHTO   H13  836   2.172   8.101   4.691  1.7800  0.3211 -0.1996
    2CHTO   C15  837   2.435   8.098   4.644 -0.4024  0.3934 -0.1332
    2CHTO   H28  838   2.416   8.015   4.712  1.8253  0.9754  1.2396
    2CHTO   O10  839   2.464   8.227   4.722 -0.0883  0.3344  0.1028
    2CHTO    H4  840   2.479   8.206   4.812 -0.0151 -2.8840 -0.6036
    2CHTO    O5  841   2.561   8.072   4.578  0.2339  0.4842 -0.4419
    2CHTO   C10  842   2.554   7.946   4.512 -0.3245  0.1647 -0.0641
    2CHTO   H23  843   2.511   7.871   4.579  0.0891 -0.0454 -0.0242
    2CHTO   C17  844   2.704   7.913   4.488 -1.0853  0.7709 -0.3673
    2CHTO   O12  845   2.782   7.908   4.609 -0.3973  0.3038  0.1427
    2CHTO    H6  846   2.734   7.853   4.668  0.0265 -0.5392 -0.2862
    3CHTO  H203  847   6.820   2.467   2.803  0.1273  1.6680 -3.1904
    3CHTO   O82  848   6.911   2.448   2.820 -0.7203 -0.0033 -0.0260
    3CHTO  C123  849   6.968   2.354   2.723 -0.3226 -0.3402  0.2458
    3CHTO  H227  850   7.076   2.370   2.716 -0.3424 -0.9888 -1.9698
    3CHTO   O77  851   6.937   2.232   2.801  0.0423  0.1588  0.0047
    3CHTO  C118  852   6.952   2.108   2.729 -0.1674 -0.1840 -0.4031
    3CHTO  H222  853   7.060   2.093   2.717 -0.0056  1.1345 -0.7383
    3CHTO  C125  854   6.896   2.005   2.839  0.0160  0.4529  0.0725
    3CHTO   O84  855   6.982   2.020   2.952  0.4305  0.3014 -0.2567
    3CHTO  H205  856   7.011   1.942   2.997 -0.7808  0.0307  0.0859
    3CHTO  C114  857   6.873   2.093   2.597  0.3659 -0.2206  0.2371
    3CHTO  H218  858   6.767   2.087   2.623 -0.0996  2.5111 -0.8210
    3CHTO  C116  859   6.900   2.224   2.507  0.2448  0.1784 -0.0820
    3CHTO  H220  860   7.002   2.220   2.464 -0.3491  1.1893 -1.6123
    3CHTO   O79  861   6.821   2.221   2.390  0.0912  0.2831 -0.1509
    3CHTO  H201  862   6.734   2.190   2.409  0.5492 -1.7764 -1.2922
    3CHTO  C120  863   6.883   2.361   2.588 -0.3740 -0.4465  0.3637
    3CHTO  H224  864   6.774   2.382   2.596 -0.1120  1.1282 -0.2142
    3CHTO   N21  865   6.927   2.477   2.507  0.1095 -0.2702 -0.3362
    3CHTO  H211  866   6.842   2.518   2.455  1.2055  1.1049 -1.0782
    3CHTO  H212  867   6.968   2.554   2.570  0.0893 -0.5183 -0.0144
    3CHTO   O75  868   6.901   1.968   2.538 -0.3519  0.4474 -0.3288
    3CHTO  C112  869   6.765   1.880   2.467  0.1021  0.2802 -0.1794
    3CHTO  H216  870   6.699   1.952   2.415  1.3768  0.3559 -1.7112
    3CHTO   O73  871   6.700   1.817   2.581 -0.2608  0.6198  1.1610
    3CHTO  C113  872   6.585   1.736   2.560 -0.3219  0.0429 -0.4541
    3CHTO  H217  873   6.499   1.790   2.515  0.9172  0.7796 -2.0053
    3CHTO  C124  874   6.524   1.689   2.697  0.0547  0.0930  0.2411
    3CHTO   O83  875   6.618   1.602   2.763 -0.0911  0.2947  0.5797
    3CHTO  H204  876   6.590   1.592   2.852  3.1537  1.5526  1.8031
    3CHTO  C109  877   6.622   1.616   2.464  0.2442 -0.0967 -0.6274
    3CHTO  H213  878   6.686   1.546   2.519  1.0479  0.9846 -0.1699
    3CHTO  C110  879   6.705   1.667   2.342 -0.3885  1.0352 -0.2031
    3CHTO  H214  880   6.635   1.713   2.273 -0.1578 -0.2500 -1.3129
    3CHTO   O78  881   6.745   1.550   2.270  0.6000 -0.5146 -0.1873
    3CHTO  H200  882   6.803   1.579   2.203  3.1377 -1.0400  1.7193
    3CHTO  C111  883   6.819   1.766   2.378 -0.0517 -0.2693 -0.0191
    3CHTO  H215  884   6.895   1.714   2.438 -0.5382 -1.1114 -0.1136
    3CHTO   N19  885   6.891   1.819   2.261 -0.5433  0.1350 -0.6756
    3CHTO  H207  886   6.973   1.757   2.228  0.1178  0.2092  0.8229
    3CHTO  H208  887   6.815   1.813   2.184 -2.5220 -0.3126  1.2526
    3CHTO   O74  888   6.493   1.544   2.437 -0.5294 -0.4054  0.4479
    3CHTO  C115  889   6.494   1.397   2.493 -0.4211 -0.2672 -1.2933
    3CHTO  H219  890   6.587   1.376   2.545 -1.5801  2.8082  2.2444
    3CHTO   O76  891   6.401   1.377   2.595 -0.3356  0.0129 -0.0918
    3CHTO  C122  892   6.262   1.382   2.552 -0.1708  0.5216  0.0879
    3CHTO  H226  893   6.244   1.489   2.541  5.1265  1.6684  1.3961
    3CHTO  C126  894   6.171   1.326   2.671 -0.4014 -0.3856  0.0790
    3CHTO   O85  895   6.188   1.195   2.719  0.1833 -0.3954  0.4850
    3CHTO  H206  896   6.174   1.194   2.812 -0.7904 -0.9293  0.3476
    3CHTO  C121  897   6.226   1.304   2.420 -0.2538  0.0997  0.8955
    3CHTO  H225  898   6.134   1.243   2.426  1.1249 -2.0893  0.4975
    3CHTO   O81  899   6.225   1.390   2.307  0.0490  0.9614 -0.0100
    3CHTO  H202  900   6.165   1.366   2.239  0.0082  1.7411 -0.2473
    3CHTO  C119  901   6.343   1.210   2.404  0.1126  0.1701  0.2152
    3CHTO  H223  902   6.355   1.152   2.496 -2.1172 -1.5497 -0.5115
    3CHTO  C117  903   6.474   1.287   2.383 -0.5175  0.1028  0.0634
    3CHTO  H221  904   6.473   1.348   2.293 -1.3171  1.0449  0.7065
    3CHTO   N20  905   6.588   1.188   2.369  0.0243 -0.4194 -0.2367
    3CHTO  H209  906   6.669   1.221   2.433 -1.5476  0.8512  1.1444
    3CHTO  H210  907   6.619   1.159   2.270  0.4981  0.5852 -0.3940
    3CHTO   O80  908   6.309   1.074   2.288 -0.1802  0.5659 -0.1402
    3CHTO  C103  909   6.228   0.944   2.341  0.4428  0.0139  0.3264
    3CHTO  H190  910   6.210   0.949   2.449 -1.1275 -0.7780  0.1257
    3CHTO  C101  911   6.089   0.922   2.285  0.2657  0.3807 -0.7466
    3CHTO  H188  912   6.089   0.931   2.176 -2.9134 -3.0211 -1.1428
    3CHTO   O68  913   5.990   1.049   2.342  0.1314 -0.4014 -0.1220
    3CHTO  H168  914   5.902   1.043   2.309  0.6167  0.6233 -1.6603
    3CHTO   C99  915   6.031   0.783   2.324 -0.0948  0.1542 -0.3820
    3CHTO  H186  916   6.023   0.790   2.435 -0.8381 -0.7881 -0.3679
    3CHTO   N17  917   5.897   0.766   2.266  0.3102  0.9775 -0.3417
    3CHTO  H174  918   5.888   0.663   2.236  2.7472  0.3835  0.8001
    3CHTO  H175  919   5.829   0.791   2.346  1.3981  0.7062  0.6802
    3CHTO   C97  920   6.134   0.670   2.286 -0.8876 -0.4493 -0.1651
    3CHTO  H184  921   6.137   0.671   2.176  0.2027 -1.0772 -0.1539
    3CHTO   O64  922   6.264   0.691   2.340  0.7120  0.1969 -0.4549
    3CHTO  C104  923   6.324   0.822   2.319 -0.3754  0.8468 -0.0832
    3CHTO  H191  924   6.372   0.822   2.221  0.6837 -4.7922  0.3079
    3CHTO  C108  925   6.434   0.825   2.424  0.0499  0.5452  0.4008
    3CHTO   O71  926   6.552   0.748   2.378  0.6763  0.1979 -0.0483
    3CHTO  H171  927   6.605   0.718   2.449  0.7404 -0.9951 -0.6027
    3CHTO   O62  928   6.097   0.547   2.341 -0.0454 -0.2878 -0.4645
    3CHTO   C91  929   6.158   0.419   2.293 -0.0522  0.3970  0.5509
    3CHTO  H178  930   6.260   0.431   2.256  0.0069 -1.7027 -0.0093
    3CHTO   C92  931   6.067   0.370   2.175  0.3151  0.1332 -0.0371
    3CHTO  H179  932   5.968   0.356   2.221  0.3109  1.1271  0.2597
    3CHTO   O66  933   6.062   0.464   2.069 -0.5388 -0.2463 -0.4230
    3CHTO  H166  934   6.001   0.534   2.078 -1.5956 -1.3204  1.0101
    3CHTO   C93  935   6.118   0.235   2.117  0.2191  0.2440 -0.2196
    3CHTO  H180  936   6.203   0.268   2.056  1.9333  0.6137  2.3351
    3CHTO   N16  937   6.024   0.161   2.030 -0.1088 -0.0728  0.0629
    3CHTO  H172  938   5.919   0.184   2.041 -0.0319  0.8983 -1.0744
    3CHTO  H173  939   6.054   0.059   2.010  0.4637  0.2749 -0.8799
    3CHTO   C94  940   6.173   0.138   2.231 -0.7953 -0.2410 -0.0363
    3CHTO  H181  941   6.135   0.037   2.220  1.6531 -1.2018  0.0570
    3CHTO   O61  942   6.120   0.179   2.356 -0.4414  0.7489 -0.6235
    3CHTO   C95  943   6.151   0.309   2.410 -0.0609  0.0916  0.1631
    3CHTO  H182  944   6.063   0.337   2.468 -1.9361 -3.0936 -1.0484
    3CHTO  C106  945   6.281   0.305   2.507  0.2059 -0.0942  0.4158
    3CHTO   O69  946   6.333   0.436   2.545 -0.1329  0.1107  0.3213
    3CHTO  H169  947   6.310   0.457   2.634  0.9026 -0.9525  0.8633
    3CHTO   O63  948   6.329   0.137   2.235 -0.6477 -0.0136 -0.5564
    3CHTO   C96  949   6.398   0.008   2.207  0.2967 -0.4237 -0.1659
    3CHTO  H183  950   6.505   0.028   2.208 -0.3367  3.3968 -0.3499
    3CHTO   C98  951   6.365  -0.043   2.070 -0.3695 -0.7223  0.4707
    3CHTO  H185  952   6.256  -0.039   2.056 -0.4865  0.8011  1.6560
    3CHTO   O67  953   6.426   0.036   1.964  0.2952 -0.3836 -0.3670
    3CHTO  H167  954   6.395   0.008   1.881  0.9166 -0.2247 -0.6608
    3CHTO  C102  955   6.409  -0.195   2.040  0.5949  0.5749 -0.2365
    3CHTO  H189  956   6.518  -0.191   2.034  0.5560 -0.8622 -2.5290
    3CHTO   N18  957   6.365  -0.256   1.910  0.7902  0.1459  0.0459
    3CHTO  H176  958   6.266  -0.296   1.925  0.9638 -1.1561 -2.0640
    3CHTO  H177  959   6.431  -0.336   1.880 -0.1270  0.1095 -1.9869
    3CHTO  C105  960   6.349  -0.278   2.166  0.4525 -0.6765 -1.0491
    3CHTO  H192  961   6.242  -0.260   2.174  0.7514  0.6917  0.0320
    3CHTO   O65  962   6.408  -0.231   2.289  0.0517  0.4777  0.1726
    3CHTO  C100  963   6.363  -0.100   2.324  0.7652 -0.3067 -0.0694
    3CHTO  H187  964   6.256  -0.114   2.348  0.9312 -1.7309 -0.1374
    3CHTO  C107  965   6.435  -0.061   2.456  0.5791  0.5911 -0.5714
    3CHTO   O70  966   6.402  -0.158   2.557  0.5043 -0.0273 -0.4720
    3CHTO  H170  967   6.476  -0.203   2.592 -0.6410 -0.0023  2.1393
    3CHTO   O57  968   6.387  -0.437   2.144  0.1921 -0.1565  0.7560
    3CHTO   C85  969   6.321  -0.540   2.214  0.2544  0.6551 -0.2914
    3CHTO  H157  970   6.374  -0.629   2.176 -1.4082 -0.8372  0.7738
    3CHTO   C83  971   6.176  -0.558   2.161  0.2653 -0.2168 -0.4694
    3CHTO  H155  972   6.179  -0.561   2.052 -2.3900  1.0996 -0.6101
    3CHTO   O56  973   6.086  -0.446   2.191 -0.2430  0.0281  0.5319
    3CHTO  H135  974   6.014  -0.452   2.131  1.3494 -2.2989 -1.2551
    3CHTO   C81  975   6.133  -0.701   2.222 -0.0863 -0.1707  0.9192
    3CHTO  H153  976   6.208  -0.776   2.196 -1.1931 -1.5507  1.6222
    3CHTO   N14  977   6.008  -0.753   2.159  0.6466  0.9850  0.0664
    3CHTO  H141  978   6.030  -0.794   2.062 -1.8887  2.4207 -1.1922
    3CHTO  H142  979   5.965  -0.827   2.222  0.9781  1.7166  1.1656
    3CHTO   C79  980   6.127  -0.690   2.374  0.1121 -1.5819  0.7560
    3CHTO  H151  981   6.110  -0.792   2.409  2.6426 -2.3305 -0.0953
    3CHTO   O52  982   6.256  -0.640   2.427  0.1379 -0.1348 -0.3039
    3CHTO   C86  983   6.321  -0.532   2.368 -0.4393 -0.2413 -0.3087
    3CHTO  H158  984   6.267  -0.439   2.397  0.0987 -0.5314  1.7205
    3CHTO   C90  985   6.467  -0.522   2.430 -0.1642  0.6183  0.0190
    3CHTO   O60  986   6.473  -0.533   2.574 -0.0825  0.3552  0.4192
    3CHTO  H138  987   6.462  -0.446   2.609 -1.7362  0.9237 -1.4174
    3CHTO   O50  988   6.020  -0.610   2.425  0.2315 -0.1233  0.6089
    3CHTO   C73  989   5.960  -0.562   2.544  0.1033  0.1100  0.2253
    3CHTO  H145  990   6.036  -0.573   2.622 -0.4936 -0.5317  0.7337
    3CHTO   C74  991   5.837  -0.642   2.590 -1.0069  0.3747 -0.7296
    3CHTO  H146  992   5.859  -0.748   2.609 -0.6389  0.5615 -0.0834
    3CHTO   O54  993   5.795  -0.601   2.717 -0.0797  0.3794  0.3172
    3CHTO  H133  994   5.735  -0.659   2.761  1.4017 -0.2813  1.5395
    3CHTO   C75  995   5.734  -0.628   2.470  0.1016  0.1419  0.1081
    3CHTO  H147  996   5.773  -0.669   2.376 -0.3717 -1.7713  0.7281
    3CHTO   N13  997   5.615  -0.714   2.495 -0.3588  0.2687 -0.5598
    3CHTO  H139  998   5.637  -0.805   2.548 -4.3149  0.2370  1.1739
    3CHTO  H140  999   5.541  -0.659   2.551 -0.1052  1.8265 -1.7134
    3CHTO   C76 1000   5.699  -0.482   2.448  0.2444 -0.1462 -0.1054
    3CHTO  H148 1001   5.648  -0.452   2.539 -0.2069 -2.2317  0.3664
    3CHTO   O49 1002   5.823  -0.402   2.428  0.3919  0.4010  0.3768
    3CHTO   C77 1003   5.917  -0.412   2.534  0.1359  1.0154  0.0285
    3CHTO  H149 1004   5.866  -0.390   2.627 -3.7712 -1.6913 -1.3204
    3CHTO   C88 1005   6.038  -0.325   2.512  0.6750 -0.6562 -0.3009
    3CHTO   O58 1006   5.993  -0.184   2.501  0.3124  0.0425 -0.2158
    3CHTO  H136 1007   5.953  -0.173   2.417  1.2047  0.0581 -0.6398
    3CHTO   O51 1008   5.615  -0.464   2.303  0.0938 -0.3352 -0.0686
    3CHTO   C78 1009   5.543  -0.323   2.281  0.1161 -0.1487 -0.3899
    3CHTO  H150 1010   5.566  -0.249   2.360 -0.1135 -0.4954  0.0049
    3CHTO   C80 1011   5.394  -0.340   2.277 -0.4767  0.3698 -0.3100
    3CHTO  H152 1012   5.370  -0.405   2.190  0.0811  2.1334 -1.8182
    3CHTO   O55 1013   5.351  -0.403   2.407 -0.1077 -0.5451  0.4229
    3CHTO  H134 1014   5.378  -0.492   2.398 -4.3457 -2.0812  1.6957
    3CHTO   C84 1015   5.321  -0.196   2.253 -0.1018  0.4573 -0.2948
    3CHTO  H156 1016   5.336  -0.127   2.336 -1.9800 -1.5801  1.8465
    3CHTO   N15 1017   5.164  -0.204   2.246  0.6934 -0.3602 -0.4466
    3CHTO  H143 1018   5.112  -0.171   2.158 -0.6299  3.3944  1.6423
    3CHTO  H144 1019   5.135  -0.303   2.273 -3.0167  1.0643  1.1664
    3CHTO   C87 1020   5.384  -0.130   2.123 -0.7576  0.9519 -0.3150
    3CHTO  H159 1021   5.336  -0.186   2.042 -1.4733  2.2683 -0.8204
    3CHTO   O53 1022   5.544  -0.150   2.104 -0.0917 -0.0254  0.4732
    3CHTO   C82 1023   5.598  -0.277   2.147 -0.5896 -0.0838  0.2153
    3CHTO  H154 1024   5.565  -0.347   2.069  1.5861 -0.8335 -0.0776
    3CHTO   C89 1025   5.758  -0.275   2.138 -0.1192 -0.2974 -0.3538
    3CHTO   O59 1026   5.787  -0.213   2.007 -0.4599  0.9367 -0.2899
    3CHTO  H137 1027   5.876  -0.223   1.981 -0.4874 -1.2622  0.3786
    3CHTO   O45 1028   5.347   0.023   2.104 -0.2679 -0.5387 -0.3851
    3CHTO   C67 1029   5.416   0.127   2.170  0.1118  0.5003 -0.2053
    3CHTO  H124 1030   5.469   0.076   2.251 -0.9069 -1.7984 -0.9555
    3CHTO   C65 1031   5.517   0.204   2.073  0.6432  0.7794 -0.0439
    3CHTO  H122 1032   5.481   0.199   1.970  0.7446  1.4111 -0.1086
    3CHTO   O44 1033   5.634   0.115   2.076 -0.1564 -0.3028  0.1883
    3CHTO  H102 1034   5.637   0.049   2.010  0.1672 -0.9328  0.8335
    3CHTO   C63 1035   5.541   0.351   2.111 -0.4516  0.2109 -0.1559
    3CHTO  H120 1036   5.459   0.413   2.075  0.1638  1.5695  0.7535
    3CHTO   N11 1037   5.661   0.416   2.035 -0.1330  0.3978  0.0813
    3CHTO  H108 1038   5.678   0.520   2.056 -0.5667 -0.1050  3.2987
    3CHTO  H109 1039   5.647   0.409   1.930 -1.2892  1.4014  0.1533
    3CHTO   C61 1040   5.536   0.367   2.264 -0.4085  0.2330 -0.0412
    3CHTO  H118 1041   5.545   0.475   2.285 -0.5781 -0.2284  2.6531
    3CHTO   O40 1042   5.411   0.328   2.317 -0.4709 -0.0978  0.6457
    3CHTO   C68 1043   5.323   0.233   2.250  0.1429  0.0194  0.3291
    3CHTO  H125 1044   5.254   0.287   2.182  0.1933  1.4052  1.3643
    3CHTO   C72 1045   5.233   0.155   2.351  0.0878 -0.1814  0.0059
    3CHTO   O48 1046   5.123   0.105   2.279 -0.7570 -0.2725 -0.0549
    3CHTO  H105 1047   5.062   0.072   2.341  1.3799  0.1589  2.3565
    3CHTO   O38 1048   5.642   0.287   2.325  0.1262 -0.3323  0.1495
    3CHTO   C55 1049   5.655   0.288   2.464  0.4320 -0.0907 -0.1449
    3CHTO  H112 1050   5.557   0.303   2.511 -0.9808  1.2727 -3.3450
    3CHTO   C56 1051   5.759   0.401   2.508 -0.1062  0.5847 -0.1969
    3CHTO  H113 1052   5.850   0.395   2.447 -0.8887  1.0449 -1.4314
    3CHTO   O42 1053   5.711   0.527   2.474 -0.7931 -0.4098  0.0179
    3CHTO  H100 1054   5.782   0.587   2.460 -0.3906 -0.5786  1.2482
    3CHTO   C57 1055   5.803   0.393   2.660 -0.7119 -0.0425  0.1837
    3CHTO  H114 1056   5.717   0.423   2.719  0.4202  0.9067  1.3758
    3CHTO   N10 1057   5.905   0.489   2.707 -0.4182 -0.4677 -0.3201
    3CHTO  H106 1058   5.984   0.512   2.637  0.7339  2.8846  1.9678
    3CHTO  H107 1059   5.864   0.577   2.754 -0.7363 -0.4894 -0.5531
    3CHTO   C58 1060   5.847   0.245   2.687  0.1150 -0.0984 -0.8565
    3CHTO  H115 1061   5.943   0.228   2.634  1.4269  1.0825  1.0592
    3CHTO   O37 1062   5.742   0.145   2.648  0.1197  0.0068 -0.3117
    3CHTO   C59 1063   5.704   0.146   2.514 -0.8354  0.3563 -0.0394
    3CHTO  H116 1064   5.792   0.122   2.453 -0.5457 -1.6453  1.1313
    3CHTO   C70 1065   5.591   0.044   2.500  0.0133 -0.2476 -0.4716
    3CHTO   O46 1066   5.635  -0.086   2.530  0.4739 -0.7772  0.0460
    3CHTO  H103 1067   5.557  -0.138   2.526 -0.4208  0.6819 -1.7997
    3CHTO   O39 1068   5.872   0.222   2.857 -0.6737  0.1845 -0.8731
    3CHTO   C60 1069   5.955   0.121   2.905 -0.2020  0.6187 -0.3956
    3CHTO  H117 1070   5.911   0.095   3.001  0.0679 -0.3419 -0.5227
    3CHTO   C62 1071   5.960  -0.015   2.829 -0.2288 -0.2259  0.8983
    3CHTO  H119 1072   5.859  -0.041   2.793 -0.7149  2.0415  0.5159
    3CHTO   O43 1073   6.033  -0.012   2.705 -0.5910 -0.0175 -1.2810
    3CHTO  H101 1074   6.092   0.061   2.711 -1.7949  1.0398 -2.0524
    3CHTO   C66 1075   6.022  -0.127   2.932  0.0757 -0.3844 -0.5780
    3CHTO  H123 1076   5.969  -0.118   3.027 -1.7884  3.5165 -1.8932
    3CHTO   N12 1077   6.003  -0.265   2.888 -0.5856  0.5582 -0.1237
    3CHTO  H110 1078   5.904  -0.299   2.862 -0.5569  0.3398  0.0493
    3CHTO  H111 1079   6.068  -0.286   2.803 -2.3910  0.3380 -1.4845
    3CHTO   C69 1080   6.168  -0.100   2.963  0.6143 -0.2606  0.0113
    3CHTO  H126 1081   6.233  -0.130   2.878  2.7837 -3.1112  2.5496
    3CHTO   O41 1082   6.195   0.049   2.998 -0.5961 -0.3749 -0.1682
    3CHTO   C64 1083   6.100   0.168   2.931 -0.2097  0.1486 -0.4524
    3CHTO  H121 1084   6.141   0.188   2.830 -0.0744  0.7822 -0.2774
    3CHTO   C71 1085   6.089   0.294   3.027 -0.3696 -0.3610 -0.0927
    3CHTO   O47 1086   6.224   0.324   3.075 -0.1791 -0.1967 -0.3723
    3CHTO  H104 1087   6.293   0.300   3.016  0.9278 -1.8228  1.5244
    3CHTO   O34 1088   6.212  -0.196   3.099  0.4549  0.7973  0.5894
    3CHTO   C49 1089   6.341  -0.287   3.067 -0.2354  0.3086 -0.0098
    3CHTO   H91 1090   6.382  -0.243   2.976 -1.0732  2.4666  0.6381
    3CHTO   C47 1091   6.305  -0.437   3.030 -0.1992 -0.1236  0.5357
    3CHTO   H89 1092   6.271  -0.430   2.924  2.3748  0.1640 -0.3110
    3CHTO   O33 1093   6.193  -0.474   3.112 -0.1438 -0.1549  0.0416
    3CHTO   H70 1094   6.173  -0.566   3.114 -2.1712  0.3063  1.6884
    3CHTO   C45 1095   6.434  -0.533   3.060 -0.3939 -0.4354  0.1173
    3CHTO   H87 1096   6.426  -0.568   3.164 -0.1897  0.1772  0.3456
    3CHTO    N8 1097   6.436  -0.652   2.977  0.6626  0.3348 -0.6977
    3CHTO   H75 1098   6.337  -0.663   2.935 -0.2188 -1.4484  1.7042
    3CHTO   H76 1099   6.517  -0.642   2.907  1.6358 -1.1437  0.1807
    3CHTO   C43 1100   6.575  -0.448   3.055 -0.0078  0.4640 -0.3665
    3CHTO   H85 1101   6.645  -0.525   3.087  2.0568  2.3882 -0.2071
    3CHTO   O29 1102   6.572  -0.341   3.148 -0.3272 -0.4428 -0.2596
    3CHTO   C50 1103   6.443  -0.282   3.184 -0.3467 -0.0636 -0.4410
    3CHTO   H92 1104   6.411  -0.330   3.277  1.8320  0.7599  0.7735
    3CHTO   C54 1105   6.453  -0.136   3.231 -0.2229  0.3561 -0.4226
    3CHTO   O36 1106   6.505  -0.115   3.360  0.4083 -0.0364  0.4189
    3CHTO   H72 1107   6.451  -0.132   3.435  0.2554  2.2752  0.8838
    3CHTO   O27 1108   6.602  -0.399   2.921  0.4796  0.2839 -0.2370
    3CHTO   C37 1109   6.725  -0.354   2.861  0.3109  0.6455  0.2607
    3CHTO   H79 1110   6.802  -0.327   2.935 -0.8359 -2.6259  2.7852
    3CHTO   C38 1111   6.779  -0.457   2.758 -0.8620  0.0876 -0.5412
    3CHTO   H80 1112   6.700  -0.499   2.694 -0.3027 -0.3413 -0.9581
    3CHTO   O31 1113   6.837  -0.566   2.832 -0.2316  0.0256  0.0921
    3CHTO   H68 1114   6.895  -0.527   2.894  2.7624  0.4469 -2.8344
    3CHTO   C39 1115   6.884  -0.388   2.666 -0.2298 -0.1178 -0.1483
    3CHTO   H81 1116   6.968  -0.370   2.733 -1.0248  0.0065  0.8346
    3CHTO    N7 1117   6.942  -0.482   2.555 -0.1409 -0.1652  0.0744
    3CHTO   H73 1118   6.888  -0.576   2.553  0.3213 -0.4158 -0.6686
    3CHTO   H74 1119   7.046  -0.505   2.574  1.0113  2.6138 -2.4766
    3CHTO   C40 1120   6.831  -0.252   2.604  0.6473 -0.2181  0.3666
    3CHTO   H82 1121   6.750  -0.267   2.533  0.6355 -2.4820  0.8229
    3CHTO   O26 1122   6.791  -0.170   2.717 -0.4683 -0.0083  0.0085
    3CHTO   C41 1123   6.680  -0.226   2.791 -0.2398 -0.6842  0.4485
    3CHTO   H83 1124   6.593  -0.250   2.729  0.1633  0.7079 -0.6913
    3CHTO   C52 1125   6.629  -0.113   2.880 -0.7325 -0.3638 -0.8147
    3CHTO   O35 1126   6.735  -0.056   2.971 -0.0725 -0.5450  0.2377
    3CHTO   H71 1127   6.767   0.027   2.940 -0.5358 -0.0895  0.9510
    3CHTO   O28 1128   6.932  -0.178   2.534 -0.2389 -0.0699  0.3815
    3CHTO   C42 1129   6.912  -0.061   2.437 -1.0774 -0.3370  0.0659
    3CHTO   H84 1130   7.012  -0.041   2.400 -0.9103 -1.2857 -0.0112
    3CHTO   C44 1131   6.855   0.073   2.502  0.5518  1.0810 -0.9261
    3CHTO   H86 1132   6.754   0.053   2.538  0.3156  2.7290 -0.6332
    3CHTO   O32 1133   6.934   0.093   2.626 -0.3839  0.3640  0.5240
    3CHTO   H69 1134   6.984   0.173   2.630 -0.0860  0.3664 -2.0833
    3CHTO   C48 1135   6.859   0.200   2.408  0.2276  0.3103  0.2124
    3CHTO   H90 1136   6.952   0.235   2.363 -0.1607  0.2999 -0.6078
    3CHTO    N9 1137   6.799   0.317   2.467 -0.4103  0.0638 -0.5395
    3CHTO   H77 1138   6.789   0.392   2.390  0.8124 -0.4320 -1.1970
    3CHTO   H78 1139   6.713   0.299   2.530 -0.5329  2.5698  0.0740
    3CHTO   C51 1140   6.778   0.157   2.274 -0.5773 -0.1148  0.4307
    3CHTO   H93 1141   6.674   0.144   2.303 -0.8129 -0.7719 -0.6850
    3CHTO   O30 1142   6.832   0.039   2.218  0.8377 -0.1414 -0.2629
    3CHTO   C46 1143   6.820  -0.087   2.314 -0.1047  0.1560  0.0984
    3CHTO   H88 1144   6.716  -0.098   2.344  0.0306  1.7631  1.2034
    3CHTO   C53 1145   6.868  -0.213   2.235  0.3882 -0.1451 -0.1173
    3CHTO   O72 1146   6.780  -0.244   2.122 -0.2877  0.1653  0.0808
    3CHTO  H199 1147   6.777  -0.338   2.114  0.1382  0.2015 -0.5343
    3CHTO   O22 1148   6.791   0.261   2.176 -0.5336  0.2808  0.0160
    3CHTO   C31 1149   6.695   0.290   2.074 -0.3726 -0.2610 -0.2709
    3CHTO   H59 1150   6.621   0.207   2.073  0.4085 -0.9620 -0.3912
    3CHTO   C29 1151   6.614   0.415   2.109 -0.5373  0.2459 -0.7991
    3CHTO   H57 1152   6.684   0.500   2.117  2.2159 -1.9298 -1.0861
    3CHTO   O21 1153   6.549   0.400   2.236 -0.2985 -0.6333  0.1010
    3CHTO   H37 1154   6.619   0.405   2.299 -0.7952 -1.0084  0.6946
    3CHTO   C27 1155   6.505   0.450   1.997  0.3602 -0.0954 -0.4853
    3CHTO   H55 1156   6.422   0.381   2.018  0.6768 -0.1885  0.4609
    3CHTO    N5 1157   6.451   0.594   2.007 -0.0167 -0.0936 -0.4279
    3CHTO   H43 1158   6.398   0.610   2.100  1.1109  0.2511  0.1643
    3CHTO   H44 1159   6.535   0.662   2.009  0.6261 -0.8992  0.2548
    3CHTO   C25 1160   6.555   0.416   1.850  0.0637  0.3830  0.1451
    3CHTO   H53 1161   6.612   0.505   1.818 -1.8175  1.6120  0.0995
    3CHTO   O17 1162   6.641   0.303   1.838  0.2801 -0.3324 -0.1689
    3CHTO   C32 1163   6.753   0.299   1.927  0.1620  0.0060 -0.2262
    3CHTO   H60 1164   6.805   0.395   1.923 -1.5366  0.9974  1.1413
    3CHTO   C36 1165   6.853   0.193   1.877  0.0657  0.0819 -0.6308
    3CHTO   O25 1166   6.982   0.198   1.948 -0.1105  0.1013  0.3311
    3CHTO   H40 1167   6.974   0.165   2.036  0.6530  0.6515  0.6087
    3CHTO   O15 1168   6.433   0.395   1.753  0.3439  0.1547  0.0888
    3CHTO   C19 1169   6.320   0.456   1.680  0.3593  0.1863 -0.0357
    3CHTO   H47 1170   6.331   0.403   1.585  0.4817 -0.8293  0.5354
    3CHTO   C20 1171   6.184   0.446   1.745 -0.2312  0.5764  0.0551
    3CHTO   H48 1172   6.181   0.489   1.846 -2.3556  1.4095 -0.3407
    3CHTO   O19 1173   6.161   0.305   1.752 -0.2085  0.0997 -0.1844
    3CHTO   H35 1174   6.081   0.282   1.795 -0.8867 -0.2713 -1.6291
    3CHTO   C21 1175   6.073   0.518   1.655 -0.0270  0.3624  0.1509
    3CHTO   H49 1176   6.063   0.462   1.562 -0.5258 -1.1914  1.1155
    3CHTO    N4 1177   5.940   0.523   1.721  0.0249  0.4374  0.0210
    3CHTO   H41 1178   5.866   0.481   1.654 -0.5428 -0.3418  1.1248
    3CHTO   H42 1179   5.930   0.481   1.820  2.5918  0.8734  0.4863
    3CHTO   C22 1180   6.123   0.655   1.611  0.5376 -0.2310 -0.1641
    3CHTO   H50 1181   6.121   0.723   1.696 -0.5993  1.0270 -1.1882
    3CHTO   O14 1182   6.258   0.646   1.552  0.1248 -0.0382 -0.2025
    3CHTO   C23 1183   6.358   0.604   1.648  0.3714 -0.7023  0.6981
    3CHTO   H51 1184   6.360   0.663   1.740  2.0804  0.8621 -0.3016
    3CHTO   C34 1185   6.489   0.613   1.570 -0.9888 -0.5865 -0.4426
    3CHTO   O23 1186   6.503   0.745   1.519  0.3330 -0.5719 -0.0656
    3CHTO   H38 1187   6.562   0.752   1.446  0.9180  1.2066  0.5560
    3CHTO   O16 1188   6.031   0.705   1.517 -0.6543 -0.7436 -0.1491
    3CHTO   C24 1189   6.024   0.863   1.494 -0.4734 -0.5271 -0.3170
    3CHTO   H52 1190   6.079   0.920   1.568 -2.6263  1.4368 -0.1667
    3CHTO   C26 1191   5.871   0.893   1.494  0.4674 -0.2442 -0.0616
    3CHTO   H54 1192   5.819   0.825   1.424 -2.1775  0.7947  0.8043
    3CHTO   O20 1193   5.817   0.864   1.626  0.1709  0.0155 -0.4122
    3CHTO   H36 1194   5.847   0.775   1.636  0.4989  0.2824  1.0228
    3CHTO   C30 1195   5.845   1.041   1.454 -0.3727 -0.0246 -0.1484
    3CHTO   H58 1196   5.887   1.105   1.532  1.5458  0.0947 -1.2528
    3CHTO    N6 1197   5.701   1.077   1.433  0.1482  0.1277 -0.2699
    3CHTO   H45 1198   5.639   1.022   1.501  1.8457  1.4139  2.4333
    3CHTO   H46 1199   5.675   1.066   1.329  1.6847 -1.8491 -0.4654
    3CHTO   C33 1200   5.923   1.083   1.322  0.7892  0.1959 -0.3444
    3CHTO   H61 1201   5.880   1.026   1.238 -1.4752 -1.1257  1.6311
    3CHTO   O18 1202   6.062   1.046   1.334 -0.0244  0.3950 -0.6234
    3CHTO   C28 1203   6.076   0.900   1.356  0.0113 -0.0296 -0.2827
    3CHTO   H56 1204   6.018   0.842   1.284 -0.4214 -1.6711  1.3569
    3CHTO   C35 1205   6.224   0.865   1.340 -0.4960  0.6911  0.0126
    3CHTO   O24 1206   6.303   0.936   1.436  0.1305  0.3203 -0.0339
    3CHTO   H39 1207   6.395   0.923   1.426  0.4663  2.7138 -0.3656
    3CHTO    O9 1208   5.907   1.220   1.285 -0.1734  0.8305  0.2065
    3CHTO   C13 1209   5.978   1.347   1.380 -0.4703  0.3276  0.0868
    3CHTO   H26 1210   5.976   1.315   1.487  0.3899  0.1810  0.0660
    3CHTO   C11 1211   5.891   1.479   1.361 -0.8827 -0.0331  0.4799
    3CHTO   H24 1212   5.798   1.463   1.417 -1.0087  0.8956  0.5394
    3CHTO    O8 1213   5.855   1.504   1.227  0.0875 -0.0373  0.3609
    3CHTO    H3 1214   5.761   1.501   1.217  0.2681 -2.2047 -0.7799
    3CHTO    C9 1215   5.977   1.586   1.431 -0.0406 -0.0805 -0.1052
    3CHTO   H22 1216   6.008   1.539   1.526 -1.3371 -1.8330 -0.5255
    3CHTO    N2 1217   5.902   1.712   1.469  0.5675  0.1578  0.7076
    3CHTO   H10 1218   5.814   1.677   1.521  0.1762 -0.6883 -0.4924
    3CHTO   H11 1219   5.880   1.755   1.372  2.7254  0.8735  0.5075
    3CHTO    C7 1220   6.113   1.608   1.356  0.4692  0.2376 -0.4347
    3CHTO   H20 1221   6.163   1.692   1.410 -0.7578  1.7788 -1.6739
    3CHTO    O4 1222   6.191   1.487   1.366 -0.3363  0.4007  0.0163
    3CHTO   C14 1223   6.125   1.363   1.338 -0.2014  0.3771 -0.1763
    3CHTO   H27 1224   6.182   1.291   1.401  1.2314 -0.0720 -1.9377
    3CHTO   C18 1225   6.154   1.325   1.189 -0.1747 -0.8932 -0.0789
    3CHTO   O13 1226   6.292   1.292   1.170 -0.3631  0.2318  0.0902
    3CHTO    H7 1227   6.348   1.352   1.214  1.6150 -1.1744 -0.4578
    3CHTO    O2 1228   6.098   1.642   1.205  0.5491 -0.1187 -0.2038
    3CHTO    C1 1229   6.194   1.743   1.157  0.3677 -0.0350  0.0515
    3CHTO   H14 1230   6.180   1.764   1.049  0.7151  0.3384  0.0785
    3CHTO    C2 1231   6.343   1.690   1.165  0.7390  0.0260  0.3842
    3CHTO   H15 1232   6.366   1.669   1.270  1.4809  1.0300  0.4253
    3CHTO    O6 1233   6.358   1.571   1.078 -0.4001 -0.1741 -0.4407
    3CHTO    H1 1234   6.368   1.594   0.987 -0.4221 -0.2976 -0.4744
    3CHTO    C3 1235   6.452   1.811   1.124  0.6273  0.2648 -0.5507
    3CHTO   H16 1236   6.440   1.842   1.019  2.3683  1.4550 -0.4075
    3CHTO    N1 1237   6.591   1.766   1.148  0.1562  0.2396 -0.0370
    3CHTO    H8 1238   6.604   1.752   1.254  0.2688 -0.2211 -0.1093
    3CHTO    H9 1239   6.661   1.839   1.111  0.8962  0.3268  1.4832
    3CHTO    C4 1240   6.405   1.936   1.206 -0.0797 -0.5687 -0.2063
    3CHTO   H17 1241   6.420   1.913   1.312  0.4413  0.2319 -0.1060
    3CHTO    O1 1242   6.271   1.965   1.170 -0.2978 -0.5623  0.2890
    3CHTO    C5 1243   6.179   1.880   1.222  0.0318 -0.4943 -0.6662
    3CHTO   H18 1244   6.204   1.877   1.327  0.4166  2.3081 -0.6385
    3CHTO   C16 1245   6.043   1.945   1.200 -0.7065  0.3397  0.2430
    3CHTO   O11 1246   6.018   2.065   1.276  0.6453 -0.1316 -0.2602
    3CHTO    H5 1247   5.987   2.042   1.362 -0.3884 -0.9435 -0.8374
    3CHTO    O3 1248   6.475   2.060   1.176 -0.0857  0.2798 -0.9199
    3CHTO    C6 1249   6.459   2.171   1.265  0.7749 -0.9689 -0.1491
    3CHTO   H19 1250   6.385   2.150   1.342 -0.9987 -1.2257 -1.9037
    3CHTO    C8 1251   6.591   2.190   1.333  0.6280  0.1127  0.2683
    3CHTO   H21 1252   6.665   2.206   1.254  0.9478  1.6904  0.8648
    3CHTO    O7 1253   6.621   2.071   1.405  0.6432 -0.7591  0.0388
    3CHTO    H2 1254   6.712   2.076   1.429  0.5939  1.4544 -0.1385
    3CHTO   C12 1255   6.594   2.317   1.430  1.0967 -0.9844 -0.2468
    3CHTO   H25 1256   6.527   2.294   1.515  1.2923  0.0594  0.1885
    3CHTO    N3 1257   6.733   2.337   1.484  0.5197  0.1378 -0.3898
    3CHTO   H12 1258   6.733   2.311   1.589 -0.3381  1.4907 -0.0481
    3CHTO   H13 1259   6.776   2.434   1.471  0.5359  0.0942 -0.6632
    3CHTO   C15 1260   6.541   2.441   1.349  0.7226 -0.2403  0.1629
    3CHTO   H28 1261   6.611   2.467   1.269 -1.7496  3.6927 -0.8104
    3CHTO   O10 1262   6.504   2.571   1.449 -0.2814 -0.0687 -0.5032
    3CHTO    H4 1263   6.443   2.547   1.516 -0.8246  0.6814 -0.7326
    3CHTO    O5 1264   6.412   2.417   1.290 -0.6103  0.4990 -0.3935
    3CHTO   C10 1265   6.415   2.304   1.196  0.0441 -0.0826  0.1776
    3CHTO   H23 1266   6.485   2.326   1.116 -0.3888  0.7548  0.0188
    3CHTO   C17 1267   6.278   2.291   1.131  0.3474  0.0643 -0.0107
    3CHTO   O12 1268   6.232   2.410   1.067 -0.4223 -0.2808  0.3705
    3CHTO    H6 1269   6.191   2.465   1.130 -1.8764 -2.8494  1.7743
    4CHTO  H203 1270   5.635   6.728   0.180 -0.6959  0.5358 -0.0323
    4CHTO   O82 1271   5.714   6.759   0.219 -0.1812 -0.0934 -0.5802
    4CHTO  C123 1272   5.710   6.904   0.221  0.7285  0.7986 -0.0626
    4CHTO  H227 1273   5.640   6.934   0.300  1.6217 -0.0725  1.0674
    4CHTO   O77 1274   5.840   6.936   0.270  0.0392  0.3829  0.4920
    4CHTO  C118 1275   5.857   7.074   0.302  0.6099  0.0291  0.0153
    4CHTO  H222 1276   5.770   7.103   0.363  1.0441 -0.6935  0.9900
    4CHTO  C125 1277   5.987   7.089   0.391 -0.1892  0.0517 -0.4862
    4CHTO   O84 1278   6.105   7.051   0.329  0.3534  0.1008 -0.1226
    4CHTO  H205 1279   6.096   6.963   0.300 -0.2956 -0.4908  1.8250
    4CHTO  C114 1280   5.863   7.159   0.173 -0.8330  0.9099  0.4747
    4CHTO  H218 1281   5.953   7.136   0.117 -0.9268  0.8809  0.3348
    4CHTO  C116 1282   5.729   7.133   0.091  0.0249 -0.0601 -0.2542
    4CHTO  H220 1283   5.653   7.200   0.136 -0.1126  0.8676 -1.8533
    4CHTO   O79 1284   5.748   7.189  -0.035  0.2847  0.3349 -0.0736
    4CHTO  H201 1285   5.776   7.124  -0.097  0.2745 -0.6205  0.9119
    4CHTO  C120 1286   5.687   6.981   0.092 -0.0891  0.5622 -0.2360
    4CHTO  H224 1287   5.754   6.939   0.014  0.8020 -0.3874  1.0166
    4CHTO   N21 1288   5.551   6.964   0.040  0.3983 -0.7766  0.7071
    4CHTO  H211 1289   5.535   6.865   0.002 -0.6923 -0.1763 -0.4363
    4CHTO  H212 1290   5.481   6.987   0.119  0.0614 -1.0548  0.4875
    4CHTO   O75 1291   5.866   7.296   0.217  0.5948  0.2637  0.1624
    4CHTO  C112 1292   5.959   7.399   0.127 -0.3398 -0.2311  0.3562
    4CHTO  H216 1293   5.944   7.364   0.024  0.1711  0.4259  0.0502
    4CHTO   O73 1294   6.091   7.384   0.169 -0.0643  0.0011 -0.3299
    4CHTO  C113 1295   6.188   7.456   0.089 -0.1737  0.0095 -0.1707
    4CHTO  H217 1296   6.184   7.422  -0.016 -0.1894 -1.5781  0.3261
    4CHTO  C124 1297   6.325   7.414   0.138 -0.7027  0.2669  0.1418
    4CHTO   O83 1298   6.340   7.272   0.125 -0.4172  0.4023 -0.1711
    4CHTO  H204 1299   6.359   7.248   0.036  0.2358 -1.4183  0.4385
    4CHTO  C109 1300   6.162   7.609   0.105  0.2124  0.1600  0.4452
    4CHTO  H213 1301   6.188   7.638   0.208 -0.3041  1.2987  0.2558
    4CHTO  C110 1302   6.012   7.638   0.075  0.1074 -0.3421 -0.0725
    4CHTO  H214 1303   5.992   7.612  -0.029 -0.7951 -0.4958  0.1342
    4CHTO   O78 1304   5.986   7.778   0.088 -0.2137 -0.4358  0.2757
    4CHTO  H200 1305   5.896   7.801   0.080  0.7960  4.2423  0.9869
    4CHTO  C111 1306   5.915   7.549   0.152 -0.5153 -0.5503 -0.0375
    4CHTO  H215 1307   5.923   7.570   0.260 -3.2665  2.3073 -0.3122
    4CHTO   N19 1308   5.769   7.567   0.118  0.0275  0.2838  0.2236
    4CHTO  H207 1309   5.746   7.633   0.036 -1.1309 -0.3844  0.0044
    4CHTO  H208 1310   5.709   7.601   0.201  1.0041  1.4036  0.4861
    4CHTO   O74 1311   6.244   7.674   0.008 -0.3597  0.3290 -0.3937
    4CHTO  C115 1312   6.283   7.819   0.056 -0.2522 -0.1991 -0.1287
    4CHTO  H219 1313   6.217   7.857   0.133  1.1940 -1.8845  1.9914
    4CHTO   O76 1314   6.419   7.824   0.116  0.6868  0.7641 -0.2570
    4CHTO  C122 1315   6.528   7.777   0.039  1.0747  0.0192  0.3605
    4CHTO  H226 1316   6.522   7.668   0.034  2.4019 -0.0364 -0.2200
    4CHTO  C126 1317   6.665   7.817   0.104  0.0286 -0.2919  0.3702
    4CHTO   O85 1318   6.733   7.739   0.207 -0.9921  0.5209 -0.1580
    4CHTO  H206 1319   6.741   7.649   0.182  0.5856  0.4737  0.5051
    4CHTO  C121 1320   6.517   7.833  -0.113  0.7352 -0.1297  0.0143
    4CHTO  H225 1321   6.619   7.869  -0.140  0.0581  0.5663 -1.6995
    4CHTO   O81 1322   6.470   7.731  -0.197  0.1834 -0.3013 -0.5958
    4CHTO  H202 1323   6.463   7.650  -0.149  1.2985 -1.1134 -1.7710
    4CHTO  C119 1324   6.425   7.956  -0.113  0.2397  0.4755  0.5419
    4CHTO  H223 1325   6.462   8.030  -0.042  0.9539 -0.0983  0.7728
    4CHTO  C117 1326   6.275   7.918  -0.068 -0.2690  0.5105 -0.0002
    4CHTO  H221 1327   6.216   7.871  -0.146  0.9423 -0.9096 -0.0745
    4CHTO   N20 1328   6.196   8.039  -0.031 -0.0606 -0.5017  0.2510
    4CHTO  H209 1329   6.214   8.099  -0.119 -0.2983  1.6909  1.6419
    4CHTO  H210 1330   6.090   8.017  -0.031 -0.0400 -0.6607 -1.4161
    4CHTO   O80 1331   6.429   8.029  -0.242  0.7364 -0.0741  0.1103
    4CHTO  C103 1332   6.545   8.149  -0.261 -0.3917 -0.9928 -0.6298
    4CHTO  H190 1333   6.500   8.249  -0.257  2.1451  0.3181 -2.7584
    4CHTO  C101 1334   6.679   8.153  -0.171 -0.3697 -0.1451 -0.2532
    4CHTO  H188 1335   6.731   8.058  -0.167  0.3633 -0.0385 -4.5708
    4CHTO   O68 1336   6.648   8.191  -0.018 -0.2540  0.0167 -1.2373
    4CHTO  H168 1337   6.616   8.114   0.027 -1.1194  0.4775 -1.0576
    4CHTO   C99 1338   6.778   8.270  -0.239 -0.5715 -0.3944  0.3933
    4CHTO  H186 1339   6.723   8.365  -0.222 -0.2036  0.2167 -1.6779
    4CHTO   N17 1340   6.910   8.280  -0.171 -0.6308  0.2232 -0.1586
    4CHTO  H174 1341   6.900   8.329  -0.076 -0.0912  1.5487 -0.7757
    4CHTO  H175 1342   6.978   8.332  -0.237 -1.0911  0.6305 -0.3241
    4CHTO   C97 1343   6.789   8.255  -0.389 -0.0726  0.4142 -0.2184
    4CHTO  H184 1344   6.863   8.176  -0.409  0.6155  0.8663  0.5342
    4CHTO   O64 1345   6.668   8.234  -0.449  0.4525  0.2251  0.2952
    4CHTO  C104 1346   6.587   8.130  -0.413  0.2503 -0.2934 -0.2412
    4CHTO  H191 1347   6.639   8.035  -0.428  1.4493  0.1697  0.9153
    4CHTO  C108 1348   6.459   8.130  -0.501 -0.3370  0.1233  0.4303
    4CHTO   O71 1349   6.375   8.248  -0.484 -0.4439 -0.2160  0.1581
    4CHTO  H171 1350   6.303   8.254  -0.543 -1.7570  1.2422  1.8138
    4CHTO   O62 1351   6.846   8.371  -0.446 -0.4300  0.5294 -0.1848
    4CHTO   C91 1352   6.903   8.361  -0.578  0.3631  0.2450 -0.3954
    4CHTO  H178 1353   6.886   8.265  -0.627 -1.7205 -0.1273  1.0056
    4CHTO   C92 1354   7.059   8.366  -0.563 -0.6820 -0.1047 -0.0858
    4CHTO  H179 1355   7.086   8.461  -0.513 -0.3141 -0.8450  1.1506
    4CHTO   O66 1356   7.098   8.258  -0.475 -0.1836  0.1258 -0.3972
    4CHTO  H166 1357   7.073   8.288  -0.390 -0.2130 -2.4921  0.5419
    4CHTO   C93 1358   7.135   8.351  -0.693 -0.4049  0.3092 -0.4661
    4CHTO  H180 1359   7.117   8.247  -0.725 -1.0723  0.4791 -0.6610
    4CHTO   N16 1360   7.286   8.371  -0.684  0.1428  0.0724  0.5264
    4CHTO  H172 1361   7.310   8.464  -0.634 -1.4144  1.4770 -1.2618
    4CHTO  H173 1362   7.321   8.382  -0.786 -0.1125 -1.3373  0.2785
    4CHTO   C94 1363   7.072   8.442  -0.805 -0.1805  0.7246 -0.0151
    4CHTO  H181 1364   7.142   8.522  -0.829  0.7821  0.0776  0.6119
    4CHTO   O61 1365   6.963   8.523  -0.759  0.1739  0.0201 -0.4333
    4CHTO   C95 1366   6.857   8.467  -0.681 -0.0275  0.5701 -0.1095
    4CHTO  H182 1367   6.810   8.545  -0.622 -0.1242 -0.6737  1.4893
    4CHTO  C106 1368   6.750   8.411  -0.770 -0.3941  0.0830  0.6642
    4CHTO   O69 1369   6.630   8.381  -0.704  0.7022 -0.2795 -0.1619
    4CHTO  H169 1370   6.562   8.390  -0.767  0.0293 -2.8253  0.1841
    4CHTO   O63 1371   7.028   8.355  -0.932  0.4379  0.3943  0.4606
    4CHTO   C96 1372   7.126   8.355  -1.035 -0.0645  0.3532  0.3951
    4CHTO  H183 1373   7.229   8.360  -0.998 -0.0869 -0.1850  0.5323
    4CHTO   C98 1374   7.117   8.460  -1.151  0.5479 -0.1301  0.4520
    4CHTO  H185 1375   7.011   8.472  -1.177  0.6238  0.6359  0.4657
    4CHTO   O67 1376   7.154   8.593  -1.094  0.7126  0.1601 -0.2311
    4CHTO  H167 1377   7.200   8.651  -1.151  0.0617 -0.4217 -1.3494
    4CHTO  C102 1378   7.194   8.424  -1.288 -0.1649  0.3757  0.7022
    4CHTO  H189 1379   7.300   8.409  -1.260 -0.3434  0.5664  1.4757
    4CHTO   N18 1380   7.194   8.531  -1.398 -0.1299  0.4259 -0.3165
    4CHTO  H176 1381   7.175   8.632  -1.362  0.5328  0.2483  0.5460
    4CHTO  H177 1382   7.287   8.517  -1.450  0.2292 -0.4500  0.5406
    4CHTO  C105 1383   7.136   8.289  -1.332  0.2829 -0.4876  0.2968
    4CHTO  H192 1384   7.030   8.307  -1.352  0.7022  0.4463 -1.2095
    4CHTO   O65 1385   7.157   8.192  -1.232  0.0875 -0.7056 -0.1722
    4CHTO  C100 1386   7.093   8.206  -1.101 -0.2808 -0.6498 -0.7715
    4CHTO  H187 1387   6.986   8.183  -1.112 -0.1190 -1.6146 -0.4227
    4CHTO  C107 1388   7.142   8.086  -1.013 -0.1008 -0.2042  0.4313
    4CHTO   O70 1389   7.286   8.088  -1.010  0.2666 -0.4695 -0.3302
    4CHTO  H170 1390   7.322   8.018  -0.958 -0.7167 -1.5318 -1.0514
    4CHTO   O57 1391   7.206   8.232  -1.495 -0.3820 -0.0638  0.1274
    4CHTO   C85 1392   7.108   8.217  -1.596  0.5250  0.1080 -0.7625
    4CHTO  H157 1393   7.050   8.312  -1.597  1.7117  0.8537  0.2157
    4CHTO   C83 1394   7.007   8.097  -1.568  0.1954  0.7970  0.0395
    4CHTO  H155 1395   6.953   8.118  -1.475 -0.5062 -1.2370  0.1083
    4CHTO   O56 1396   7.069   7.974  -1.527  0.1774  0.0120 -0.3137
    4CHTO  H135 1397   7.134   7.990  -1.462 -0.3784  1.0670 -0.0087
    4CHTO   C81 1398   6.907   8.081  -1.689 -0.1216  0.4488 -1.1200
    4CHTO  H153 1399   6.856   8.176  -1.700  2.4053  1.8724 -0.8664
    4CHTO   N14 1400   6.794   7.980  -1.679 -0.7960 -1.0557  0.2204
    4CHTO  H141 1401   6.723   8.000  -1.757 -0.0131 -1.0469 -0.4885
    4CHTO  H142 1402   6.741   7.970  -1.586 -2.7038  1.6323 -0.4932
    4CHTO   C79 1403   6.994   8.053  -1.824 -0.3175  0.1604  0.6308
    4CHTO  H151 1404   6.923   8.054  -1.907 -0.8484  0.4245  1.0829
    4CHTO   O52 1405   7.084   8.161  -1.857 -0.2005 -0.2777 -0.4345
    4CHTO   C86 1406   7.176   8.190  -1.741  0.2713  0.4584  0.0707
    4CHTO  H158 1407   7.247   8.105  -1.734 -0.5431 -0.2145  0.2853
    4CHTO   C90 1408   7.268   8.308  -1.790  0.5255  0.1525  0.4218
    4CHTO   O60 1409   7.193   8.427  -1.805 -0.0703 -0.0015  0.2135
    4CHTO  H138 1410   7.253   8.482  -1.852  1.8902 -3.2987 -1.3084
    4CHTO   O50 1411   7.076   7.933  -1.823  0.1816 -0.0816  0.0914
    4CHTO   C73 1412   7.161   7.828  -1.881  0.5006 -0.1438 -0.3131
    4CHTO  H145 1413   7.239   7.885  -1.935 -0.0732  3.8007  2.8327
    4CHTO   C74 1414   7.082   7.734  -1.978  0.4260 -0.7329 -0.0678
    4CHTO  H146 1415   7.029   7.799  -2.049  0.6252 -0.0376  0.4186
    4CHTO   O54 1416   7.170   7.643  -2.047  0.6378  0.0159 -0.2461
    4CHTO  H133 1417   7.118   7.577  -2.088 -1.2491  2.6141 -2.1581
    4CHTO   C75 1418   6.980   7.644  -1.889  0.8204  0.8106 -0.1503
    4CHTO  H147 1419   6.901   7.713  -1.855  0.9341  1.5946 -1.4389
    4CHTO   N13 1420   6.903   7.537  -1.961 -0.0923 -0.0697 -0.1565
    4CHTO  H139 1421   6.938   7.444  -1.919 -0.6938 -0.1063  0.2671
    4CHTO  H140 1422   6.798   7.540  -1.937 -0.3367  0.2254 -1.2261
    4CHTO   C76 1423   7.052   7.580  -1.757  0.6871  0.0366 -0.5928
    4CHTO  H148 1424   7.132   7.512  -1.786  1.2610  1.2946 -1.9884
    4CHTO   O49 1425   7.112   7.688  -1.684 -0.4673 -0.6225 -0.6359
    4CHTO   C77 1426   7.219   7.746  -1.760 -0.5102 -0.0197  0.4938
    4CHTO  H149 1427   7.286   7.668  -1.796  0.6842 -0.2151  3.0066
    4CHTO   C88 1428   7.312   7.833  -1.662  0.0184 -0.0920  0.2565
    4CHTO   O58 1429   7.455   7.869  -1.733 -0.3056 -1.0282 -0.3549
    4CHTO  H136 1430   7.506   7.790  -1.726 -0.5376 -1.1664 -0.2263
    4CHTO   O51 1431   6.950   7.530  -1.650  0.4234  0.1032  0.1795
    4CHTO   C78 1432   6.996   7.392  -1.557  0.2437 -0.5748 -0.0720
    4CHTO  H150 1433   6.924   7.389  -1.473 -3.1934  1.0766 -2.7949
    4CHTO   C80 1434   7.143   7.398  -1.504  0.7463 -0.1790  0.1679
    4CHTO  H152 1435   7.217   7.407  -1.586  1.5434 -0.0965  0.8875
    4CHTO   O55 1436   7.174   7.513  -1.423 -0.2394  0.6745  0.0758
    4CHTO  H134 1437   7.149   7.593  -1.466  1.8364  0.6527 -1.2278
    4CHTO   C84 1438   7.176   7.270  -1.424  0.2697 -0.1726  0.2660
    4CHTO  H156 1439   7.104   7.263  -1.342  1.0914  2.5922  1.2922
    4CHTO   N15 1440   7.310   7.265  -1.351  0.4932  0.5212  0.3811
    4CHTO  H143 1441   7.334   7.367  -1.329  1.1658  0.2365  0.9723
    4CHTO  H144 1442   7.294   7.213  -1.259 -0.4795  0.1880  0.0284
    4CHTO   C87 1443   7.150   7.140  -1.515 -0.1435 -0.1496 -0.3179
    4CHTO  H159 1444   7.223   7.142  -1.597 -0.9271  0.2604 -1.0052
    4CHTO   O53 1445   7.003   7.146  -1.563 -0.1502 -0.2081  0.5273
    4CHTO   C82 1446   6.965   7.264  -1.632 -0.3633 -0.3735  0.2275
    4CHTO  H154 1447   7.023   7.257  -1.724 -1.5209  1.0814 -0.6277
    4CHTO   C89 1448   6.814   7.262  -1.671 -0.0251 -0.1868 -0.6469
    4CHTO   O59 1449   6.721   7.204  -1.578 -0.3268  0.4453 -0.2343
    4CHTO  H137 1450   6.639   7.191  -1.621  0.0453 -1.2194 -0.4943
    4CHTO   O45 1451   7.171   6.998  -1.429 -0.2701 -0.0285 -0.0699
    4CHTO   C67 1452   7.106   6.879  -1.477 -0.0971  0.4021  0.0074
    4CHTO  H124 1453   7.069   6.896  -1.578 -0.4762  0.0351  0.0849
    4CHTO   C65 1454   7.196   6.756  -1.480 -0.5757  0.2054 -0.2338
    4CHTO  H122 1455   7.292   6.786  -1.519 -1.0696  1.9394 -0.1519
    4CHTO   O44 1456   7.143   6.651  -1.557 -0.0489 -0.0381 -0.0258
    4CHTO  H102 1457   7.202   6.578  -1.562 -1.0813 -0.7860 -1.8164
    4CHTO   C63 1458   7.236   6.710  -1.333 -0.8064 -1.4153 -0.4447
    4CHTO  H120 1459   7.284   6.794  -1.282 -0.2171 -2.0232  0.0117
    4CHTO   N11 1460   7.348   6.614  -1.332 -0.1453 -0.6814 -0.4455
    4CHTO  H108 1461   7.340   6.537  -1.258  0.8624 -0.9195 -0.5732
    4CHTO  H109 1462   7.436   6.664  -1.296  0.7593  0.0623 -3.4937
    4CHTO   C61 1463   7.112   6.680  -1.242 -0.1929  0.0859 -0.4735
    4CHTO  H118 1464   7.145   6.699  -1.139 -1.2879  1.1653 -0.3141
    4CHTO   O40 1465   6.990   6.773  -1.269 -0.2250 -0.1779  0.1650
    4CHTO   C68 1466   6.978   6.860  -1.388  0.6353 -0.2521 -0.9971
    4CHTO  H125 1467   6.943   6.953  -1.341  2.2657 -1.5733  3.0282
    4CHTO   C72 1468   6.863   6.804  -1.477 -0.1626  0.5123  0.2931
    4CHTO   O48 1469   6.742   6.803  -1.411  0.9523  0.5768  0.2329
    4CHTO  H105 1470   6.747   6.762  -1.327  0.0812 -0.3849 -0.1729
    4CHTO   O38 1471   7.046   6.553  -1.265  0.2393  0.0985  0.1678
    4CHTO   C55 1472   6.984   6.499  -1.144  0.2709 -0.1899 -0.5646
    4CHTO  H112 1473   6.961   6.584  -1.078  0.6826  1.8357 -2.9759
    4CHTO   C56 1474   7.074   6.394  -1.069 -0.2348 -0.2580 -0.0462
    4CHTO  H113 1475   7.111   6.328  -1.148 -1.1224 -1.1014  0.2348
    4CHTO   O42 1476   7.196   6.451  -1.036  0.4605 -0.5632  0.5750
    4CHTO  H100 1477   7.259   6.386  -1.011  0.7148  0.4825  2.7680
    4CHTO   C57 1478   7.003   6.323  -0.953  0.0722 -0.0908 -0.3779
    4CHTO  H114 1479   6.997   6.391  -0.867  2.2898 -0.4616  0.1051
    4CHTO   N10 1480   7.081   6.210  -0.894 -0.2092 -0.1233 -0.1079
    4CHTO  H106 1481   7.066   6.124  -0.958 -0.7906  0.7001 -1.0902
    4CHTO  H107 1482   7.184   6.242  -0.898  0.4295 -2.1687 -0.8970
    4CHTO   C58 1483   6.860   6.275  -0.987  0.2069 -0.1224 -0.0092
    4CHTO  H115 1484   6.861   6.189  -1.057  0.6279  0.3183 -0.5437
    4CHTO   O37 1485   6.791   6.380  -1.053  0.6417 -0.0838 -0.5443
    4CHTO   C59 1486   6.852   6.429  -1.172 -0.1839 -0.5433 -0.0703
    4CHTO  H116 1487   6.866   6.337  -1.230 -1.7402  0.4311 -2.0610
    4CHTO   C70 1488   6.758   6.520  -1.244  0.1782 -0.2112  0.3789
    4CHTO   O46 1489   6.646   6.460  -1.307  0.4328 -0.1931 -0.2279
    4CHTO  H103 1490   6.574   6.520  -1.320  1.5769  0.7455 -2.4915
    4CHTO   O39 1491   6.771   6.237  -0.851 -0.1341  0.1924 -0.1118
    4CHTO   C60 1492   6.632   6.200  -0.879  0.1962 -0.0566 -0.3529
    4CHTO  H117 1493   6.598   6.246  -0.972  3.6403 -0.1798 -1.7437
    4CHTO   C62 1494   6.600   6.053  -0.881  0.5389 -0.7982  0.8771
    4CHTO  H119 1495   6.669   6.021  -0.962 -0.8409 -1.8248  0.0908
    4CHTO   O43 1496   6.650   5.988  -0.762  0.6723 -0.0040 -0.4796
    4CHTO  H101 1497   6.586   5.926  -0.735  0.5225 -0.7778 -2.5224
    4CHTO   C66 1498   6.451   6.023  -0.920  0.0035 -0.2678  0.1280
    4CHTO  H123 1499   6.435   6.076  -1.014 -0.4631  0.8772  0.8437
    4CHTO   N12 1500   6.418   5.881  -0.945 -0.1167 -0.2397 -0.1171
    4CHTO  H110 1501   6.312   5.863  -0.952 -0.2849  1.3167 -2.1616
    4CHTO  H111 1502   6.475   5.833  -1.023 -1.1668 -0.4703 -0.7592
    4CHTO   C69 1503   6.353   6.082  -0.812 -0.3823 -0.1901 -0.4554
    4CHTO  H126 1504   6.365   6.035  -0.711 -0.9366  1.2889  0.3100
    4CHTO   O41 1505   6.384   6.235  -0.783  0.1000 -0.2163  0.3284
    4CHTO   C64 1506   6.548   6.270  -0.760 -0.0356  0.1079  0.5307
    4CHTO  H121 1507   6.584   6.223  -0.666 -0.0764 -0.5146  0.2342
    4CHTO   C71 1508   6.572   6.424  -0.746 -0.1175  0.2994 -0.4854
    4CHTO   O47 1509   6.512   6.491  -0.851 -0.5743 -0.0703 -0.2891
    4CHTO  H104 1510   6.504   6.584  -0.840  0.2669 -0.3667  3.3972
    4CHTO   O34 1511   6.202   6.077  -0.856 -0.2963 -0.1671  0.8945
    4CHTO   C49 1512   6.085   6.186  -0.892  0.6480  0.0943  0.7082
    4CHTO   H91 1513   6.041   6.226  -0.800  2.2007 -1.3966  2.1302
    4CHTO   C47 1514   5.975   6.113  -0.976 -0.8216 -0.1605 -0.2879
    4CHTO   H89 1515   5.901   6.193  -0.997 -4.5450 -2.2981  3.9187
    4CHTO   O33 1516   5.904   6.018  -0.896  0.4577 -0.7923  0.2319
    4CHTO   H70 1517   5.847   5.966  -0.951 -0.5957 -0.0967  0.6562
    4CHTO   C45 1518   6.023   6.042  -1.113 -0.0238  0.0257 -1.1195
    4CHTO   H87 1519   6.063   5.942  -1.092  0.4805  0.3501 -0.4958
    4CHTO    N8 1520   5.907   6.028  -1.202  0.0661  0.3942  0.4782
    4CHTO   H75 1521   5.901   5.924  -1.230 -0.2549  0.4879  0.2050
    4CHTO   H76 1522   5.933   6.088  -1.288 -0.7620  1.3689  0.8934
    4CHTO   C43 1523   6.154   6.132  -1.159  0.1761 -0.0696 -0.1628
    4CHTO   H85 1524   6.236   6.083  -1.106 -1.0994 -1.7036  0.3447
    4CHTO   O29 1525   6.152   6.272  -1.122 -0.2364 -0.8613 -0.0575
    4CHTO   C50 1526   6.141   6.295  -0.980  0.4596  0.2687  0.4850
    4CHTO   H92 1527   6.247   6.312  -0.959 -0.1519  0.7594  3.3218
    4CHTO   C54 1528   6.075   6.434  -0.960 -0.0621 -0.1689 -0.1241
    4CHTO   O36 1529   6.097   6.493  -0.829 -0.0795  0.0071  0.2379
    4CHTO   H72 1530   6.030   6.558  -0.817  0.1641  0.4617 -0.8329
    4CHTO   O27 1531   6.189   6.116  -1.297  0.2638  0.6571  0.2178
    4CHTO   C37 1532   6.302   6.062  -1.365  0.5581 -0.0137  0.7007
    4CHTO   H79 1533   6.290   6.063  -1.475  2.3011  1.5686  0.4896
    4CHTO   C38 1534   6.426   6.145  -1.325  0.1617  0.3241  0.0196
    4CHTO   H80 1535   6.430   6.158  -1.216  1.2354 -1.0479  0.1580
    4CHTO   O31 1536   6.393   6.273  -1.391 -0.1155 -0.1808 -0.4726
    4CHTO   H68 1537   6.470   6.326  -1.380  0.8029 -1.6088  0.0972
    4CHTO   C39 1538   6.556   6.078  -1.378 -0.0628  0.2604 -0.6169
    4CHTO   H81 1539   6.552   6.063  -1.486  0.0484 -0.7675 -0.4885
    4CHTO    N7 1540   6.679   6.160  -1.352  0.7227 -0.3179  0.4422
    4CHTO   H73 1541   6.662   6.266  -1.354 -2.0260 -0.7225  0.6752
    4CHTO   H74 1542   6.722   6.131  -1.257  0.7197 -0.5212  0.3830
    4CHTO   C40 1543   6.567   5.931  -1.312  0.0191 -0.1566  1.1431
    4CHTO   H82 1544   6.558   5.938  -1.203 -1.4322  2.1593  0.9048
    4CHTO   O26 1545   6.454   5.861  -1.369  0.5329  0.3197  0.0655
    4CHTO   C41 1546   6.321   5.910  -1.327  0.4319  0.7886 -0.3139
    4CHTO   H83 1547   6.307   5.875  -1.224 -1.0316  1.6915 -0.1990
    4CHTO   C52 1548   6.218   5.820  -1.401  0.4376  0.5054 -0.0710
    4CHTO   O35 1549   6.231   5.666  -1.343 -0.3971  0.2653  0.4437
    4CHTO   H71 1550   6.186   5.662  -1.261 -1.2702  0.9539  0.0009
    4CHTO   O28 1551   6.682   5.855  -1.356 -0.1205  0.3580  0.2081
    4CHTO   C42 1552   6.736   5.753  -1.269  0.0553  0.8785 -0.0650
    4CHTO   H84 1553   6.803   5.696  -1.334 -0.8238  0.0371 -0.2537
    4CHTO   C44 1554   6.628   5.644  -1.219 -0.6932  0.1292 -0.3509
    4CHTO   H86 1555   6.549   5.690  -1.159 -0.9869 -1.3444  0.4095
    4CHTO   O32 1556   6.586   5.584  -1.345  0.4974  0.4249 -0.1316
    4CHTO   H69 1557   6.508   5.630  -1.368  0.0675 -0.1452  0.1591
    4CHTO   C48 1558   6.692   5.540  -1.122  0.7628 -0.6439  0.2974
    4CHTO   H90 1559   6.752   5.469  -1.178  0.0300 -1.0168 -0.0114
    4CHTO    N9 1560   6.585   5.451  -1.066 -0.0268  0.0706 -0.1875
    4CHTO   H77 1561   6.492   5.505  -1.051  0.6029  1.1434 -0.0683
    4CHTO   H78 1562   6.575   5.357  -1.118 -0.6819 -0.0828  0.2122
    4CHTO   C51 1563   6.786   5.606  -1.015  0.4632  0.2497 -0.1726
    4CHTO   H93 1564   6.727   5.663  -0.943  0.1821 -0.5520  0.2382
    4CHTO   O30 1565   6.887   5.694  -1.073  0.4454 -0.2045  0.1610
    4CHTO   C46 1566   6.823   5.800  -1.150  0.3789  0.3377  0.5641
    4CHTO   H88 1567   6.763   5.860  -1.081  0.4644  0.8360  0.2076
    4CHTO   C53 1568   6.938   5.893  -1.199 -0.2473 -0.2294  0.1079
    4CHTO   O72 1569   7.017   5.955  -1.091 -0.5293  0.2521  0.4174
    4CHTO  H199 1570   7.038   6.040  -1.126 -2.2322  0.0433 -1.1893
    4CHTO   O22 1571   6.857   5.498  -0.948 -0.4780 -0.3960 -0.1010
    4CHTO   C31 1572   6.926   5.511  -0.815  0.4749 -0.0725  0.6369
    4CHTO   H59 1573   6.951   5.618  -0.804 -0.6061  0.1952  0.6055
    4CHTO   C29 1574   6.844   5.474  -0.689  0.0978 -0.6169 -0.9284
    4CHTO   H57 1575   6.824   5.366  -0.698 -2.4798 -0.3017  0.5757
    4CHTO   O21 1576   6.714   5.540  -0.698  0.3214 -0.4743 -0.4484
    4CHTO   H37 1577   6.723   5.630  -0.723  1.2070 -0.8044 -1.3615
    4CHTO   C27 1578   6.931   5.494  -0.554  1.0949 -0.6378  0.4906
    4CHTO   H55 1579   6.932   5.600  -0.526 -0.0050 -0.5479  0.2318
    4CHTO    N5 1580   6.869   5.426  -0.435 -0.4489  0.3130  0.1656
    4CHTO   H43 1581   6.900   5.323  -0.442 -0.9530  0.1667  0.0317
    4CHTO   H44 1582   6.762   5.432  -0.418 -0.6680 -0.6592 -0.7989
    4CHTO   C25 1583   7.077   5.444  -0.560 -0.1272 -0.6671 -0.3246
    4CHTO   H53 1584   7.098   5.339  -0.534  1.6109 -0.1408  0.5051
    4CHTO   O17 1585   7.143   5.463  -0.691 -0.6060 -0.4257 -0.1403
    4CHTO   C32 1586   7.064   5.430  -0.805  0.1213 -0.5650 -0.2102
    4CHTO   H60 1587   7.043   5.323  -0.794 -0.8131 -0.3312  0.2896
    4CHTO   C36 1588   7.150   5.442  -0.933 -0.5091  0.2955  0.4293
    4CHTO   O25 1589   7.205   5.572  -0.942 -0.2160 -0.5478  0.0662
    4CHTO   H40 1590   7.246   5.592  -0.860  0.5743  1.2318 -0.7307
    4CHTO   O15 1591   7.175   5.519  -0.436  0.0306  0.2918 -0.1411
    4CHTO   C19 1592   7.213   5.665  -0.424 -0.1868  0.8040  0.4718
    4CHTO   H47 1593   7.295   5.655  -0.351 -0.2164 -1.5888  0.2280
    4CHTO   C20 1594   7.272   5.725  -0.551  0.5829  0.3926  0.0803
    4CHTO   H48 1595   7.209   5.706  -0.640  1.9320  1.9284 -1.2376
    4CHTO   O19 1596   7.397   5.662  -0.574 -0.3015  0.4332  0.2623
    4CHTO   H35 1597   7.394   5.569  -0.561  1.3581  0.5701  1.8105
    4CHTO   C21 1598   7.279   5.886  -0.557 -0.4417  0.0494  0.1069
    4CHTO   H49 1599   7.348   5.923  -0.482 -0.9814  2.6133 -0.6189
    4CHTO    N4 1600   7.310   5.940  -0.692 -0.2543  0.0205 -0.2491
    4CHTO   H41 1601   7.356   6.038  -0.683  0.0606 -0.1319 -0.1961
    4CHTO   H42 1602   7.378   5.870  -0.738 -2.5566 -2.3578 -0.1745
    4CHTO   C22 1603   7.140   5.934  -0.504  0.2358  0.3934  0.1568
    4CHTO   H50 1604   7.067   5.884  -0.568  1.1359 -2.1057  0.9893
    4CHTO   O14 1605   7.115   5.890  -0.371  0.2094 -0.2724 -0.1347
    4CHTO   C23 1606   7.095   5.748  -0.349 -0.4659  0.3109  0.1110
    4CHTO   H51 1607   6.996   5.721  -0.389 -0.7665 -0.6121  1.4647
    4CHTO   C34 1608   7.098   5.716  -0.199  0.2136  0.7165  0.1703
    4CHTO   O23 1609   6.967   5.727  -0.137  0.3183 -0.2861 -0.2975
    4CHTO   H38 1610   6.909   5.657  -0.160 -1.0240  1.0625 -1.0721
    4CHTO   O16 1611   7.125   6.078  -0.499  0.3235  0.1445 -0.0859
    4CHTO   C24 1612   6.983   6.138  -0.519  0.0784  0.2333  0.1905
    4CHTO   H52 1613   6.939   6.103  -0.613 -0.1420 -2.0225  1.0876
    4CHTO   C26 1614   7.003   6.292  -0.521 -0.4158 -0.0699  0.4303
    4CHTO   H54 1615   7.096   6.316  -0.577  0.2151 -0.7453  1.1850
    4CHTO   O20 1616   6.899   6.359  -0.595 -0.2957  0.1279  0.8031
    4CHTO   H36 1617   6.865   6.295  -0.655  1.4485  0.5942 -0.7445
    4CHTO   C30 1618   7.021   6.352  -0.377 -0.2043 -0.3092  0.0649
    4CHTO   H58 1619   6.938   6.422  -0.362  0.0929 -0.0962  0.7575
    4CHTO    N6 1620   7.135   6.443  -0.371 -0.0324  0.0216 -0.1452
    4CHTO   H45 1621   7.196   6.431  -0.283  1.7398  0.3172 -1.3164
    4CHTO   H46 1622   7.200   6.444  -0.457  1.1313 -0.7932  0.7036
    4CHTO   C33 1623   7.027   6.244  -0.266  0.1034 -0.1404  0.0388
    4CHTO   H61 1624   7.121   6.186  -0.274 -0.8228 -1.8160  0.9703
    4CHTO   O18 1625   6.917   6.152  -0.281  0.2917 -0.2862  0.0329
    4CHTO   C28 1626   6.891   6.088  -0.409 -0.1382 -0.6378 -0.3532
    4CHTO   H56 1627   6.910   5.982  -0.397  1.0132 -0.5326 -1.1205
    4CHTO   C35 1628   6.735   6.110  -0.432  0.0579  0.4485  0.0306
    4CHTO   O24 1629   6.691   6.246  -0.423  0.3178  0.8459  0.2204
    4CHTO   H39 1630   6.754   6.304  -0.459  1.4924 -0.7191 -0.2973
    4CHTO    O9 1631   7.026   6.310  -0.133 -0.0180 -0.0950  0.6701
    4CHTO   C13 1632   7.085   6.202   0.010  0.5840 -0.5794 -0.3684
    4CHTO   H26 1633   7.166   6.143  -0.039 -0.6785 -2.0382 -0.7534
    4CHTO   C11 1634   6.972   6.109   0.064 -0.0279 -0.4090 -0.2958
    4CHTO   H24 1635   6.952   6.034  -0.014  1.0067 -1.4988  0.4675
    4CHTO    O8 1636   6.850   6.190   0.087 -0.8059  0.1253 -0.0802
    4CHTO    H3 1637   6.805   6.163   0.165  2.0100  1.4386  2.0753
    4CHTO    C9 1638   7.026   6.033   0.190  0.5615  0.0842 -0.5950
    4CHTO   H22 1639   7.107   5.971   0.149  1.6643  1.3505 -0.3369
    4CHTO    N2 1640   6.934   5.927   0.234  0.0464  0.1985 -0.3938
    4CHTO   H10 1641   6.967   5.829   0.201  2.7567  0.6909  0.7196
    4CHTO   H11 1642   6.932   5.917   0.342  4.7953 -2.9075 -0.4226
    4CHTO    C7 1643   7.080   6.136   0.297 -0.0109 -0.0280 -0.0666
    4CHTO   H20 1644   7.183   6.098   0.315  0.8769  3.0034  1.6096
    4CHTO    O4 1645   7.092   6.272   0.248  0.2055  0.4780  0.2066
    4CHTO   C14 1646   7.150   6.287   0.121 -0.4187 -0.2018  0.1208
    4CHTO   H27 1647   7.258   6.264   0.119  0.0772  1.9114  1.2489
    4CHTO   C18 1648   7.140   6.434   0.090  0.6435 -0.2360 -0.1289
    4CHTO   O13 1649   7.199   6.515   0.193 -0.6805 -0.3544  0.6467
    4CHTO    H7 1650   7.290   6.503   0.214 -0.4810 -0.1868 -0.0990
    4CHTO    O2 1651   6.995   6.139   0.446  0.1929  0.5041  0.0520
    4CHTO    C1 1652   7.085   6.164   0.556 -0.1025 -0.3172  0.1114
    4CHTO   H14 1653   7.180   6.207   0.519 -0.9705  0.3481 -1.3592
    4CHTO    C2 1654   7.120   6.029   0.633  0.2638 -0.0258 -0.7119
    4CHTO   H15 1655   7.029   5.970   0.653  0.1736 -0.5563 -2.5691
    4CHTO    O6 1656   7.192   5.949   0.542 -0.2272  0.1606 -0.0603
    4CHTO    H1 1657   7.174   5.857   0.551 -1.9986  0.1614 -3.0183
    4CHTO    C3 1658   7.202   6.066   0.771  0.3329 -0.5597 -0.1623
    4CHTO   H16 1659   7.292   6.123   0.742  0.0491 -0.0602 -0.0667
    4CHTO    N1 1660   7.248   5.942   0.836  0.2125  0.5440 -0.5960
    4CHTO    H8 1661   7.289   5.949   0.936  0.3790  0.9614 -0.6959
    4CHTO    H9 1662   7.173   5.865   0.826 -0.7790  1.1294  2.0263
    4CHTO    C4 1663   7.118   6.170   0.858 -0.4350 -0.4419  0.1569
    4CHTO   H17 1664   7.032   6.119   0.900  0.0751 -0.8609  0.7120
    4CHTO    O1 1665   7.079   6.284   0.778  0.3489 -0.0495  0.2137
    4CHTO    C5 1666   7.013   6.264   0.651 -0.4833 -0.1994 -0.1328
    4CHTO   H18 1667   6.911   6.227   0.664 -0.5060  0.4188  1.6773
    4CHTO   C16 1668   7.004   6.397   0.578  0.3729  0.1288  0.2043
    4CHTO   O11 1669   7.129   6.450   0.542  0.1516  0.1439 -0.1723
    4CHTO    H5 1670   7.176   6.487   0.614  0.3454  1.4512 -0.9546
    4CHTO    O3 1671   7.207   6.212   0.968  0.4678  0.1842  0.6498
    4CHTO    C6 1672   7.157   6.175   1.101 -0.0940  0.0695  0.7557
    4CHTO   H19 1673   7.073   6.106   1.097 -0.7704  0.9204 -0.4133
    4CHTO    C8 1674   7.269   6.109   1.185  0.1310  0.4671 -0.2018
    4CHTO   H21 1675   7.356   6.175   1.184  2.2629 -2.2878 -0.4828
    4CHTO    O7 1676   7.314   5.983   1.132  0.2771 -0.5036  0.2295
    4CHTO    H2 1677   7.405   5.992   1.110  0.0449 -0.4107 -0.7311
    4CHTO   C12 1678   7.227   6.074   1.338  0.2051 -0.3005 -0.3407
    4CHTO   H25 1679   7.162   5.984   1.336 -0.0976 -0.0596 -2.1746
    4CHTO    N3 1680   7.347   6.029   1.424  0.1993 -0.1161  0.1855
    4CHTO   H12 1681   7.302   5.977   1.507  1.1608 -1.0777  0.1153
    4CHTO   H13 1682   7.397   5.959   1.359 -0.2998 -1.3765  1.1554
    4CHTO   C15 1683   7.148   6.193   1.396  0.0170 -0.4055 -0.2076
    4CHTO   H28 1684   7.218   6.270   1.427  0.6133 -0.5747 -1.0948
    4CHTO   O10 1685   7.053   6.131   1.512 -0.3525 -0.1714 -0.2233
    4CHTO    H4 1686   7.044   6.192   1.583  0.1877  0.0033 -0.3040
    4CHTO    O5 1687   7.052   6.253   1.301 -0.2147 -0.0896 -0.0598
    4CHTO   C10 1688   7.111   6.302   1.180 -0.4338 -0.3611 -0.0745
    4CHTO   H23 1689   7.202   6.357   1.205 -1.5937  0.9370  1.3914
    4CHTO   C17 1690   7.011   6.395   1.105  0.1331  0.1939 -0.6299
    4CHTO   O12 1691   6.949   6.483   1.190  0.0492  0.0821  0.0805
    4CHTO    H6 1692   7.002   6.552   1.225 -0.5322  0.7293 -0.2993
    5CHTO  H203 1693   6.835   3.667   2.779  0.9760  1.1252 -1.1099
    5CHTO   O82 1694   6.832   3.730   2.848 -0.0812  0.2558 -0.3486
    5CHTO  C123 1695   6.768   3.664   2.956  0.7045 -0.2400 -0.8804
    5CHTO  H227 1696   6.820   3.690   3.049  1.5595 -0.1590 -1.3755
    5CHTO   O77 1697   6.628   3.721   2.963 -0.4830 -0.2266  0.5602
    5CHTO  C118 1698   6.541   3.668   3.059 -0.4061  0.0118  0.5778
    5CHTO  H222 1699   6.585   3.695   3.156  0.8637 -0.9189  0.2714
    5CHTO  C125 1700   6.403   3.747   3.043  0.2028 -0.5396  0.1483
    5CHTO   O84 1701   6.341   3.708   2.919  0.0146 -0.1259 -0.6705
    5CHTO  H205 1702   6.371   3.763   2.850 -0.0363  0.2211 -0.4141
    5CHTO  C114 1703   6.523   3.515   3.042 -0.5151  0.3313  0.0878
    5CHTO  H218 1704   6.475   3.496   2.946  0.8987  2.1482 -1.0225
    5CHTO  C116 1705   6.661   3.437   3.046  0.6071  0.1980 -0.2165
    5CHTO  H220 1706   6.692   3.438   3.152 -0.9584  0.0838  0.2456
    5CHTO   O79 1707   6.631   3.299   3.009  0.0101 -0.1755 -0.0317
    5CHTO  H201 1708   6.695   3.245   3.052  0.4604 -0.1785 -0.6862
    5CHTO  C120 1709   6.761   3.504   2.944 -0.2412  0.5670 -0.5393
    5CHTO  H224 1710   6.718   3.470   2.848 -0.4098  2.4953 -1.1689
    5CHTO   N21 1711   6.892   3.453   2.955 -0.3780 -0.0988 -0.1318
    5CHTO  H211 1712   6.885   3.345   2.959 -0.9587 -0.1453 -2.1145
    5CHTO  H212 1713   6.941   3.478   3.048 -0.7582 -2.7372  0.8229
    5CHTO   O75 1714   6.438   3.487   3.152 -0.0613 -0.3773  0.4827
    5CHTO  C112 1715   6.353   3.337   3.163 -0.4214 -0.9440  0.6922
    5CHTO  H216 1716   6.423   3.253   3.169  2.0820  1.1124  1.1870
    5CHTO   O73 1717   6.280   3.333   3.046 -0.3505  0.3292 -0.3891
    5CHTO  C113 1718   6.188   3.222   3.044  0.4567 -0.6792 -0.7550
    5CHTO  H217 1719   6.235   3.124   3.067 -0.2298 -0.5368  1.3169
    5CHTO  C124 1720   6.140   3.212   2.902 -0.1612 -0.0895 -0.4890
    5CHTO   O83 1721   6.093   3.338   2.837 -0.0478 -0.5042  1.1603
    5CHTO  H204 1722   6.062   3.322   2.750  0.4435  2.6525  0.3425
    5CHTO  C109 1723   6.082   3.244   3.151 -0.7351  0.2269  0.3994
    5CHTO  H213 1724   6.037   3.342   3.132 -3.6403 -1.7125 -3.4150
    5CHTO  C110 1725   6.154   3.246   3.292 -0.8191  0.5371 -0.2020
    5CHTO  H214 1726   6.186   3.144   3.311 -4.4302 -0.3165  1.8360
    5CHTO   O78 1727   6.056   3.270   3.393 -0.7620 -0.4029 -0.3197
    5CHTO  H200 1728   6.098   3.302   3.471 -0.2801 -0.8391 -0.4028
    5CHTO  C111 1729   6.270   3.342   3.302 -0.1489 -0.3031  0.1077
    5CHTO  H215 1730   6.242   3.448   3.307  1.3368  0.0914  0.2159
    5CHTO   N19 1731   6.364   3.320   3.418  0.3275  0.2429 -0.5454
    5CHTO  H207 1732   6.406   3.221   3.407 -3.0165 -1.1035 -1.6826
    5CHTO  H208 1733   6.438   3.398   3.425  0.3203  0.2389 -0.4217
    5CHTO   O74 1734   5.973   3.142   3.152 -0.3288 -0.4144  0.1702
    5CHTO  C115 1735   5.832   3.190   3.097  0.2432  0.3740 -0.3529
    5CHTO  H219 1736   5.821   3.298   3.102 -0.1253  0.3357 -0.3464
    5CHTO   O76 1737   5.818   3.164   2.941 -0.0587 -0.0926  0.1187
    5CHTO  C122 1738   5.809   3.025   2.906 -0.4688  0.1251 -0.4281
    5CHTO  H226 1739   5.903   2.984   2.943 -0.6747  2.8739  3.3642
    5CHTO  C126 1740   5.811   3.009   2.758 -0.1185  0.3393 -0.6103
    5CHTO   O85 1741   5.936   3.052   2.701  0.4098 -0.3451  0.0069
    5CHTO  H206 1742   5.921   3.058   2.608  2.1968  1.2699 -0.2132
    5CHTO  C121 1743   5.697   2.946   2.984  0.4978  0.2316  0.6392
    5CHTO  H225 1744   5.627   2.915   2.904  0.0988  1.1023  0.6503
    5CHTO   O81 1745   5.743   2.826   3.049 -0.0495  0.1133 -0.5894
    5CHTO  H202 1746   5.682   2.757   3.034 -0.9917  0.9520 -0.7373
    5CHTO  C119 1747   5.619   3.039   3.081  0.2313 -0.9489  0.1417
    5CHTO  H223 1748   5.584   3.120   3.017  0.0339 -0.4761  0.8398
    5CHTO  C117 1749   5.712   3.119   3.181  0.7132  0.0476 -0.4078
    5CHTO  H221 1750   5.767   3.053   3.248 -1.8431  1.4696  3.2999
    5CHTO   N20 1751   5.637   3.214   3.266 -0.2255  0.3914 -0.2427
    5CHTO  H209 1752   5.665   3.197   3.369  0.0928 -0.9298 -0.5371
    5CHTO  H210 1753   5.666   3.316   3.246  0.7352 -0.0087 -0.8979
    5CHTO   O80 1754   5.482   2.973   3.146 -0.1270 -0.6184  0.7297
    5CHTO  C103 1755   5.370   2.937   3.057 -0.5858  0.6053  0.4390
    5CHTO  H190 1756   5.389   2.973   2.956 -0.1626 -1.1047 -0.1161
    5CHTO  C101 1757   5.332   2.785   3.062 -0.9864  0.1092  0.3874
    5CHTO  H188 1758   5.310   2.753   3.164 -2.9362 -0.8743 -0.3136
    5CHTO   O68 1759   5.452   2.708   3.016  0.7726  0.9001  0.4520
    5CHTO  H168 1760   5.492   2.740   2.938 -1.9644 -0.6776 -1.6879
    5CHTO   C99 1761   5.199   2.758   2.974  0.5892  0.2528 -0.6280
    5CHTO  H186 1762   5.205   2.786   2.867 -1.1451  0.3314 -0.7192
    5CHTO   N17 1763   5.150   2.615   2.981 -0.5960  0.0398 -0.0421
    5CHTO  H174 1764   5.079   2.623   3.062 -1.8025 -0.8535 -0.9999
    5CHTO  H175 1765   5.236   2.556   3.011 -0.4305  0.9315  1.2987
    5CHTO   C97 1766   5.081   2.851   3.032  0.0288 -0.3361  0.8284
    5CHTO  H184 1767   5.051   2.820   3.134 -1.7842 -3.5089 -0.5736
    5CHTO   O64 1768   5.128   2.992   3.022  0.6357 -0.2917 -0.2639
    5CHTO  C104 1769   5.240   3.016   3.107  0.1425 -1.2251 -0.5163
    5CHTO  H191 1770   5.214   2.981   3.207  3.8607  0.4928  1.1622
    5CHTO  C108 1771   5.262   3.167   3.122  0.1920  0.8118  0.0971
    5CHTO   O71 1772   5.155   3.250   3.162  0.2362  0.2355 -0.5787
    5CHTO  H171 1773   5.071   3.224   3.128  1.6970 -2.3686 -2.3399
    5CHTO   O62 1774   4.965   2.842   2.938 -0.3133  0.3175 -0.1950
    5CHTO   C91 1775   4.838   2.889   2.993 -0.5055  0.0229  0.0723
    5CHTO  H178 1776   4.855   2.934   3.091  2.1201  2.4869 -1.4209
    5CHTO   C92 1777   4.736   2.773   3.021 -0.2359 -0.3781 -0.0597
    5CHTO  H179 1778   4.776   2.692   3.083 -1.9149 -1.7936 -0.7800
    5CHTO   O66 1779   4.620   2.824   3.087  0.3190 -0.2458 -0.4266
    5CHTO  H166 1780   4.592   2.766   3.155  0.0277 -1.0046 -1.1913
    5CHTO   C93 1781   4.687   2.710   2.884 -0.4597  0.0925  0.7077
    5CHTO  H180 1782   4.595   2.653   2.904 -0.5124  0.8885  2.8660
    5CHTO   N16 1783   4.789   2.613   2.821  0.5000  0.2804  0.3146
    5CHTO  H172 1784   4.854   2.674   2.760  0.1182 -2.0501 -2.5647
    5CHTO  H173 1785   4.842   2.552   2.892 -1.2789 -0.0744  1.3621
    5CHTO   C94 1786   4.643   2.833   2.788 -0.9071 -0.2048  0.6846
    5CHTO  H181 1787   4.719   2.851   2.712 -2.1693  1.4200 -0.2130
    5CHTO   O61 1788   4.644   2.960   2.854  0.6716 -0.4087 -0.3306
    5CHTO   C95 1789   4.775   3.002   2.903 -0.4519 -0.5048  1.0094
    5CHTO  H182 1790   4.843   3.018   2.820 -0.8063 -1.0101  0.6214
    5CHTO  C106 1791   4.754   3.140   2.981  0.2731 -0.6749  0.5635
    5CHTO   O69 1792   4.884   3.194   3.008  0.0198 -0.3049 -0.0695
    5CHTO  H169 1793   4.931   3.226   2.933 -1.9869 -1.2005 -1.7230
    5CHTO   O63 1794   4.519   2.806   2.725  0.4691  0.2655  0.3982
    5CHTO   C96 1795   4.513   2.721   2.590  0.1640  0.0956 -0.4511
    5CHTO  H183 1796   4.604   2.663   2.570  0.1850  0.3722 -1.1943
    5CHTO   C98 1797   4.480   2.811   2.466  0.1687 -0.7717  0.1538
    5CHTO  H185 1798   4.387   2.868   2.482  0.6782  0.4581 -1.1997
    5CHTO   O67 1799   4.583   2.912   2.455  0.2304 -0.0995 -0.0936
    5CHTO  H167 1800   4.656   2.871   2.412  1.7931  1.6012  0.8828
    5CHTO  C102 1801   4.472   2.722   2.337 -0.0087  0.1889  0.0207
    5CHTO  H189 1802   4.576   2.689   2.322 -0.7050 -2.7048  1.1399
    5CHTO   N18 1803   4.434   2.801   2.219 -0.1784 -0.2592 -0.4191
    5CHTO  H176 1804   4.338   2.785   2.173 -0.2062 -0.8656 -0.1477
    5CHTO  H177 1805   4.446   2.905   2.245  3.2927 -0.8924  0.8383
    5CHTO  C105 1806   4.385   2.602   2.358 -0.1709  0.0100  0.2849
    5CHTO  H192 1807   4.280   2.625   2.340 -0.3475 -0.9467  0.0831
    5CHTO   O65 1808   4.400   2.538   2.483  0.4000  0.2613  0.0259
    5CHTO  C100 1809   4.395   2.624   2.595 -0.4875  0.6342  0.0119
    5CHTO  H187 1810   4.299   2.677   2.596 -0.6943  0.2600  2.1521
    5CHTO  C107 1811   4.387   2.536   2.715 -0.1444 -0.2470 -0.1800
    5CHTO   O70 1812   4.327   2.614   2.823 -0.1160 -0.5714 -0.9707
    5CHTO  H170 1813   4.388   2.622   2.894  0.1237  1.1009 -1.3356
    5CHTO   O57 1814   4.437   2.489   2.230 -0.0354  0.3400 -0.2239
    5CHTO   C85 1815   4.510   2.368   2.264 -0.2487 -0.2202 -0.0253
    5CHTO  H157 1816   4.449   2.320   2.343  0.2753  0.7620  0.9872
    5CHTO   C83 1817   4.646   2.388   2.333  0.1683  0.0780  0.2807
    5CHTO  H155 1818   4.622   2.435   2.428 -1.5335 -1.7365  0.7904
    5CHTO   O56 1819   4.728   2.478   2.250 -0.0131 -0.0835 -0.6440
    5CHTO  H135 1820   4.799   2.497   2.306 -0.2190 -1.6661  0.1903
    5CHTO   C81 1821   4.712   2.250   2.361 -0.3104  0.2477 -0.1210
    5CHTO  H153 1822   4.637   2.190   2.413  2.5766 -1.4346  2.2355
    5CHTO   N14 1823   4.829   2.258   2.455  0.1465  0.3767 -0.2321
    5CHTO  H141 1824   4.913   2.319   2.429 -1.1423  2.5923  0.5850
    5CHTO  H142 1825   4.788   2.295   2.547  0.3018  1.3660 -0.5564
    5CHTO   C79 1826   4.741   2.182   2.220 -0.3913 -0.8319 -0.0302
    5CHTO  H151 1827   4.792   2.087   2.242 -0.1599 -0.9071 -0.8946
    5CHTO   O52 1828   4.620   2.158   2.147 -0.5405 -0.1187  0.0777
    5CHTO   C86 1829   4.527   2.269   2.133  0.1291 -0.0932  0.3691
    5CHTO  H158 1830   4.557   2.333   2.047 -0.8646  2.2219  1.7016
    5CHTO   C90 1831   4.390   2.211   2.095 -0.2041 -0.0481 -0.8782
    5CHTO   O60 1832   4.398   2.152   1.963 -0.1014 -0.5781 -0.1661
    5CHTO  H138 1833   4.321   2.103   1.942 -0.0371 -1.3479  1.2854
    5CHTO   O50 1834   4.835   2.252   2.136  0.4291  0.2391 -0.4567
    5CHTO   C73 1835   4.891   2.233   2.005 -0.2780  0.0756  0.6283
    5CHTO  H145 1836   4.820   2.256   1.924 -1.0260 -0.7805  1.0251
    5CHTO   C74 1837   4.939   2.088   1.981 -0.6231 -0.0164 -0.3732
    5CHTO  H146 1838   4.850   2.024   1.997  0.1436 -1.8498 -3.1923
    5CHTO   O54 1839   4.976   2.074   1.848 -0.4122 -0.5326  0.2959
    5CHTO  H133 1840   4.961   1.985   1.824 -0.1785 -0.6897  0.7342
    5CHTO   C75 1841   5.058   2.052   2.077  0.1739  0.3087  0.4070
    5CHTO  H147 1842   5.023   2.046   2.181 -0.1775  0.9151  0.3192
    5CHTO   N13 1843   5.118   1.918   2.051 -0.1920 -0.2394 -0.1023
    5CHTO  H139 1844   5.164   1.879   2.140 -0.1187 -0.4194 -0.2177
    5CHTO  H140 1845   5.041   1.851   2.015  0.0351  0.2870 -1.6287
    5CHTO   C76 1846   5.168   2.167   2.086 -0.0950 -0.5310  0.0892
    5CHTO  H148 1847   5.243   2.160   2.006 -0.4198 -0.6148 -0.2085
    5CHTO   O49 1848   5.114   2.296   2.084 -0.3453 -0.0581  0.0307
    5CHTO   C77 1849   5.015   2.327   1.988  0.4199  0.4166  0.3220
    5CHTO  H149 1850   5.065   2.313   1.892 -3.2576 -0.7741 -1.5242
    5CHTO   C88 1851   4.973   2.471   1.996  0.0982  0.5063  0.3276
    5CHTO   O58 1852   4.852   2.503   1.903 -0.2012  0.2572  0.2306
    5CHTO  H136 1853   4.878   2.573   1.846 -0.6275  1.6864  1.7406
    5CHTO   O51 1854   5.245   2.166   2.229 -0.1683  0.1132 -0.7485
    5CHTO   C78 1855   5.353   2.265   2.252 -0.0762  0.7943 -0.0933
    5CHTO  H150 1856   5.358   2.345   2.176  1.2878  2.4257  1.6676
    5CHTO   C80 1857   5.489   2.189   2.242 -0.5891 -0.3188 -0.3944
    5CHTO  H152 1858   5.495   2.117   2.326  1.0900  0.9031  0.5819
    5CHTO   O55 1859   5.490   2.117   2.121  0.2626 -0.2659  0.2928
    5CHTO  H134 1860   5.405   2.079   2.111 -0.6134  1.1535  2.0233
    5CHTO   C84 1861   5.606   2.295   2.253 -0.0870  0.2879  0.3869
    5CHTO  H156 1862   5.592   2.377   2.182 -1.3199  0.9561  1.3940
    5CHTO   N15 1863   5.746   2.238   2.233  0.0395 -0.5498 -0.3077
    5CHTO  H143 1864   5.783   2.292   2.148  0.6583 -0.6969 -0.1312
    5CHTO  H144 1865   5.749   2.132   2.218 -1.1421 -0.8310  1.2367
    5CHTO   C87 1866   5.597   2.375   2.382 -0.0965 -0.0499 -0.1309
    5CHTO  H159 1867   5.598   2.304   2.465 -1.0420  0.8013  0.6215
    5CHTO   O53 1868   5.448   2.443   2.381 -0.0422 -0.2898 -0.4673
    5CHTO   C82 1869   5.343   2.338   2.384 -0.5328 -0.1372  0.9675
    5CHTO  H154 1870   5.361   2.267   2.465  0.2143  0.1108  1.0192
    5CHTO   C89 1871   5.205   2.411   2.405 -0.0342 -0.5370  0.2968
    5CHTO   O59 1872   5.178   2.429   2.545  0.5291 -0.6792  0.2296
    5CHTO  H137 1873   5.157   2.342   2.575 -2.4875 -0.4738 -1.0950
    5CHTO   O45 1874   5.699   2.489   2.391 -0.1357  0.4692 -0.2124
    5CHTO   C67 1875   5.766   2.505   2.518  0.1541 -0.5024 -0.0869
    5CHTO  H124 1876   5.735   2.428   2.589 -1.8093 -0.7739 -1.1940
    5CHTO   C65 1877   5.913   2.505   2.497 -1.1256  0.1898 -0.0817
    5CHTO  H122 1878   5.933   2.480   2.393  1.9890 -2.0442  0.9642
    5CHTO   O44 1879   5.968   2.395   2.567  0.0672  0.0332  0.3701
    5CHTO  H102 1880   6.049   2.364   2.531 -0.3333 -0.5397 -0.0472
    5CHTO   C63 1881   5.980   2.647   2.515  0.0394 -0.1885 -0.3871
    5CHTO  H120 1882   5.932   2.723   2.453  1.0249  1.9541  1.3817
    5CHTO   N11 1883   6.121   2.659   2.478  0.4577 -0.5851 -0.2269
    5CHTO  H108 1884   6.142   2.753   2.431 -0.3895 -0.8644 -1.1904
    5CHTO  H109 1885   6.180   2.646   2.566  0.5297 -1.1198 -0.3526
    5CHTO   C61 1886   5.946   2.695   2.665  0.4122  0.1090  0.1270
    5CHTO  H118 1887   5.983   2.797   2.681  2.4961 -0.1262 -2.6835
    5CHTO   O40 1888   5.810   2.697   2.686 -0.8619 -0.4277 -0.1653
    5CHTO   C68 1889   5.720   2.652   2.586 -0.6753  0.2379  0.5176
    5CHTO  H125 1890   5.714   2.728   2.505 -0.1773  0.5316  0.7625
    5CHTO   C72 1891   5.576   2.640   2.646 -0.1191  0.2076 -0.1688
    5CHTO   O48 1892   5.563   2.552   2.752 -0.6389  0.5328 -0.7180
    5CHTO  H105 1893   5.561   2.600   2.832  0.1772 -1.9864  0.8561
    5CHTO   O38 1894   5.999   2.611   2.769 -0.3366 -0.4897  0.3023
    5CHTO   C55 1895   5.969   2.653   2.905  0.4562  0.6057 -0.1129
    5CHTO  H112 1896   5.876   2.710   2.915  0.3042  0.3267  0.0623
    5CHTO   C56 1897   6.093   2.747   2.951 -0.0262 -0.4097  0.3935
    5CHTO  H113 1898   6.187   2.695   2.928  0.7238  1.3513 -0.5570
    5CHTO   O42 1899   6.101   2.873   2.883 -0.2764  0.2319  0.0558
    5CHTO  H100 1900   6.094   2.879   2.789  1.0149 -1.8921 -0.2212
    5CHTO   C57 1901   6.085   2.774   3.111  0.4905 -0.0723  0.7377
    5CHTO  H114 1902   5.997   2.838   3.102 -0.0932 -0.8859  0.6934
    5CHTO   N10 1903   6.214   2.832   3.153 -0.8932 -0.7989 -0.1373
    5CHTO  H106 1904   6.239   2.797   3.252 -0.1407 -2.4161 -0.8767
    5CHTO  H107 1905   6.209   2.940   3.153  1.5623 -0.6711 -0.1127
    5CHTO   C58 1906   6.042   2.648   3.192  0.1352  0.3557  0.0117
    5CHTO  H115 1907   6.131   2.581   3.195 -2.3398 -3.0470  0.6853
    5CHTO   O37 1908   5.936   2.582   3.140  0.7399 -0.0328  0.3486
    5CHTO   C59 1909   5.951   2.535   3.006 -0.6237 -0.3776  0.1293
    5CHTO  H116 1910   6.037   2.469   2.991 -0.4807 -0.2718  0.4920
    5CHTO   C70 1911   5.826   2.449   2.970 -0.3576 -0.4791 -0.3304
    5CHTO   O46 1912   5.834   2.319   3.038  0.0580  0.0112 -0.2288
    5CHTO  H103 1913   5.769   2.268   2.993 -0.0487 -1.7780  1.8538
    5CHTO   O39 1914   6.010   2.688   3.349 -0.1929  0.1102 -0.2095
    5CHTO   C60 1915   5.891   2.763   3.371 -0.2762 -0.3062 -0.1371
    5CHTO  H117 1916   5.882   2.833   3.288  1.4000  0.2607  0.1549
    5CHTO   C62 1917   5.765   2.663   3.385 -0.8586 -0.7865  0.1729
    5CHTO  H119 1918   5.765   2.589   3.303 -1.3062 -0.8299  0.2064
    5CHTO   O43 1919   5.761   2.588   3.510 -0.5173  0.0425  0.3838
    5CHTO  H101 1920   5.845   2.571   3.548  0.1379 -0.3421 -1.2085
    5CHTO   C66 1921   5.633   2.757   3.379  0.0878  0.6260 -0.0015
    5CHTO  H123 1922   5.626   2.809   3.284 -1.5164  2.3027  1.0070
    5CHTO   N12 1923   5.505   2.674   3.386 -0.6628 -0.0638 -0.5084
    5CHTO  H110 1924   5.497   2.619   3.479 -0.2197  1.3977  0.3979
    5CHTO  H111 1925   5.505   2.603   3.304  0.8084 -0.3444 -0.2720
    5CHTO   C69 1926   5.637   2.856   3.494 -0.1665 -0.5314 -0.5594
    5CHTO  H126 1927   5.637   2.799   3.590 -1.2967  1.6512  0.7595
    5CHTO   O41 1928   5.768   2.934   3.509  0.1662  0.3524  0.4326
    5CHTO   C64 1929   5.902   2.845   3.500  0.1774  0.3515 -0.2200
    5CHTO  H121 1930   5.907   2.772   3.583  0.4468 -0.0620 -0.5960
    5CHTO   C71 1931   6.023   2.946   3.508  0.1161  0.2169  0.2214
    5CHTO   O47 1932   6.152   2.890   3.529  0.3213 -0.1363  0.2597
    5CHTO  H104 1933   6.184   2.852   3.449  1.3128  0.6257  0.2688
    5CHTO   O34 1934   5.515   2.962   3.496  0.7330  0.5210 -0.1262
    5CHTO   C49 1935   5.448   3.050   3.596  0.0308 -0.0855  0.0836
    5CHTO   H91 1936   5.505   3.138   3.625 -2.0132  0.8321  1.4186
    5CHTO   C47 1937   5.405   2.964   3.718  0.3785  0.5165  0.1864
    5CHTO   H89 1938   5.361   3.038   3.788 -1.7812  0.8163 -1.4285
    5CHTO   O33 1939   5.513   2.897   3.778 -0.0185 -0.0839 -0.3655
    5CHTO   H70 1940   5.586   2.952   3.799  1.5446 -3.2020  2.9549
    5CHTO   C45 1941   5.283   2.859   3.685  0.0756 -0.0112  0.0128
    5CHTO   H87 1942   5.322   2.777   3.623 -1.2900 -2.6550  2.5018
    5CHTO    N8 1943   5.224   2.802   3.808  0.3908 -0.6732  0.1362
    5CHTO   H75 1944   5.163   2.714   3.791 -1.0121  0.0076  1.5333
    5CHTO   H76 1945   5.149   2.869   3.848  0.2597 -0.2827 -0.7495
    5CHTO   C43 1946   5.159   2.929   3.598  0.1879  0.0714 -0.4988
    5CHTO   H85 1947   5.101   2.846   3.559 -2.7400 -0.6582  4.9887
    5CHTO   O29 1948   5.221   3.012   3.495 -0.3482 -0.7003  0.5942
    5CHTO   C50 1949   5.320   3.107   3.527 -0.3544  0.3731  0.2297
    5CHTO   H92 1950   5.356   3.145   3.431  0.8093  1.1578  0.9675
    5CHTO   C54 1951   5.273   3.237   3.601 -0.1625 -0.0074 -0.2306
    5CHTO   O36 1952   5.164   3.314   3.541  0.2488  0.2069  0.5435
    5CHTO   H72 1953   5.185   3.405   3.548  0.2695  0.2969 -0.5807
    5CHTO   O27 1954   5.066   3.005   3.675 -0.3473  0.4579  0.0424
    5CHTO   C37 1955   4.939   3.064   3.709  0.2948 -0.0522 -0.4686
    5CHTO   H79 1956   4.877   2.980   3.744 -0.7373  0.4552 -1.0378
    5CHTO   C38 1957   4.944   3.167   3.824 -0.8055  0.2174 -0.6821
    5CHTO   H80 1958   4.994   3.258   3.790  2.2366 -0.6907  1.1825
    5CHTO   O31 1959   5.011   3.099   3.929  0.1465 -0.1015 -0.0144
    5CHTO   H68 1960   5.055   3.156   3.989  0.7203 -0.9002  0.3353
    5CHTO   C39 1961   4.791   3.206   3.865 -0.2436  0.1749 -0.2451
    5CHTO   H81 1962   4.753   3.116   3.913  0.2609 -0.7657 -1.5722
    5CHTO    N7 1963   4.777   3.309   3.978  0.3040  0.1281 -0.4313
    5CHTO   H73 1964   4.714   3.391   3.948  0.8299 -0.1634 -2.4456
    5CHTO   H74 1965   4.875   3.347   4.001  0.2971  1.7765 -2.9622
    5CHTO   C40 1966   4.698   3.241   3.744 -0.1721 -0.5937 -0.1245
    5CHTO   H82 1967   4.700   3.346   3.718  0.6985 -0.8987 -1.3394
    5CHTO   O26 1968   4.722   3.157   3.628  0.1450 -0.0525  0.1069
    5CHTO   C41 1969   4.861   3.137   3.584  0.3546  0.3940  0.2499
    5CHTO   H83 1970   4.919   3.229   3.563  1.0175 -0.2925 -0.9783
    5CHTO   C52 1971   4.863   3.058   3.453 -0.3180 -0.4014  0.4052
    5CHTO   O35 1972   4.804   2.912   3.471  0.1008  0.2144 -0.1893
    5CHTO   H71 1973   4.788   2.865   3.391  0.9022 -1.8481  0.8111
    5CHTO   O28 1974   4.556   3.219   3.766  0.2082  0.1583  0.0109
    5CHTO   C42 1975   4.486   3.092   3.796  0.2256  0.0846 -0.8915
    5CHTO   H84 1976   4.381   3.114   3.775 -0.3252 -2.0793 -0.4532
    5CHTO   C44 1977   4.487   3.061   3.954 -0.4275 -0.1369 -0.7058
    5CHTO   H86 1978   4.585   3.050   4.000 -0.6540  0.4174 -0.0726
    5CHTO   O32 1979   4.431   3.169   4.029 -0.5072 -0.3471  0.1889
    5CHTO   H69 1980   4.484   3.246   4.043 -1.3804 -0.0445  2.0008
    5CHTO   C48 1981   4.416   2.922   3.984 -0.2517  0.4284  0.3349
    5CHTO   H90 1982   4.313   2.953   3.965 -0.3374 -0.3615 -0.5816
    5CHTO    N9 1983   4.431   2.882   4.131  0.7801 -0.0191  0.5815
    5CHTO   H77 1984   4.481   2.959   4.189  2.1628 -1.6617  1.6046
    5CHTO   H78 1985   4.331   2.856   4.165  0.0622  0.0351 -1.4044
    5CHTO   C51 1986   4.465   2.808   3.883 -0.1571 -0.6686 -0.4459
    5CHTO   H93 1987   4.571   2.809   3.906 -0.6614  0.0245  1.9124
    5CHTO   O30 1988   4.437   2.849   3.751 -0.0280  0.4000 -0.2803
    5CHTO   C46 1989   4.518   2.970   3.703  0.5399  0.0890  0.1814
    5CHTO   H88 1990   4.624   2.946   3.703  0.3998 -0.6949  2.7609
    5CHTO   C53 1991   4.477   2.996   3.550  0.6630  1.1679 -0.0782
    5CHTO   O72 1992   4.499   2.880   3.470 -0.1663 -0.6913  0.2967
    5CHTO  H199 1993   4.432   2.881   3.404 -2.3526  0.6791  2.4504
    5CHTO   O22 1994   4.398   2.687   3.897 -0.2490  0.4723  0.8137
    5CHTO   C31 1995   4.458   2.557   3.856 -0.1804 -0.1008 -0.1943
    5CHTO   H59 1996   4.371   2.493   3.832 -1.5459  1.8681 -0.6697
    5CHTO   C29 1997   4.549   2.563   3.725  0.3336 -0.5969  0.1303
    5CHTO   H57 1998   4.604   2.658   3.733  1.2964 -1.2136  1.0166
    5CHTO   O21 1999   4.461   2.571   3.604 -0.0591 -0.8120  0.6047
    5CHTO   H37 2000   4.523   2.585   3.535  0.3055  0.7410  1.2317
    5CHTO   C27 2001   4.645   2.449   3.711  0.4397 -0.0128 -0.3951
    5CHTO   H55 2002   4.594   2.360   3.671  0.0029  0.3626 -0.6784
    5CHTO    N5 2003   4.760   2.484   3.630  0.0157  0.2276 -0.5290
    5CHTO   H43 2004   4.780   2.401   3.563  0.4101 -0.0834 -0.0290
    5CHTO   H44 2005   4.844   2.510   3.692  0.8080 -1.9507 -0.6682
    5CHTO   C25 2006   4.692   2.388   3.850  0.3675  0.0754 -0.0696
    5CHTO   H53 2007   4.765   2.456   3.896  1.9017 -1.3733 -0.3079
    5CHTO   O17 2008   4.578   2.367   3.933 -0.4623 -0.2367 -0.3496
    5CHTO   C32 2009   4.534   2.493   3.983 -0.2679 -0.4552 -0.4031
    5CHTO   H60 2010   4.610   2.563   4.019 -0.6852 -0.2037 -0.0167
    5CHTO   C36 2011   4.436   2.469   4.095  0.2175 -0.0896 -0.5570
    5CHTO   O25 2012   4.504   2.408   4.204  0.4122  0.2138 -1.0308
    5CHTO   H40 2013   4.584   2.363   4.181 -0.5414 -0.8859 -2.3006
    5CHTO   O15 2014   4.774   2.250   3.826 -0.6283 -0.6997 -0.3588
    5CHTO   C19 2015   4.895   2.221   3.912 -0.4735  0.0824  0.2861
    5CHTO   H47 2016   4.943   2.315   3.943 -0.9541  0.2700  0.4770
    5CHTO   C20 2017   4.856   2.138   4.044 -0.1643  0.3366  0.0197
    5CHTO   H48 2018   4.810   2.040   4.025 -0.9618  0.0592  3.1380
    5CHTO   O19 2019   4.758   2.216   4.115 -0.4889  0.8008  0.7213
    5CHTO   H35 2020   4.778   2.220   4.206 -2.4230  0.9693  1.1698
    5CHTO   C21 2021   4.977   2.101   4.128  0.8798  0.1768 -0.7445
    5CHTO   H49 2022   5.024   2.191   4.168  1.1382 -0.4270  0.3306
    5CHTO    N4 2023   4.944   2.015   4.245 -0.0539 -0.3374  0.2527
    5CHTO   H41 2024   4.874   2.074   4.303 -1.1421 -0.0023 -1.3594
    5CHTO   H42 2025   5.035   2.001   4.301  0.7583  3.1507 -0.0742
    5CHTO   C22 2026   5.087   2.036   4.044 -0.6922  0.3301  0.5447
    5CHTO   H50 2027   5.073   1.928   4.033 -2.4792  0.3908  1.9126
    5CHTO   O14 2028   5.111   2.112   3.926  0.2946 -0.3166 -0.1205
    5CHTO   C23 2029   5.003   2.138   3.839 -0.6052 -0.3453  0.2457
    5CHTO   H51 2030   4.963   2.042   3.805 -1.2132  1.0205 -3.1496
    5CHTO   C34 2031   5.054   2.216   3.715 -0.0768 -0.0851  0.5042
    5CHTO   O23 2032   5.165   2.149   3.657 -0.1070  0.6715  0.2484
    5CHTO   H38 2033   5.249   2.185   3.681 -0.6929  0.3435  2.9823
    5CHTO   O16 2034   5.211   2.052   4.116 -0.4763 -0.4420  0.1497
    5CHTO   C24 2035   5.342   2.014   4.023 -0.2296 -0.1416 -0.3358
    5CHTO   H52 2036   5.321   2.017   3.916  1.9375 -1.2724 -0.8443
    5CHTO   C26 2037   5.401   1.874   4.065  0.0502 -0.4265 -0.4673
    5CHTO   H54 2038   5.435   1.877   4.170 -0.8770 -0.2832 -0.1732
    5CHTO   O20 2039   5.301   1.775   4.046  0.6554 -0.0867 -0.1528
    5CHTO   H36 2040   5.349   1.696   4.063  0.2725  0.1984  2.4377
    5CHTO   C30 2041   5.539   1.847   3.985  0.2451  0.6710  0.4121
    5CHTO   H58 2042   5.525   1.822   3.879 -1.8677 -2.4544  1.3830
    5CHTO    N6 2043   5.613   1.720   4.027 -0.2286 -0.5292  0.0336
    5CHTO   H45 2044   5.713   1.742   4.062 -0.8580  1.6551  0.5100
    5CHTO   H46 2045   5.618   1.648   3.946 -1.1984 -0.2792 -0.2519
    5CHTO   C33 2046   5.634   1.971   3.990 -0.1929  0.2266 -0.1321
    5CHTO   H61 2047   5.685   1.968   4.087 -2.7404 -2.3026  1.1802
    5CHTO   O18 2048   5.568   2.093   3.975  0.1744 -0.4458  0.3192
    5CHTO   C28 2049   5.450   2.124   4.052 -0.3057 -0.0067 -0.2003
    5CHTO   H56 2050   5.475   2.128   4.158 -2.0412 -0.3789  0.2410
    5CHTO   C35 2051   5.414   2.260   4.011  0.3490  0.3392 -0.1006
    5CHTO   O24 2052   5.316   2.324   4.093  0.3143 -0.1004  0.1926
    5CHTO   H39 2053   5.262   2.376   4.037 -1.1057 -0.4062  1.2443
    5CHTO    O9 2054   5.742   1.962   3.898 -0.4218  0.6138  0.0306
    5CHTO   C13 2055   5.726   1.971   3.735  0.6497  0.7740 -0.8103
    5CHTO   H26 2056   5.635   1.911   3.714  0.5682  0.1048  1.3140
    5CHTO   C11 2057   5.857   1.906   3.667  0.1549  0.0805  0.7639
    5CHTO   H24 2058   5.855   1.800   3.695  0.1189  0.6709  3.1245
    5CHTO    O8 2059   5.977   1.969   3.722  0.3861  0.6810  0.0574
    5CHTO    H3 2060   6.050   1.916   3.749  1.9886  1.1313 -3.1067
    5CHTO    C9 2061   5.837   1.926   3.518  0.5013  0.0941 -0.2241
    5CHTO   H22 2062   5.738   1.883   3.499  0.5114 -1.4357  2.7853
    5CHTO    N2 2063   5.928   1.843   3.432 -0.6065 -0.0184 -0.3993
    5CHTO   H10 2064   6.004   1.793   3.490 -0.7668  0.5186  0.2766
    5CHTO   H11 2065   5.868   1.762   3.393  0.1399 -0.7309 -0.0887
    5CHTO    C7 2066   5.829   2.078   3.482  0.1130 -0.9090  0.5403
    5CHTO   H20 2067   5.801   2.088   3.375  1.0976  0.2220  0.3840
    5CHTO    O4 2068   5.721   2.150   3.551  0.3456 -0.2460 -0.6030
    5CHTO   C14 2069   5.700   2.126   3.691  0.0446 -0.0678 -0.3711
    5CHTO   H27 2070   5.591   2.149   3.694  0.0885  0.0582  2.2554
    5CHTO   C18 2071   5.764   2.232   3.768 -0.1809  0.0253 -0.3239
    5CHTO   O13 2072   5.720   2.368   3.746 -0.2118  0.2594  0.2564
    5CHTO    H7 2073   5.774   2.438   3.775 -0.4938 -0.2238  1.9722
    5CHTO    O2 2074   5.967   2.143   3.521  0.4909 -0.1537 -0.6862
    5CHTO    C1 2075   6.022   2.234   3.436 -0.1194 -0.1576 -0.0998
    5CHTO   H14 2076   5.956   2.322   3.418 -2.6071 -1.4974  2.0684
    5CHTO    C2 2077   6.077   2.175   3.300 -0.5932 -0.6435  0.7007
    5CHTO   H15 2078   6.137   2.086   3.324  1.6123  1.0577  1.6888
    5CHTO    O6 2079   5.970   2.132   3.218  0.5054  0.1351  0.3793
    5CHTO    H1 2080   5.933   2.054   3.256  1.3169 -0.6715 -0.4397
    5CHTO    C3 2081   6.165   2.285   3.231 -0.4585 -0.1677 -0.4181
    5CHTO   H16 2082   6.104   2.377   3.235 -0.4706 -0.1990  0.2228
    5CHTO    N1 2083   6.219   2.259   3.093  0.1019 -0.3705  0.0892
    5CHTO    H8 2084   6.315   2.304   3.072  0.0888 -0.6279 -0.5418
    5CHTO    H9 2085   6.147   2.304   3.027  0.9067 -0.7348 -1.0474
    5CHTO    C4 2086   6.288   2.313   3.328 -0.1459  0.4259 -0.5242
    5CHTO   H17 2087   6.331   2.217   3.358 -1.7333 -0.4501 -0.9785
    5CHTO    O1 2088   6.232   2.376   3.449 -0.1057 -0.4033  0.0945
    5CHTO    C5 2089   6.137   2.293   3.519 -0.1048 -0.5865  0.5314
    5CHTO   H18 2090   6.196   2.211   3.560  0.6102 -0.0818  0.5229
    5CHTO   C16 2091   6.080   2.380   3.635 -0.0587 -0.4690 -0.1253
    5CHTO   O11 2092   6.033   2.506   3.580 -0.1099 -0.3067 -0.1672
    5CHTO    H5 2093   6.094   2.572   3.607 -2.7833  2.1052  0.2288
    5CHTO    O3 2094   6.387   2.411   3.284  0.5808 -0.1893  0.8482
    5CHTO    C6 2095   6.520   2.393   3.339  0.1156 -0.2392 -0.3545
    5CHTO   H19 2096   6.528   2.353   3.440  2.0298  0.9062 -0.0299
    5CHTO    C8 2097   6.611   2.299   3.248  0.4749 -1.0707 -0.7300
    5CHTO   H21 2098   6.589   2.335   3.147 -1.2559  0.3798  0.1542
    5CHTO    O7 2099   6.567   2.164   3.264 -0.5971 -0.5980  0.0595
    5CHTO    H2 2100   6.474   2.159   3.278 -0.5437 -0.7340  0.3721
    5CHTO   C12 2101   6.764   2.305   3.276  1.3135 -0.0632 -0.3897
    5CHTO   H25 2102   6.771   2.253   3.374 -2.1343  0.0039 -0.0289
    5CHTO    N3 2103   6.854   2.232   3.182 -0.1950  0.0048  0.3733
    5CHTO   H12 2104   6.960   2.248   3.195  0.2399  0.0269 -2.7889
    5CHTO   H13 2105   6.811   2.241   3.083 -0.1624 -1.7660  0.1789
    5CHTO   C15 2106   6.808   2.456   3.286  0.3080  0.4270  0.1680
    5CHTO   H28 2107   6.814   2.501   3.187 -0.7181 -0.7847 -0.4525
    5CHTO   O10 2108   6.929   2.483   3.358  0.2554 -0.0460  0.3721
    5CHTO    H4 2109   6.922   2.465   3.450 -1.7894  0.6256  0.3633
    5CHTO    O5 2110   6.723   2.528   3.374  0.5204  0.4671 -0.3035
    5CHTO   C10 2111   6.580   2.534   3.351  0.0401 -0.6861  0.6913
    5CHTO   H23 2112   6.557   2.594   3.262  0.1360 -2.0645 -0.2698
    5CHTO   C17 2113   6.513   2.611   3.468 -0.0234 -0.0913  0.2785
    5CHTO   O12 2114   6.486   2.749   3.436  0.7416  0.3394  0.1973
    5CHTO    H6 2115   6.451   2.804   3.503 -1.6688 -0.0319 -0.7012
    6CHTO  H203 2116   3.778   4.645   0.691 -2.8017  2.3914  1.5668
    6CHTO   O82 2117   3.806   4.602   0.770  0.5805 -0.3073 -0.8931
    6CHTO  C123 2118   3.951   4.621   0.790 -0.1596  0.2135 -0.0088
    6CHTO  H227 2119   3.998   4.649   0.695 -1.1264 -2.5632 -1.3743
    6CHTO   O77 2120   3.963   4.735   0.881  0.2723  0.2067 -0.3363
    6CHTO  C118 2121   4.090   4.792   0.908 -0.2789  0.1866  0.7280
    6CHTO  H222 2122   4.123   4.845   0.817 -0.0221  0.9244  1.2501
    6CHTO  C125 2123   4.070   4.905   1.019  0.4032 -0.6145 -0.4225
    6CHTO   O84 2124   4.189   4.986   1.045 -0.4587  0.2033 -0.2506
    6CHTO  H205 2125   4.248   4.953   1.111  0.4994 -1.2170 -1.7796
    6CHTO  C114 2126   4.195   4.685   0.958  0.4120  0.5658 -0.4038
    6CHTO  H218 2127   4.161   4.657   1.057 -0.6800 -0.2000 -0.9742
    6CHTO  C116 2128   4.181   4.556   0.857  0.6862 -0.3490  0.1702
    6CHTO  H220 2129   4.220   4.578   0.755  0.4949 -1.2254 -0.0948
    6CHTO   O79 2130   4.273   4.456   0.910  0.3782 -0.0316  0.0881
    6CHTO  H201 2131   4.361   4.490   0.913 -0.5157  2.6375 -2.5924
    6CHTO  C120 2132   4.034   4.501   0.846 -0.1691 -0.5170 -0.6410
    6CHTO  H224 2133   3.999   4.458   0.942  1.2340  0.3048  0.2698
    6CHTO   N21 2134   4.023   4.387   0.753  0.2269 -0.4866  0.3925
    6CHTO  H211 2135   4.108   4.324   0.771  0.3653 -0.2209  0.6793
    6CHTO  H212 2136   3.933   4.333   0.776  0.1313 -0.5886 -0.1967
    6CHTO   O75 2137   4.328   4.746   0.966  0.9950  0.1458  0.0973
    6CHTO  C112 2138   4.400   4.713   1.097  0.5374 -0.1812 -0.0206
    6CHTO  H216 2139   4.374   4.611   1.132 -1.0007 -0.0083 -0.6076
    6CHTO   O73 2140   4.365   4.805   1.201 -0.6704 -0.4605  0.0012
    6CHTO  C113 2141   4.414   4.769   1.330 -0.8094 -0.2448  0.4410
    6CHTO  H217 2142   4.376   4.667   1.353 -0.9575 -0.2137  0.3432
    6CHTO  C124 2143   4.358   4.864   1.441 -0.4701  0.3533  0.4638
    6CHTO   O83 2144   4.387   5.003   1.418 -0.2005 -0.4489  0.1216
    6CHTO  H204 2145   4.309   5.052   1.435  0.5741  0.2952  1.6408
    6CHTO  C109 2146   4.572   4.765   1.330  0.0807 -0.0925  0.0178
    6CHTO  H213 2147   4.607   4.869   1.319  0.6574 -0.5242 -2.4383
    6CHTO  C110 2148   4.635   4.691   1.201  0.7140 -0.4117 -0.5135
    6CHTO  H214 2149   4.630   4.584   1.221 -0.6059 -0.3388 -0.4407
    6CHTO   O78 2150   4.774   4.728   1.183  0.3039 -0.4427  0.2410
    6CHTO  H200 2151   4.780   4.805   1.128 -1.0964 -1.2097 -1.0070
    6CHTO  C111 2152   4.551   4.714   1.074  0.0647  0.2397 -0.0043
    6CHTO  H215 2153   4.583   4.810   1.033  0.1614  0.5159  0.7127
    6CHTO   N19 2154   4.586   4.608   0.971 -0.6553  0.1216  0.0993
    6CHTO  H207 2155   4.509   4.625   0.899 -0.1243  3.0057  0.1754
    6CHTO  H208 2156   4.683   4.638   0.933 -0.1708  0.7096  1.7160
    6CHTO   O74 2157   4.618   4.712   1.455  0.0128  0.1017 -0.0683
    6CHTO  C115 2158   4.760   4.776   1.510  0.1425  0.1153  0.3203
    6CHTO  H219 2159   4.839   4.775   1.435 -0.7989  0.6908 -0.7018
    6CHTO   O76 2160   4.744   4.925   1.555  0.0746 -0.4167 -0.5000
    6CHTO  C122 2161   4.681   4.942   1.687 -0.4225 -0.5539 -0.0857
    6CHTO  H226 2162   4.587   4.997   1.674 -0.5545 -1.3642 -2.8922
    6CHTO  C126 2163   4.763   5.040   1.790  0.0352 -0.1299 -0.5603
    6CHTO   O85 2164   4.818   5.151   1.727  0.2902  0.3384 -0.4614
    6CHTO  H206 2165   4.909   5.140   1.709  0.6122 -0.3451  1.4632
    6CHTO  C121 2166   4.631   4.811   1.763 -0.0464 -0.4762 -0.0900
    6CHTO  H225 2167   4.599   4.834   1.866  1.5205  1.5118 -0.0313
    6CHTO   O81 2168   4.513   4.754   1.718  0.0033 -0.4458  0.0085
    6CHTO  H202 2169   4.462   4.829   1.693  1.1152  0.0199 -0.8964
    6CHTO  C119 2170   4.745   4.707   1.767 -0.2779  0.0860  0.2611
    6CHTO  H223 2171   4.823   4.748   1.831 -2.0802  0.3152  2.3811
    6CHTO  C117 2172   4.797   4.674   1.627  0.4272 -0.0683 -0.6165
    6CHTO  H221 2173   4.749   4.582   1.595 -1.7353  1.0910 -0.7806
    6CHTO   N20 2174   4.945   4.641   1.620 -0.2921 -0.3550  0.4966
    6CHTO  H209 2175   4.994   4.681   1.707  0.5727  0.5488 -0.3816
    6CHTO  H210 2176   4.958   4.534   1.618 -1.1770 -0.4598  0.1826
    6CHTO   O80 2177   4.699   4.553   1.857  0.1702 -0.0758 -0.1158
    6CHTO  C103 2178   4.768   4.510   2.013  0.6668 -0.4839 -0.1915
    6CHTO  H190 2179   4.727   4.412   2.038 -1.2315  0.1235 -0.7742
    6CHTO  C101 2180   4.923   4.528   2.022 -0.4491 -0.0142  0.6993
    6CHTO  H188 2181   4.954   4.622   1.977 -2.1373 -0.7813 -2.2669
    6CHTO   O68 2182   4.970   4.423   1.949 -0.3404  0.8442  0.2709
    6CHTO  H168 2183   5.062   4.431   1.937 -0.2302  1.0336  1.2323
    6CHTO   C99 2184   4.978   4.533   2.175 -0.4569  0.1120  0.3816
    6CHTO  H186 2185   4.963   4.435   2.225 -2.3342  0.0706 -0.2453
    6CHTO   N17 2186   5.126   4.569   2.180  0.1799  0.1183 -0.2946
    6CHTO  H174 2187   5.179   4.535   2.092  1.1716  1.0384 -0.0533
    6CHTO  H175 2188   5.128   4.677   2.182 -0.1226  0.1255 -0.3459
    6CHTO   C97 2189   4.895   4.627   2.265  0.1877  0.6024 -0.3409
    6CHTO  H184 2190   4.911   4.732   2.237 -1.3731  1.1459  0.7478
    6CHTO   O64 2191   4.755   4.584   2.251 -0.1502  0.3488 -0.0196
    6CHTO  C104 2192   4.700   4.611   2.119 -1.3962  0.3224 -0.1489
    6CHTO  H191 2193   4.717   4.715   2.093 -0.4413  0.1700 -0.1624
    6CHTO  C108 2194   4.545   4.593   2.129 -0.4816  0.6988  0.6621
    6CHTO   O71 2195   4.484   4.619   2.001  0.4329 -0.1206  0.3810
    6CHTO  H171 2196   4.477   4.711   1.986  2.0826  0.1590  1.2355
    6CHTO   O62 2197   4.934   4.615   2.402 -0.6962  0.1668 -0.5331
    6CHTO   C91 2198   4.892   4.730   2.479 -0.2903 -0.0816  0.0957
    6CHTO  H178 2199   4.935   4.816   2.427  1.0648 -1.9469 -1.9264
    6CHTO   C92 2200   4.961   4.716   2.613 -0.4794  0.2310 -0.0346
    6CHTO  H179 2201   5.068   4.690   2.604 -1.0194 -1.4802 -1.9640
    6CHTO   O66 2202   4.964   4.845   2.676  0.7241  0.1884 -0.3881
    6CHTO  H166 2203   5.000   4.908   2.617 -0.5728  0.4561 -0.9061
    6CHTO   C93 2204   4.891   4.624   2.717 -0.1913 -0.2154  0.4943
    6CHTO  H180 2205   4.874   4.683   2.808 -0.5607 -0.7245  0.7512
    6CHTO   N16 2206   4.972   4.504   2.757  0.4476  0.0290 -0.2171
    6CHTO  H172 2207   4.906   4.434   2.807  1.0611 -0.6879 -0.3973
    6CHTO  H173 2208   5.014   4.466   2.665  1.4893 -0.1298  0.3095
    6CHTO   C94 2209   4.751   4.574   2.659 -0.9648  0.9208 -0.6151
    6CHTO  H181 2210   4.768   4.511   2.572 -0.1980  0.3756 -0.0906
    6CHTO   O61 2211   4.673   4.687   2.613 -0.3849  0.5542  0.5133
    6CHTO   C95 2212   4.735   4.764   2.501 -1.1596  0.3074  0.1705
    6CHTO  H182 2213   4.688   4.741   2.405  0.6321  0.2332 -0.7138
    6CHTO  C106 2214   4.708   4.917   2.521 -0.1103  0.3536  0.1739
    6CHTO   O69 2215   4.568   4.958   2.508 -0.1878 -0.2331 -0.3792
    6CHTO  H169 2216   4.529   4.966   2.593  1.0102  3.2439 -0.0599
    6CHTO   O63 2217   4.673   4.509   2.767  0.0246 -0.1972  0.0986
    6CHTO   C96 2218   4.567   4.402   2.704 -0.5610  0.2830 -0.5348
    6CHTO  H183 2219   4.565   4.404   2.595  0.4157 -0.7263 -0.5838
    6CHTO   C98 2220   4.422   4.441   2.744  0.0919 -0.0902  0.2100
    6CHTO  H185 2221   4.416   4.448   2.854 -1.1652 -0.4395  0.1732
    6CHTO   O67 2222   4.398   4.576   2.698 -0.1916  0.3523 -0.2774
    6CHTO  H167 2223   4.331   4.623   2.744  0.3273  1.3668 -0.5589
    6CHTO  C102 2224   4.312   4.347   2.685  0.2436 -0.3751  0.1930
    6CHTO  H189 2225   4.306   4.367   2.577  1.1015 -0.0972  0.1892
    6CHTO   N18 2226   4.173   4.362   2.735 -0.2412  0.1324  0.1167
    6CHTO  H176 2227   4.155   4.425   2.821  0.6310 -0.1498  0.5152
    6CHTO  H177 2228   4.120   4.269   2.742  1.0433 -0.7299 -1.3356
    6CHTO  C105 2229   4.361   4.198   2.679  0.4688  0.2564 -0.2361
    6CHTO  H192 2230   4.281   4.131   2.710 -0.7690  1.8118  0.0191
    6CHTO   O65 2231   4.472   4.173   2.770 -0.2865 -0.6365 -0.1087
    6CHTO  C100 2232   4.596   4.252   2.750 -0.4791  0.3587  0.3245
    6CHTO  H187 2233   4.653   4.259   2.843  1.9755 -1.4459 -0.9642
    6CHTO  C107 2234   4.682   4.171   2.647  0.0302  0.6023  0.4935
    6CHTO   O70 2235   4.813   4.219   2.632  0.4805 -0.2725  0.6648
    6CHTO  H170 2236   4.848   4.193   2.549  0.6289 -2.4868  1.4050
    6CHTO   O57 2237   4.394   4.171   2.523 -0.3666 -0.4190  0.1577
    6CHTO   C85 2238   4.316   4.076   2.454 -0.3714  0.5824 -0.0279
    6CHTO  H157 2239   4.219   4.067   2.507 -0.4325  1.9016  0.0969
    6CHTO   C83 2240   4.386   3.934   2.460 -0.0192  0.4570 -0.1842
    6CHTO  H155 2241   4.399   3.903   2.564 -0.0575 -0.9165 -0.5742
    6CHTO   O56 2242   4.521   3.940   2.403 -0.2559  0.0681  0.0348
    6CHTO  H135 2243   4.548   4.029   2.391  1.0753 -0.3908 -0.4650
    6CHTO   C81 2244   4.299   3.828   2.381 -0.7783  0.9532 -0.1070
    6CHTO  H153 2245   4.197   3.831   2.421 -1.3573  0.4609 -1.5303
    6CHTO   N14 2246   4.341   3.685   2.405  0.6816  0.1028  0.0794
    6CHTO  H141 2247   4.263   3.622   2.444  2.0472 -2.5030 -1.2837
    6CHTO  H142 2248   4.434   3.667   2.455 -0.7910  0.3045  2.9716
    6CHTO   C79 2249   4.292   3.867   2.227  0.7123 -0.3524 -0.4563
    6CHTO  H151 2250   4.218   3.802   2.181  0.0532  0.4655 -0.5724
    6CHTO   O52 2251   4.226   3.998   2.217  0.4948 -0.3450 -0.0860
    6CHTO   C86 2252   4.291   4.104   2.294 -0.3176 -0.3273  0.7707
    6CHTO  H158 2253   4.387   4.113   2.238 -0.4380  0.0553  0.6166
    6CHTO   C90 2254   4.213   4.236   2.268 -0.7036  0.3075 -0.4550
    6CHTO   O60 2255   4.247   4.351   2.346  0.5068  0.0681 -0.0732
    6CHTO  H138 2256   4.210   4.430   2.313  1.0371 -0.2542 -1.5084
    6CHTO   O50 2257   4.414   3.849   2.158 -0.1253 -0.1407  0.2924
    6CHTO   C73 2258   4.439   3.787   2.031 -0.3473  0.5056  0.2677
    6CHTO  H145 2259   4.346   3.737   2.002 -0.4607  1.3811 -0.9134
    6CHTO   C74 2260   4.553   3.672   2.025  0.4024 -0.1122  0.3737
    6CHTO  H146 2261   4.530   3.588   2.092  0.9058 -2.1871 -1.9923
    6CHTO   O54 2262   4.549   3.614   1.899  0.4140 -0.2951 -0.1619
    6CHTO  H133 2263   4.592   3.531   1.903 -1.1234 -1.0432  1.3785
    6CHTO   C75 2264   4.689   3.743   2.064 -0.0003  0.0411  0.3773
    6CHTO  H147 2265   4.668   3.795   2.159 -0.6674 -0.7506  0.6694
    6CHTO   N13 2266   4.803   3.655   2.083 -0.7970  0.1020  0.6247
    6CHTO  H139 2267   4.878   3.710   2.138 -1.6207  3.6479 -1.6227
    6CHTO  H140 2268   4.761   3.574   2.140 -0.0485 -0.0739  0.9371
    6CHTO   C76 2269   4.714   3.861   1.955 -0.0739 -0.4231 -0.0180
    6CHTO  H148 2270   4.728   3.819   1.855 -1.5944  1.4619 -1.0419
    6CHTO   O49 2271   4.597   3.955   1.953  0.0327  0.4348 -0.0612
    6CHTO   C77 2272   4.475   3.896   1.913 -0.8092 -0.3311 -0.1789
    6CHTO  H149 2273   4.488   3.841   1.820  2.9084  0.4875 -0.1902
    6CHTO   C88 2274   4.372   4.000   1.895  0.2289 -0.4706 -0.2531
    6CHTO   O58 2275   4.428   4.104   1.776 -0.2984  0.2286 -0.0219
    6CHTO  H136 2276   4.399   4.193   1.786  2.1407  1.1337 -0.6776
    6CHTO   O51 2277   4.823   3.951   2.012 -0.3756  0.6053 -0.0929
    6CHTO   C78 2278   4.906   4.035   1.890  0.6601 -0.1605 -1.2597
    6CHTO  H150 2279   4.976   4.108   1.936  0.4003 -0.0170 -1.0949
    6CHTO   C80 2280   4.807   4.108   1.797  0.1333 -0.6626 -0.4068
    6CHTO  H152 2281   4.736   4.034   1.756  1.0204 -0.7641 -1.8081
    6CHTO   O55 2282   4.731   4.211   1.875 -0.9480  0.3798 -0.1250
    6CHTO  H134 2283   4.652   4.233   1.829 -0.7370 -0.2060 -0.7727
    6CHTO   C84 2284   4.880   4.179   1.678  0.0806  1.0979  0.2635
    6CHTO  H156 2285   4.945   4.252   1.726  3.5506  0.6567 -3.5419
    6CHTO   N15 2286   4.789   4.250   1.583  0.1675  0.1097 -0.3263
    6CHTO  H143 2287   4.837   4.338   1.545  2.0072 -1.0214 -0.6824
    6CHTO  H144 2288   4.695   4.275   1.629 -0.5319 -3.2898  0.2125
    6CHTO   C87 2289   4.971   4.091   1.596 -0.4344 -1.1004 -0.3552
    6CHTO  H159 2290   4.919   4.029   1.522  1.7709 -0.1261 -2.8300
    6CHTO   O53 2291   5.060   3.994   1.706  0.6117  0.4886 -0.1408
    6CHTO   C82 2292   4.991   3.933   1.812 -0.2842 -0.7524  0.1277
    6CHTO  H154 2293   4.922   3.862   1.766  0.1904 -2.2042  1.6100
    6CHTO   C89 2294   5.084   3.848   1.898  0.4973  0.0302 -0.2436
    6CHTO   O59 2295   5.140   3.753   1.807  0.1056 -0.0858 -0.2874
    6CHTO  H137 2296   5.072   3.710   1.759  0.5158 -1.1728  0.0775
    6CHTO   O45 2297   5.090   4.184   1.506  0.8290  0.3148 -0.1887
    6CHTO   C67 2298   5.226   4.175   1.557  0.2748 -0.7890  0.2480
    6CHTO  H124 2299   5.258   4.074   1.581 -0.4058 -1.1098 -0.2043
    6CHTO   C65 2300   5.331   4.248   1.452 -0.0135  0.4207 -0.1343
    6CHTO  H122 2301   5.305   4.197   1.359  1.2217 -1.3477  0.4679
    6CHTO   O44 2302   5.470   4.230   1.476 -0.1200  0.1781  0.2321
    6CHTO  H102 2303   5.473   4.231   1.570  1.3681 -3.1556  0.2742
    6CHTO   C63 2304   5.286   4.394   1.437 -0.2304  0.1829  0.6136
    6CHTO  H120 2305   5.180   4.396   1.411  0.1756 -2.1017 -1.4042
    6CHTO   N11 2306   5.332   4.476   1.317 -0.3713  1.0208 -0.6963
    6CHTO  H108 2307   5.400   4.419   1.257  0.0334  0.4075  0.3300
    6CHTO  H109 2308   5.250   4.516   1.261 -0.9351 -0.1161 -0.6881
    6CHTO   C61 2309   5.297   4.466   1.579 -0.4407 -0.4461  0.2513
    6CHTO  H118 2310   5.251   4.564   1.564 -0.7287 -0.4155  1.3163
    6CHTO   O40 2311   5.220   4.400   1.681  0.7547 -0.2162 -0.1181
    6CHTO   C68 2312   5.240   4.255   1.694 -0.9183 -0.0469 -0.1475
    6CHTO  H125 2313   5.158   4.217   1.758  0.3898  1.2053  2.3660
    6CHTO   C72 2314   5.374   4.225   1.774 -0.0418 -0.1839  0.0050
    6CHTO   O48 2315   5.372   4.084   1.813  0.7146 -0.2201 -0.1922
    6CHTO  H105 2316   5.401   4.030   1.741 -0.7587 -2.5312  0.9088
    6CHTO   O38 2317   5.436   4.490   1.609  0.0843  0.4461 -0.0460
    6CHTO   C55 2318   5.483   4.621   1.633  0.2617 -0.6155 -0.2528
    6CHTO  H112 2319   5.399   4.688   1.656  0.0379 -0.5525 -1.2264
    6CHTO   C56 2320   5.574   4.691   1.523  0.5471  0.0714  0.2540
    6CHTO  H113 2321   5.640   4.608   1.492  1.7544  0.6493  1.2020
    6CHTO   O42 2322   5.493   4.719   1.408  0.0499 -1.2155  0.3752
    6CHTO  H100 2323   5.437   4.647   1.386 -1.8714  0.7029 -1.1720
    6CHTO   C57 2324   5.653   4.816   1.574 -0.5088 -0.0453 -0.3457
    6CHTO  H114 2325   5.583   4.897   1.593  0.6411  0.9799 -0.4578
    6CHTO   N10 2326   5.747   4.870   1.477  0.0036 -0.2507  0.0139
    6CHTO  H106 2327   5.800   4.786   1.433 -0.5827 -0.3019 -0.6091
    6CHTO  H107 2328   5.815   4.935   1.528 -1.0777  1.9025 -1.2348
    6CHTO   C58 2329   5.727   4.784   1.715  0.9017  1.1166 -0.1564
    6CHTO  H115 2330   5.800   4.700   1.706  1.0895  1.5164 -2.7799
    6CHTO   O37 2331   5.622   4.738   1.801  0.9426 -0.1918 -0.8867
    6CHTO   C59 2332   5.556   4.615   1.768  0.4582  0.0247  0.1536
    6CHTO  H116 2333   5.631   4.537   1.764 -0.1477 -0.6932  2.1854
    6CHTO   C70 2334   5.462   4.575   1.888  0.2289 -0.1793  0.7392
    6CHTO   O46 2335   5.381   4.680   1.924  0.4986 -0.2670  0.0022
    6CHTO  H103 2336   5.329   4.657   1.998  0.9137 -0.3484  0.2675
    6CHTO   O39 2337   5.792   4.905   1.788  0.0884 -0.0131  0.1066
    6CHTO   C60 2338   5.931   4.901   1.806 -0.4059  0.1900  0.1461
    6CHTO  H117 2339   5.974   4.837   1.729  0.1097 -0.1985  0.7581
    6CHTO   C62 2340   5.989   5.041   1.789 -0.1573 -0.0495 -0.1866
    6CHTO  H119 2341   5.947   5.074   1.691  0.1469 -1.0147 -0.6454
    6CHTO   O43 2342   5.934   5.125   1.888  0.1710 -0.1097 -0.0460
    6CHTO  H101 2343   5.847   5.153   1.867  0.9144  2.8019  0.5629
    6CHTO   C66 2344   6.150   5.035   1.778 -0.4055 -0.0981  0.4627
    6CHTO  H123 2345   6.186   4.982   1.690  0.4430  2.1682 -0.5896
    6CHTO   N12 2346   6.209   5.174   1.760  0.0836  0.2939  0.0173
    6CHTO  H110 2347   6.280   5.187   1.840  2.3623 -0.9043 -1.7574
    6CHTO  H111 2348   6.259   5.190   1.666 -1.4431 -2.3160 -1.2768
    6CHTO   C69 2349   6.214   4.962   1.897 -0.4320  1.2025 -0.1239
    6CHTO  H126 2350   6.214   5.028   1.986  2.3911  1.6271 -0.4013
    6CHTO   O41 2351   6.135   4.814   1.941  0.1838 -0.5648 -0.3424
    6CHTO   C64 2352   5.975   4.846   1.947 -0.0584 -0.2254  0.2408
    6CHTO  H121 2353   5.941   4.921   2.021 -1.3772 -0.7920  0.2407
    6CHTO   C71 2354   5.912   4.715   1.991  0.0279  0.5305 -0.3757
    6CHTO   O47 2355   5.921   4.699   2.133 -0.0285  0.0451 -0.6988
    6CHTO  H104 2356   5.858   4.747   2.184  0.3492 -1.2022  0.9877
    6CHTO   O34 2357   6.373   4.932   1.857 -0.0065  0.3743 -0.1541
    6CHTO   C49 2358   6.492   4.981   1.901 -0.1499 -0.9199  0.5895
    6CHTO   H91 2359   6.526   5.048   1.822  1.1799  0.2923  2.1607
    6CHTO   C47 2360   6.584   4.857   1.906  0.4378  0.0527  0.8225
    6CHTO   H89 2361   6.689   4.893   1.911  0.4900  0.0986 -0.4425
    6CHTO   O33 2362   6.571   4.777   1.784 -0.0905 -0.0805 -0.2549
    6CHTO   H70 2363   6.635   4.800   1.720  0.3792 -1.7028 -0.3980
    6CHTO   C45 2364   6.543   4.769   2.033  0.0660  0.0626 -0.5066
    6CHTO   H87 2365   6.439   4.735   2.019 -0.2024  1.7622 -3.0257
    6CHTO    N8 2366   6.629   4.646   2.054 -0.6765  0.4958  0.3093
    6CHTO   H75 2367   6.732   4.676   2.057 -0.2684 -0.1902 -4.0185
    6CHTO   H76 2368   6.587   4.603   2.144  1.0123  0.4220  1.0677
    6CHTO   C43 2369   6.541   4.863   2.170 -0.1946 -0.3629 -0.0355
    6CHTO   H85 2370   6.490   4.795   2.239  0.5718  1.7467  2.6929
    6CHTO   O29 2371   6.465   4.984   2.151  0.0629 -0.2549 -0.0964
    6CHTO   C50 2372   6.490   5.064   2.029  0.2319 -0.1552 -0.4984
    6CHTO   H92 2373   6.414   5.143   2.025 -0.3369 -0.6996 -0.5271
    6CHTO   C54 2374   6.627   5.149   2.032  0.5301  0.0585  0.4025
    6CHTO   O36 2375   6.650   5.195   2.170  0.0392 -0.5684  0.0261
    6CHTO   H72 2376   6.736   5.227   2.186 -0.1735  0.3662 -0.6430
    6CHTO   O27 2377   6.670   4.892   2.224 -0.1350  0.2901  0.5368
    6CHTO   C37 2378   6.753   4.881   2.337  0.1081 -0.3548  0.0242
    6CHTO   H79 2379   6.753   4.785   2.392  1.1487 -0.0162  0.6332
    6CHTO   C38 2380   6.901   4.901   2.284  0.1048  0.3112  0.0699
    6CHTO   H80 2381   6.904   4.987   2.216  1.5150 -0.7390 -1.2664
    6CHTO   O31 2382   6.929   4.775   2.220 -0.0625 -0.7948 -0.1913
    6CHTO   H68 2383   6.882   4.776   2.138 -0.6668 -2.3375  0.1232
    6CHTO   C39 2384   7.005   4.921   2.401  0.0527 -0.4908  0.1423
    6CHTO   H81 2385   7.013   4.826   2.452  0.1524  0.0888  1.2228
    6CHTO    N7 2386   7.140   4.946   2.343 -0.3503  0.4889  0.3261
    6CHTO   H73 2387   7.125   4.999   2.250  0.0569 -1.7296 -1.0287
    6CHTO   H74 2388   7.186   4.854   2.310  1.0868  1.1868  0.3392
    6CHTO   C40 2389   6.960   5.033   2.495  0.0817 -0.4224  0.2811
    6CHTO   H82 2390   6.975   5.133   2.454  0.2494 -0.4643  0.2421
    6CHTO   O26 2391   6.825   5.008   2.541  0.0621  0.3076 -0.8549
    6CHTO   C41 2392   6.723   4.994   2.436 -0.2024 -1.0272 -0.1646
    6CHTO   H83 2393   6.727   5.088   2.378 -0.3772 -2.5299 -2.7123
    6CHTO   C52 2394   6.585   4.980   2.501 -0.4009  0.2313  0.0906
    6CHTO   O35 2395   6.495   5.051   2.454 -0.5439  0.2324 -0.1548
    6CHTO   H71 2396   6.505   5.138   2.486 -0.1456 -0.4890  1.7646
    6CHTO   O28 2397   7.038   5.038   2.620  0.0965  0.0241 -0.1540
    6CHTO   C42 2398   7.049   5.169   2.690  0.2707  0.1232  0.0189
    6CHTO   H84 2399   7.009   5.245   2.623 -0.5337 -2.2911 -2.3488
    6CHTO   C44 2400   7.195   5.216   2.722 -0.2283 -0.0876 -0.0973
    6CHTO   H86 2401   7.249   5.143   2.783  0.8221 -0.0406 -0.9586
    6CHTO   O32 2402   7.275   5.214   2.600 -0.0374  0.3640  0.1359
    6CHTO   H69 2403   7.295   5.127   2.573 -0.4640 -0.0735  1.2039
    6CHTO   C48 2404   7.196   5.357   2.800 -0.8997  0.3673 -0.1045
    6CHTO   H90 2405   7.153   5.436   2.738 -3.3987 -0.5614  0.3825
    6CHTO    N9 2406   7.333   5.399   2.833  0.5191  0.2007  0.0039
    6CHTO   H77 2407   7.386   5.416   2.741  1.6479  0.1025  0.6183
    6CHTO   H78 2408   7.383   5.323   2.892  0.2190 -0.6127 -0.7898
    6CHTO   C51 2409   7.113   5.330   2.926  0.3921  0.1979  0.0634
    6CHTO   H93 2410   7.150   5.249   2.988 -1.6882 -0.1823  0.8307
    6CHTO   O30 2411   6.980   5.301   2.873  0.6986 -0.5596  0.1761
    6CHTO   C46 2412   6.963   5.173   2.821 -0.4527  0.2670  0.3605
    6CHTO   H88 2413   7.002   5.093   2.884  1.7312 -1.3500 -2.8945
    6CHTO   C53 2414   6.811   5.157   2.809 -0.6621 -0.1301 -0.2241
    6CHTO   O72 2415   6.758   5.263   2.726 -0.3699  0.1401 -0.4287
    6CHTO  H199 2416   6.762   5.348   2.766  0.4499  1.1719 -2.6377
    6CHTO   O22 2417   7.086   5.459   2.997 -0.0956  0.3988  0.1370
    6CHTO   C31 2418   7.021   5.453   3.131  0.5216 -0.4574  0.0941
    6CHTO   H59 2419   6.982   5.350   3.143  1.4998 -0.7970  0.3881
    6CHTO   C29 2420   7.114   5.482   3.249 -0.1593 -0.6928  0.4336
    6CHTO   H57 2421   7.174   5.572   3.227  0.0710 -0.7747  0.7186
    6CHTO   O21 2422   7.211   5.378   3.252 -0.3899 -0.0772 -0.2234
    6CHTO   H37 2423   7.167   5.296   3.268 -0.8840  0.6487  2.3960
    6CHTO   C27 2424   7.043   5.498   3.389 -0.6525  0.0360  0.7412
    6CHTO   H55 2425   7.000   5.400   3.414  1.1472 -1.2145 -0.9258
    6CHTO    N5 2426   7.137   5.532   3.499 -0.1243 -0.4607  0.0452
    6CHTO   H43 2427   7.198   5.446   3.523  0.0626  0.1444  1.7536
    6CHTO   H44 2428   7.081   5.572   3.582  0.0243 -1.2088  0.5178
    6CHTO   C25 2429   6.910   5.582   3.376 -0.6312  0.0190 -0.3504
    6CHTO   H53 2430   6.944   5.686   3.359 -3.1439  0.7457 -1.2516
    6CHTO   O17 2431   6.831   5.536   3.258 -0.0235  0.7960  0.0908
    6CHTO   C32 2432   6.896   5.548   3.135 -0.1511  0.3509  1.0527
    6CHTO   H60 2433   6.929   5.649   3.110  1.3495 -0.0777  1.2688
    6CHTO   C36 2434   6.794   5.521   3.022  0.3365 -0.5604 -0.5531
    6CHTO   O25 2435   6.691   5.619   3.024  0.2847  0.1592  0.7125
    6CHTO   H40 2436   6.615   5.587   3.067 -0.5949  0.6768 -0.4416
    6CHTO   O15 2437   6.806   5.568   3.518 -0.4722 -0.6612  0.0645
    6CHTO   C19 2438   6.703   5.666   3.540 -0.1941  0.7296  0.2989
    6CHTO   H47 2439   6.644   5.625   3.623  0.2509  1.8604  1.1879
    6CHTO   C20 2440   6.759   5.800   3.586 -0.1823  0.5121  0.7037
    6CHTO   H48 2441   6.839   5.837   3.520  0.1713 -1.4828 -0.0185
    6CHTO   O19 2442   6.820   5.774   3.712 -0.3047 -0.2890  0.0842
    6CHTO   H35 2443   6.762   5.745   3.780  1.3579 -1.6096  1.0093
    6CHTO   C21 2444   6.645   5.902   3.608 -0.4161 -0.8705 -0.3777
    6CHTO   H49 2445   6.589   5.871   3.696 -0.9463  0.5188 -0.2241
    6CHTO    N4 2446   6.690   6.039   3.632  0.0511  0.2455 -0.0604
    6CHTO   H41 2447   6.603   6.098   3.654 -1.0237 -1.6463  0.9450
    6CHTO   H42 2448   6.759   6.039   3.715 -2.1818 -2.9722  1.9550
    6CHTO   C22 2449   6.548   5.900   3.483 -0.1135  0.1940 -0.0450
    6CHTO   H50 2450   6.589   5.937   3.390 -0.4487 -2.2372 -1.1988
    6CHTO   O14 2451   6.493   5.766   3.462 -0.1997  0.3044  0.2818
    6CHTO   C23 2452   6.602   5.678   3.422 -0.0443 -0.5469 -0.6671
    6CHTO   H51 2453   6.649   5.725   3.334  1.8852 -3.4126 -1.2242
    6CHTO   C34 2454   6.554   5.542   3.374 -0.3789 -0.0057  0.6779
    6CHTO   O23 2455   6.460   5.537   3.266 -0.2865 -0.3813  0.0549
    6CHTO   H38 2456   6.461   5.454   3.223 -0.5219 -0.8528  0.9383
    6CHTO   O16 2457   6.433   5.984   3.507  0.5125  0.3759 -0.4347
    6CHTO   C24 2458   6.325   6.007   3.372 -0.4782  0.1712  0.7119
    6CHTO   H52 2459   6.317   5.921   3.305 -0.3870  1.6876 -1.2897
    6CHTO   C26 2460   6.359   6.133   3.291  0.0784  0.6023 -0.1900
    6CHTO   H54 2461   6.354   6.223   3.355 -0.3379  1.8520 -1.9369
    6CHTO   O20 2462   6.484   6.109   3.223 -0.1384  0.2499  0.5566
    6CHTO   H36 2463   6.509   6.191   3.185 -2.4210  0.0169 -1.5664
    6CHTO   C30 2464   6.248   6.158   3.184 -0.5228 -0.3151  0.2342
    6CHTO   H58 2465   6.262   6.075   3.112 -0.0859  0.1641 -0.2381
    6CHTO    N6 2466   6.271   6.298   3.122  0.5329  0.6263 -0.4681
    6CHTO   H45 2467   6.179   6.355   3.129 -1.4142 -2.4698  0.7402
    6CHTO   H46 2468   6.299   6.292   3.018  0.6296  3.5803 -0.6551
    6CHTO   C33 2469   6.108   6.142   3.243  0.2237  0.5275  0.6991
    6CHTO   H61 2470   6.091   6.224   3.315  1.2924  0.7127  0.7474
    6CHTO   O18 2471   6.101   6.025   3.319  0.1599  0.5795  0.2788
    6CHTO   C28 2472   6.186   6.020   3.433  0.6930  0.0630  0.0254
    6CHTO   H56 2473   6.186   6.116   3.485 -0.9245  1.0731 -1.7735
    6CHTO   C35 2474   6.154   5.899   3.528 -0.3389 -0.1783 -0.2548
    6CHTO   O24 2475   6.175   5.918   3.668  0.2126 -0.4342 -0.4319
    6CHTO   H39 2476   6.131   5.848   3.712 -2.8070  1.3029 -0.5934
    6CHTO    O9 2477   5.999   6.153   3.152 -0.4556 -0.5687 -0.8203
    6CHTO   C13 2478   5.848   6.144   3.247  0.6202 -0.3043 -0.3681
    6CHTO   H26 2479   5.869   6.190   3.345 -0.4360  0.4192 -0.4708
    6CHTO   C11 2480   5.797   5.995   3.261  0.5773  1.1803  0.2681
    6CHTO   H24 2481   5.876   5.939   3.313 -0.8018 -0.5856  0.4859
    6CHTO    O8 2482   5.787   5.935   3.127  0.2871  0.5727  0.3106
    6CHTO    H3 2483   5.788   5.841   3.139  0.4493  0.5459  0.0865
    6CHTO    C9 2484   5.662   5.981   3.336  0.3549 -0.2287  0.1677
    6CHTO   H22 2485   5.670   6.031   3.433  1.3609  0.1651 -0.1203
    6CHTO    N2 2486   5.613   5.841   3.366 -0.0889 -0.0138 -0.3558
    6CHTO   H10 2487   5.694   5.783   3.407 -0.9846 -0.6453  0.5409
    6CHTO   H11 2488   5.569   5.798   3.277 -0.1647  0.1596 -0.4026
    6CHTO    C7 2489   5.555   6.081   3.261 -0.2795 -0.1135 -0.2487
    6CHTO   H20 2490   5.505   6.146   3.337 -3.5105 -2.0797 -0.6219
    6CHTO    O4 2491   5.611   6.169   3.162  0.4930  0.1280  0.1671
    6CHTO   C14 2492   5.733   6.238   3.187  0.4017  0.1524  0.0269
    6CHTO   H27 2493   5.717   6.322   3.258  1.3159  0.5351 -0.2119
    6CHTO   C18 2494   5.771   6.301   3.046 -0.1991  0.3445 -0.0574
    6CHTO   O13 2495   5.681   6.410   3.021  0.0847  0.0181  0.5108
    6CHTO    H7 2496   5.734   6.486   3.032 -0.6997  0.5301  0.7848
    6CHTO    O2 2497   5.434   5.992   3.177 -0.0637  0.0815 -0.1427
    6CHTO    C1 2498   5.310   6.063   3.171 -0.4028  0.5848  0.3264
    6CHTO   H14 2499   5.318   6.170   3.198 -0.4512  0.6625  0.0337
    6CHTO    C2 2500   5.197   5.988   3.265 -0.5686 -0.5285  0.0719
    6CHTO   H15 2501   5.191   5.882   3.238 -0.7352 -0.6182  0.4578
    6CHTO    O6 2502   5.238   6.008   3.406 -0.2551  0.6012  0.2816
    6CHTO    H1 2503   5.301   5.943   3.431 -1.2476 -0.7927 -0.7704
    6CHTO    C3 2504   5.052   6.066   3.242 -0.0972 -0.0981  0.4823
    6CHTO   H16 2505   5.053   6.168   3.284 -0.5899  0.3430 -0.5761
    6CHTO    N1 2506   4.942   6.001   3.328  0.2134  0.0187 -0.2889
    6CHTO    H8 2507   4.901   6.075   3.395 -1.5976 -0.2109 -1.1220
    6CHTO    H9 2508   4.973   5.912   3.381 -0.4265 -0.4676 -0.7193
    6CHTO    C4 2509   5.022   6.078   3.086 -0.6235 -0.6584  0.4372
    6CHTO   H17 2510   4.991   5.984   3.041  0.8221 -0.5090 -0.9223
    6CHTO    O1 2511   5.130   6.140   3.016 -0.2085  0.3114  0.3934
    6CHTO    C5 2512   5.258   6.071   3.019 -0.8318 -0.3243 -0.1898
    6CHTO   H18 2513   5.252   5.967   2.986 -1.5350 -0.3475  0.0087
    6CHTO   C16 2514   5.360   6.152   2.931  0.3222 -0.1717 -0.4009
    6CHTO   O11 2515   5.339   6.150   2.787  1.1274 -0.0652  0.1338
    6CHTO    H5 2516   5.414   6.187   2.745 -0.5491  1.1017 -1.9925
    6CHTO    O3 2517   4.921   6.175   3.072 -0.3124 -0.2025 -0.3487
    6CHTO    C6 2518   4.838   6.167   2.948  0.8622 -0.1896 -0.2327
    6CHTO   H19 2519   4.778   6.257   2.953  4.5686  2.3137  1.9523
    6CHTO    C8 2520   4.917   6.166   2.817  0.0654  0.4067 -0.0988
    6CHTO   H21 2521   4.984   6.080   2.818 -1.6435 -1.0125 -2.5393
    6CHTO    O7 2522   4.984   6.288   2.820 -0.9968 -0.3379  0.0144
    6CHTO    H2 2523   5.055   6.277   2.759  1.3048  1.8304  2.2096
    6CHTO   C12 2524   4.825   6.144   2.685  0.2892  0.0965 -0.1506
    6CHTO   H25 2525   4.781   6.244   2.662  0.2729  0.0629 -0.2621
    6CHTO    N3 2526   4.901   6.091   2.561  1.4079 -0.5541  0.3217
    6CHTO   H12 2527   4.967   6.164   2.517 -1.1169  1.4019 -0.3878
    6CHTO   H13 2528   4.963   6.009   2.594  1.4343  0.0054  1.7037
    6CHTO   C15 2529   4.711   6.045   2.711  0.6055 -0.0238 -0.1511
    6CHTO   H28 2530   4.746   5.943   2.694 -2.1065 -0.7215 -1.8647
    6CHTO   O10 2531   4.595   6.062   2.616 -0.1961 -0.0303  0.1381
    6CHTO    H4 2532   4.577   6.154   2.613 -3.5572 -0.6070  0.0025
    6CHTO    O5 2533   4.645   6.061   2.840  0.5305 -0.0762 -0.0733
    6CHTO   C10 2534   4.736   6.050   2.950 -0.4737  0.4432 -0.2449
    6CHTO   H23 2535   4.796   5.959   2.936 -0.5508  0.1763  1.0767
    6CHTO   C17 2536   4.655   6.023   3.076  0.1935  0.2974  0.7186
    6CHTO   O12 2537   4.600   5.889   3.068  0.4678  0.2664  0.3465
    6CHTO    H6 2538   4.521   5.884   3.118  0.3025 -0.6093 -0.0061
    7CHTO  H203 2539   4.496   1.310   0.369  1.8859  1.0408 -0.4635
    7CHTO   O82 2540   4.536   1.248   0.311  0.1832 -0.0165 -0.5388
    7CHTO  C123 2541   4.626   1.306   0.217  0.1606 -0.1131 -0.5791
    7CHTO  H227 2542   4.601   1.262   0.120 -0.9209  2.2218 -1.3915
    7CHTO   O77 2543   4.585   1.450   0.214 -0.0266  0.0794  0.8385
    7CHTO  C118 2544   4.650   1.535   0.113  0.1927 -0.3000 -0.0051
    7CHTO  H222 2545   4.645   1.494   0.011 -0.2381 -0.3650  0.0451
    7CHTO  C125 2546   4.598   1.692   0.122 -0.2827  0.6755  0.0335
    7CHTO   O84 2547   4.458   1.701   0.110  0.1459 -0.2940  0.4041
    7CHTO  H205 2548   4.434   1.647   0.037  2.9461 -0.1107 -0.6650
    7CHTO  C114 2549   4.800   1.527   0.143 -0.4788 -0.3617  0.1803
    7CHTO  H218 2550   4.821   1.568   0.241 -1.0159 -0.7482  0.4615
    7CHTO  C116 2551   4.860   1.379   0.153  0.2897 -0.0851 -1.1799
    7CHTO  H220 2552   4.864   1.342   0.049 -2.3526  0.0820 -1.3713
    7CHTO   O79 2553   4.993   1.388   0.194 -0.3443 -0.2443 -0.3687
    7CHTO  H201 2554   5.045   1.317   0.161  2.4062  1.3297  0.3824
    7CHTO  C120 2555   4.778   1.276   0.248 -0.2277 -0.4048  0.6285
    7CHTO  H224 2556   4.799   1.304   0.353  0.0347 -1.0105  0.7348
    7CHTO   N21 2557   4.810   1.125   0.218 -0.1147  0.3042 -0.3800
    7CHTO  H211 2558   4.719   1.076   0.249 -1.0881  1.0318 -2.0339
    7CHTO  H212 2559   4.893   1.095   0.280  0.1940  3.0811  0.6088
    7CHTO   O75 2560   4.851   1.617   0.044 -0.8670 -0.3504  0.0943
    7CHTO  C112 2561   4.965   1.716   0.121 -0.1463  0.6979 -0.3705
    7CHTO  H216 2562   5.016   1.652   0.194 -1.2436  0.4165  0.1481
    7CHTO   O73 2563   4.906   1.830   0.183 -0.3160  0.0056  0.5233
    7CHTO  C113 2564   4.991   1.913   0.263 -0.3339  1.0375 -0.3926
    7CHTO  H217 2565   5.040   1.844   0.334 -0.7891  2.9372  1.8272
    7CHTO  C124 2566   4.911   2.003   0.357 -1.0763  0.0313 -0.0196
    7CHTO   O83 2567   4.990   2.086   0.446  0.3772 -0.1767  0.2722
    7CHTO  H204 2568   4.955   2.173   0.452 -0.1837 -0.4273  0.6853
    7CHTO  C109 2569   5.088   1.984   0.170 -0.0815 -0.4502 -0.2974
    7CHTO  H213 2570   5.031   2.054   0.107 -2.0474  0.6706  2.6424
    7CHTO  C110 2571   5.170   1.876   0.089 -0.3883  0.2828 -0.5939
    7CHTO  H214 2572   5.238   1.815   0.149 -0.2008  0.1123 -0.9762
    7CHTO   O78 2573   5.250   1.947  -0.007 -0.3825  0.7411  0.1880
    7CHTO  H200 2574   5.298   1.888  -0.061 -0.0957  0.6319  0.5608
    7CHTO  C111 2575   5.072   1.781   0.018 -0.6333 -0.4250 -0.4010
    7CHTO  H215 2576   5.025   1.834  -0.066 -0.3400 -0.6688 -0.7225
    7CHTO   N19 2577   5.144   1.669  -0.042 -0.2299 -0.1907  0.9123
    7CHTO  H207 2578   5.249   1.693  -0.037 -0.6806  1.9741  0.3336
    7CHTO  H208 2579   5.124   1.661  -0.148 -2.4652  0.0992  1.2997
    7CHTO   O74 2580   5.178   2.064   0.248  0.3435  0.1321 -0.3082
    7CHTO  C115 2581   5.222   2.202   0.190 -0.2940 -0.5602 -0.0024
    7CHTO  H219 2582   5.177   2.220   0.092  2.3645  0.3943 -1.1058
    7CHTO   O76 2583   5.177   2.318   0.280 -0.3791  0.1705 -0.5426
    7CHTO  C122 2584   5.235   2.312   0.412  0.3342  0.3432 -0.4784
    7CHTO  H226 2585   5.189   2.221   0.452 -2.6957  1.0419 -2.2388
    7CHTO  C126 2586   5.178   2.434   0.499 -0.7910  0.2813  0.3530
    7CHTO   O85 2587   5.212   2.560   0.453 -0.3894 -0.2977  0.0000
    7CHTO  H206 2588   5.231   2.620   0.522  1.8283  2.2765 -2.6625
    7CHTO  C121 2589   5.391   2.313   0.401 -0.6003 -0.5510 -0.3724
    7CHTO  H225 2590   5.431   2.409   0.362  1.7114 -1.2716  0.1364
    7CHTO   O81 2591   5.440   2.306   0.527  0.5655 -0.7083 -0.3141
    7CHTO  H202 2592   5.407   2.370   0.586  0.5033 -0.9011 -0.1394
    7CHTO  C119 2593   5.445   2.199   0.315 -0.4482 -0.6967  0.3524
    7CHTO  H223 2594   5.552   2.217   0.308 -0.9798  2.5901 -0.1621
    7CHTO  C117 2595   5.381   2.203   0.165  0.9338 -0.1783  0.1210
    7CHTO  H221 2596   5.392   2.122   0.093  1.9524  0.7098 -0.7497
    7CHTO   N20 2597   5.419   2.322   0.084  0.4786 -0.0649  0.3238
    7CHTO  H209 2598   5.497   2.390   0.113  0.4517  0.0671  0.0869
    7CHTO  H210 2599   5.439   2.284  -0.015  2.1511  1.6154  0.0025
    7CHTO   O80 2600   5.447   2.061   0.367 -0.4548 -0.2410 -0.1574
    7CHTO  C103 2601   5.503   1.936   0.296 -0.5829 -0.1649  0.2863
    7CHTO  H190 2602   5.452   1.918   0.202  1.1929  4.0789 -1.5950
    7CHTO  C101 2603   5.663   1.929   0.260 -0.0563 -0.1947  0.5430
    7CHTO  H188 2604   5.735   1.957   0.337  0.0301  1.0306  0.0218
    7CHTO   O68 2605   5.678   2.042   0.162  0.7776 -0.0814  0.0152
    7CHTO  H168 2606   5.615   2.044   0.092 -0.1235 -4.5351  0.5807
    7CHTO   C99 2607   5.704   1.792   0.191 -0.0716 -0.6289 -0.0660
    7CHTO  H186 2608   5.651   1.785   0.093 -2.5793 -0.8169  1.2724
    7CHTO   N17 2609   5.853   1.778   0.157 -0.2351  0.7789  0.0871
    7CHTO  H174 2610   5.876   1.852   0.082 -2.1775 -0.5416 -1.8915
    7CHTO  H175 2611   5.917   1.800   0.240 -1.1021 -1.1766  1.2979
    7CHTO   C97 2612   5.653   1.675   0.280  0.1792  0.3008  0.2782
    7CHTO  H184 2613   5.715   1.677   0.371 -0.1847  2.0520  0.5078
    7CHTO   O64 2614   5.510   1.692   0.315  0.1694  0.3057  0.6185
    7CHTO  C104 2615   5.478   1.813   0.388  0.5996 -0.8607  1.0000
    7CHTO  H191 2616   5.538   1.822   0.478  2.6631 -1.0849 -0.3174
    7CHTO  C108 2617   5.330   1.807   0.430 -0.4638  0.6978 -0.2590
    7CHTO   O71 2618   5.297   1.887   0.545 -0.4388  0.7398  0.4469
    7CHTO  H171 2619   5.346   1.851   0.616 -0.2859  0.3420  0.1409
    7CHTO   O62 2620   5.671   1.546   0.216 -0.2610 -0.0022  0.4563
    7CHTO   C91 2621   5.626   1.509   0.082  0.0150 -0.3651  0.0675
    7CHTO  H178 2622   5.635   1.596   0.018 -2.5410 -0.5437 -0.5726
    7CHTO   C92 2623   5.466   1.484   0.080 -0.3241 -0.1529  0.2436
    7CHTO  H179 2624   5.404   1.566   0.119  0.7900  1.0419 -0.4610
    7CHTO   O66 2625   5.426   1.485  -0.057 -0.2289  0.2926  0.2718
    7CHTO  H166 2626   5.488   1.435  -0.107  2.4074  1.8249  1.9004
    7CHTO   C93 2627   5.422   1.353   0.150 -0.1507 -0.0587 -0.1852
    7CHTO  H180 2628   5.328   1.316   0.107  0.0460 -0.3005 -0.4091
    7CHTO   N16 2629   5.406   1.358   0.301  0.6118 -0.2007  0.0110
    7CHTO  H172 2630   5.298   1.365   0.306  0.5218  0.5079 -2.3630
    7CHTO  H173 2631   5.465   1.438   0.342  1.4267 -1.0428  0.5145
    7CHTO   C94 2632   5.535   1.243   0.117 -0.3706 -0.2871  0.6670
    7CHTO  H181 2633   5.608   1.240   0.198 -0.9955 -0.5408  1.2215
    7CHTO   O61 2634   5.610   1.270  -0.006 -0.3288 -0.0191  0.1425
    7CHTO   C95 2635   5.696   1.383   0.007 -0.6688  0.4617 -0.5748
    7CHTO  H182 2636   5.785   1.365   0.067  0.7383  2.7100 -1.9134
    7CHTO  C106 2637   5.745   1.427  -0.132 -0.1795 -0.2060  0.4566
    7CHTO   O69 2638   5.807   1.319  -0.214 -0.3517 -0.1587  0.1026
    7CHTO  H169 2639   5.819   1.347  -0.302  2.0773 -3.4764 -0.7253
    7CHTO   O63 2640   5.478   1.109   0.105 -0.0783 -0.2007 -0.4613
    7CHTO   C96 2641   5.458   1.013   0.249 -0.4550 -0.0961 -0.1945
    7CHTO  H183 2642   5.448   1.081   0.334 -0.3139 -2.1992  1.5469
    7CHTO   C98 2643   5.582   0.926   0.283  0.2218  0.8438  0.0710
    7CHTO  H185 2644   5.668   0.994   0.295  2.0360 -1.3555 -0.0212
    7CHTO   O67 2645   5.565   0.869   0.418  0.0086  0.7183  0.2495
    7CHTO  H167 2646   5.526   0.935   0.472 -2.6484 -0.3620 -0.2739
    7CHTO  C102 2647   5.596   0.809   0.188  0.1379 -0.6192  0.2488
    7CHTO  H189 2648   5.661   0.733   0.235  3.3046 -0.2116 -3.2416
    7CHTO   N18 2649   5.662   0.844   0.059 -0.3577  0.3673 -0.6473
    7CHTO  H176 2650   5.751   0.901   0.084  2.1759 -3.3905 -0.5933
    7CHTO  H177 2651   5.687   0.759  -0.002 -4.9297 -0.7982 -1.0861
    7CHTO  C105 2652   5.457   0.734   0.166  0.4066  0.3666 -0.3191
    7CHTO  H192 2653   5.423   0.737   0.063 -2.9301  1.3368  0.7590
    7CHTO   O65 2654   5.348   0.786   0.245 -0.4239  0.3063 -0.2277
    7CHTO  C100 2655   5.329   0.926   0.219 -0.1428 -0.3938 -0.1694
    7CHTO  H187 2656   5.316   0.942   0.111 -0.9899  2.8188  0.3621
    7CHTO  C107 2657   5.206   0.987   0.300  0.0520 -0.1192 -0.4144
    7CHTO   O70 2658   5.082   0.921   0.258 -0.3379  0.4051  0.4824
    7CHTO  H170 2659   5.066   0.839   0.302  1.8429 -0.1891  0.2566
    7CHTO   O57 2660   5.469   0.591   0.211 -0.0819  0.2980 -0.3149
    7CHTO   C85 2661   5.495   0.493   0.107  0.0059  0.1482  0.0868
    7CHTO  H157 2662   5.556   0.543   0.028 -2.0319 -3.0504 -3.6393
    7CHTO   C83 2663   5.361   0.462   0.030  0.1077 -0.6037  0.4274
    7CHTO  H155 2664   5.315   0.555  -0.003  1.9361  0.0124 -0.4398
    7CHTO   O56 2665   5.272   0.399   0.128  0.3853 -0.6722  0.4397
    7CHTO  H135 2666   5.318   0.350   0.194 -0.4251  0.0536  1.5559
    7CHTO   C81 2667   5.393   0.372  -0.096  0.5002 -0.3975 -0.1295
    7CHTO  H153 2668   5.460   0.431  -0.160  1.3760 -1.5620 -0.3077
    7CHTO   N14 2669   5.277   0.359  -0.190 -0.7330 -0.1314 -1.0045
    7CHTO  H141 2670   5.220   0.273  -0.163 -0.1981  0.3918  1.9868
    7CHTO  H142 2671   5.215   0.444  -0.171 -0.9243 -0.6678  0.9456
    7CHTO   C79 2672   5.473   0.242  -0.050 -0.7430  0.8235 -0.1303
    7CHTO  H151 2673   5.508   0.192  -0.140  1.2198  0.8188  0.6059
    7CHTO   O52 2674   5.591   0.277   0.034 -0.5195  0.3250 -0.7671
    7CHTO   C86 2675   5.562   0.362   0.146  0.4182 -0.0455 -0.7818
    7CHTO  H158 2676   5.497   0.293   0.202  0.7277 -1.0394 -1.6302
    7CHTO   C90 2677   5.683   0.394   0.224  0.7840 -0.5464  0.7508
    7CHTO   O60 2678   5.740   0.285   0.297 -0.4430 -0.3442  0.4486
    7CHTO  H138 2679   5.690   0.252   0.370 -1.2967  2.0768  1.0180
    7CHTO   O50 2680   5.380   0.144   0.019 -0.1247 -0.0843  0.6252
    7CHTO   C73 2681   5.354   0.005   0.003  0.6098 -0.4174  0.1848
    7CHTO  H145 2682   5.373  -0.023  -0.101  1.9223  1.9036 -0.2352
    7CHTO   C74 2683   5.194  -0.009   0.030  0.0690  0.4038  0.1832
    7CHTO  H146 2684   5.139   0.052  -0.043 -1.3317  1.4961  2.0762
    7CHTO   O54 2685   5.167  -0.147  -0.000  0.6534 -0.5021 -0.7897
    7CHTO  H133 2686   5.169  -0.201   0.077  2.2883  0.9260  0.1965
    7CHTO   C75 2687   5.166   0.035   0.182 -0.9411 -0.0874  0.1845
    7CHTO  H147 2688   5.195   0.141   0.190 -4.0845  0.8853 -0.6761
    7CHTO   N13 2689   5.023   0.020   0.224 -0.6493 -0.2079 -0.3419
    7CHTO  H139 2690   5.029  -0.025   0.322  1.8141  0.5332 -0.1041
    7CHTO  H140 2691   4.970   0.113   0.233 -0.5141 -0.1743  0.1140
    7CHTO   C76 2692   5.276  -0.034   0.277 -0.3157 -0.2510  0.4463
    7CHTO  H148 2693   5.257  -0.142   0.275  1.9928 -0.6961  0.9221
    7CHTO   O49 2694   5.421  -0.021   0.238  0.2222  0.5038 -0.1035
    7CHTO   C77 2695   5.445  -0.072   0.107 -0.7314  0.4218 -0.5588
    7CHTO  H149 2696   5.434  -0.180   0.104  1.8279  0.0834  1.5499
    7CHTO   C88 2697   5.589  -0.045   0.066 -0.0308 -0.4242  0.0970
    7CHTO   O58 2698   5.671  -0.153   0.127 -0.2847 -0.1869  0.7861
    7CHTO  H136 2699   5.736  -0.180   0.065 -0.0501  2.0270  0.0316
    7CHTO   O51 2700   5.270   0.021   0.428 -0.4019  0.0505  0.7962
    7CHTO   C78 2701   5.345  -0.056   0.540 -0.3703  0.0080 -0.0959
    7CHTO  H150 2702   5.444  -0.090   0.506  1.2020  2.3958  1.8634
    7CHTO   C80 2703   5.267  -0.184   0.584 -0.2740 -0.2880 -0.2428
    7CHTO  H152 2704   5.162  -0.158   0.610 -0.0056 -1.2353  1.9562
    7CHTO   O55 2705   5.263  -0.271   0.476  0.3844 -0.0780 -0.0335
    7CHTO  H134 2706   5.222  -0.348   0.508  0.4917  0.4155  1.3299
    7CHTO   C84 2707   5.336  -0.251   0.707 -0.2385  0.1685  0.5526
    7CHTO  H156 2708   5.438  -0.280   0.680 -0.5962 -0.1180 -0.5362
    7CHTO   N15 2709   5.260  -0.373   0.750 -0.0848  0.4383 -0.2795
    7CHTO  H143 2710   5.219  -0.427   0.667  0.8158  0.0514 -0.4778
    7CHTO  H144 2711   5.179  -0.352   0.816  0.1011 -0.4226  0.2353
    7CHTO   C87 2712   5.348  -0.145   0.822 -0.1148  0.1591 -0.1748
    7CHTO  H159 2713   5.249  -0.113   0.853  0.0929  0.6498 -0.0024
    7CHTO   O53 2714   5.432  -0.018   0.769 -0.2758  0.4790 -0.4964
    7CHTO   C82 2715   5.364   0.044   0.657 -0.5626  0.3510  0.1374
    7CHTO  H154 2716   5.275   0.098   0.687  0.2446  1.1621  1.1443
    7CHTO   C89 2717   5.463   0.154   0.609  0.6121  0.1602 -0.3017
    7CHTO   O59 2718   5.421   0.239   0.506 -0.3819 -0.3153 -0.3661
    7CHTO  H137 2719   5.473   0.317   0.516 -0.6490 -0.3316  1.3184
    7CHTO   O45 2720   5.438  -0.195   0.941 -0.4769  0.5208  0.4630
    7CHTO   C67 2721   5.388  -0.149   1.069 -0.1307 -0.2805 -0.1567
    7CHTO  H124 2722   5.347  -0.048   1.074 -0.1877 -0.3643  1.1903
    7CHTO   C65 2723   5.276  -0.247   1.120  0.2895 -0.3384 -0.3150
    7CHTO  H122 2724   5.315  -0.346   1.094 -0.6985 -1.0524  0.8198
    7CHTO   O44 2725   5.153  -0.226   1.051 -0.2488  0.2914 -0.0753
    7CHTO  H102 2726   5.174  -0.243   0.961  2.7850  2.0091  0.2432
    7CHTO   C63 2727   5.261  -0.248   1.280  0.2961 -0.8560  0.1321
    7CHTO  H120 2728   5.337  -0.315   1.320 -0.0145 -1.3372 -0.0758
    7CHTO   N11 2729   5.137  -0.307   1.343 -0.3075  0.5455 -0.3460
    7CHTO  H108 2730   5.158  -0.344   1.442  0.8988  0.1438 -0.7386
    7CHTO  H109 2731   5.108  -0.396   1.291 -0.3667 -0.9653  2.1585
    7CHTO   C61 2732   5.315  -0.116   1.340  0.1262 -0.2566  0.2601
    7CHTO  H118 2733   5.317  -0.127   1.450 -0.5426  1.6650  0.4774
    7CHTO   O40 2734   5.453  -0.098   1.308 -0.2329  0.1346 -0.0825
    7CHTO   C68 2735   5.506  -0.153   1.181 -0.1340  0.6747 -0.3088
    7CHTO  H125 2736   5.538  -0.258   1.195  1.2855  1.0459 -0.6366
    7CHTO   C72 2737   5.634  -0.079   1.139 -0.2963  0.4542  0.2769
    7CHTO   O48 2738   5.702  -0.140   1.032  0.1797 -0.3068  0.4737
    7CHTO  H105 2739   5.786  -0.099   1.023  0.1353 -0.2385  0.3687
    7CHTO   O38 2740   5.219  -0.006   1.317 -0.3756  0.6859 -0.5053
    7CHTO   C55 2741   5.273   0.125   1.346 -0.1244  0.0069  0.3024
    7CHTO  H112 2742   5.382   0.120   1.331 -0.1484  0.6092 -0.0823
    7CHTO   C56 2743   5.237   0.179   1.493 -0.3003 -0.0658  0.2218
    7CHTO  H113 2744   5.128   0.170   1.502 -0.2893  0.0901  0.5274
    7CHTO   O42 2745   5.288   0.091   1.598  0.0332 -0.3400  0.4939
    7CHTO  H100 2746   5.222   0.025   1.608 -1.6046  0.9268 -1.5748
    7CHTO   C57 2747   5.305   0.321   1.499  1.1150 -0.5287  0.7363
    7CHTO  H114 2748   5.412   0.299   1.495  0.9837 -1.1894  0.8400
    7CHTO   N10 2749   5.290   0.388   1.632  0.4179 -0.3476 -0.2907
    7CHTO  H106 2750   5.277   0.316   1.712  0.8344 -1.0658 -0.8556
    7CHTO  H107 2751   5.372   0.456   1.651  1.5144 -1.6300 -0.2798
    7CHTO   C58 2752   5.260   0.424   1.390 -0.8679  0.3304 -0.4536
    7CHTO  H115 2753   5.157   0.458   1.415 -0.1821  0.8292  1.8496
    7CHTO   O37 2754   5.252   0.372   1.260  0.0860 -0.4571 -0.0220
    7CHTO   C59 2755   5.216   0.233   1.241 -0.6564  0.5200  0.4454
    7CHTO  H116 2756   5.109   0.217   1.234 -0.3131 -1.3690 -1.1087
    7CHTO   C70 2757   5.267   0.221   1.095 -0.1425  0.3726 -0.2876
    7CHTO   O46 2758   5.404   0.180   1.109  0.0422 -0.2146  0.1001
    7CHTO  H103 2759   5.451   0.219   1.038 -0.5237 -1.9325 -1.2644
    7CHTO   O39 2760   5.355   0.558   1.388  0.1967  0.1060 -0.2906
    7CHTO   C60 2761   5.477   0.559   1.313  0.0709  0.0719 -0.2002
    7CHTO  H117 2762   5.501   0.459   1.279  0.8582  0.1199  0.1900
    7CHTO   C62 2763   5.468   0.645   1.182  0.8881  0.5342 -0.3063
    7CHTO  H119 2764   5.394   0.596   1.117  1.3562  3.2678 -3.0196
    7CHTO   O43 2765   5.429   0.781   1.215  0.3088 -0.0048  0.2722
    7CHTO  H101 2766   5.374   0.820   1.150 -0.4566  2.1649  2.1501
    7CHTO   C66 2767   5.607   0.625   1.095 -0.5990 -0.4207 -0.1473
    7CHTO  H123 2768   5.619   0.520   1.071 -0.3722 -0.8922  1.9540
    7CHTO   N12 2769   5.609   0.702   0.970 -0.3841  0.5260 -0.3962
    7CHTO  H110 2770   5.606   0.805   1.004  3.5602  1.0446 -1.3739
    7CHTO  H111 2771   5.706   0.679   0.929  0.3316 -1.4221  2.3108
    7CHTO   C69 2772   5.728   0.660   1.193 -0.4069 -0.1963  0.3399
    7CHTO  H126 2773   5.717   0.770   1.209  1.6045  0.0994 -0.1844
    7CHTO   O41 2774   5.721   0.586   1.314  0.0104 -0.3059 -0.3818
    7CHTO   C64 2775   5.597   0.607   1.395  0.4887  0.3086 -0.0045
    7CHTO  H121 2776   5.578   0.715   1.416 -0.6922  0.1559 -0.2281
    7CHTO   C71 2777   5.617   0.536   1.531  0.3737 -0.4053  0.2737
    7CHTO   O47 2778   5.652   0.401   1.510 -0.9415 -1.4635 -1.0190
    7CHTO  H104 2779   5.744   0.383   1.507 -0.7622 -1.0162  0.8763
    7CHTO   O34 2780   5.879   0.631   1.114 -0.0867  0.0138 -0.2000
    7CHTO   C49 2781   5.959   0.500   1.052  0.2205 -0.0516 -0.0664
    7CHTO   H91 2782   5.923   0.494   0.949  1.2097  0.2790 -0.4364
    7CHTO   C47 2783   5.920   0.367   1.115  0.2284 -0.4508  0.3817
    7CHTO   H89 2784   5.963   0.293   1.044  0.7016  0.3064 -0.1293
    7CHTO   O33 2785   5.777   0.350   1.124 -0.1988  0.2885 -0.3218
    7CHTO   H70 2786   5.739   0.398   1.054  0.7743  2.4530  0.5958
    7CHTO   C45 2787   5.981   0.351   1.262  0.2228 -0.4310  0.3613
    7CHTO   H87 2788   5.949   0.440   1.317 -0.3315 -0.7699  0.5997
    7CHTO    N8 2789   5.948   0.231   1.347  0.4273 -0.0121 -0.1343
    7CHTO   H75 2790   5.847   0.199   1.324  0.5656 -0.6499  0.1291
    7CHTO   H76 2791   5.963   0.252   1.452  0.8518  2.7453 -0.7122
    7CHTO   C43 2792   6.137   0.378   1.254 -0.7669 -0.9693  0.3893
    7CHTO   H85 2793   6.178   0.379   1.356 -0.4323  1.1743  0.2465
    7CHTO   O29 2794   6.170   0.503   1.178  0.1300  0.8273 -0.3070
    7CHTO   C50 2795   6.109   0.527   1.050  0.2072 -0.7551 -0.3813
    7CHTO   H92 2796   6.126   0.629   1.011  0.2767 -1.4381 -2.1977
    7CHTO   C54 2797   6.177   0.446   0.941 -0.9752  0.0275 -0.5559
    7CHTO   O36 2798   6.295   0.499   0.880 -0.3439  0.6833 -0.2816
    7CHTO   H72 2799   6.342   0.540   0.950 -0.0297  2.4050 -1.4765
    7CHTO   O27 2800   6.193   0.265   1.185 -0.3863 -0.4435  0.8233
    7CHTO   C37 2801   6.299   0.168   1.163  0.4570  0.3647 -0.7950
    7CHTO   H79 2802   6.301   0.098   1.247  0.6972  0.1864 -0.9473
    7CHTO   C38 2803   6.267   0.111   1.022 -0.0278  0.8846  0.2904
    7CHTO   H80 2804   6.249   0.194   0.952 -1.1678  0.0596 -0.4016
    7CHTO   O31 2805   6.147   0.037   1.046  0.5768  0.1641  0.4534
    7CHTO   H68 2806   6.092   0.011   0.974  2.4863  0.4589 -1.1254
    7CHTO   C39 2807   6.379   0.018   0.966  0.7939  0.2616  0.5922
    7CHTO   H81 2808   6.399  -0.061   1.038  0.8905  0.0387  0.3195
    7CHTO    N7 2809   6.356  -0.043   0.831  0.1715  0.2021 -0.7426
    7CHTO   H73 2810   6.445  -0.068   0.774  0.5237  0.1717 -0.1775
    7CHTO   H74 2811   6.263  -0.020   0.782  0.0612 -0.4666 -0.8581
    7CHTO   C40 2812   6.509   0.102   0.984  0.0682  0.0843  0.6003
    7CHTO   H82 2813   6.492   0.184   0.915 -0.8781  0.6541  1.5052
    7CHTO   O26 2814   6.525   0.150   1.110 -0.2224  0.0474  0.0040
    7CHTO   C41 2815   6.425   0.242   1.158  0.1522  0.5529 -0.5448
    7CHTO   H83 2816   6.413   0.320   1.082 -2.9038  1.1827  0.5236
    7CHTO   C52 2817   6.480   0.302   1.292 -0.0514  0.3030 -0.1065
    7CHTO   O35 2818   6.604   0.410   1.262  0.7595 -0.4669 -0.1397
    7CHTO   H71 2819   6.674   0.361   1.222 -1.1858 -2.6572 -0.9894
    7CHTO   O28 2820   6.630   0.032   0.951 -0.3668 -0.1112 -0.1777
    7CHTO   C42 2821   6.731   0.099   0.862 -0.1133  0.2542  0.5157
    7CHTO   H84 2822   6.827   0.057   0.892 -1.1161 -1.5663  1.2670
    7CHTO   C44 2823   6.755   0.255   0.883  0.0987 -1.2583 -0.0752
    7CHTO   H86 2824   6.665   0.311   0.858  0.1044 -0.3263  1.8310
    7CHTO   O32 2825   6.789   0.278   1.020  0.5572  0.7625  0.2533
    7CHTO   H69 2826   6.838   0.224   1.079  0.6899  2.6507  1.9096
    7CHTO   C48 2827   6.865   0.314   0.787 -0.1894 -0.3203 -0.5077
    7CHTO   H90 2828   6.962   0.273   0.813  0.8076  1.1252 -1.8361
    7CHTO    N9 2829   6.886   0.465   0.805  0.1055  0.8151  0.3577
    7CHTO   H77 2830   6.799   0.530   0.801  0.6462  1.4057 -2.2031
    7CHTO   H78 2831   6.928   0.471   0.904  0.8465 -1.8751  0.2282
    7CHTO   C51 2832   6.811   0.271   0.638 -0.3827  0.1220 -0.0927
    7CHTO   H93 2833   6.715   0.319   0.623  0.9104  2.0876 -2.3954
    7CHTO   O30 2834   6.804   0.124   0.629  0.7137 -0.4000  0.3209
    7CHTO   C46 2835   6.713   0.057   0.714  0.3200  0.5184 -0.2021
    7CHTO   H88 2836   6.614   0.093   0.685 -0.0647 -0.5100 -0.1630
    7CHTO   C53 2837   6.742  -0.092   0.694 -0.2676  0.0428 -1.8000
    7CHTO   O72 2838   6.876  -0.131   0.734  0.0197  0.3329  0.2249
    7CHTO  H199 2839   6.921  -0.052   0.756  1.6017  0.0249 -1.7209
    7CHTO   O22 2840   6.908   0.319   0.538 -0.0828 -0.1837 -0.3150
    7CHTO   C31 2841   6.862   0.375   0.411  0.3479 -0.2443  0.0113
    7CHTO   H59 2842   6.957   0.393   0.357  1.2376 -2.2951  0.8449
    7CHTO   C29 2843   6.782   0.270   0.323  0.2622 -0.5584  0.0697
    7CHTO   H57 2844   6.713   0.239   0.402  0.0585  0.6808  0.3827
    7CHTO   O21 2845   6.867   0.156   0.292 -0.2910 -0.5766 -0.0831
    7CHTO   H37 2846   6.932   0.169   0.227 -0.1068  2.5483  0.6402
    7CHTO   C27 2847   6.706   0.335   0.200  0.1116  0.1426 -0.0111
    7CHTO   H55 2848   6.781   0.363   0.125  0.8636 -2.2786 -0.2282
    7CHTO    N5 2849   6.608   0.244   0.131  0.0350 -0.2649  0.4515
    7CHTO   H43 2850   6.524   0.219   0.194  0.3165  2.7879  2.1043
    7CHTO   H44 2851   6.577   0.289   0.038 -0.5569  0.0948  0.8227
    7CHTO   C25 2852   6.637   0.471   0.250 -0.9379  0.1628 -0.2846
    7CHTO   H53 2853   6.559   0.453   0.326 -0.8742  2.8947  0.4979
    7CHTO   O17 2854   6.725   0.562   0.311 -0.1933  0.0102 -0.2147
    7CHTO   C32 2855   6.788   0.512   0.428  0.4740 -0.1252  0.3380
    7CHTO   H60 2856   6.704   0.503   0.497 -2.1137  0.3564 -2.5774
    7CHTO   C36 2857   6.884   0.625   0.486 -0.1069  0.1120  0.1562
    7CHTO   O25 2858   7.002   0.642   0.401  0.0370 -0.0276 -0.2607
    7CHTO   H40 2859   7.010   0.581   0.330  0.6033  1.3058 -1.3753
    7CHTO   O15 2860   6.561   0.541   0.126  0.2715  0.1318  0.0381
    7CHTO   C19 2861   6.493   0.672   0.103  0.1727  0.3368  0.6684
    7CHTO   H47 2862   6.483   0.676  -0.007  0.1351  1.5026  0.7022
    7CHTO   C20 2863   6.351   0.688   0.157  0.3850  0.4271  0.1646
    7CHTO   H48 2864   6.350   0.680   0.267 -2.3671 -0.4624  0.1161
    7CHTO   O19 2865   6.281   0.580   0.110  0.2325  0.1211  0.0747
    7CHTO   H35 2866   6.215   0.565   0.175  1.6192 -0.8973  1.2690
    7CHTO   C21 2867   6.294   0.821   0.108 -0.0585  0.0281  0.3328
    7CHTO   H49 2868   6.286   0.810  -0.000 -1.7749  2.5968  0.1652
    7CHTO    N4 2869   6.152   0.844   0.145  0.1021  0.5076 -0.0659
    7CHTO   H41 2870   6.096   0.923   0.098  0.5642  1.3553  0.7935
    7CHTO   H42 2871   6.133   0.838   0.251  1.1030  0.2729  0.1071
    7CHTO   C22 2872   6.380   0.948   0.133  0.3961  0.2924  0.6554
    7CHTO   H50 2873   6.371   0.970   0.239 -1.5261  1.5382  0.2611
    7CHTO   O14 2874   6.519   0.922   0.102  0.1321  0.2292  0.5953
    7CHTO   C23 2875   6.581   0.797   0.138  0.4747  0.2729 -0.1478
    7CHTO   H51 2876   6.591   0.803   0.248  0.5557  1.4915 -0.2154
    7CHTO   C34 2877   6.714   0.789   0.066 -0.2130 -0.0689  0.5901
    7CHTO   O23 2878   6.806   0.892   0.113  0.2465  0.1471  0.3187
    7CHTO   H38 2879   6.878   0.904   0.054  0.7707 -3.1801  0.1453
    7CHTO   O16 2880   6.334   1.070   0.064  0.0128  0.1990  0.0094
    7CHTO   C24 2881   6.374   1.196   0.142 -0.1240 -0.6093 -0.4046
    7CHTO   H52 2882   6.413   1.173   0.242  0.0034 -2.1654 -0.8049
    7CHTO   C26 2883   6.242   1.269   0.180 -0.0470 -0.4405 -0.1730
    7CHTO   H54 2884   6.177   1.274   0.090 -0.2068 -1.7197 -0.1480
    7CHTO   O20 2885   6.175   1.187   0.280 -0.1134 -0.0397  0.1543
    7CHTO   H36 2886   6.186   1.213   0.369  0.2979  2.2821 -0.5384
    7CHTO   C30 2887   6.272   1.408   0.246 -0.6981 -0.4579  0.2180
    7CHTO   H58 2888   6.306   1.387   0.348 -2.9291 -2.5896  0.5680
    7CHTO    N6 2889   6.154   1.500   0.258  0.2493 -0.2080  0.3274
    7CHTO   H45 2890   6.058   1.451   0.251  0.5933 -0.7152 -0.9757
    7CHTO   H46 2891   6.153   1.567   0.343  1.5228  1.2512 -0.7813
    7CHTO   C33 2892   6.390   1.490   0.181 -0.0729 -0.5102  0.2221
    7CHTO   H61 2893   6.364   1.544   0.089  1.2398  0.1802  0.2364
    7CHTO   O18 2894   6.500   1.407   0.160 -0.0601  0.7623  0.8111
    7CHTO   C28 2895   6.482   1.291   0.073  0.0729 -0.4704 -0.2933
    7CHTO   H56 2896   6.442   1.324  -0.023 -0.9040  3.0120  1.2308
    7CHTO   C35 2897   6.617   1.235   0.043  0.8929  0.2973 -0.1538
    7CHTO   O24 2898   6.676   1.181   0.163  0.1316  0.4119 -0.1296
    7CHTO   H39 2899   6.716   1.098   0.146  1.5943  0.5958  2.1983
    7CHTO    O9 2900   6.424   1.598   0.277 -0.1057 -0.1547 -0.4065
    7CHTO   C13 2901   6.566   1.682   0.254  0.6316 -0.3881  0.2143
    7CHTO   H26 2902   6.586   1.676   0.145  2.0228 -0.8293  0.4858
    7CHTO   C11 2903   6.678   1.602   0.334 -0.1285 -0.5107  0.6627
    7CHTO   H24 2904   6.715   1.521   0.269 -2.3004  1.0557 -2.6926
    7CHTO    O8 2905   6.627   1.524   0.448 -0.0895 -0.0099 -0.1007
    7CHTO    H3 2906   6.693   1.475   0.492 -0.5963  0.1575  0.8552
    7CHTO    C9 2907   6.788   1.702   0.358 -0.4328 -0.5293 -0.7286
    7CHTO   H22 2908   6.814   1.742   0.259  0.1086  0.2370 -0.2718
    7CHTO    N2 2909   6.920   1.642   0.402  0.2235  0.6315  0.6566
    7CHTO   H10 2910   6.920   1.575   0.487 -0.3226  0.7023  0.7178
    7CHTO   H11 2911   6.991   1.620   0.324 -0.2098  1.1627  0.1072
    7CHTO    C7 2912   6.730   1.811   0.455 -0.1922  0.4706 -0.8479
    7CHTO   H20 2913   6.799   1.898   0.448  1.6099 -0.8613 -0.1615
    7CHTO    O4 2914   6.601   1.860   0.425  0.5200 -0.0802 -0.0974
    7CHTO   C14 2915   6.555   1.829   0.300  0.7293  0.2262 -0.0359
    7CHTO   H27 2916   6.617   1.895   0.236 -0.7319  1.4047 -0.2707
    7CHTO   C18 2917   6.404   1.884   0.286  0.2714 -0.2422  0.0627
    7CHTO   O13 2918   6.322   1.820   0.383 -0.8974 -0.0256  0.4828
    7CHTO    H7 2919   6.234   1.816   0.349 -1.1509  2.8534  0.6611
    7CHTO    O2 2920   6.726   1.761   0.611 -0.1639  0.0443  0.5121
    7CHTO    C1 2921   6.704   1.856   0.716 -0.5419  0.6061 -0.1494
    7CHTO   H14 2922   6.686   1.809   0.815 -3.4661 -1.4572 -1.5724
    7CHTO    C2 2923   6.581   1.958   0.696  0.2359  0.3702  0.0236
    7CHTO   H15 2924   6.603   2.015   0.605 -0.1735 -0.3172 -0.5075
    7CHTO    O6 2925   6.469   1.870   0.686 -0.2854  0.3869  0.4568
    7CHTO    H1 2926   6.397   1.921   0.653  0.0058  0.8762  0.5859
    7CHTO    C3 2927   6.576   2.051   0.819  0.1162 -0.5984 -0.7800
    7CHTO   H16 2928   6.566   2.005   0.919 -0.2370  0.1965 -0.4474
    7CHTO    N1 2929   6.465   2.150   0.803  0.4365  0.6930  0.3912
    7CHTO    H8 2930   6.436   2.184   0.901  1.9515  0.8795  0.7862
    7CHTO    H9 2931   6.385   2.093   0.758  0.4789  0.4821  0.5852
    7CHTO    C4 2932   6.711   2.132   0.833  0.2616 -0.2065  0.4556
    7CHTO   H17 2933   6.721   2.198   0.746  1.1785 -0.2627  0.5138
    7CHTO    O1 2934   6.825   2.046   0.831  0.2377  0.5413  0.1023
    7CHTO    C5 2935   6.834   1.941   0.733  0.3397 -0.3880 -0.3579
    7CHTO   H18 2936   6.863   1.985   0.637 -0.3454  0.6650 -0.1032
    7CHTO   C16 2937   6.949   1.847   0.774  0.0246  0.3757 -0.2768
    7CHTO   O11 2938   6.926   1.796   0.900 -0.1507 -0.3824  0.4821
    7CHTO    H5 2939   6.943   1.704   0.891 -0.1961 -0.3667  0.2441
    7CHTO    O3 2940   6.729   2.214   0.957 -0.2589  0.7711 -0.1289
    7CHTO    C6 2941   6.827   2.326   0.954 -0.0171 -0.4656  0.8695
    7CHTO   H19 2942   6.916   2.306   0.895 -0.0186  0.0058  0.7065
    7CHTO    C8 2943   6.775   2.455   0.883  0.8128  0.3237  0.2130
    7CHTO   H21 2944   6.674   2.473   0.921  0.4239 -0.9235 -0.2227
    7CHTO    O7 2945   6.757   2.426   0.745 -0.3693 -0.3410 -0.1806
    7CHTO    H2 2946   6.683   2.371   0.730 -0.7992  0.0682  0.4384
    7CHTO   C12 2947   6.861   2.576   0.912 -0.6420 -1.1226 -0.6056
    7CHTO   H25 2948   6.950   2.574   0.846 -0.2889  1.7800 -0.2880
    7CHTO    N3 2949   6.799   2.704   0.860  0.1972 -0.0037  0.4390
    7CHTO   H12 2950   6.696   2.703   0.894  0.1175 -0.9064  0.1878
    7CHTO   H13 2951   6.848   2.796   0.888 -2.4187  1.6026 -0.0996
    7CHTO   C15 2952   6.905   2.578   1.064 -0.0380  0.3443  0.9384
    7CHTO   H28 2953   6.819   2.607   1.124 -0.2765  0.2128  0.6621
    7CHTO   O10 2954   7.030   2.688   1.087  0.0911 -0.0190 -0.1521
    7CHTO    H4 2955   7.112   2.661   1.052 -0.7227 -3.5391  0.4146
    7CHTO    O5 2956   6.957   2.457   1.111 -0.1726  0.0894  0.4249
    7CHTO   C10 2957   6.873   2.344   1.101  0.1888 -0.5263  0.8588
    7CHTO   H23 2958   6.782   2.357   1.160 -1.7007 -1.2042 -1.7980
    7CHTO   C17 2959   6.959   2.228   1.158  0.0238 -0.6210 -0.3005
    7CHTO   O12 2960   6.878   2.117   1.179 -0.5103 -0.0891 -0.1710
    7CHTO    H6 2961   6.932   2.045   1.205 -0.0819  0.1897 -0.2989
    8CHTO  H203 2962   7.441   7.572   2.237 -1.7763 -1.6791 -0.5219
    8CHTO   O82 2963   7.384   7.647   2.236 -0.2207 -0.4555 -0.6208
    8CHTO  C123 2964   7.268   7.607   2.155 -0.3252 -0.0361  0.2633
    8CHTO  H227 2965   7.230   7.510   2.191  1.7527 -0.7753  0.5228
    8CHTO   O77 2966   7.167   7.702   2.196  0.0161 -0.4917  0.4234
    8CHTO  C118 2967   7.043   7.693   2.123 -0.4061  0.5911  0.0626
    8CHTO  H222 2968   7.004   7.593   2.146  1.1491 -0.0046  0.1875
    8CHTO  C125 2969   6.938   7.807   2.168 -0.4615 -0.0932  0.2257
    8CHTO   O84 2970   6.996   7.939   2.185  0.2531 -0.2772  1.0862
    8CHTO  H205 2971   6.928   7.998   2.211  0.2279 -0.3556  1.1988
    8CHTO  C114 2972   7.059   7.702   1.969  0.3750  0.4734  0.5736
    8CHTO  H218 2973   7.085   7.803   1.936  1.0595  0.4553  1.0479
    8CHTO  C116 2974   7.165   7.592   1.920  0.7291 -0.0549  0.1441
    8CHTO  H220 2975   7.122   7.489   1.912  0.9370 -0.1460  0.1890
    8CHTO   O79 2976   7.199   7.629   1.782 -0.1808 -0.1802 -0.2242
    8CHTO  H201 2977   7.235   7.557   1.733  0.2524  0.0180 -0.1962
    8CHTO  C120 2978   7.301   7.599   2.006  0.5936 -0.3212  0.2893
    8CHTO  H224 2979   7.342   7.695   1.970 -0.9586  0.5012  0.6916
    8CHTO   N21 2980   7.393   7.483   1.967  0.5010 -0.3450 -0.3105
    8CHTO  H211 2981   7.359   7.384   1.994 -0.0469 -0.2730 -0.7320
    8CHTO  H212 2982   7.493   7.503   2.004 -0.0729  1.4152  0.3810
    8CHTO   O75 2983   6.925   7.662   1.927 -0.3659 -0.4462 -0.0655
    8CHTO  C112 2984   6.845   7.784   1.845  0.1448 -0.4064  0.0379
    8CHTO  H216 2985   6.913   7.868   1.823  0.8479 -1.5973 -2.5102
    8CHTO   O73 2986   6.735   7.826   1.934 -0.2463 -0.4167  0.1748
    8CHTO  C113 2987   6.687   7.949   1.874 -0.7090 -0.0020 -0.0105
    8CHTO  H217 2988   6.772   8.012   1.842  1.2793 -1.0340  2.9771
    8CHTO  C124 2989   6.606   8.022   1.983  0.0467  0.3308  0.6486
    8CHTO   O83 2990   6.536   8.143   1.948  0.0785 -0.2257 -0.2787
    8CHTO  H204 2991   6.455   8.143   1.994  1.0979  3.8072  1.7124
    8CHTO  C109 2992   6.604   7.931   1.744 -0.2682  0.0435 -0.1974
    8CHTO  H213 2993   6.508   7.888   1.777  0.7842 -0.4391  2.3465
    8CHTO  C110 2994   6.698   7.853   1.646  0.3631  0.8925 -0.0442
    8CHTO  H214 2995   6.767   7.922   1.597  1.4479  0.0834  0.3329
    8CHTO   O78 2996   6.623   7.805   1.528  0.0310  0.6037  0.1180
    8CHTO  H200 2997   6.661   7.727   1.493  1.7227  1.0446  0.9182
    8CHTO  C111 2998   6.780   7.735   1.710 -0.5138 -0.6288  0.5469
    8CHTO  H215 2999   6.714   7.652   1.740  0.1188 -0.7625  1.6167
    8CHTO   N19 3000   6.886   7.677   1.621  0.0352  0.0073  0.2306
    8CHTO  H207 3001   6.884   7.572   1.593  1.2662  0.1604 -0.4810
    8CHTO  H208 3002   6.983   7.711   1.652 -0.4198  0.3146  1.3111
    8CHTO   O74 3003   6.574   8.056   1.674  0.2261 -0.4311 -0.0538
    8CHTO  C115 3004   6.442   8.042   1.575 -0.1547 -0.0247 -0.3478
    8CHTO  H219 3005   6.430   7.943   1.533 -0.6531  0.7853 -2.1705
    8CHTO   O76 3006   6.311   8.071   1.650 -0.3060  0.3637 -0.8080
    8CHTO  C122 3007   6.308   8.206   1.698  0.1792  0.2039 -0.7581
    8CHTO  H226 3008   6.396   8.220   1.760  0.1181 -0.8949 -0.4119
    8CHTO  C126 3009   6.180   8.228   1.796 -0.0139 -0.7502  0.2729
    8CHTO   O85 3010   6.191   8.156   1.916 -0.3455  0.1720 -0.1761
    8CHTO  H206 3011   6.274   8.178   1.955 -1.0373 -0.3690  1.6079
    8CHTO  C121 3012   6.318   8.311   1.585 -0.1279  0.2221  0.0466
    8CHTO  H225 3013   6.221   8.306   1.531  0.9274 -2.4940 -1.6948
    8CHTO   O81 3014   6.324   8.448   1.636 -0.3028  0.1186 -0.1643
    8CHTO  H202 3015   6.242   8.479   1.670 -0.0488 -0.2158  0.7958
    8CHTO  C119 3016   6.433   8.276   1.491  0.0375  0.5896 -0.4850
    8CHTO  H223 3017   6.427   8.343   1.405 -0.8635  2.4975  1.0446
    8CHTO  C117 3018   6.445   8.133   1.439  0.0069 -0.2678 -0.4128
    8CHTO  H221 3019   6.541   8.113   1.392 -0.0504 -0.2944 -0.5187
    8CHTO   N20 3020   6.345   8.102   1.328 -0.3709 -0.8323 -0.4656
    8CHTO  H209 3021   6.355   7.995   1.324  0.7381 -0.7623  0.2786
    8CHTO  H210 3022   6.244   8.122   1.363 -0.2256  2.1697 -1.5421
    8CHTO   O80 3023   6.580   8.312   1.558 -0.4549  0.1419  0.2838
    8CHTO  C103 3024   6.620   8.463   1.559  0.3691 -0.1061 -0.5763
    8CHTO  H190 3025   6.538   8.525   1.523  0.6253  0.6728  0.1563
    8CHTO  C101 3026   6.681   8.518   1.695  0.0328 -0.2204 -0.3413
    8CHTO  H188 3027   6.769   8.457   1.715  0.6610  1.1428  1.1387
    8CHTO   O68 3028   6.576   8.499   1.818 -0.3286 -0.2113 -0.9517
    8CHTO  H168 3029   6.505   8.560   1.825  0.1340  0.1120  1.2116
    8CHTO   C99 3030   6.728   8.666   1.680  0.0031 -0.3990 -0.8155
    8CHTO  H186 3031   6.637   8.724   1.654  0.3831 -0.3218 -2.0097
    8CHTO   N17 3032   6.789   8.731   1.802  0.2595 -0.7843  0.2900
    8CHTO  H174 3033   6.717   8.722   1.881  2.0467 -0.7400  1.9683
    8CHTO  H175 3034   6.797   8.837   1.782 -0.2913 -0.6372  0.8452
    8CHTO   C97 3035   6.816   8.693   1.559 -0.7299  0.5649 -0.3085
    8CHTO  H184 3036   6.918   8.657   1.576 -0.6519  0.7839 -0.3118
    8CHTO   O64 3037   6.754   8.633   1.439 -0.5481  1.2237 -0.0679
    8CHTO  C104 3038   6.737   8.489   1.456 -0.2389 -0.1571  0.4803
    8CHTO  H191 3039   6.824   8.432   1.488  0.0215 -0.6228 -1.0300
    8CHTO  C108 3040   6.694   8.432   1.323 -0.3829  0.4243  0.6809
    8CHTO   O71 3041   6.795   8.436   1.230 -0.0990 -0.4399  0.0922
    8CHTO  H171 3042   6.784   8.521   1.192 -3.1720 -1.0460 -0.5100
    8CHTO   O62 3043   6.808   8.830   1.521 -0.2264 -0.7989 -0.5197
    8CHTO   C91 3044   6.910   8.895   1.440  0.0308 -0.3659 -0.1202
    8CHTO  H178 3045   7.005   8.840   1.447  1.0721  1.3991 -0.1288
    8CHTO   C92 3046   6.944   9.031   1.506  0.6211  0.2167 -0.2461
    8CHTO  H179 3047   6.963   9.013   1.613  0.6089 -0.0600 -0.2920
    8CHTO   O66 3048   7.068   9.082   1.453 -0.0626  0.7301 -0.5202
    8CHTO  H166 3049   7.121   9.144   1.501  0.8565 -0.5418  0.1311
    8CHTO   C93 3050   6.841   9.147   1.483 -0.0360 -0.1970 -0.0239
    8CHTO  H180 3051   6.895   9.243   1.480 -1.7336  0.7808  0.1485
    8CHTO   N16 3052   6.752   9.161   1.598 -0.2695 -0.0430  0.3180
    8CHTO  H172 3053   6.681   9.242   1.585  0.5445  0.7622  0.8232
    8CHTO  H173 3054   6.793   9.160   1.698 -2.5668 -0.8348  1.3040
    8CHTO   C94 3055   6.775   9.132   1.340  0.7015  0.0226  0.9239
    8CHTO  H181 3056   6.676   9.085   1.346  1.5514 -2.1274 -1.0453
    8CHTO   O61 3057   6.855   9.056   1.246 -0.0710  0.1012 -0.5304
    8CHTO   C95 3058   6.863   8.915   1.285  0.2576 -0.3268 -0.1599
    8CHTO  H182 3059   6.763   8.873   1.269 -1.0551  1.8336  2.0455
    8CHTO  C106 3060   6.952   8.844   1.183  0.9924 -0.1000  0.4013
    8CHTO   O69 3061   6.960   8.700   1.190  0.0787  0.0604 -0.5379
    8CHTO  H169 3062   6.970   8.663   1.105 -0.3735 -2.3004  0.3988
    8CHTO   O63 3063   6.755   9.267   1.285  0.2395  0.1381 -0.0750
    8CHTO   C96 3064   6.659   9.274   1.144 -0.4020 -0.3980  0.0088
    8CHTO  H183 3065   6.645   9.173   1.105  1.3371  0.4296 -2.8796
    8CHTO   C98 3066   6.728   9.361   1.042 -0.1356 -0.0220  0.2095
    8CHTO  H185 3067   6.744   9.459   1.090  0.3154  0.1924 -0.3828
    8CHTO   O67 3068   6.856   9.307   1.013  0.6575 -0.4707 -0.4384
    8CHTO  H167 3069   6.921   9.341   1.071 -1.3916  0.8636  1.1594
    8CHTO  C102 3070   6.642   9.381   0.906  0.3749 -0.2617  0.2030
    8CHTO  H189 3071   6.654   9.282   0.859  1.1108 -0.1530  0.1674
    8CHTO   N18 3072   6.696   9.475   0.807  0.3847  0.4503 -0.2769
    8CHTO  H176 3073   6.752   9.419   0.733  0.3730  0.5774 -0.3810
    8CHTO  H177 3074   6.757   9.550   0.855 -0.2085  0.0209  1.1598
    8CHTO  C105 3075   6.494   9.407   0.938  0.3880  0.1481  0.0882
    8CHTO  H192 3076   6.480   9.514   0.957  2.0944 -0.0244  2.5462
    8CHTO   O65 3077   6.449   9.334   1.056  0.0800 -0.3982  0.1986
    8CHTO  C100 3078   6.524   9.338   1.182  0.1718 -0.6514  0.0516
    8CHTO  H187 3079   6.535   9.441   1.220  1.8548 -0.9587  0.4141
    8CHTO  C107 3080   6.458   9.272   1.305 -0.0624 -0.4063  0.3660
    8CHTO   O70 3081   6.434   9.134   1.275 -0.1548 -0.5251 -0.1183
    8CHTO  H170 3082   6.403   9.097   1.356  0.0706  1.2246  0.7770
    8CHTO   O57 3083   6.393   9.358   0.804 -0.6985 -0.2543 -0.6642
    8CHTO   C85 3084   6.314   9.450   0.733  0.1650  0.2501 -0.0025
    8CHTO  H157 3085   6.366   9.536   0.685 -1.3549 -0.1538 -2.5355
    8CHTO   C83 3086   6.226   9.520   0.845  0.8632  0.1799  0.4522
    8CHTO  H155 3087   6.286   9.585   0.908  0.8844 -2.1020  2.8447
    8CHTO   O56 3088   6.163   9.432   0.941 -0.9216 -0.2244  0.0405
    8CHTO  H135 3089   6.223   9.367   0.972 -1.5104 -1.6319 -1.6962
    8CHTO   C81 3090   6.114   9.610   0.783  0.1864 -0.1412 -0.1672
    8CHTO  H153 3091   6.164   9.679   0.715 -0.7247  1.8018  1.0983
    8CHTO   N14 3092   6.043   9.691   0.885 -0.0236 -0.2106 -0.4452
    8CHTO  H141 3093   6.111   9.765   0.921  0.6191 -0.9983 -0.0240
    8CHTO  H142 3094   5.954   9.742   0.855  1.1557  1.3873 -1.3297
    8CHTO   C79 3095   6.017   9.522   0.705  0.5908  0.4930  0.4255
    8CHTO  H151 3096   5.935   9.584   0.667 -0.8449 -2.2568 -1.1548
    8CHTO   O52 3097   6.094   9.470   0.590 -0.6527 -0.5210 -0.0114
    8CHTO   C86 3098   6.206   9.384   0.630  0.0977 -0.4295 -0.3095
    8CHTO  H158 3099   6.162   9.291   0.671  3.8753 -1.1756  2.2775
    8CHTO   C90 3100   6.277   9.335   0.502 -0.0486 -0.4771 -0.1150
    8CHTO   O60 3101   6.192   9.252   0.414  0.4441  0.1345  0.0401
    8CHTO  H138 3102   6.244   9.247   0.336 -1.4952 -3.2550 -1.1521
    8CHTO   O50 3103   5.946   9.411   0.771  0.9532 -0.2194  0.7577
    8CHTO   C73 3104   5.822   9.340   0.775  0.2406  0.1934  0.4657
    8CHTO  H145 3105   5.788   9.325   0.672  0.0292 -2.3299  0.8604
    8CHTO   C74 3106   5.710   9.420   0.861 -0.5198  0.3378 -0.4495
    8CHTO  H146 3107   5.712   9.518   0.811  0.6083  1.2378  1.2750
    8CHTO   O54 3108   5.576   9.361   0.843 -0.1986  0.0888  0.2406
    8CHTO  H133 3109   5.531   9.377   0.762 -0.4033 -1.5510  0.0224
    8CHTO   C75 3110   5.753   9.433   1.011 -0.5975  1.1326 -0.8027
    8CHTO  H147 3111   5.846   9.491   1.020  1.7820 -2.7030  1.1758
    8CHTO   N13 3112   5.655   9.512   1.090 -0.3704 -0.2631 -0.1437
    8CHTO  H139 3113   5.571   9.551   1.035 -1.7723  0.4271  2.4138
    8CHTO  H140 3114   5.715   9.591   1.134  0.3856  0.0293 -1.6753
    8CHTO   C76 3115   5.792   9.286   1.067 -0.2292  0.1509 -0.1925
    8CHTO  H148 3116   5.698   9.232   1.075 -1.3408  2.3208  1.8846
    8CHTO   O49 3117   5.883   9.217   0.972 -0.0420 -0.1226  0.3421
    8CHTO   C77 3118   5.842   9.205   0.837 -0.5281  0.6953 -0.4877
    8CHTO  H149 3119   5.746   9.153   0.837 -0.0203 -0.2789  1.5058
    8CHTO   C88 3120   5.945   9.120   0.765 -0.0019  0.3127  0.0464
    8CHTO   O58 3121   5.914   9.106   0.625 -0.4878 -0.3176 -0.3441
    8CHTO  H136 3122   5.917   9.195   0.595  1.1313 -0.2070  0.1300
    8CHTO   O51 3123   5.869   9.306   1.191 -0.6290  0.2371 -0.0187
    8CHTO   C78 3124   5.867   9.174   1.285 -0.2327 -0.3247 -0.0135
    8CHTO  H150 3125   5.848   9.079   1.229  4.3977 -1.5297  0.2243
    8CHTO   C80 3126   5.767   9.185   1.393  1.0226 -0.7261  0.6234
    8CHTO  H152 3127   5.774   9.287   1.436  0.3554 -0.2539 -0.3485
    8CHTO   O55 3128   5.640   9.187   1.326  0.2124  0.1900  0.2094
    8CHTO  H134 3129   5.632   9.266   1.277  1.4344 -0.8256 -1.6931
    8CHTO   C84 3130   5.773   9.078   1.511 -0.0292  0.3179  0.3668
    8CHTO  H156 3131   5.733   8.986   1.468 -1.3786  1.0764 -0.0314
    8CHTO   N15 3132   5.678   9.122   1.621 -0.2436  0.1683  0.2236
    8CHTO  H143 3133   5.616   9.206   1.598  0.0031  0.0151 -1.0184
    8CHTO  H144 3134   5.622   9.045   1.670 -0.0371 -0.3733 -0.3925
    8CHTO   C87 3135   5.921   9.051   1.547 -0.5450 -0.0827 -0.0779
    8CHTO  H159 3136   5.951   9.133   1.611  0.6379 -0.4638 -0.1448
    8CHTO   O53 3137   6.019   9.047   1.421  0.1081  0.1058  0.1476
    8CHTO   C82 3138   6.013   9.165   1.341  0.0865  0.7097  0.7793
    8CHTO  H154 3139   6.035   9.252   1.404 -1.3169 -0.3668  2.8029
    8CHTO   C89 3140   6.120   9.160   1.239 -0.4027 -0.8567  0.0398
    8CHTO   O59 3141   6.105   9.050   1.145 -0.1513 -0.0419 -0.4525
    8CHTO  H137 3142   6.133   8.974   1.192 -0.4370  1.3941  2.1176
    8CHTO   O45 3143   5.948   8.904   1.631 -0.0365 -0.0623  0.0721
    8CHTO   C67 3144   6.037   8.894   1.743  0.3549 -0.2902  0.1099
    8CHTO  H124 3145   6.013   8.794   1.781 -1.1709 -0.3565 -0.9972
    8CHTO   C65 3146   6.192   8.895   1.707  0.8337 -0.0797  0.0817
    8CHTO  H122 3147   6.190   8.938   1.607 -0.1063 -1.8849 -0.7141
    8CHTO   O44 3148   6.245   8.758   1.706 -0.2217  0.0232 -0.5916
    8CHTO  H102 3149   6.180   8.693   1.683  1.2081 -1.8028  0.4096
    8CHTO   C63 3150   6.277   9.003   1.797 -0.4806 -0.2367 -0.1072
    8CHTO  H120 3151   6.242   9.105   1.777 -1.1145 -0.4155  0.0679
    8CHTO   N11 3152   6.421   9.017   1.769 -0.5236  0.1290 -0.0715
    8CHTO  H108 3153   6.486   8.936   1.792  1.6969  1.7106 -0.5689
    8CHTO  H109 3154   6.436   9.033   1.664  0.8917  2.2255  0.4065
    8CHTO   C61 3155   6.234   8.979   1.950  0.0070  0.1848 -0.6204
    8CHTO  H118 3156   6.276   9.067   2.001 -1.7086  2.0945 -2.4227
    8CHTO   O40 3157   6.092   8.978   1.977 -0.4021 -0.2504 -0.5777
    8CHTO   C68 3158   5.998   8.998   1.861  0.2016 -0.0609  0.6864
    8CHTO  H125 3159   6.007   9.098   1.813  0.5164  0.6924  2.2945
    8CHTO   C72 3160   5.857   8.975   1.918  0.5010 -0.2524 -0.5533
    8CHTO   O48 3161   5.824   8.834   1.925  0.0996 -0.3018 -0.6113
    8CHTO  H105 3162   5.820   8.805   1.836  0.2207  0.6431 -0.9346
    8CHTO   O38 3163   6.293   8.857   2.000  0.4476  0.2868  0.2259
    8CHTO   C55 3164   6.383   8.884   2.112  0.0246  0.5990  0.3668
    8CHTO  H112 3165   6.442   8.971   2.078  0.4323  0.6742  1.2492
    8CHTO   C56 3166   6.471   8.755   2.115  0.4432  0.1168  0.3427
    8CHTO  H113 3167   6.515   8.748   2.014  0.7493  0.5285  0.4467
    8CHTO   O42 3168   6.579   8.768   2.205  0.0814 -0.3385  0.0719
    8CHTO  H100 3169   6.634   8.841   2.185 -0.5875  0.2928  0.5138
    8CHTO   C57 3170   6.380   8.630   2.157  0.0458  0.5568  0.6092
    8CHTO  H114 3171   6.434   8.595   2.245  2.6860  2.8059 -0.0358
    8CHTO   N10 3172   6.372   8.524   2.051 -0.8107 -0.4312  0.1518
    8CHTO  H106 3173   6.463   8.532   1.993 -0.8234  1.9903  0.4154
    8CHTO  H107 3174   6.362   8.425   2.094  3.8019 -0.5515  1.1146
    8CHTO   C58 3175   6.243   8.680   2.212  0.4058  0.3858 -0.5051
    8CHTO  H115 3176   6.177   8.706   2.127  0.7475 -2.1969 -1.6135
    8CHTO   O37 3177   6.261   8.797   2.306 -0.4682  0.3396  0.3471
    8CHTO   C59 3178   6.314   8.911   2.245 -0.5143  0.0042 -0.7297
    8CHTO  H116 3179   6.239   8.990   2.242 -1.1434 -0.6397 -2.7767
    8CHTO   C70 3180   6.412   8.966   2.346  0.1967  0.1283  0.0839
    8CHTO   O46 3181   6.476   9.087   2.299 -0.2764  0.0115  0.1044
    8CHTO  H103 3182   6.562   9.066   2.270  0.2502  3.5497 -1.1440
    8CHTO   O39 3183   6.167   8.562   2.286 -0.5481 -0.3148 -0.3959
    8CHTO   C60 3184   6.026   8.579   2.288 -0.0253 -0.5410  0.5628
    8CHTO  H117 3185   5.996   8.679   2.257 -0.7625 -0.7964  0.4322
    8CHTO   C62 3186   5.963   8.473   2.192  0.5093  0.5016  0.3890
    8CHTO  H119 3187   6.003   8.493   2.090  0.3433 -1.4575 -0.0804
    8CHTO   O43 3188   6.004   8.334   2.220 -0.1037 -1.0654 -0.2663
    8CHTO  H101 3189   6.039   8.302   2.139 -1.5720  1.6338 -2.0475
    8CHTO   C66 3190   5.798   8.484   2.198 -1.1385 -0.3688  1.1309
    8CHTO  H123 3191   5.768   8.584   2.167 -1.4652 -0.5426  0.8823
    8CHTO   N12 3192   5.715   8.393   2.108  0.6478 -0.2639  0.6147
    8CHTO  H110 3193   5.611   8.424   2.117  0.5439 -0.8728  1.5422
    8CHTO  H111 3194   5.750   8.376   2.007  1.3323  1.2370  0.5775
    8CHTO   C69 3195   5.769   8.468   2.347 -1.1642 -0.1915  0.5358
    8CHTO  H126 3196   5.801   8.366   2.380 -0.8579 -0.2654  0.0048
    8CHTO   O41 3197   5.847   8.581   2.430  0.0547 -0.5030 -0.2490
    8CHTO   C64 3198   5.969   8.564   2.432 -0.0792 -0.3265  0.5111
    8CHTO  H121 3199   5.994   8.463   2.470 -0.3147 -0.5837 -0.0111
    8CHTO   C71 3200   6.039   8.668   2.529  0.0566  0.1684  0.2832
    8CHTO   O47 3201   6.009   8.807   2.499 -0.2125 -0.3126 -0.1101
    8CHTO  H104 3202   5.965   8.811   2.417  0.2719 -1.3118 -0.4336
    8CHTO   O34 3203   5.619   8.486   2.382  0.0951  0.6364  0.0126
    8CHTO   C49 3204   5.529   8.618   2.400  0.2218  0.8366  0.1823
    8CHTO   H91 3205   5.540   8.655   2.502 -0.2516 -0.4791  0.7256
    8CHTO   C47 3206   5.380   8.584   2.372 -0.5843  0.2742 -0.0808
    8CHTO   H89 3207   5.320   8.677   2.380  0.8361  1.1158  1.2152
    8CHTO   O33 3208   5.333   8.490   2.464 -0.2053 -0.2873  0.0368
    8CHTO   H70 3209   5.241   8.472   2.459 -0.4086  0.7100  0.2040
    8CHTO   C45 3210   5.360   8.546   2.218  0.0167  0.5129 -0.1665
    8CHTO   H87 3211   5.435   8.468   2.201 -1.5533 -0.5408 -2.4227
    8CHTO    N8 3212   5.225   8.477   2.188  0.6224 -0.4592  0.5827
    8CHTO   H75 3213   5.239   8.419   2.098 -2.5988 -0.0185 -0.2425
    8CHTO   H76 3214   5.159   8.558   2.162  0.9640 -0.2218  0.4523
    8CHTO   C43 3215   5.398   8.678   2.136  0.2406 -0.0776  0.4588
    8CHTO   H85 3216   5.402   8.653   2.030  2.6155 -0.4036  0.5797
    8CHTO   O29 3217   5.529   8.722   2.176  0.0347 -0.4336  0.3149
    8CHTO   C50 3218   5.570   8.735   2.310  0.3542  0.4619 -0.1870
    8CHTO   H92 3219   5.680   8.738   2.310  0.4992 -2.9375  1.2209
    8CHTO   C54 3220   5.528   8.877   2.367  1.1179  0.3972  0.5468
    8CHTO   O36 3221   5.566   8.981   2.283 -0.0560 -0.3140 -0.4505
    8CHTO   H72 3222   5.653   8.999   2.313 -1.1593  1.5529  1.7807
    8CHTO   O27 3223   5.315   8.796   2.154  0.1040 -0.0453 -0.0240
    8CHTO   C37 3224   5.233   8.826   2.038 -0.2949 -0.1552 -1.2727
    8CHTO   H79 3225   5.214   8.737   1.978 -1.5319 -0.6349 -0.2074
    8CHTO   C38 3226   5.095   8.865   2.091  0.3019  0.0068 -0.1782
    8CHTO   H80 3227   5.117   8.951   2.156  1.8435  0.6409 -1.4918
    8CHTO   O31 3228   5.038   8.748   2.156  0.2091  0.1629 -0.0803
    8CHTO   H68 3229   5.082   8.731   2.237 -0.2370 -2.2475 -0.2872
    8CHTO   C39 3230   4.998   8.926   1.977  0.2430  0.1275  0.2946
    8CHTO   H81 3231   4.970   8.844   1.911  1.2859  0.4122 -0.5112
    8CHTO    N7 3232   4.869   8.985   2.030 -0.2534 -0.8525 -0.2972
    8CHTO   H73 3233   4.886   9.001   2.136  2.1822  0.2958 -0.8306
    8CHTO   H74 3234   4.782   8.926   2.007 -0.4883 -2.1119  3.4325
    8CHTO   C40 3235   5.077   9.030   1.881  0.3192 -0.1049 -0.5566
    8CHTO   H82 3236   5.082   9.130   1.924  0.1691 -1.0216  1.6475
    8CHTO   O26 3237   5.203   8.983   1.843  0.3937 -0.0461 -0.3533
    8CHTO   C41 3238   5.293   8.950   1.951 -0.3148 -1.0727 -0.2808
    8CHTO   H83 3239   5.313   9.041   2.009 -0.4605 -1.9496  1.1692
    8CHTO   C52 3240   5.426   8.928   1.888  0.3526 -0.0980 -0.5960
    8CHTO   O35 3241   5.433   8.836   1.786  0.2208  0.4242  0.4624
    8CHTO   H71 3242   5.372   8.767   1.807  0.4643  0.2077  0.4737
    8CHTO   O28 3243   5.011   9.049   1.752  0.0134 -0.2806 -0.2418
    8CHTO   C42 3244   5.028   9.163   1.662  0.2772  0.2011  0.0048
    8CHTO   H84 3245   5.094   9.225   1.723  1.8777 -0.5839 -0.9090
    8CHTO   C44 3246   4.898   9.245   1.638 -0.6999  0.1645  0.2287
    8CHTO   H86 3247   4.824   9.173   1.601  0.3736  0.0740 -1.8316
    8CHTO   O32 3248   4.868   9.310   1.761 -0.0699 -0.1392 -0.7414
    8CHTO   H69 3249   4.785   9.272   1.781  0.5251 -0.5224  1.0667
    8CHTO   C48 3250   4.923   9.360   1.533  0.2031 -0.6798 -1.1185
    8CHTO   H90 3251   4.984   9.438   1.579 -1.5230  0.0987 -0.1092
    8CHTO    N9 3252   4.791   9.430   1.495 -0.0280 -0.1460 -0.5449
    8CHTO   H77 3253   4.708   9.361   1.490 -0.4772  0.5124 -3.3439
    8CHTO   H78 3254   4.799   9.492   1.407 -0.8678  0.6722 -0.0645
    8CHTO   C51 3255   5.001   9.293   1.407  0.2455  0.4026  0.3722
    8CHTO   H93 3256   4.939   9.210   1.375  0.9057 -0.8630  2.2891
    8CHTO   O30 3257   5.124   9.253   1.461 -0.2400  0.4456  0.3485
    8CHTO   C46 3258   5.111   9.130   1.533 -0.0748 -0.2054  0.6448
    8CHTO   H88 3259   5.055   9.058   1.474 -1.8485  0.8228  1.0455
    8CHTO   C53 3260   5.257   9.093   1.578  0.0255 -0.5206 -0.3540
    8CHTO   O72 3261   5.346   9.038   1.479 -0.2526  0.0770  0.1666
    8CHTO  H199 3262   5.358   9.091   1.403 -0.3532  0.9375  0.7439
    8CHTO   O22 3263   5.032   9.378   1.292 -0.5367 -0.2198 -0.1027
    8CHTO   C31 3264   5.071   9.318   1.159  0.0154  0.2216 -0.2073
    8CHTO   H59 3265   5.077   9.405   1.091 -1.4849  0.0031 -0.6441
    8CHTO   C29 3266   5.214   9.253   1.177 -0.0003  0.3136  1.0852
    8CHTO   H57 3267   5.195   9.169   1.245 -1.0895 -1.1029 -0.8868
    8CHTO   O21 3268   5.312   9.341   1.228 -0.8864  0.5092 -0.0844
    8CHTO   H37 3269   5.278   9.381   1.306 -0.4733  0.3811  0.1589
    8CHTO   C27 3270   5.256   9.195   1.037 -1.0316 -0.4689  0.2330
    8CHTO   H55 3271   5.282   9.285   0.978 -1.7885 -0.3817  0.0317
    8CHTO    N5 3272   5.378   9.115   1.047 -0.1280  0.3255 -0.8498
    8CHTO   H43 3273   5.429   9.117   0.952 -0.4856  0.2452 -1.0443
    8CHTO   H44 3274   5.355   9.012   1.071 -0.8169  0.7354  0.2711
    8CHTO   C25 3275   5.146   9.107   0.970  0.0427 -0.1718 -0.6935
    8CHTO   H53 3276   5.121   9.010   1.015 -0.4225 -0.4218 -1.4681
    8CHTO   O17 3277   5.018   9.175   0.965  0.0241  0.2139 -0.0360
    8CHTO   C32 3278   4.965   9.214   1.094 -0.3107 -0.0854  0.6806
    8CHTO   H60 3279   4.949   9.134   1.166 -2.1841 -0.2484  0.1050
    8CHTO   C36 3280   4.832   9.278   1.065  0.0778  0.3805 -0.3210
    8CHTO   O25 3281   4.769   9.338   1.178 -0.1937 -0.2703  0.0558
    8CHTO   H40 3282   4.762   9.268   1.240 -2.8395 -0.6231 -0.5536
    8CHTO   O15 3283   5.178   9.080   0.821 -0.2464 -0.1855 -0.3063
    8CHTO   C19 3284   5.234   9.082   0.680  0.5188  0.5943 -0.2277
    8CHTO   H47 3285   5.182   9.003   0.625  2.0799  0.2934 -1.3143
    8CHTO   C20 3286   5.196   9.217   0.612 -0.3383  0.3103 -1.0105
    8CHTO   H48 3287   5.235   9.302   0.670 -0.5625 -0.1923 -0.1008
    8CHTO   O19 3288   5.056   9.229   0.606 -0.0308  0.6409 -0.6159
    8CHTO   H35 3289   5.031   9.197   0.522 -0.1258 -2.3388  0.4765
    8CHTO   C21 3290   5.258   9.227   0.467  0.5822 -0.3006  0.7447
    8CHTO   H49 3291   5.206   9.156   0.402 -0.0734 -0.3756  1.3519
    8CHTO    N4 3292   5.234   9.359   0.394 -0.2646  0.1693  0.0617
    8CHTO   H41 3293   5.318   9.394   0.335  0.4599  1.6547  1.9363
    8CHTO   H42 3294   5.215   9.431   0.472 -3.3124 -0.7317  0.1953
    8CHTO   C22 3295   5.411   9.177   0.467  0.5176  0.0959 -0.4029
    8CHTO   H50 3296   5.458   9.247   0.536 -1.2714 -1.4492  2.5315
    8CHTO   O14 3297   5.419   9.048   0.527 -0.4962 -0.1733  0.0662
    8CHTO   C23 3298   5.383   9.040   0.665  0.7816  0.3457  0.0129
    8CHTO   H51 3299   5.449   9.100   0.730 -0.4476  1.7781 -0.0170
    8CHTO   C34 3300   5.395   8.893   0.710  0.0141 -0.3182 -0.0888
    8CHTO   O23 3301   5.529   8.841   0.711  0.5354 -0.1283 -0.3980
    8CHTO   H38 3302   5.590   8.913   0.714 -2.2784  2.3507 -0.2261
    8CHTO   O16 3303   5.469   9.177   0.338  0.3111 -0.1052 -0.1328
    8CHTO   C24 3304   5.637   9.148   0.352  0.9069  0.8670  0.4448
    8CHTO   H52 3305   5.672   9.160   0.455 -1.1667  0.4185  1.2386
    8CHTO   C26 3306   5.715   9.254   0.267 -0.1501  0.1090 -0.0372
    8CHTO   H54 3307   5.683   9.250   0.161  1.1741  0.2836 -0.4575
    8CHTO   O20 3308   5.686   9.387   0.312 -0.6929  0.4465 -0.1441
    8CHTO   H36 3309   5.694   9.442   0.236 -1.3877  1.0559  0.2205
    8CHTO   C30 3310   5.871   9.231   0.264  0.1575  0.1419 -0.2564
    8CHTO   H58 3311   5.912   9.238   0.365 -1.1554 -1.7701  0.4237
    8CHTO    N6 3312   5.948   9.322   0.174  0.1683  0.6251  0.0991
    8CHTO   H45 3313   6.005   9.383   0.242 -0.3721 -0.5925  1.6855
    8CHTO   H46 3314   5.892   9.378   0.101 -1.6431 -2.9199 -1.3385
    8CHTO   C33 3315   5.897   9.084   0.222  0.5123  0.3698 -0.4642
    8CHTO   H61 3316   5.856   9.066   0.121  0.5482  0.2849 -0.4638
    8CHTO   O18 3317   5.831   8.998   0.317 -0.3288 -0.7451 -0.0772
    8CHTO   C28 3318   5.685   9.004   0.305 -0.5302 -0.4256 -0.8125
    8CHTO   H56 3319   5.662   8.976   0.202  0.9706 -2.4192 -0.6402
    8CHTO   C35 3320   5.636   8.893   0.387  0.6036  0.5161  0.6209
    8CHTO   O24 3321   5.651   8.767   0.318  0.7874  0.2955 -0.5529
    8CHTO   H39 3322   5.562   8.747   0.293  0.3821  0.9290  0.3259
    8CHTO    O9 3323   6.036   9.047   0.212 -0.2552 -0.8007 -0.4506
    8CHTO   C13 3324   6.048   8.895   0.160 -0.2365  0.2805 -0.2133
    8CHTO   H26 3325   5.953   8.839   0.152  0.1929 -0.4489 -0.1686
    8CHTO   C11 3326   6.153   8.818   0.253 -0.5640 -0.0106 -0.4025
    8CHTO   H24 3327   6.100   8.803   0.348  0.1444 -0.4750 -0.0718
    8CHTO    O8 3328   6.283   8.876   0.278 -0.1058 -0.1715 -0.1345
    8CHTO    H3 3329   6.330   8.916   0.207 -1.0140  0.3555 -0.4401
    8CHTO    C9 3330   6.165   8.673   0.185  0.2069  0.2195 -0.6011
    8CHTO   H22 3331   6.064   8.643   0.154 -0.0955  0.7520 -0.1241
    8CHTO    N2 3332   6.226   8.573   0.279 -0.1178  0.1131  0.7998
    8CHTO   H10 3333   6.271   8.603   0.372  1.3906 -0.0981  0.1584
    8CHTO   H11 3334   6.291   8.508   0.221 -1.1241  1.8855 -2.4714
    8CHTO    C7 3335   6.223   8.685   0.044 -0.1330 -0.5124  0.6812
    8CHTO   H20 3336   6.205   8.581   0.007 -0.8951 -0.2851  0.4042
    8CHTO    O4 3337   6.148   8.769  -0.044 -0.0360  0.3727 -0.4462
    8CHTO   C14 3338   6.103   8.895   0.011 -0.7425  0.5909  0.4366
    8CHTO   H27 3339   6.011   8.921  -0.046  1.0460  3.2043 -1.4057
    8CHTO   C18 3340   6.198   9.011  -0.019 -0.5826  0.0881 -0.4918
    8CHTO   O13 3341   6.194   9.042  -0.160 -0.3862 -0.1964 -0.2124
    8CHTO    H7 3342   6.196   8.965  -0.213  2.0722 -0.4440  0.2061
    8CHTO    O2 3343   6.362   8.717   0.036  0.8131  0.0124 -0.3570
    8CHTO    C1 3344   6.428   8.743  -0.089 -0.6291  0.9093  0.3062
    8CHTO   H14 3345   6.370   8.818  -0.147 -0.4257 -0.7776 -2.1307
    8CHTO    C2 3346   6.440   8.610  -0.180  0.8858  0.4737 -0.8363
    8CHTO   H15 3347   6.486   8.531  -0.118  0.9699  3.5172  3.2351
    8CHTO    O6 3348   6.303   8.570  -0.218 -0.2228 -0.5554  0.2411
    8CHTO    H1 3349   6.306   8.499  -0.280 -1.5338  0.5479 -1.1167
    8CHTO    C3 3350   6.525   8.662  -0.311  0.1792  0.7304  0.4986
    8CHTO   H16 3351   6.460   8.728  -0.370  0.5642  0.6541 -0.0139
    8CHTO    N1 3352   6.566   8.550  -0.399  0.1266 -0.5059  0.4457
    8CHTO    H8 3353   6.535   8.453  -0.362 -0.0861  0.0152  1.6540
    8CHTO    H9 3354   6.673   8.555  -0.401  0.0862  1.6684  1.9674
    8CHTO    C4 3355   6.654   8.750  -0.277  1.0810 -0.2177 -0.3794
    8CHTO   H17 3356   6.730   8.688  -0.230 -0.7515  0.2930  3.4451
    8CHTO    O1 3357   6.618   8.854  -0.185  0.6974 -0.5887 -0.4011
    8CHTO    C5 3358   6.567   8.803  -0.059 -0.0921 -0.0446 -0.0495
    8CHTO   H18 3359   6.639   8.728  -0.025 -1.3680 -1.6829 -0.9013
    8CHTO   C16 3360   6.561   8.928   0.042  0.1273 -0.3013  0.6139
    8CHTO   O11 3361   6.695   8.968   0.085  0.1610  0.8081  0.0833
    8CHTO    H5 3362   6.743   8.992   0.009  1.0874 -0.5944  0.1883
    8CHTO    O3 3363   6.702   8.823  -0.392 -0.7393 -0.7328 -0.2061
    8CHTO    C6 3364   6.837   8.876  -0.393  0.0597  0.0605 -0.7077
    8CHTO   H19 3365   6.881   8.890  -0.294  0.5392  0.0517 -0.9178
    8CHTO    C8 3366   6.935   8.791  -0.468 -0.1486  0.2860  0.2479
    8CHTO   H21 3367   6.891   8.763  -0.563 -0.8716 -3.6752  1.6493
    8CHTO    O7 3368   6.939   8.673  -0.385  1.1520 -0.0433 -0.0768
    8CHTO    H2 3369   6.866   8.618  -0.406  1.1249 -0.0716  0.0929
    8CHTO   C12 3370   7.077   8.860  -0.495  0.1883 -0.3469  0.3480
    8CHTO   H25 3371   7.136   8.882  -0.404  3.6178  3.1308 -2.5168
    8CHTO    N3 3372   7.160   8.768  -0.576  0.2386 -0.0121 -0.3692
    8CHTO   H12 3373   7.116   8.670  -0.591  0.1380  0.0294 -0.3457
    8CHTO   H13 3374   7.187   8.824  -0.665 -2.0894  3.1694  0.8431
    8CHTO   C15 3375   7.051   9.001  -0.559  0.7125  0.3116 -0.8738
    8CHTO   H28 3376   7.017   8.996  -0.663 -1.4568  1.9383 -0.2733
    8CHTO   O10 3377   7.191   9.098  -0.541 -0.1120 -0.0500  0.1274
    8CHTO    H4 3378   7.235   9.087  -0.459 -0.6215  1.0766  0.5622
    8CHTO    O5 3379   6.961   9.072  -0.476 -0.1698 -0.0218  0.0003
    8CHTO   C10 3380   6.826   9.021  -0.463 -0.1973 -0.4658  0.1611
    8CHTO   H23 3381   6.783   9.012  -0.563 -0.5789  2.1935  0.0561
    8CHTO   C17 3382   6.748   9.124  -0.379 -0.4755  0.1036 -0.1860
    8CHTO   O12 3383   6.705   9.242  -0.444 -0.3083 -0.1374  0.1487
    8CHTO    H6 3384   6.688   9.312  -0.384 -1.2556 -0.5249  0.3388
    9CHTO  H203 3385   6.556   3.024   1.828 -1.2131  0.6721  0.1034
    9CHTO   O82 3386   6.557   3.086   1.757  0.1208  0.2758 -0.2377
    9CHTO  C123 3387   6.523   3.019   1.640  0.4578  0.0940  0.1884
    9CHTO  H227 3388   6.451   2.939   1.662  0.7909  0.2478  1.9123
    9CHTO   O77 3389   6.468   3.119   1.556 -0.0056 -0.1091 -0.5546
    9CHTO  C118 3390   6.405   3.073   1.438 -0.1873  0.4568 -0.3228
    9CHTO  H222 3391   6.332   2.992   1.453 -1.1587  0.8962 -2.4343
    9CHTO  C125 3392   6.321   3.192   1.384 -0.3891 -0.5274  0.3307
    9CHTO   O84 3393   6.228   3.155   1.278  0.2575  0.6420 -0.5321
    9CHTO  H205 3394   6.180   3.234   1.258 -0.0871  0.5530 -0.0558
    9CHTO  C114 3395   6.511   3.024   1.343 -0.1202  0.8334  0.0260
    9CHTO  H218 3396   6.580   3.105   1.318 -0.3393  0.9012 -0.3713
    9CHTO  C116 3397   6.599   2.918   1.412  0.4544 -0.3970  0.2033
    9CHTO  H220 3398   6.541   2.824   1.414  1.4020 -0.9682  2.7076
    9CHTO   O79 3399   6.715   2.892   1.328  0.3240 -0.2050  0.1118
    9CHTO  H201 3400   6.693   2.843   1.251  1.1253 -0.8522  0.2881
    9CHTO  C120 3401   6.643   2.963   1.559  0.2201 -0.2167  0.1854
    9CHTO  H224 3402   6.715   3.046   1.539  1.5403 -1.1366  1.0831
    9CHTO   N21 3403   6.713   2.861   1.636 -0.0014  0.1389 -0.3246
    9CHTO  H211 3404   6.793   2.901   1.696 -0.5249  0.2786  0.2868
    9CHTO  H212 3405   6.651   2.800   1.701  0.6752  0.4064  0.5926
    9CHTO   O75 3406   6.437   2.976   1.233 -0.5344  0.6113  0.3086
    9CHTO  C112 3407   6.516   2.997   1.086  0.9291  0.4886 -0.2056
    9CHTO  H216 3408   6.604   2.931   1.088 -0.3305 -1.2947 -1.6464
    9CHTO   O73 3409   6.555   3.132   1.082 -0.0801  0.0333 -0.1751
    9CHTO  C113 3410   6.643   3.165   0.973 -0.1939 -0.5422 -0.5694
    9CHTO  H217 3411   6.727   3.093   0.963 -0.7352 -1.8398  3.4003
    9CHTO  C124 3412   6.709   3.307   1.009 -0.2123  0.0468 -0.7235
    9CHTO   O83 3413   6.624   3.418   1.005 -0.0390 -0.5452  0.3706
    9CHTO  H204 3414   6.539   3.392   1.035 -0.7046  1.3130  0.1535
    9CHTO  C109 3415   6.566   3.155   0.841 -0.5432 -0.0519  0.0653
    9CHTO  H213 3416   6.487   3.232   0.848 -0.6261 -0.2897  2.3811
    9CHTO  C110 3417   6.500   3.012   0.835  0.4530 -0.6036  0.0031
    9CHTO  H214 3418   6.586   2.944   0.828 -0.9925 -2.6995  1.8827
    9CHTO   O78 3419   6.418   2.990   0.717  0.3233  0.7028  0.4803
    9CHTO  H200 3420   6.448   3.019   0.633  2.9862  0.1024  1.2046
    9CHTO  C111 3421   6.424   2.968   0.966  0.2887  0.0233  0.2696
    9CHTO  H215 3422   6.335   3.033   0.974 -0.6735 -0.9378 -2.2427
    9CHTO   N19 3423   6.370   2.830   0.968 -0.4920 -0.1553 -0.8078
    9CHTO  H207 3424   6.352   2.814   1.073  0.0939  0.5085 -0.6057
    9CHTO  H208 3425   6.436   2.756   0.924  1.6573  1.2896 -0.1056
    9CHTO   O74 3426   6.648   3.195   0.725 -0.1512 -0.8975  0.1432
    9CHTO  C115 3427   6.763   3.065   0.676  0.2177  0.0104 -0.1810
    9CHTO  H219 3428   6.769   2.986   0.750 -0.3391 -0.6388 -0.8268
    9CHTO   O76 3429   6.712   2.992   0.545  0.3866 -0.1953 -0.2216
    9CHTO  C122 3430   6.716   3.059   0.424 -0.4410  0.0717 -0.0040
    9CHTO  H226 3431   6.642   3.139   0.422 -2.3514 -1.3861  4.9393
    9CHTO  C126 3432   6.677   2.964   0.306  0.2187 -0.1971 -0.3491
    9CHTO   O85 3433   6.751   2.840   0.301  0.4176 -0.3049 -0.1581
    9CHTO  H206 3434   6.702   2.786   0.242 -0.6516 -0.1615  0.5914
    9CHTO  C121 3435   6.860   3.123   0.411  0.0024  0.1823 -0.0491
    9CHTO  H225 3436   6.936   3.044   0.398  1.1102  1.2013  0.1628
    9CHTO   O81 3437   6.865   3.183   0.285 -0.5315 -0.3719  0.5848
    9CHTO  H202 3438   6.784   3.224   0.260 -0.6445 -0.0226  1.5223
    9CHTO  C119 3439   6.901   3.215   0.533 -0.0426  0.7070  0.0192
    9CHTO  H223 3440   6.997   3.262   0.511  1.6830 -2.6032  0.1863
    9CHTO  C117 3441   6.904   3.138   0.671 -0.7126 -0.0231  0.2319
    9CHTO  H221 3442   6.907   3.197   0.763 -0.5529 -2.7703  2.0698
    9CHTO   N20 3443   7.020   3.040   0.679  0.0692 -0.3891  0.8325
    9CHTO  H209 3444   7.109   3.091   0.714 -0.3572 -0.7604  2.5353
    9CHTO  H210 3445   7.051   2.992   0.587  0.1292  1.0020  0.1229
    9CHTO   O80 3446   6.801   3.341   0.530  0.2121 -0.1385  0.1311
    9CHTO  C103 3447   6.865   3.502   0.556  0.7580 -0.1648 -1.0142
    9CHTO  H190 3448   6.938   3.507   0.637  0.8242 -0.2397 -1.0693
    9CHTO  C101 3449   6.942   3.569   0.431  0.5635  0.2049 -0.2098
    9CHTO  H188 3450   6.882   3.555   0.342  0.2593  0.1101  0.0090
    9CHTO   O68 3451   7.055   3.496   0.412  0.1400 -0.0017  0.3918
    9CHTO  H168 3452   7.117   3.515   0.480  0.6628 -2.9988  0.8197
    9CHTO   C99 3453   6.976   3.724   0.454 -0.2968  0.5598 -0.3499
    9CHTO  H186 3454   7.051   3.726   0.535  0.9867  2.5455 -1.5424
    9CHTO   N17 3455   7.036   3.805   0.341 -0.2731 -0.2818 -0.2320
    9CHTO  H174 3456   6.953   3.836   0.280 -0.0302 -0.7421 -0.7991
    9CHTO  H175 3457   7.116   3.754   0.290 -0.6328 -1.9721  0.8463
    9CHTO   C97 3458   6.849   3.792   0.507  0.2572 -0.6011 -0.3396
    9CHTO  H184 3459   6.775   3.799   0.426 -0.2075  2.3394  0.2943
    9CHTO   O64 3460   6.799   3.728   0.625  0.4571  0.1142  0.2745
    9CHTO  C104 3461   6.748   3.598   0.594  0.0243  0.0675 -0.3092
    9CHTO  H191 3462   6.681   3.601   0.507 -1.9963 -0.6346  1.1743
    9CHTO  C108 3463   6.663   3.542   0.714 -0.3147 -0.1506  0.2720
    9CHTO   O71 3464   6.545   3.625   0.736 -0.2906  0.4640  0.1791
    9CHTO  H171 3465   6.548   3.677   0.814 -2.1445  1.9012 -0.6615
    9CHTO   O62 3466   6.869   3.921   0.565  0.2166 -0.4284  0.2343
    9CHTO   C91 3467   6.828   4.033   0.490  0.9653 -0.2424 -0.1320
    9CHTO  H178 3468   6.860   4.018   0.387  0.5699 -1.6560 -0.0655
    9CHTO   C92 3469   6.909   4.154   0.547  0.3288  0.3077  0.6071
    9CHTO  H179 3470   7.011   4.125   0.574  0.6201  0.0242 -0.7635
    9CHTO   O66 3471   6.926   4.253   0.443  0.5928 -0.2337 -0.0785
    9CHTO  H166 3472   6.987   4.317   0.475  0.1874  0.9361 -1.5641
    9CHTO   C93 3473   6.838   4.225   0.673 -0.2403 -0.2965 -0.0058
    9CHTO  H180 3474   6.892   4.319   0.691  1.1925 -1.4694  2.0215
    9CHTO   N16 3475   6.870   4.156   0.801 -0.3283 -0.1938 -0.1062
    9CHTO  H172 3476   6.871   4.224   0.885 -1.3114 -0.3149  0.0138
    9CHTO  H173 3477   6.783   4.096   0.823  1.0464 -2.8069 -1.5612
    9CHTO   C94 3478   6.684   4.251   0.636  0.0797 -0.9884  0.3164
    9CHTO  H181 3479   6.617   4.204   0.709 -1.9695  1.1157 -0.1326
    9CHTO   O61 3480   6.642   4.198   0.512 -0.4793 -0.6361  0.7000
    9CHTO   C95 3481   6.673   4.061   0.480 -0.6438  0.0831 -0.9243
    9CHTO  H182 3482   6.617   3.997   0.548  0.8560  0.3984  0.6631
    9CHTO  C106 3483   6.627   4.036   0.340 -0.0975 -0.4136  0.3361
    9CHTO   O69 3484   6.485   4.013   0.342 -0.5347  0.1068 -0.1352
    9CHTO  H169 3485   6.462   3.931   0.302  0.1471  0.1202 -0.5541
    9CHTO   O63 3486   6.661   4.406   0.626 -0.0129  0.0122  0.1521
    9CHTO   C96 3487   6.521   4.449   0.696  0.1983  0.1093  0.7471
    9CHTO  H183 3488   6.503   4.381   0.779 -1.2139 -0.1967  0.2158
    9CHTO   C98 3489   6.395   4.445   0.604 -0.1695  0.3060  0.0232
    9CHTO  H185 3490   6.417   4.496   0.509 -2.3192  0.8883 -0.1807
    9CHTO   O67 3491   6.374   4.308   0.571  0.2356  0.6237  0.0630
    9CHTO  H167 3492   6.284   4.298   0.545 -0.1722 -0.4338  1.8269
    9CHTO  C102 3493   6.270   4.503   0.682  0.0966 -0.0876 -0.0964
    9CHTO  H189 3494   6.246   4.428   0.759 -0.3397  2.4336  2.2866
    9CHTO   N18 3495   6.148   4.519   0.602  0.1443 -0.5077 -0.1577
    9CHTO  H176 3496   6.065   4.461   0.641 -0.8553  0.5465 -0.6776
    9CHTO  H177 3497   6.176   4.471   0.509  1.3436 -0.4644  0.1770
    9CHTO  C105 3498   6.304   4.639   0.750 -0.0246  0.2364  0.0492
    9CHTO  H192 3499   6.306   4.717   0.674  0.7544 -0.7596 -0.9715
    9CHTO   O65 3500   6.425   4.646   0.823  0.1475  0.8347  0.1548
    9CHTO  C100 3501   6.536   4.597   0.744  0.3553  0.2690  0.1307
    9CHTO  H187 3502   6.549   4.661   0.656 -0.5810 -0.5024 -0.5832
    9CHTO  C107 3503   6.662   4.601   0.832 -0.1354  0.1290  0.5475
    9CHTO   O70 3504   6.653   4.516   0.947 -0.7629  0.3183 -0.0151
    9CHTO  H170 3505   6.744   4.516   0.971  0.2592 -0.4509 -3.6292
    9CHTO   O57 3506   6.182   4.667   0.845 -0.0306  0.6755  0.3629
    9CHTO   C85 3507   6.116   4.796   0.849 -0.0470 -0.2192  0.1667
    9CHTO  H157 3508   6.079   4.833   0.751 -2.0416 -1.8088  0.2991
    9CHTO   C83 3509   6.219   4.910   0.881 -0.3894  0.7166 -0.5232
    9CHTO  H155 3510   6.293   4.908   0.801 -0.9302  0.3711 -1.0188
    9CHTO   O56 3511   6.284   4.882   1.011 -0.5980 -0.4376  0.7688
    9CHTO  H135 3512   6.345   4.812   0.997 -0.9681 -1.0467  2.2016
    9CHTO   C81 3513   6.149   5.051   0.891 -0.2025 -0.5547  0.0309
    9CHTO  H153 3514   6.092   5.071   0.801 -0.8905  1.9586  0.9731
    9CHTO   N14 3515   6.239   5.170   0.895  0.2604 -0.1398  0.0579
    9CHTO  H141 3516   6.312   5.144   0.822  0.0647 -1.0797  0.1857
    9CHTO  H142 3517   6.174   5.247   0.858 -1.4034 -0.7925  1.5321
    9CHTO   C79 3518   6.049   5.046   1.012  0.8365  0.4730 -0.5877
    9CHTO  H151 3519   5.990   5.138   1.006  1.6274  1.0243 -0.1310
    9CHTO   O52 3520   5.954   4.934   1.003  0.1122 -0.0057 -0.4673
    9CHTO   C86 3521   6.007   4.806   0.960 -0.5238  0.1975 -0.4499
    9CHTO  H158 3522   6.045   4.769   1.058 -1.9464 -0.2212 -0.0482
    9CHTO   C90 3523   5.896   4.701   0.927 -0.3840 -0.1737 -0.5568
    9CHTO   O60 3524   5.932   4.567   0.932 -0.4858  0.4473  0.1789
    9CHTO  H138 3525   5.910   4.528   1.014  0.5111 -0.5231  0.0033
    9CHTO   O50 3526   6.109   5.045   1.141  0.0930  0.0926 -0.3114
    9CHTO   C73 3527   6.111   5.078   1.283  0.1874 -0.6213 -0.4728
    9CHTO  H145 3528   6.004   5.088   1.307  0.5272 -2.7222  2.1192
    9CHTO   C74 3529   6.182   5.214   1.307  0.0584  0.0605  0.4090
    9CHTO  H146 3530   6.137   5.277   1.228  0.2293 -1.1146 -0.6411
    9CHTO   O54 3531   6.138   5.254   1.438 -0.1148  0.0187  0.4222
    9CHTO  H133 3532   6.175   5.201   1.506 -1.3167  1.2675  2.0892
    9CHTO   C75 3533   6.329   5.187   1.284  0.3735  0.0383  0.0715
    9CHTO  H147 3534   6.349   5.152   1.181  0.1772 -0.7540  0.2983
    9CHTO   N13 3535   6.403   5.306   1.286 -0.6783  0.2233 -0.4133
    9CHTO  H139 3536   6.497   5.304   1.339 -0.9808 -0.1668  0.1148
    9CHTO  H140 3537   6.354   5.394   1.324 -0.8713 -1.0673  2.4988
    9CHTO   C76 3538   6.393   5.070   1.365  0.0929 -0.0128  0.3803
    9CHTO  H148 3539   6.381   5.105   1.467  0.3383  1.0534  0.0552
    9CHTO   O49 3540   6.314   4.944   1.350 -0.1323  0.1668 -0.1621
    9CHTO   C77 3541   6.174   4.963   1.373  0.7953 -0.3113 -0.6828
    9CHTO  H149 3542   6.163   4.993   1.477  3.0916  0.5716 -0.6775
    9CHTO   C88 3543   6.104   4.824   1.355 -0.3539  0.0683  0.1389
    9CHTO   O58 3544   6.135   4.732   1.457 -0.6419 -0.1631 -0.0823
    9CHTO  H136 3545   6.115   4.767   1.542 -0.0831 -0.4474  0.1655
    9CHTO   O51 3546   6.544   5.043   1.312  0.6067  0.1925  0.1876
    9CHTO   C78 3547   6.637   4.997   1.465  0.0196  0.2245 -0.0166
    9CHTO  H150 3548   6.569   5.004   1.552  0.3189 -0.0472  0.2365
    9CHTO   C80 3549   6.753   5.104   1.485 -0.6540  0.1829  1.0061
    9CHTO  H152 3550   6.816   5.108   1.393 -0.0867 -1.0295  1.3378
    9CHTO   O55 3551   6.699   5.235   1.494 -0.2107  0.4987 -0.2979
    9CHTO  H134 3552   6.686   5.250   1.586 -1.0472  0.6148 -0.4295
    9CHTO   C84 3553   6.852   5.061   1.604 -0.5885  0.1294 -0.2368
    9CHTO  H156 3554   6.793   5.078   1.693  1.1580 -1.5991  1.3039
    9CHTO   N15 3555   6.970   5.148   1.621  0.2576 -0.1163 -0.3284
    9CHTO  H143 3556   7.031   5.108   1.699  0.1722 -1.8174 -1.0945
    9CHTO  H144 3557   7.027   5.156   1.531  0.0452  2.3209 -0.2582
    9CHTO   C87 3558   6.883   4.911   1.588 -0.8243  0.9571  0.6715
    9CHTO  H159 3559   6.949   4.881   1.506 -0.5749 -1.0933  1.5892
    9CHTO   O53 3560   6.753   4.830   1.582 -0.0313  0.0075  0.7671
    9CHTO   C82 3561   6.689   4.855   1.459  0.0796 -0.3044 -0.1463
    9CHTO  H154 3562   6.751   4.851   1.370  0.3842 -0.6549  0.0784
    9CHTO   C89 3563   6.576   4.741   1.449 -0.2763  0.4736 -0.4643
    9CHTO   O59 3564   6.530   4.741   1.315  0.0954 -0.0916 -0.3323
    9CHTO  H137 3565   6.573   4.681   1.257 -1.5159 -0.7122 -0.9369
    9CHTO   O45 3566   6.957   4.858   1.721  0.8509 -0.5001  0.8118
    9CHTO   C67 3567   7.054   4.755   1.697  0.3059  0.4625  0.3433
    9CHTO  H124 3568   7.006   4.679   1.635  0.3321 -0.9402  2.0243
    9CHTO   C65 3569   7.187   4.805   1.629 -0.1919 -0.2970  0.0277
    9CHTO  H122 3570   7.199   4.912   1.647  1.4253 -0.8342  2.2942
    9CHTO   O44 3571   7.160   4.789   1.487  1.1027 -0.6291  0.3282
    9CHTO  H102 3572   7.138   4.876   1.460 -2.8531 -0.8424  2.4718
    9CHTO   C63 3573   7.324   4.741   1.682  0.4653  0.2300  0.4231
    9CHTO  H120 3574   7.348   4.777   1.782  1.3584 -1.1310  0.7097
    9CHTO   N11 3575   7.447   4.772   1.605 -0.5560  0.2993 -0.4519
    9CHTO  H108 3576   7.518   4.705   1.649 -0.3581 -0.3105 -1.6582
    9CHTO  H109 3577   7.457   4.748   1.501  0.7920 -0.1611 -0.2355
    9CHTO   C61 3578   7.298   4.588   1.698 -0.0637 -0.4772 -0.1036
    9CHTO  H118 3579   7.383   4.547   1.754 -2.2399 -2.4534  1.8761
    9CHTO   O40 3580   7.177   4.556   1.776  0.2731 -0.3791  0.1139
    9CHTO   C68 3581   7.097   4.671   1.817 -0.1268  0.4922  0.5471
    9CHTO  H125 3582   7.155   4.727   1.894  1.8879  0.1950 -0.7177
    9CHTO   C72 3583   6.973   4.601   1.893  0.8332  0.0940  0.3824
    9CHTO   O48 3584   6.914   4.497   1.817  0.1425  0.4449  0.3932
    9CHTO  H105 3585   6.845   4.472   1.876 -1.1776  0.3724 -1.1427
    9CHTO   O38 3586   7.271   4.515   1.574 -0.3193 -0.1257 -0.0593
    9CHTO   C55 3587   7.307   4.377   1.547 -0.0620 -0.6578 -0.1534
    9CHTO  H112 3588   7.313   4.329   1.646  1.3567  1.4968  0.8491
    9CHTO   C56 3589   7.443   4.375   1.479  0.1090 -0.4407 -0.4208
    9CHTO  H113 3590   7.434   4.439   1.390 -0.8485  0.2979  0.2028
    9CHTO   O42 3591   7.535   4.429   1.580 -0.1811  0.2413  0.0699
    9CHTO  H100 3592   7.623   4.429   1.547 -0.3934 -1.1891 -0.5478
    9CHTO   C57 3593   7.482   4.223   1.434 -0.2610 -0.1478  0.4401
    9CHTO  H114 3594   7.506   4.161   1.520  2.7042 -0.3475 -0.4571
    9CHTO   N10 3595   7.605   4.217   1.357 -0.1289 -0.3400  0.3481
    9CHTO  H106 3596   7.658   4.126   1.336 -0.2299  0.0928 -1.8856
    9CHTO  H107 3597   7.582   4.258   1.260  0.8620 -2.1237 -0.6637
    9CHTO   C58 3598   7.356   4.158   1.361  0.1846 -0.0417  0.2808
    9CHTO  H115 3599   7.339   4.194   1.258  0.0473 -1.9758 -0.3975
    9CHTO   O37 3600   7.234   4.173   1.437  0.0403 -0.2467  0.2732
    9CHTO   C59 3601   7.189   4.307   1.460  0.0014 -0.2286 -0.6169
    9CHTO  H116 3602   7.187   4.354   1.362 -2.4166  1.2924  0.1228
    9CHTO   C70 3603   7.054   4.310   1.541  0.7398  0.0332 -0.0402
    9CHTO   O46 3604   6.962   4.202   1.522  0.5649 -0.0527  0.1022
    9CHTO  H103 3605   6.940   4.193   1.431  1.8344 -1.7349 -0.0586
    9CHTO   O39 3606   7.382   4.001   1.347 -0.7565 -0.3247  0.0993
    9CHTO   C60 3607   7.273   3.916   1.316  0.2907 -0.7697 -0.8407
    9CHTO  H117 3608   7.188   3.951   1.375 -0.8860 -0.9061 -2.4238
    9CHTO   C62 3609   7.236   3.921   1.164  0.6631  0.4014 -0.0675
    9CHTO  H119 3610   7.226   4.027   1.130  0.9662  0.4407 -0.0369
    9CHTO   O43 3611   7.347   3.881   1.085  0.5504  0.1257 -0.3408
    9CHTO  H101 3612   7.334   3.876   0.993  0.7673 -2.0169 -0.2809
    9CHTO   C66 3613   7.100   3.832   1.145 -0.2710  0.1991  0.1783
    9CHTO  H123 3614   7.031   3.864   1.223 -0.7633  0.0774 -0.2007
    9CHTO   N12 3615   7.043   3.850   1.009 -0.2911 -0.4325 -0.6418
    9CHTO  H110 3616   7.122   3.894   0.949  0.8642 -2.4127 -0.6090
    9CHTO  H111 3617   6.947   3.900   1.005 -0.4054 -0.6402 -0.4662
    9CHTO   C69 3618   7.129   3.684   1.179  0.8460  0.7117 -0.3917
    9CHTO  H126 3619   7.205   3.655   1.103  1.9453  2.0291  0.1886
    9CHTO   O41 3620   7.190   3.673   1.327 -0.3976 -0.5415 -0.0046
    9CHTO   C64 3621   7.308   3.765   1.356  0.1512 -0.2634 -0.0064
    9CHTO  H121 3622   7.389   3.720   1.297  0.4873 -2.5249  2.0986
    9CHTO   C71 3623   7.358   3.749   1.505 -0.2229  0.9795 -0.0922
    9CHTO   O47 3624   7.244   3.761   1.593  0.0662  0.2960  0.1052
    9CHTO  H104 3625   7.200   3.678   1.595  0.4586  0.1119  1.1333
    9CHTO   O34 3626   7.003   3.604   1.172  0.1160  0.1205 -0.6854
    9CHTO   C49 3627   6.876   3.556   1.278  0.4054  0.2749  0.3275
    9CHTO   H91 3628   6.797   3.506   1.222 -1.3363  2.2712  0.9363
    9CHTO   C47 3629   6.809   3.679   1.348 -0.1266 -0.0463 -0.3923
    9CHTO   H89 3630   6.720   3.640   1.403 -0.2846  0.3699 -0.3468
    9CHTO   O33 3631   6.768   3.778   1.254  0.1074 -0.3225 -0.1099
    9CHTO   H70 3632   6.734   3.855   1.295  0.3521 -0.8134  1.0313
    9CHTO   C45 3633   6.908   3.734   1.463  0.1762 -0.0038  0.2589
    9CHTO   H87 3634   7.004   3.764   1.419 -0.3332 -0.6818 -1.3295
    9CHTO    N8 3635   6.851   3.851   1.534  0.3035 -0.1641 -0.0203
    9CHTO   H75 3636   6.924   3.895   1.600  1.1473 -1.3289 -0.1638
    9CHTO   H76 3637   6.823   3.930   1.467  0.9721  0.8423  0.8686
    9CHTO   C43 3638   6.944   3.613   1.570  0.0314 -0.7178  0.1539
    9CHTO   H85 3639   7.008   3.659   1.645  0.0221 -1.0069  0.3417
    9CHTO   O29 3640   7.011   3.516   1.490  0.3521  0.1976 -0.5245
    9CHTO   C50 3641   6.940   3.458   1.381 -0.4026 -0.3288  0.4105
    9CHTO   H92 3642   7.017   3.402   1.326 -1.5164  0.0741 -1.5860
    9CHTO   C54 3643   6.844   3.346   1.430 -0.6614  0.0815 -0.0019
    9CHTO   O36 3644   6.919   3.242   1.491  0.2044  0.2985 -0.0554
    9CHTO   H72 3645   6.963   3.276   1.567 -3.4952 -0.7521  2.6838
    9CHTO   O27 3646   6.838   3.556   1.644 -0.4519  0.0219  0.3340
    9CHTO   C37 3647   6.742   3.517   1.748  0.2921  0.6488 -0.1316
    9CHTO   H79 3648   6.691   3.423   1.722 -0.8276  0.4802  2.5702
    9CHTO   C38 3649   6.819   3.507   1.879 -0.5961  0.1721  0.0989
    9CHTO   H80 3650   6.903   3.577   1.882 -0.0300 -0.4941 -0.1505
    9CHTO   O31 3651   6.864   3.367   1.879  0.1400 -0.3399 -0.1598
    9CHTO   H68 3652   6.900   3.346   1.795 -1.0206  0.4568 -0.8831
    9CHTO   C39 3653   6.735   3.534   2.009 -0.2487 -0.5174 -0.3792
    9CHTO   H81 3654   6.672   3.446   2.015  0.7950 -1.3319 -1.1728
    9CHTO    N7 3655   6.815   3.549   2.138 -0.5924 -0.2292  0.3314
    9CHTO   H73 3656   6.745   3.571   2.218 -0.6472 -2.1024  0.8237
    9CHTO   H74 3657   6.868   3.458   2.166  0.2509 -0.4003 -1.7606
    9CHTO   C40 3658   6.640   3.655   1.989 -0.4771 -0.7402  0.6389
    9CHTO   H82 3659   6.700   3.743   1.969 -0.4727 -1.1121 -1.1210
    9CHTO   O26 3660   6.557   3.631   1.879 -0.2836  0.5768  0.0373
    9CHTO   C41 3661   6.635   3.631   1.749  0.2883  0.7329  0.0766
    9CHTO   H83 3662   6.701   3.718   1.743  1.2571  0.0095  0.0723
    9CHTO   C52 3663   6.535   3.615   1.629  0.4096  0.5565  0.4679
    9CHTO   O35 3664   6.446   3.727   1.624  0.2618 -0.1208  0.0739
    9CHTO   H71 3665   6.491   3.807   1.644  0.4654 -0.4278  0.8618
    9CHTO   O28 3666   6.544   3.677   2.095  0.3428  0.1210 -0.0089
    9CHTO   C42 3667   6.433   3.775   2.074  0.3631  0.8350  0.1649
    9CHTO   H84 3668   6.400   3.789   2.177 -0.4582  1.2113 -0.1415
    9CHTO   C44 3669   6.309   3.721   1.997  0.1948 -0.2401  0.4937
    9CHTO   H86 3670   6.347   3.664   1.912  2.5249  2.2992 -0.2300
    9CHTO   O32 3671   6.245   3.621   2.082 -0.3373  0.3608  0.0574
    9CHTO   H69 3672   6.291   3.539   2.083 -2.0942 -0.6620  2.0855
    9CHTO   C48 3673   6.207   3.820   1.940 -0.2310 -0.2520 -0.1534
    9CHTO   H90 3674   6.142   3.853   2.021 -1.5040 -2.6770 -0.1317
    9CHTO    N9 3675   6.112   3.762   1.843  0.0236 -0.3135 -0.7612
    9CHTO   H77 3676   6.040   3.836   1.811 -0.4192  0.2534  1.4759
    9CHTO   H78 3677   6.058   3.684   1.894 -1.3045 -1.4094 -3.7630
    9CHTO   C51 3678   6.286   3.939   1.879 -0.0434 -0.0988  0.1231
    9CHTO   H93 3679   6.348   3.903   1.797  2.9104 -0.2955  2.3721
    9CHTO   O30 3680   6.369   3.997   1.983 -0.3111  0.0360 -0.7224
    9CHTO   C46 3681   6.480   3.918   2.017 -0.7306 -0.5339 -0.2244
    9CHTO   H88 3682   6.540   3.908   1.926 -0.0341 -0.6220  0.2397
    9CHTO   C53 3683   6.559   4.001   2.124 -0.5263  0.3504  0.3769
    9CHTO   O72 3684   6.608   4.123   2.067  0.0673  0.3348 -0.3429
    9CHTO  H199 3685   6.534   4.179   2.056  1.2912  2.0304 -0.0544
    9CHTO   O22 3686   6.209   4.054   1.838  0.0837  0.0849  0.2643
    9CHTO   C31 3687   6.259   4.145   1.739  0.3065 -0.4243 -0.1150
    9CHTO   H59 3688   6.182   4.223   1.725 -0.7722 -1.4642 -0.0349
    9CHTO   C29 3689   6.389   4.223   1.776  0.6760 -0.2354 -0.2485
    9CHTO   H57 3690   6.476   4.157   1.792  0.2288 -0.5627  0.8631
    9CHTO   O21 3691   6.362   4.286   1.903 -0.4201 -0.1935  0.2478
    9CHTO   H37 3692   6.439   4.333   1.929  1.2299 -2.2031 -0.8126
    9CHTO   C27 3693   6.418   4.331   1.660  0.3502  0.6161  0.5585
    9CHTO   H55 3694   6.339   4.407   1.650  0.0238  0.0438 -1.4718
    9CHTO    N5 3695   6.551   4.400   1.688 -0.3597  0.0880  0.1246
    9CHTO   H43 3696   6.622   4.318   1.683 -1.9813 -1.3195 -0.1250
    9CHTO   H44 3697   6.567   4.462   1.601 -1.9187 -0.9232 -0.9144
    9CHTO   C25 3698   6.426   4.257   1.522  0.6668 -0.1061  0.0620
    9CHTO   H53 3699   6.499   4.175   1.530 -0.2853 -1.0659 -0.9929
    9CHTO   O17 3700   6.297   4.186   1.502 -0.1919 -0.1893 -0.3970
    9CHTO   C32 3701   6.276   4.084   1.597  0.5032  0.7943  0.3728
    9CHTO   H60 3702   6.353   4.007   1.601  0.3772  0.7239  1.6129
    9CHTO   C36 3703   6.139   4.019   1.563  0.8212  0.2757 -0.0179
    9CHTO   O25 3704   6.136   3.966   1.427  0.1653 -0.4559  0.2087
    9CHTO   H40 3705   6.114   4.039   1.372  0.9250  0.6613  1.3381
    9CHTO   O15 3706   6.453   4.350   1.395  0.3662  0.3354 -0.0457
    9CHTO   C19 3707   6.472   4.323   1.253 -0.0539 -0.0073 -0.3285
    9CHTO   H47 3708   6.545   4.399   1.224 -0.2031  0.1941 -0.1828
    9CHTO   C20 3709   6.537   4.181   1.226  0.8064 -0.1524  0.9134
    9CHTO   H48 3710   6.482   4.100   1.276 -0.6964 -0.9820 -1.9641
    9CHTO   O19 3711   6.671   4.178   1.284  0.5731  0.3218  0.1452
    9CHTO   H35 3712   6.707   4.092   1.274 -2.7769 -1.1115 -0.6028
    9CHTO   C21 3713   6.536   4.133   1.072  0.4867  0.0294  0.1093
    9CHTO   H49 3714   6.597   4.199   1.010 -1.1439  0.7227 -0.7748
    9CHTO    N4 3715   6.586   3.997   1.037 -0.4809 -0.3680 -0.0309
    9CHTO   H41 3716   6.689   3.995   1.069 -0.7942  2.0873  1.2448
    9CHTO   H42 3717   6.528   3.929   1.097 -1.3876 -0.6825 -1.2211
    9CHTO   C22 3718   6.394   4.175   1.017  0.1730  0.0081  0.4317
    9CHTO   H50 3719   6.317   4.112   1.062 -0.5660 -0.1559 -1.0310
    9CHTO   O14 3720   6.366   4.318   1.040 -0.3600 -0.0548  0.4021
    9CHTO   C23 3721   6.343   4.359   1.173  0.0125  0.5113 -0.2106
    9CHTO   H51 3722   6.254   4.317   1.222 -0.0992 -0.4934 -1.2563
    9CHTO   C34 3723   6.322   4.513   1.171  0.3827  0.0993  0.0812
    9CHTO   O23 3724   6.194   4.552   1.131  0.2449  0.7691 -0.6095
    9CHTO   H38 3725   6.127   4.507   1.179  1.5071  0.7297  1.1298
    9CHTO   O16 3726   6.380   4.176   0.870  0.1332  0.4660 -0.0074
    9CHTO   C24 3727   6.275   4.044   0.814 -0.3452 -0.5595  0.1203
    9CHTO   H52 3728   6.246   3.975   0.894 -0.8260 -0.6650 -0.1398
    9CHTO   C26 3729   6.350   3.969   0.699 -0.7089 -0.1197 -0.0561
    9CHTO   H54 3730   6.375   4.044   0.621  1.1179 -0.8127 -0.1580
    9CHTO   O20 3731   6.468   3.912   0.757 -0.1579  0.2450 -0.1704
    9CHTO   H36 3732   6.503   3.851   0.695 -1.3795  0.2637 -0.8936
    9CHTO   C30 3733   6.260   3.859   0.636 -0.2958 -0.1635  0.8864
    9CHTO   H58 3734   6.243   3.783   0.713  2.8043 -1.7936  0.0329
    9CHTO    N6 3735   6.320   3.800   0.510 -0.1306  0.2103  0.3138
    9CHTO   H45 3736   6.248   3.741   0.454  1.2764 -0.7726 -0.5092
    9CHTO   H46 3737   6.412   3.744   0.521 -1.1343 -1.3733  0.7457
    9CHTO   C33 3738   6.114   3.909   0.604  0.0408 -0.4932  0.2547
    9CHTO   H61 3739   6.115   3.973   0.514  0.6408  0.1649  0.7210
    9CHTO   O18 3740   6.061   3.986   0.713  0.1558  0.0831 -0.7496
    9CHTO   C28 3741   6.141   4.100   0.754  0.3198  0.2800  0.0660
    9CHTO   H56 3742   6.162   4.173   0.676 -1.9500 -0.3184 -1.1407
    9CHTO   C35 3743   6.064   4.172   0.864  0.7886  0.6954 -0.3654
    9CHTO   O24 3744   5.945   4.230   0.814  0.0104  0.6960 -0.3838
    9CHTO   H39 3745   5.949   4.324   0.824 -2.4813  0.7137  0.6956
    9CHTO    O9 3746   6.032   3.799   0.572  0.2372  0.3774  0.3044
    9CHTO   C13 3747   5.951   3.814   0.448 -0.0018  0.2988 -0.8592
    9CHTO   H26 3748   6.023   3.831   0.366  1.8423 -1.3005  0.4036
    9CHTO   C11 3749   5.851   3.940   0.469  0.8376 -0.3101 -0.2455
    9CHTO   H24 3750   5.905   4.035   0.456 -1.7726  1.6001  2.2735
    9CHTO    O8 3751   5.796   3.945   0.597  0.2075  0.1940  0.3044
    9CHTO    H3 3752   5.809   4.032   0.630 -0.1023  0.7520 -1.0037
    9CHTO    C9 3753   5.740   3.926   0.354  0.4230 -0.0175 -0.1543
    9CHTO   H22 3754   5.794   3.931   0.258  2.1599  1.5004  0.8770
    9CHTO    N2 3755   5.655   4.050   0.335 -0.5915 -0.1305  0.2839
    9CHTO   H10 3756   5.600   4.068   0.426 -1.8472  1.5660 -0.7653
    9CHTO   H11 3757   5.718   4.130   0.298  0.9729 -2.4577 -2.2759
    9CHTO    C7 3758   5.654   3.799   0.379 -1.0405  0.0517  0.8401
    9CHTO   H20 3759   5.645   3.768   0.273 -1.0425 -0.3557  0.9578
    9CHTO    O4 3760   5.725   3.693   0.447  0.3622  0.4879 -0.3203
    9CHTO   C14 3761   5.866   3.681   0.412  0.3796 -0.0615 -0.1877
    9CHTO   H27 3762   5.872   3.674   0.301  0.2801 -0.8342 -0.1438
    9CHTO   C18 3763   5.931   3.544   0.469 -0.3614 -0.4477  0.6153
    9CHTO   O13 3764   5.930   3.550   0.616 -0.5058 -0.2011  0.3316
    9CHTO    H7 3765   5.977   3.479   0.655 -2.3049 -2.0695 -0.7953
    9CHTO    O2 3766   5.521   3.811   0.445 -0.2135 -0.0920 -0.2187
    9CHTO    C1 3767   5.424   3.703   0.432  0.1971  0.7524  0.3092
    9CHTO   H14 3768   5.472   3.605   0.451  0.3572  0.3671 -2.0291
    9CHTO    C2 3769   5.347   3.697   0.296  0.3196  0.5317  0.4768
    9CHTO   H15 3770   5.317   3.801   0.278  1.7773  0.9705  0.4765
    9CHTO    O6 3771   5.441   3.664   0.197  0.4015  0.1822 -0.3997
    9CHTO    H1 3772   5.399   3.651   0.114  1.1767  2.7228 -1.2415
    9CHTO    C3 3773   5.229   3.586   0.309 -0.1072  0.5456  0.2336
    9CHTO   H16 3774   5.271   3.486   0.323  0.4183  0.7960  0.4516
    9CHTO    N1 3775   5.140   3.587   0.185  0.4519 -0.1748 -0.1996
    9CHTO    H8 3776   5.170   3.496   0.134  1.0526  0.0187 -0.1978
    9CHTO    H9 3777   5.146   3.668   0.114 -2.0349 -0.5953 -0.9347
    9CHTO    C4 3778   5.138   3.618   0.438 -0.9495 -0.2196 -0.3541
    9CHTO   H17 3779   5.097   3.718   0.427 -1.0274 -0.2294 -0.1381
    9CHTO    O1 3780   5.221   3.617   0.554  0.3956  0.9029 -0.2370
    9CHTO    C5 3781   5.326   3.714   0.556  0.2578  0.1007 -0.0938
    9CHTO   H18 3782   5.286   3.816   0.552  2.5972  1.0619  0.4022
    9CHTO   C16 3783   5.393   3.693   0.688 -0.8408  0.2059  0.7804
    9CHTO   O11 3784   5.475   3.801   0.730 -0.0224 -0.6379  0.1024
    9CHTO    H5 3785   5.564   3.773   0.728 -0.8575 -3.4107 -1.2705
    9CHTO    O3 3786   5.042   3.511   0.465 -0.5645 -0.7669  0.2460
    9CHTO    C6 3787   4.905   3.559   0.505  0.0743 -0.2518 -0.7930
    9CHTO   H19 3788   4.881   3.664   0.492 -0.3271 -0.3587 -0.9336
    9CHTO    C8 3789   4.804   3.492   0.407 -0.3647 -0.3063 -0.4881
    9CHTO   H21 3790   4.832   3.387   0.400  1.9900  0.2104  0.8418
    9CHTO    O7 3791   4.819   3.552   0.275  0.9451  0.1388 -0.6605
    9CHTO    H2 3792   4.761   3.625   0.262  1.5635  0.4883 -1.5266
    9CHTO   C12 3793   4.655   3.505   0.453 -0.8594 -0.1673 -0.0331
    9CHTO   H25 3794   4.623   3.608   0.428  1.1068  0.5864  0.4334
    9CHTO    N3 3795   4.565   3.420   0.365 -0.2296 -0.4724  0.0472
    9CHTO   H12 3796   4.588   3.425   0.260 -0.5232  0.7933  0.0301
    9CHTO   H13 3797   4.458   3.417   0.380 -0.2193 -1.6436 -0.1130
    9CHTO   C15 3798   4.642   3.485   0.605 -0.9600  0.3613  0.0802
    9CHTO   H28 3799   4.661   3.381   0.631  1.4090  0.5862 -0.6549
    9CHTO   O10 3800   4.508   3.527   0.652 -1.0203  0.3983 -0.1665
    9CHTO    H4 3801   4.494   3.618   0.668 -0.1269  0.9003 -2.0537
    9CHTO    O5 3802   4.733   3.571   0.671  0.2950  0.1157  0.6751
    9CHTO   C10 3803   4.867   3.526   0.655 -0.4027  0.2620 -0.0462
    9CHTO   H23 3804   4.862   3.418   0.668 -0.2667  0.2935  0.2701
    9CHTO   C17 3805   4.968   3.582   0.759 -0.3202 -0.2394 -0.6169
    9CHTO   O12 3806   4.939   3.526   0.886 -0.6247 -0.7214 -0.4965
    9CHTO    H6 3807   5.007   3.555   0.944  0.3155  0.2516 -2.0497
   10CHTO  H203 3808   3.600   6.405   2.508  1.2417  1.5938 -2.6978
   10CHTO   O82 3809   3.561   6.483   2.541  0.7196  0.2521 -0.0906
   10CHTO  C123 3810   3.644   6.557   2.622 -0.3519  0.0568 -0.2366
   10CHTO  H227 3811   3.723   6.593   2.554  1.1168 -1.2232  0.7771
   10CHTO   O77 3812   3.563   6.667   2.677  0.0226  0.8008  0.5517
   10CHTO  C118 3813   3.638   6.756   2.766  0.2069  0.0991 -0.0467
   10CHTO  H222 3814   3.734   6.790   2.724 -0.8886  0.8615 -2.0424
   10CHTO  C125 3815   3.552   6.885   2.793 -0.7358  0.1009  0.3985
   10CHTO   O84 3816   3.434   6.849   2.844 -0.1020  0.3959 -0.2556
   10CHTO  H205 3817   3.362   6.852   2.784 -0.5312  0.7857  0.2687
   10CHTO  C114 3818   3.660   6.672   2.895 -0.1338 -0.2619  0.5267
   10CHTO  H218 3819   3.566   6.637   2.937 -0.0752 -0.7353  0.2705
   10CHTO  C116 3820   3.752   6.544   2.864  0.1023  0.0768  0.4568
   10CHTO  H220 3821   3.852   6.579   2.831  0.6501 -1.0864  0.8514
   10CHTO   O79 3822   3.762   6.467   2.986 -0.3674  0.5917 -0.3540
   10CHTO  H201 3823   3.819   6.394   2.968 -0.2570  1.0614 -2.0015
   10CHTO  C120 3824   3.695   6.464   2.745 -0.1909  0.3355 -0.6521
   10CHTO  H224 3825   3.607   6.416   2.793  0.8426 -1.9218 -0.9460
   10CHTO   N21 3826   3.789   6.358   2.704  0.6573 -0.0873 -0.1065
   10CHTO  H211 3827   3.779   6.279   2.777 -0.9984 -1.6380 -1.9514
   10CHTO  H212 3828   3.891   6.394   2.701  0.8235 -0.5093  0.3566
   10CHTO   O75 3829   3.720   6.771   2.983  0.0345 -0.0033 -0.1849
   10CHTO  C112 3830   3.714   6.759   3.119  0.3400  0.4105  0.3343
   10CHTO  H216 3831   3.747   6.658   3.144  1.7300  1.2536  2.0450
   10CHTO   O73 3832   3.574   6.787   3.163 -0.1623  0.2370  0.0507
   10CHTO  C113 3833   3.557   6.763   3.304  0.3688  0.3427 -0.2278
   10CHTO  H217 3834   3.572   6.654   3.321 -4.1924 -0.6573 -1.7270
   10CHTO  C124 3835   3.403   6.781   3.340 -0.6587 -0.0461 -0.2311
   10CHTO   O83 3836   3.342   6.908   3.304  0.1100  0.0824  0.1605
   10CHTO  H204 3837   3.299   6.896   3.222 -0.4723  0.7850  0.3614
   10CHTO  C109 3838   3.648   6.859   3.391  0.1675 -0.1728  0.0438
   10CHTO  H213 3839   3.617   6.962   3.372 -1.6889 -0.7156  0.0564
   10CHTO  C110 3840   3.803   6.847   3.353  0.4556 -0.1356  0.4889
   10CHTO  H214 3841   3.834   6.746   3.376 -0.5110 -1.0908 -2.1992
   10CHTO   O78 3842   3.869   6.955   3.425  0.2648 -0.0231  0.6118
   10CHTO  H200 3843   3.856   7.039   3.384 -0.6383 -0.3634  0.1798
   10CHTO  C111 3844   3.807   6.866   3.195 -0.0307 -0.5847  0.3637
   10CHTO  H215 3845   3.769   6.966   3.170  0.2350 -0.7887 -0.8931
   10CHTO   N19 3846   3.953   6.867   3.146  0.3179  0.5412  0.5919
   10CHTO  H207 3847   4.014   6.931   3.207 -0.4546  2.0822 -0.2335
   10CHTO  H208 3848   3.948   6.882   3.039 -0.8089 -1.1649  0.3796
   10CHTO   O74 3849   3.623   6.821   3.532 -0.2288  0.9246 -0.4903
   10CHTO  C115 3850   3.583   6.933   3.652  0.3732  0.8215 -0.2367
   10CHTO  H219 3851   3.672   6.977   3.697 -0.0978 -1.3475  2.9860
   10CHTO   O76 3852   3.492   7.050   3.592  0.0450 -0.8379 -0.0996
   10CHTO  C122 3853   3.445   7.140   3.691 -0.1037 -0.1552 -0.5661
   10CHTO  H226 3854   3.380   7.214   3.644  0.0618  0.5172  0.2459
   10CHTO  C126 3855   3.553   7.229   3.756  0.1122 -0.4321  0.1729
   10CHTO   O85 3856   3.494   7.333   3.831  0.7066 -0.0098 -0.0638
   10CHTO  H206 3857   3.485   7.416   3.788  1.4805  0.4012  0.5726
   10CHTO  C121 3858   3.362   7.065   3.800  0.1805 -0.8916  0.4642
   10CHTO  H225 3859   3.317   7.130   3.878 -0.6574 -1.7543  0.7181
   10CHTO   O81 3860   3.248   7.008   3.746 -0.4083  0.3390  0.2664
   10CHTO  H202 3861   3.257   6.992   3.654  0.2821  0.6579  0.2739
   10CHTO  C119 3862   3.442   6.955   3.869  0.2138 -0.2398  0.4893
   10CHTO  H223 3863   3.513   7.004   3.935 -0.7199  0.3597  1.0708
   10CHTO  C117 3864   3.513   6.853   3.770  0.1147  0.0536  0.7107
   10CHTO  H221 3865   3.445   6.787   3.718  1.2278 -0.7717  0.2818
   10CHTO   N20 3866   3.614   6.758   3.839 -0.0464  0.0710  0.1062
   10CHTO  H209 3867   3.564   6.681   3.896 -0.5862  0.8033  0.6272
   10CHTO  H210 3868   3.648   6.822   3.919 -2.0588  0.0912  0.9901
   10CHTO   O80 3869   3.356   6.882   3.967 -0.6015  0.0502 -0.2789
   10CHTO  C103 3870   3.347   6.937   4.123  0.4281 -0.7707  0.1208
   10CHTO  H190 3871   3.446   6.942   4.168  0.8035  0.2925 -0.7959
   10CHTO  C101 3872   3.277   7.083   4.145  0.1519 -0.2189 -0.3709
   10CHTO  H188 3873   3.199   7.114   4.076 -1.2324  1.8133  1.9855
   10CHTO   O68 3874   3.393   7.191   4.110 -0.0115  0.1290 -0.0470
   10CHTO  H168 3875   3.382   7.267   4.163  1.8568 -0.3809  1.1005
   10CHTO   C99 3876   3.236   7.112   4.295 -0.4757  0.2060  0.5951
   10CHTO  H186 3877   3.323   7.123   4.363 -1.3307  0.2293  1.6956
   10CHTO   N17 3878   3.148   7.228   4.319  0.4094 -0.2164  0.1594
   10CHTO  H174 3879   3.129   7.242   4.424  0.7872 -2.3419  0.5300
   10CHTO  H175 3880   3.187   7.320   4.279 -1.2228  0.1647 -0.6119
   10CHTO   C97 3881   3.155   6.990   4.354 -0.1898 -0.1832 -0.2148
   10CHTO  H184 3882   3.061   6.983   4.297 -0.2314 -0.6878 -0.0833
   10CHTO   O64 3883   3.231   6.871   4.337  0.2624 -0.0882  0.3141
   10CHTO  C104 3884   3.264   6.829   4.204  0.1935 -0.2525 -0.0791
   10CHTO  H191 3885   3.170   6.808   4.153 -0.5048  0.5116  0.8671
   10CHTO  C108 3886   3.342   6.700   4.199 -0.1029  0.1671  0.3841
   10CHTO   O71 3887   3.259   6.588   4.234  0.3991  0.2707 -0.6569
   10CHTO  H171 3888   3.268   6.558   4.322  0.4882  0.2221 -0.6831
   10CHTO   O62 3889   3.139   6.988   4.495  0.5162 -0.7977  0.1668
   10CHTO   C91 3890   3.023   6.919   4.542 -0.3318 -1.1079 -0.7316
   10CHTO  H178 3891   3.009   6.835   4.474 -1.2151 -2.1643  0.7334
   10CHTO   C92 3892   2.894   7.009   4.530 -0.3781 -0.4464  0.0613
   10CHTO  H179 3893   2.915   7.114   4.554 -0.7892 -0.6706  1.4375
   10CHTO   O66 3894   2.852   7.011   4.395  0.2399  0.2806  0.3529
   10CHTO  H166 3895   2.861   6.922   4.369 -1.4959  0.3149 -0.4612
   10CHTO   C93 3896   2.775   6.944   4.611 -0.1728  0.7679 -0.1670
   10CHTO  H180 3897   2.738   6.863   4.548 -0.5866  1.1102 -0.3628
   10CHTO   N16 3898   2.660   7.033   4.618 -0.2346 -0.9924  0.4610
   10CHTO  H172 3899   2.678   7.138   4.638  1.4480 -0.8899 -1.5576
   10CHTO  H173 3900   2.565   6.997   4.657  1.1021 -1.2627  3.5909
   10CHTO   C94 3901   2.825   6.894   4.754 -0.0949  0.3679  0.5688
   10CHTO  H181 3902   2.858   6.977   4.817 -0.1855  1.3034 -0.6141
   10CHTO   O61 3903   2.939   6.804   4.745  0.5591  0.5519 -0.2319
   10CHTO   C95 3904   3.053   6.870   4.688  0.5509  0.3165  0.6316
   10CHTO  H182 3905   3.085   6.942   4.764 -1.0210  0.1160  1.5108
   10CHTO  C106 3906   3.177   6.780   4.688 -0.8881 -0.5629  0.5444
   10CHTO   O69 3907   3.155   6.664   4.609 -0.0221 -0.2790 -0.0439
   10CHTO  H169 3908   3.077   6.620   4.636  0.8953 -0.2719  2.7325
   10CHTO   O63 3909   2.700   6.803   4.820 -0.3270 -0.4981  0.3304
   10CHTO   C96 3910   2.722   6.749   4.937  0.0556 -0.3852  0.0080
   10CHTO  H183 3911   2.809   6.790   4.988 -0.8180  1.5163  0.0292
   10CHTO   C98 3912   2.730   6.593   4.928 -0.4064 -0.0819  0.0605
   10CHTO  H185 3913   2.649   6.562   4.859 -0.0123  0.0829 -0.4807
   10CHTO   O67 3914   2.853   6.560   4.865  0.3173 -0.0772 -0.7108
   10CHTO  H167 3915   2.851   6.588   4.775  1.8485 -0.3536 -0.8322
   10CHTO  C102 3916   2.711   6.521   5.073  0.7504 -0.3500  0.1311
   10CHTO  H189 3917   2.802   6.544   5.132  0.7810 -0.2068  0.0292
   10CHTO   N18 3918   2.700   6.378   5.067  0.1362 -0.1012  0.7548
   10CHTO  H176 3919   2.787   6.339   5.117  0.4102  0.3030  0.5903
   10CHTO  H177 3920   2.699   6.346   4.964  0.5327  0.1578  0.6724
   10CHTO  C105 3921   2.603   6.583   5.161  0.7210  0.1922 -0.2372
   10CHTO  H192 3922   2.505   6.539   5.141  0.1629 -0.4846  3.7094
   10CHTO   O65 3923   2.602   6.728   5.155  0.3178  0.0275  0.1417
   10CHTO  C100 3924   2.596   6.782   5.023  0.1396 -0.4633  0.0263
   10CHTO  H187 3925   2.502   6.743   4.981 -0.5804 -0.7935  1.9166
   10CHTO  C107 3926   2.573   6.936   5.046 -0.2952  0.0258 -0.4673
   10CHTO   O70 3927   2.518   7.002   4.928  0.1806  0.7569 -0.1356
   10CHTO  H170 3928   2.583   7.055   4.887 -0.6506  1.9940  0.0930
   10CHTO   O57 3929   2.637   6.536   5.317  0.2466  0.0790 -0.1526
   10CHTO   C85 3930   2.557   6.585   5.425 -0.5627  0.0147 -0.6065
   10CHTO  H157 3931   2.459   6.600   5.375 -1.4113  1.3492  1.3922
   10CHTO   C83 3932   2.614   6.727   5.472 -0.1250 -0.2611 -0.0791
   10CHTO  H155 3933   2.625   6.797   5.389  0.3482 -0.3484 -0.0943
   10CHTO   O56 3934   2.750   6.710   5.512 -0.3341  0.3207  0.2464
   10CHTO  H135 3935   2.752   6.678   5.599  0.3317 -0.4380 -0.0465
   10CHTO   C81 3936   2.520   6.788   5.573  0.2094 -0.9979  0.9875
   10CHTO  H153 3937   2.421   6.796   5.529  0.6900 -0.0301  0.0490
   10CHTO   N14 3938   2.550   6.930   5.615  0.0094  0.9705  0.5247
   10CHTO  H141 3939   2.491   6.962   5.697  0.6129  0.3972  1.1929
   10CHTO  H142 3940   2.653   6.930   5.645 -0.1966 -1.6757  1.3785
   10CHTO   C79 3941   2.516   6.687   5.698  0.0899 -0.3915  0.8801
   10CHTO  H151 3942   2.435   6.719   5.763  2.0017  0.8579  2.7151
   10CHTO   O52 3943   2.462   6.554   5.656  0.4322 -0.0549  0.3229
   10CHTO   C86 3944   2.546   6.496   5.548  0.2011 -0.7083  0.5120
   10CHTO  H158 3945   2.644   6.489   5.599  1.7524 -2.4534 -2.5725
   10CHTO   C90 3946   2.512   6.350   5.509  0.2047  0.1663  0.4457
   10CHTO   O60 3947   2.562   6.266   5.614 -0.2833 -0.0527  0.1930
   10CHTO  H138 3948   2.568   6.175   5.592  0.5019 -0.5506  2.3991
   10CHTO   O50 3949   2.627   6.679   5.795 -0.2010 -0.2958  0.0035
   10CHTO   C73 3950   2.683   6.626   5.915  0.4293 -0.1133 -0.0259
   10CHTO  H145 3951   2.676   6.516   5.911  1.1818 -0.1943  0.7537
   10CHTO   C74 3952   2.597   6.688   6.033  0.1022 -0.0172  0.0154
   10CHTO  H146 3953   2.489   6.673   6.016 -0.0350  0.2340  0.6399
   10CHTO   O54 3954   2.619   6.611   6.155  0.4030 -0.4692  0.1367
   10CHTO  H133 3955   2.706   6.612   6.191 -0.1497 -1.1356  1.5201
   10CHTO   C75 3956   2.630   6.841   6.048 -0.5415  0.3355 -0.0801
   10CHTO  H147 3957   2.613   6.887   5.950  0.2916 -4.2300 -2.4779
   10CHTO   N13 3958   2.551   6.914   6.150  0.6292  0.0539 -0.2238
   10CHTO  H139 3959   2.519   6.849   6.230 -1.8841 -0.0452 -1.2781
   10CHTO  H140 3960   2.460   6.952   6.105  0.5338  0.1863  0.0831
   10CHTO   C76 3961   2.790   6.860   6.063 -0.0194  0.4058 -0.4613
   10CHTO  H148 3962   2.825   6.816   6.156  0.2691 -0.2341 -0.8773
   10CHTO   O49 3963   2.859   6.797   5.956  0.0324 -0.3480  0.2460
   10CHTO   C77 3964   2.835   6.661   5.931 -0.5583  0.4123 -0.8731
   10CHTO  H149 3965   2.867   6.613   6.023 -1.5481  2.3029  0.4799
   10CHTO   C88 3966   2.924   6.616   5.811  0.1212  0.0784  0.0085
   10CHTO   O58 3967   2.888   6.475   5.772  0.4633 -0.3341 -0.2000
   10CHTO  H136 3968   2.927   6.463   5.687 -0.3258 -0.5148 -0.5368
   10CHTO   O51 3969   2.831   7.011   6.049  0.6276 -0.9839 -0.3498
   10CHTO   C78 3970   2.977   7.034   6.119 -0.0566 -0.5719  0.5138
   10CHTO  H150 3971   3.018   6.936   6.152  2.2924  0.1132 -0.2970
   10CHTO   C80 3972   2.971   7.124   6.240 -0.4920 -0.9807 -0.0068
   10CHTO  H152 3973   2.907   7.212   6.216  1.1485 -0.1150 -1.3216
   10CHTO   O55 3974   2.908   7.055   6.346  0.5977 -0.3009  0.0194
   10CHTO  H134 3975   2.815   7.068   6.339  0.2884 -2.2439  0.1343
   10CHTO   C84 3976   3.121   7.169   6.277  0.1212 -0.4713 -0.2380
   10CHTO  H156 3977   3.171   7.084   6.323 -2.9453 -0.8186  2.6497
   10CHTO   N15 3978   3.117   7.265   6.399 -0.4981  0.3363 -0.2213
   10CHTO  H143 3979   3.042   7.228   6.465 -1.3282 -2.1293 -2.4502
   10CHTO  H144 3980   3.095   7.369   6.381  1.1429  0.7040 -0.2140
   10CHTO   C87 3981   3.190   7.228   6.155  0.1355  0.0796 -1.2148
   10CHTO  H159 3982   3.135   7.316   6.120 -2.1275 -0.2288  1.4148
   10CHTO   O53 3983   3.195   7.135   6.051  0.4915 -0.2074 -0.2150
   10CHTO   C82 3984   3.058   7.104   6.007 -1.1763 -0.0832 -0.2908
   10CHTO  H154 3985   3.018   7.203   5.983 -1.9339 -0.8173 -2.0972
   10CHTO   C89 3986   3.064   7.023   5.881 -0.1926  0.1062 -0.7765
   10CHTO   O59 3987   3.125   6.895   5.896  0.2481 -0.3252 -0.7990
   10CHTO  H137 3988   3.136   6.854   5.812  1.5016 -2.6770  0.4491
   10CHTO   O45 3989   3.330   7.264   6.189 -0.3247 -0.0624 -0.0896
   10CHTO   C67 3990   3.419   7.320   6.090  0.3528  0.3342 -0.5634
   10CHTO  H124 3991   3.367   7.351   5.999  0.1205  0.0319 -0.5331
   10CHTO   C65 3992   3.479   7.442   6.157  0.1191 -0.3158 -0.4946
   10CHTO  H122 3993   3.405   7.511   6.196  1.1849  0.7355 -0.2859
   10CHTO   O44 3994   3.541   7.521   6.045  0.1625 -0.2260 -0.4905
   10CHTO  H102 3995   3.549   7.615   6.049 -1.1579 -0.1563  1.1641
   10CHTO   C63 3996   3.576   7.399   6.270  0.0615  0.0528 -0.3219
   10CHTO  H120 3997   3.524   7.329   6.335  0.7044  0.4346  0.6239
   10CHTO   N11 3998   3.616   7.495   6.378  0.2761 -0.2283  0.1080
   10CHTO  H108 3999   3.651   7.442   6.464  1.0985  1.2994  0.7451
   10CHTO  H109 4000   3.698   7.558   6.351 -0.6880 -0.5898 -3.9520
   10CHTO   C61 4001   3.687   7.307   6.206  0.9532 -0.3787 -0.0609
   10CHTO  H118 4002   3.735   7.249   6.286  1.5912 -2.3598 -1.8182
   10CHTO   O40 4003   3.646   7.202   6.110  0.2963  0.4708 -0.0668
   10CHTO   C68 4004   3.525   7.209   6.028 -0.0977 -0.8045 -0.1064
   10CHTO  H125 4005   3.465   7.115   6.028  0.8118 -1.3963 -0.8598
   10CHTO   C72 4006   3.564   7.243   5.881 -0.2353 -0.0144  0.0139
   10CHTO   O48 4007   3.459   7.218   5.786  0.1971 -0.5593 -0.7125
   10CHTO  H105 4008   3.423   7.297   5.751 -2.2095 -0.4131  1.8306
   10CHTO   O38 4009   3.780   7.403   6.158  0.3479 -0.2992  0.1450
   10CHTO   C55 4010   3.915   7.355   6.161 -0.0279 -0.3327 -0.5123
   10CHTO  H112 4011   3.929   7.249   6.185  0.6862  0.3035  2.0848
   10CHTO   C56 4012   3.999   7.447   6.253  0.6153 -0.1966  0.4437
   10CHTO  H113 4013   3.986   7.549   6.213  3.1934  0.2710  0.7450
   10CHTO   O42 4014   3.938   7.445   6.383  0.1099  0.0829  0.1543
   10CHTO  H100 4015   3.994   7.494   6.440 -2.2688  0.4751  2.2586
   10CHTO   C57 4016   4.158   7.427   6.253  0.0979  0.4976  0.7819
   10CHTO  H114 4017   4.182   7.324   6.279 -0.0546  0.2429 -0.0958
   10CHTO   N10 4018   4.230   7.514   6.343  0.5163 -1.1304 -0.3752
   10CHTO  H106 4019   4.334   7.500   6.319  1.1185 -0.8841  1.9507
   10CHTO  H107 4020   4.209   7.616   6.316  1.8866 -0.8498 -0.4321
   10CHTO   C58 4021   4.197   7.447   6.104  0.4164  0.4813  0.7255
   10CHTO  H115 4022   4.170   7.550   6.071 -0.0953  0.3081  0.6009
   10CHTO   O37 4023   4.127   7.354   6.019 -0.3002 -0.4731  0.5574
   10CHTO   C59 4024   3.985   7.378   6.021  0.7136  0.1270 -0.5295
   10CHTO  H116 4025   3.951   7.474   5.980  0.2130 -0.2537 -1.0131
   10CHTO   C70 4026   3.936   7.287   5.915 -0.1407 -0.5342 -0.0301
   10CHTO   O46 4027   3.971   7.305   5.774  0.1461  0.0233 -0.4747
   10CHTO  H103 4028   3.909   7.255   5.725  0.8950 -0.6738 -0.7215
   10CHTO   O39 4029   4.345   7.434   6.083 -0.2884  0.0522 -0.5987
   10CHTO   C60 4030   4.401   7.453   5.955 -0.1659  0.7166 -0.1347
   10CHTO  H117 4031   4.389   7.357   5.905 -1.2903 -2.0182  5.0370
   10CHTO   C62 4032   4.341   7.579   5.879 -0.0816 -0.0118 -0.1297
   10CHTO  H119 4033   4.234   7.557   5.857  0.4445 -0.8448 -1.9242
   10CHTO   O43 4034   4.352   7.697   5.958 -0.1463  0.0350  0.4183
   10CHTO  H101 4035   4.441   7.727   5.959  0.2538 -1.1340  1.0048
   10CHTO   C66 4036   4.420   7.608   5.745 -0.0100  0.2049 -0.5331
   10CHTO  H123 4037   4.417   7.514   5.691  0.4596 -0.5585  0.7460
   10CHTO   N12 4038   4.344   7.705   5.658 -0.2404  0.1597 -0.2346
   10CHTO  H110 4039   4.413   7.758   5.595 -2.7026  1.7125 -1.7342
   10CHTO  H111 4040   4.287   7.640   5.593  1.1165 -1.0441 -0.2497
   10CHTO   C69 4041   4.576   7.632   5.773  0.1059  0.3671  0.1804
   10CHTO  H126 4042   4.593   7.712   5.848  2.3580  0.8168 -0.7981
   10CHTO   O41 4043   4.626   7.514   5.823  0.3096  0.2530  0.2142
   10CHTO   C64 4044   4.557   7.479   5.966  0.1190  0.1797  1.0186
   10CHTO  H121 4045   4.570   7.562   6.038  0.5435  1.2879 -0.3412
   10CHTO   C71 4046   4.624   7.359   6.022 -0.4280 -0.2768  0.1126
   10CHTO   O47 4047   4.759   7.374   6.062 -0.2224 -0.1986 -0.7332
   10CHTO  H104 4048   4.769   7.411   6.147 -0.4632  0.1935 -0.8744
   10CHTO   O34 4049   4.657   7.683   5.647  0.2889 -0.2279 -0.0437
   10CHTO   C49 4050   4.765   7.784   5.622 -0.3940 -0.2093  0.2661
   10CHTO   H91 4051   4.857   7.728   5.609 -1.3782 -1.4157 -1.7226
   10CHTO   C47 4052   4.774   7.888   5.740 -0.8980  0.7061 -0.4251
   10CHTO   H89 4053   4.861   7.949   5.707  0.0646 -0.8567 -0.8398
   10CHTO   O33 4054   4.812   7.817   5.858  0.0978 -0.3899  0.2048
   10CHTO   H70 4055   4.745   7.755   5.881 -0.3707 -0.9215 -2.4551
   10CHTO   C45 4056   4.642   7.979   5.737  0.0982  1.0412  0.3039
   10CHTO   H87 4057   4.552   7.917   5.750  0.1385  0.2143 -2.8227
   10CHTO    N8 4058   4.644   8.083   5.846 -0.2367  0.1949  0.3971
   10CHTO   H75 4059   4.541   8.114   5.855 -0.4646 -0.4105 -0.1237
   10CHTO   H76 4060   4.677   8.033   5.935  1.2657 -1.6657 -1.1725
   10CHTO   C43 4061   4.612   8.048   5.591  0.4132 -0.0965 -0.0506
   10CHTO   H85 4062   4.507   8.077   5.604 -0.6893 -3.0607 -1.8181
   10CHTO   O29 4063   4.622   7.952   5.479 -0.4298  0.1697  0.0550
   10CHTO   C50 4064   4.735   7.863   5.483  0.5046 -0.4065 -0.0808
   10CHTO   H92 4065   4.706   7.789   5.407 -2.3677  0.8212 -0.2568
   10CHTO   C54 4066   4.866   7.936   5.434 -0.1296 -0.3997  0.3708
   10CHTO   O36 4067   4.989   7.855   5.432  0.4649 -0.1415  0.1798
   10CHTO   H72 4068   4.966   7.769   5.462  1.2778 -0.4430 -0.0549
   10CHTO   O27 4069   4.690   8.171   5.563 -0.3524 -0.8974  0.2900
   10CHTO   C37 4070   4.702   8.293   5.492  0.3795 -0.9226  0.4176
   10CHTO   H79 4071   4.737   8.286   5.388  0.5637  1.3751  0.3000
   10CHTO   C38 4072   4.559   8.359   5.480  0.0992 -0.1070 -0.7885
   10CHTO   H80 4073   4.517   8.362   5.582 -0.8807  2.0020 -1.2254
   10CHTO   O31 4074   4.466   8.279   5.402 -0.2021 -0.2560  0.5036
   10CHTO   H68 4075   4.389   8.328   5.381  0.6406  2.2121  2.8792
   10CHTO   C39 4076   4.567   8.509   5.419  0.3441  0.2257  0.1909
   10CHTO   H81 4077   4.601   8.514   5.316  0.6316 -1.0979  0.2121
   10CHTO    N7 4078   4.447   8.591   5.429 -0.7523  0.5488 -0.0772
   10CHTO   H73 4079   4.413   8.596   5.531 -0.7040 -0.2288 -0.0222
   10CHTO   H74 4080   4.466   8.693   5.396  0.9152  0.1510 -0.4176
   10CHTO   C40 4081   4.688   8.595   5.492 -0.6775  1.0657  0.3310
   10CHTO   H82 4082   4.659   8.626   5.593 -2.1023  1.1813 -0.1021
   10CHTO   O26 4083   4.804   8.515   5.497 -0.0099  0.0173 -0.1067
   10CHTO   C41 4084   4.804   8.389   5.567  0.3975  0.2026  0.3017
   10CHTO   H83 4085   4.764   8.408   5.668 -1.7529 -0.3683 -0.4280
   10CHTO   C52 4086   4.943   8.326   5.562 -0.1971 -0.3005  0.3176
   10CHTO   O35 4087   4.967   8.179   5.641 -0.4738 -0.1890  0.1704
   10CHTO   H71 4088   5.053   8.145   5.628 -0.8468 -1.1774  0.2123
   10CHTO   O28 4089   4.730   8.706   5.410  0.2521 -0.3302 -0.3142
   10CHTO   C42 4090   4.759   8.841   5.464 -0.6290 -0.1634 -0.2669
   10CHTO   H84 4091   4.775   8.826   5.571  0.3177 -0.3077 -0.4297
   10CHTO   C44 4092   4.646   8.942   5.452  0.6084  0.1840 -0.3678
   10CHTO   H86 4093   4.621   8.948   5.346 -0.7915 -1.2906 -0.1228
   10CHTO   O32 4094   4.526   8.893   5.526  0.0860  0.2171 -0.3302
   10CHTO   H69 4095   4.528   8.806   5.559 -2.0289 -0.4982 -2.0165
   10CHTO   C48 4096   4.689   9.091   5.488  0.2459  0.3363 -0.3985
   10CHTO   H90 4097   4.695   9.109   5.595  0.0920  1.1757 -0.5271
   10CHTO    N9 4098   4.577   9.182   5.447 -0.0905  0.2868 -0.2345
   10CHTO   H77 4099   4.489   9.167   5.507  0.2198 -1.5540 -0.2068
   10CHTO   H78 4100   4.549   9.180   5.343  1.6494 -0.0379 -0.7119
   10CHTO   C51 4101   4.818   9.127   5.402 -0.0413 -0.1469  0.3181
   10CHTO   H93 4102   4.805   9.105   5.296  1.5259  0.9343 -0.1171
   10CHTO   O30 4103   4.922   9.040   5.457 -0.3800 -0.0999  0.2416
   10CHTO   C46 4104   4.898   8.900   5.404  0.5706  0.8134  0.2030
   10CHTO   H88 4105   4.899   8.903   5.295 -0.3497  1.3320  0.2041
   10CHTO   C53 4106   5.003   8.797   5.460 -0.0816 -0.0828 -0.1655
   10CHTO   O72 4107   5.142   8.821   5.429 -0.1071  0.1581 -0.0070
   10CHTO  H199 4108   5.172   8.761   5.364  3.8482  0.4904  1.3578
   10CHTO   O22 4109   4.871   9.259   5.409  0.5054  0.1732 -0.6879
   10CHTO   C31 4110   4.957   9.318   5.299 -0.5955 -0.0929  0.8810
   10CHTO   H59 4111   4.982   9.422   5.330  2.0317 -0.0153 -1.2932
   10CHTO   C29 4112   5.092   9.247   5.277 -0.5528  0.1023  0.4684
   10CHTO   H57 4113   5.072   9.142   5.252  0.3312  0.0989 -0.2594
   10CHTO   O21 4114   5.170   9.250   5.403 -0.2377 -0.7998 -0.0730
   10CHTO   H37 4115   5.126   9.211   5.477 -0.0659 -1.2277 -0.1966
   10CHTO   C27 4116   5.183   9.307   5.161 -0.5831  0.5512  0.3389
   10CHTO   H55 4117   5.220   9.405   5.192  0.8066 -0.0304  0.5684
   10CHTO    N5 4118   5.303   9.226   5.130 -0.1603 -0.5610  0.6409
   10CHTO   H43 4119   5.383   9.265   5.070  1.0395 -0.7304  2.1133
   10CHTO   H44 4120   5.290   9.118   5.136  1.0068 -0.7027  0.6256
   10CHTO   C25 4121   5.090   9.328   5.034  0.1254 -0.2316 -0.1033
   10CHTO   H53 4122   5.047   9.230   5.008 -1.9987  0.9918 -1.3127
   10CHTO   O17 4123   4.980   9.417   5.077 -0.2176  0.1245  0.1838
   10CHTO   C32 4124   4.893   9.342   5.164  0.2639  0.3014  0.2413
   10CHTO   H60 4125   4.883   9.244   5.117  1.5427  0.6823 -0.8786
   10CHTO   C36 4126   4.748   9.404   5.183 -0.4449 -0.7154  0.0325
   10CHTO   O25 4127   4.750   9.530   5.257  0.0428 -0.7339  0.2111
   10CHTO   H40 4128   4.801   9.595   5.214 -1.4464  1.3136  1.4154
   10CHTO   O15 4129   5.173   9.393   4.909  0.1198  0.5503 -0.4816
   10CHTO   C19 4130   5.214   9.469   4.791 -0.0907 -0.1808  0.0885
   10CHTO   H47 4131   5.200   9.397   4.708  0.9389  0.0137 -0.2655
   10CHTO   C20 4132   5.138   9.605   4.755  0.2674 -0.8262 -0.7215
   10CHTO   H48 4133   5.151   9.681   4.834 -0.6616 -1.7982  0.4048
   10CHTO   O19 4134   4.997   9.569   4.739  0.3736  0.1353  0.3866
   10CHTO   H35 4135   4.972   9.498   4.795 -0.5171  0.2764  0.1697
   10CHTO   C21 4136   5.190   9.678   4.628  0.5555  0.6105  0.5991
   10CHTO   H49 4137   5.176   9.609   4.544 -0.5575 -0.9632  2.0399
   10CHTO    N4 4138   5.120   9.807   4.598 -0.5769 -0.2286 -0.3576
   10CHTO   H41 4139   5.130   9.873   4.683 -6.7569  0.0908  0.3761
   10CHTO   H42 4140   5.159   9.860   4.512  1.3521 -0.5472  0.2965
   10CHTO   C22 4141   5.345   9.686   4.641 -0.1247 -0.0259 -0.2140
   10CHTO   H50 4142   5.364   9.749   4.728  0.3409 -0.8850  0.3189
   10CHTO   O14 4143   5.397   9.554   4.661  0.1071 -0.0523 -0.0989
   10CHTO   C23 4144   5.367   9.498   4.788 -0.3110  0.8155  0.3184
   10CHTO   H51 4145   5.394   9.577   4.859 -0.6713 -0.9139  2.4463
   10CHTO   C34 4146   5.447   9.372   4.809 -0.1247 -0.7481 -0.0254
   10CHTO   O23 4147   5.594   9.384   4.797  0.2056 -0.5494  0.8004
   10CHTO   H38 4148   5.627   9.430   4.723  0.4488  4.1208  3.6330
   10CHTO   O16 4149   5.414   9.742   4.527 -0.2736  0.5899  0.1116
   10CHTO   C24 4150   5.558   9.773   4.555 -0.3174 -0.4424 -0.3586
   10CHTO   H52 4151   5.596   9.712   4.637 -0.9246 -0.6477 -0.2332
   10CHTO   C26 4152   5.573   9.924   4.576 -0.2176  0.1290 -0.1965
   10CHTO   H54 4153   5.524   9.978   4.492  0.5343 -0.7214 -1.1963
   10CHTO   O20 4154   5.511   9.950   4.702  1.0144 -0.0559  0.1333
   10CHTO   H36 4155   5.534  10.038   4.725 -0.9113  0.3193  0.7096
   10CHTO   C30 4156   5.721   9.980   4.569  0.9639  0.1816  0.5473
   10CHTO   H58 4157   5.762   9.968   4.670 -3.5786  0.8782  2.5678
   10CHTO    N6 4158   5.715  10.129   4.561  0.3052 -0.0368  0.3497
   10CHTO   H45 4159   5.706  10.166   4.460  0.1425  0.7471  0.6461
   10CHTO   H46 4160   5.637  10.176   4.619 -1.4838 -0.0264 -2.0234
   10CHTO   C33 4161   5.803   9.898   4.467  0.2049 -0.0003  0.2758
   10CHTO   H61 4162   5.777   9.926   4.364  0.5058  2.5756  0.8617
   10CHTO   O18 4163   5.771   9.755   4.482 -0.0032 -0.3424  0.2518
   10CHTO   C28 4164   5.636   9.739   4.431  0.5341 -0.0788 -0.3574
   10CHTO   H56 4165   5.609   9.804   4.347  0.8350 -0.6242 -0.8792
   10CHTO   C35 4166   5.620   9.594   4.378  0.1144 -0.4566  0.2864
   10CHTO   O24 4167   5.659   9.493   4.477  0.1480  0.2943  0.2213
   10CHTO   H39 4168   5.697   9.419   4.434  2.0759  0.7214  1.1209
   10CHTO    O9 4169   5.946   9.925   4.477  0.2282 -0.1766  0.4280
   10CHTO   C13 4170   6.041   9.868   4.354  0.3550 -0.3158 -0.6793
   10CHTO   H26 4171   6.011   9.924   4.263  1.3671  1.0767 -0.1782
   10CHTO   C11 4172   6.047   9.709   4.332  0.0817  0.4509 -0.3122
   10CHTO   H24 4173   5.949   9.678   4.294  0.1207 -0.4866  0.3548
   10CHTO    O8 4174   6.086   9.644   4.454  0.4364  0.1769 -1.2234
   10CHTO    H3 4175   6.141   9.692   4.513 -1.9472  1.4625  0.0008
   10CHTO    C9 4176   6.152   9.685   4.220  0.0004 -0.7644 -0.1320
   10CHTO   H22 4177   6.136   9.753   4.136  0.7305 -1.2159 -0.6459
   10CHTO    N2 4178   6.164   9.556   4.155  0.0849 -0.0407 -0.2373
   10CHTO   H10 4179   6.189   9.487   4.235  1.2744 -0.5815 -1.0548
   10CHTO   H11 4180   6.069   9.526   4.114 -0.8251  1.1239  0.9941
   10CHTO    C7 4181   6.300   9.735   4.268  0.5137 -0.2460 -0.0867
   10CHTO   H20 4182   6.331   9.791   4.178  1.2052 -1.3497 -0.5368
   10CHTO    O4 4183   6.291   9.824   4.383  0.1451 -0.8173  0.4807
   10CHTO   C14 4184   6.191   9.922   4.370  0.3109  0.1089  1.6187
   10CHTO   H27 4185   6.205  10.001   4.293  2.5804 -0.1968  1.6888
   10CHTO   C18 4186   6.204   9.999   4.504 -0.4085 -0.2366 -0.1383
   10CHTO   O13 4187   6.319  10.075   4.501  0.1229 -0.3817 -0.2708
   10CHTO    H7 4188   6.326  10.109   4.589  0.8590 -0.5387 -0.2686
   10CHTO    O2 4189   6.407   9.610   4.318  0.3355  0.3253 -0.4325
   10CHTO    C1 4190   6.514   9.637   4.407 -0.0049 -0.4399  0.0853
   10CHTO   H14 4191   6.479   9.707   4.485 -0.2778 -2.1231  1.5143
   10CHTO    C2 4192   6.640   9.690   4.339 -0.3145 -0.4095  0.0745
   10CHTO   H15 4193   6.660   9.636   4.245  0.5410 -0.3152  0.2066
   10CHTO    O6 4194   6.599   9.826   4.303 -0.0324  0.2088 -0.4055
   10CHTO    H1 4195   6.553   9.829   4.222  0.1631  2.0925 -0.4626
   10CHTO    C3 4196   6.769   9.690   4.446 -0.2675  0.8272  0.1154
   10CHTO   H16 4197   6.761   9.764   4.527  1.5099 -1.2656  2.2697
   10CHTO    N1 4198   6.895   9.722   4.366 -0.0234  0.1549 -0.5460
   10CHTO    H8 4199   6.941   9.632   4.330  0.8198  0.6030 -0.5882
   10CHTO    H9 4200   6.959   9.775   4.435 -0.8471 -2.8357  2.6419
   10CHTO    C4 4201   6.782   9.554   4.524 -0.6555 -0.4076 -0.3981
   10CHTO   H17 4202   6.815   9.483   4.448  0.0482 -1.6915  1.0876
   10CHTO    O1 4203   6.653   9.520   4.576  0.3014  0.2416 -0.1328
   10CHTO    C5 4204   6.551   9.502   4.483  0.2248  1.0269 -0.6835
   10CHTO   H18 4205   6.595   9.435   4.409 -0.8949 -1.4673  0.8209
   10CHTO   C16 4206   6.444   9.423   4.568  0.6775  0.4470  0.3837
   10CHTO   O11 4207   6.367   9.331   4.494  0.3842  0.0778  0.4406
   10CHTO    H5 4208   6.287   9.311   4.539  1.9061 -0.9628  2.7958
   10CHTO    O3 4209   6.864   9.567   4.643  0.6713  0.1083  0.0195
   10CHTO    C6 4210   6.922   9.441   4.677 -0.1081 -0.0042  0.4654
   10CHTO   H19 4211   6.879   9.353   4.628 -0.8410  1.1913 -1.1089
   10CHTO    C8 4212   7.073   9.446   4.639 -0.5753  0.8589 -0.5088
   10CHTO   H21 4213   7.113   9.540   4.677  0.9130 -0.3023  0.8884
   10CHTO    O7 4214   7.083   9.434   4.492  0.0557  0.3675  0.3260
   10CHTO    H2 4215   7.043   9.356   4.460 -0.0118  0.1235  0.9888
   10CHTO   C12 4216   7.140   9.321   4.710 -0.1132 -0.1321 -0.1807
   10CHTO   H25 4217   7.088   9.232   4.669  3.0011 -2.8186  1.4319
   10CHTO    N3 4218   7.282   9.305   4.672 -0.1786 -0.5768  0.9490
   10CHTO   H12 4219   7.338   9.387   4.716 -1.3877 -0.4428  2.2851
   10CHTO   H13 4220   7.318   9.211   4.711  1.4869 -0.2247  0.2655
   10CHTO   C15 4221   7.112   9.326   4.865  0.1666  0.0706  0.0801
   10CHTO   H28 4222   7.141   9.416   4.919 -0.6130  0.3989 -0.0357
   10CHTO   O10 4223   7.147   9.218   4.933  0.2426  0.2984  0.3155
   10CHTO    H4 4224   7.238   9.200   4.927  0.0662 -0.2442 -0.7385
   10CHTO    O5 4225   6.968   9.306   4.882 -0.2443  0.0816 -0.3518
   10CHTO   C10 4226   6.902   9.424   4.834  0.2697 -0.0757 -0.3275
   10CHTO   H23 4227   6.948   9.506   4.889  1.7673 -2.1832  1.6837
   10CHTO   C17 4228   6.751   9.412   4.871  0.5686 -0.0861 -0.0135
   10CHTO   O12 4229   6.738   9.417   5.011 -0.5645 -0.0363 -1.0444
   10CHTO    H6 4230   6.651   9.397   5.040  0.0375  1.8305  2.3354
   11CHTO  H203 4231   5.287   4.879   2.446 -1.1891 -0.5853  0.6090
   11CHTO   O82 4232   5.220   4.889   2.381 -0.1887  0.0404 -0.3495
   11CHTO  C123 4233   5.242   4.991   2.291 -0.4171 -0.1514 -0.3254
   11CHTO  H227 4234   5.243   5.083   2.351  1.1948  0.1625 -0.8128
   11CHTO   O77 4235   5.377   4.954   2.244 -0.4625 -0.1501 -0.1682
   11CHTO  C118 4236   5.437   5.048   2.153  0.2674  0.3484 -0.5235
   11CHTO  H222 4237   5.424   5.148   2.198  0.6896  0.3862 -0.4863
   11CHTO  C125 4238   5.589   5.008   2.138  0.8229  0.7370 -0.4623
   11CHTO   O84 4239   5.643   5.008   2.273 -0.4446  0.0150 -0.5455
   11CHTO  H205 4240   5.699   5.081   2.287 -1.0196 -0.0532  2.4454
   11CHTO  C114 4241   5.363   5.047   2.018  0.2154 -0.5120 -0.2349
   11CHTO  H218 4242   5.368   4.945   1.981  0.3910 -1.6679  2.7723
   11CHTO  C116 4243   5.212   5.078   2.044 -0.4047 -0.2239  0.2706
   11CHTO  H220 4244   5.196   5.185   2.067 -0.0488  0.1234 -1.0530
   11CHTO   O79 4245   5.139   5.052   1.920 -0.4385  0.3710 -0.6438
   11CHTO  H201 4246   5.114   4.964   1.898 -2.0382  1.0212 -1.4680
   11CHTO  C120 4247   5.149   4.990   2.164 -0.6854  0.1702 -0.8104
   11CHTO  H224 4248   5.141   4.888   2.120  1.1018 -0.5467  0.4839
   11CHTO   N21 4249   5.015   5.039   2.192 -0.1012  0.6658 -0.2475
   11CHTO  H211 4250   4.952   4.968   2.245  0.3369  2.1730  2.3946
   11CHTO  H212 4251   5.026   5.136   2.238 -0.3248  0.1220  0.9730
   11CHTO   O75 4252   5.422   5.145   1.926  0.4973  0.2149 -0.5538
   11CHTO  C112 4253   5.411   5.309   1.963  0.4079  0.7281  0.8983
   11CHTO  H216 4254   5.445   5.331   2.065  0.8608  1.6616  0.5511
   11CHTO   O73 4255   5.275   5.351   1.942  0.3142  0.2346 -0.1183
   11CHTO  C113 4256   5.255   5.486   1.982  0.2828 -0.5023 -0.1952
   11CHTO  H217 4257   5.283   5.510   2.087 -1.0433 -0.4498  0.1563
   11CHTO  C124 4258   5.109   5.515   1.964  0.4296  0.5102  0.0392
   11CHTO   O83 4259   5.015   5.425   2.013  0.1766 -0.4969  0.0970
   11CHTO  H204 4260   5.013   5.344   1.965 -2.3723 -0.6309  0.3611
   11CHTO  C109 4261   5.333   5.590   1.899  0.0796  0.2731  0.5284
   11CHTO  H213 4262   5.276   5.602   1.806 -0.5094 -3.2605  0.3496
   11CHTO  C110 4263   5.482   5.543   1.880  0.4571 -0.2348  0.0710
   11CHTO  H214 4264   5.531   5.576   1.971  0.5418  0.5105 -0.2478
   11CHTO   O78 4265   5.529   5.623   1.770  0.7065  0.4835 -0.3863
   11CHTO  H200 4266   5.586   5.688   1.808  1.3523 -0.1193 -0.3251
   11CHTO  C111 4267   5.501   5.393   1.862  0.0156  0.2987  0.1979
   11CHTO  H215 4268   5.477   5.363   1.759 -0.6134  1.9498 -0.1407
   11CHTO   N19 4269   5.639   5.350   1.880  0.4901 -0.0445  0.4421
   11CHTO  H207 4270   5.642   5.243   1.867 -1.2119 -0.2105  1.3118
   11CHTO  H208 4271   5.681   5.369   1.978  2.1938  0.8922 -0.4517
   11CHTO   O74 4272   5.326   5.715   1.972 -0.5029  0.0868 -0.2017
   11CHTO  C115 4273   5.353   5.850   1.889 -0.5384  0.3038 -0.2347
   11CHTO  H219 4274   5.352   5.832   1.781  0.3734  0.9570 -0.3616
   11CHTO   O76 4275   5.240   5.948   1.906  0.0807  0.3219  0.3311
   11CHTO  C122 4276   5.213   6.004   2.034 -0.0644  0.0669 -0.1064
   11CHTO  H226 4277   5.146   5.939   2.091  0.2260 -0.3623 -0.2503
   11CHTO  C126 4278   5.137   6.144   2.018 -0.2922 -0.3871 -0.0941
   11CHTO   O85 4279   5.211   6.249   1.947  0.2539  0.1150  0.2884
   11CHTO  H206 4280   5.264   6.304   2.002  1.2568 -1.2577  0.7092
   11CHTO  C121 4281   5.349   6.018   2.116  0.4296 -0.0826  0.7057
   11CHTO  H225 4282   5.350   6.094   2.197 -1.7259  1.6632 -0.8316
   11CHTO   O81 4283   5.355   5.902   2.195 -0.3535 -0.2128  0.0656
   11CHTO  H202 4284   5.269   5.883   2.229  0.4591 -1.0297  1.7113
   11CHTO  C119 4285   5.473   6.037   2.030  0.2948  0.8971  0.2399
   11CHTO  H223 4286   5.450   6.128   1.975  2.1884 -0.7058 -3.3656
   11CHTO  C117 4287   5.485   5.917   1.926  0.3853 -0.2130 -0.7587
   11CHTO  H221 4288   5.540   5.831   1.964 -2.1417 -2.2297 -1.5583
   11CHTO   N20 4289   5.560   5.958   1.796 -0.2294  0.7832 -0.3841
   11CHTO  H209 4290   5.579   5.878   1.726 -0.5529  1.7875 -1.6357
   11CHTO  H210 4291   5.655   5.998   1.827  0.8221 -0.3545 -2.1087
   11CHTO   O80 4292   5.613   6.070   2.102 -0.2224 -0.0416  0.0378
   11CHTO  C103 4293   5.649   6.236   2.153  0.2393 -0.3089 -0.2048
   11CHTO  H190 4294   5.752   6.239   2.187 -0.0799  0.3456  0.7457
   11CHTO  C101 4295   5.621   6.344   2.034 -0.5045  0.1028 -0.5526
   11CHTO  H188 4296   5.515   6.348   2.011 -0.5890 -1.5209 -0.5234
   11CHTO   O68 4297   5.695   6.308   1.921 -0.1939  0.5119 -0.0444
   11CHTO  H168 4298   5.709   6.382   1.864  1.8355 -0.0246 -0.3027
   11CHTO   C99 4299   5.672   6.491   2.089  0.0494 -0.2235 -0.1551
   11CHTO  H186 4300   5.779   6.483   2.116  0.5081 -1.0126 -2.1588
   11CHTO   N17 4301   5.665   6.603   1.987  0.0043  0.2911 -0.0960
   11CHTO  H174 4302   5.563   6.634   1.968 -0.7267 -1.5479  0.6803
   11CHTO  H175 4303   5.722   6.686   2.025 -0.6206  0.9262 -0.5342
   11CHTO   C97 4304   5.605   6.527   2.221 -0.5526 -0.6547 -0.0058
   11CHTO  H184 4305   5.502   6.560   2.204  0.0954 -0.4312 -3.7944
   11CHTO   O64 4306   5.610   6.412   2.308 -0.0812  0.1411 -0.2733
   11CHTO  C104 4307   5.558   6.279   2.270  0.2593  0.3459  0.0391
   11CHTO  H191 4308   5.453   6.267   2.245  0.6756  0.7739 -2.0027
   11CHTO  C108 4309   5.581   6.182   2.387 -0.3594 -0.0954 -0.3161
   11CHTO   O71 4310   5.534   6.239   2.509  0.2676  0.3357  0.7075
   11CHTO  H171 4311   5.444   6.214   2.508  0.4102 -0.1789  0.7425
   11CHTO   O62 4312   5.686   6.626   2.291  0.3458 -0.1033  0.3392
   11CHTO   C91 4313   5.615   6.693   2.398 -0.5816 -0.1033  0.3448
   11CHTO  H178 4314   5.506   6.687   2.390 -0.3788 -2.5943 -0.7835
   11CHTO   C92 4315   5.646   6.845   2.391 -0.1256  0.0544 -0.2288
   11CHTO  H179 4316   5.614   6.883   2.293 -3.0699  0.9831  1.0353
   11CHTO   O66 4317   5.575   6.926   2.481 -0.6577 -0.4272 -0.2521
   11CHTO  H166 4318   5.558   6.885   2.563  2.7991 -3.0140 -0.7018
   11CHTO   C93 4319   5.803   6.873   2.415  1.2427  0.7814 -0.7915
   11CHTO  H180 4320   5.797   6.979   2.441  0.0340  0.4875  0.2217
   11CHTO   N16 4321   5.908   6.861   2.310 -0.4995 -0.0887 -0.9051
   11CHTO  H172 4322   5.871   6.826   2.215  1.2437 -1.0200 -1.2530
   11CHTO  H173 4323   5.979   6.941   2.314  0.2023 -0.7461  0.2335
   11CHTO   C94 4324   5.843   6.789   2.541  0.0854  0.4173 -0.4850
   11CHTO  H181 4325   5.904   6.703   2.513 -1.6680 -0.5304 -1.4982
   11CHTO   O61 4326   5.741   6.721   2.616 -0.0118 -0.1059  0.2015
   11CHTO   C95 4327   5.651   6.639   2.541  0.8898 -0.5767  0.3395
   11CHTO  H182 4328   5.694   6.540   2.528  0.6628 -0.6801  0.3979
   11CHTO  C106 4329   5.528   6.627   2.630  0.7363 -0.6835 -0.5973
   11CHTO   O69 4330   5.448   6.521   2.580  1.0324 -0.0946  0.1334
   11CHTO  H169 4331   5.364   6.516   2.622  1.6326  0.5900  1.4709
   11CHTO   O63 4332   5.930   6.886   2.633  0.1014  0.7018  0.1005
   11CHTO   C96 4333   6.026   6.811   2.742 -0.9361 -0.2209  0.2923
   11CHTO  H183 4334   6.085   6.742   2.682  0.7755  2.2230 -0.9260
   11CHTO   C98 4335   5.967   6.719   2.850 -0.0053 -1.0917 -0.6468
   11CHTO  H185 4336   5.885   6.766   2.905  1.2786  0.6740 -0.1841
   11CHTO   O67 4337   5.907   6.613   2.782 -0.4817  0.1932 -0.0584
   11CHTO  H167 4338   5.835   6.641   2.730  0.1441  0.2513 -0.9093
   11CHTO  C102 4339   6.085   6.667   2.946  0.3844 -0.0802 -0.0957
   11CHTO  H189 4340   6.148   6.606   2.879  1.0254  2.3186 -1.7452
   11CHTO   N18 4341   6.039   6.580   3.058  0.3684 -0.1728 -0.0521
   11CHTO  H176 4342   6.007   6.627   3.150  2.4597  1.5434 -0.1772
   11CHTO  H177 4343   5.952   6.529   3.017 -0.0355  1.0416 -0.7158
   11CHTO  C105 4344   6.162   6.788   3.005 -0.3562 -0.1844  0.2820
   11CHTO  H192 4345   6.093   6.855   3.057 -0.7312 -1.2362  1.1377
   11CHTO   O65 4346   6.216   6.871   2.897  0.3609 -0.3262 -0.2037
   11CHTO  C100 4347   6.124   6.918   2.798 -0.2748 -0.0214 -1.0564
   11CHTO  H187 4348   6.062   6.998   2.840  1.3524  1.9592 -2.3507
   11CHTO  C107 4349   6.203   6.979   2.682  0.9317  0.8725 -0.2387
   11CHTO   O70 4350   6.294   7.075   2.733 -0.2656  0.3456  0.1806
   11CHTO  H170 4351   6.340   7.119   2.664 -2.1678 -1.1270 -2.0576
   11CHTO   O57 4352   6.290   6.730   3.100  0.1293  0.4226 -0.7379
   11CHTO   C85 4353   6.356   6.826   3.186  0.2343 -0.4834 -0.6465
   11CHTO  H157 4354   6.275   6.898   3.209 -1.1060 -2.4268  0.9264
   11CHTO   C83 4355   6.462   6.912   3.101  0.0435  0.3556  0.0801
   11CHTO  H155 4356   6.405   6.971   3.030  0.4594  0.9313  0.2201
   11CHTO   O56 4357   6.551   6.822   3.027  0.1534  0.0451 -0.0478
   11CHTO  H135 4358   6.598   6.869   2.961 -1.5201  1.8937  0.0165
   11CHTO   C81 4359   6.542   7.007   3.193  0.3999 -0.4443  1.1734
   11CHTO  H153 4360   6.475   7.073   3.247  0.7897  1.5832 -0.7732
   11CHTO   N14 4361   6.627   7.106   3.123  0.6898 -0.1538  0.3287
   11CHTO  H141 4362   6.571   7.162   3.052 -1.2133 -2.4065 -0.0013
   11CHTO  H142 4363   6.667   7.174   3.196 -1.5688  0.2479  1.2507
   11CHTO   C79 4364   6.620   6.917   3.296  0.1915  0.4242 -0.2502
   11CHTO  H151 4365   6.682   6.983   3.358 -0.7517 -0.1911  1.3921
   11CHTO   O52 4366   6.519   6.860   3.392  0.5074 -0.0262  0.0587
   11CHTO   C86 4367   6.424   6.768   3.327 -0.1859 -0.1824  0.1489
   11CHTO  H158 4368   6.484   6.677   3.304 -0.1293  0.0753 -0.7071
   11CHTO   C90 4369   6.317   6.726   3.427 -0.1895 -0.0191 -0.0247
   11CHTO   O60 4370   6.235   6.620   3.383  0.1097  0.2392  0.2303
   11CHTO  H138 4371   6.288   6.544   3.365  2.1957  2.0899 -1.7833
   11CHTO   O50 4372   6.713   6.822   3.244  0.5621  0.3772  0.3691
   11CHTO   C73 4373   6.816   6.729   3.277 -0.2768 -0.2830  0.1745
   11CHTO  H145 4374   6.785   6.672   3.365 -1.6287  1.2891  0.7406
   11CHTO   C74 4375   6.945   6.806   3.305 -0.3097 -0.2990  0.4127
   11CHTO  H146 4376   6.927   6.872   3.391  0.8881  0.8162 -0.1774
   11CHTO   O54 4377   7.053   6.720   3.341  0.3212 -0.0666  0.2787
   11CHTO  H133 4378   7.048   6.689   3.429 -2.1748  0.6369  0.4001
   11CHTO   C75 4379   6.975   6.894   3.174 -1.2082  0.2421  0.6558
   11CHTO  H147 4380   6.892   6.962   3.153 -1.4697 -0.5259 -0.9247
   11CHTO   N13 4381   7.091   6.984   3.180  0.3092 -0.0380 -0.2571
   11CHTO  H139 4382   7.112   7.031   3.085 -0.2812 -1.8777 -1.3113
   11CHTO  H140 4383   7.172   6.919   3.209 -0.6720 -0.1738  2.3602
   11CHTO   C76 4384   6.980   6.790   3.046 -0.4494 -0.1262 -0.5345
   11CHTO  H148 4385   7.073   6.733   3.052  1.0462  2.0036 -2.4947
   11CHTO   O49 4386   6.861   6.704   3.042  0.0023 -0.1386 -0.1370
   11CHTO   C77 4387   6.837   6.629   3.162 -0.1706  0.7313  0.0936
   11CHTO  H149 4388   6.920   6.562   3.181  1.3282  1.4710 -3.3612
   11CHTO   C88 4389   6.706   6.543   3.144  0.4111 -0.4488  0.4704
   11CHTO   O58 4390   6.725   6.457   3.064  0.0650  0.7978  0.5675
   11CHTO  H136 4391   6.683   6.378   3.092 -2.1687  0.7588 -2.6431
   11CHTO   O51 4392   6.980   6.870   2.913 -0.2159  0.3180  0.0051
   11CHTO   C78 4393   7.052   6.813   2.795 -0.3395  0.5128  0.1504
   11CHTO  H150 4394   7.090   6.711   2.816  1.2924  1.3422  1.3725
   11CHTO   C80 4395   7.175   6.902   2.778  0.5796  0.1583 -0.4729
   11CHTO  H152 4396   7.151   7.010   2.789  1.3393  0.1919  1.1189
   11CHTO   O55 4397   7.272   6.876   2.885 -0.5663  0.4041 -0.5352
   11CHTO  H134 4398   7.269   6.787   2.914 -1.1390  0.0383 -1.6615
   11CHTO   C84 4399   7.238   6.862   2.640  0.1171  0.3412 -0.7016
   11CHTO  H156 4400   7.285   6.766   2.659 -1.3860 -0.1576  0.6320
   11CHTO   N15 4401   7.349   6.962   2.599 -0.4022 -0.3856  0.4529
   11CHTO  H143 4402   7.371   7.038   2.672  0.2348 -0.3374  0.2108
   11CHTO  H144 4403   7.437   6.905   2.583 -0.8022  0.0286 -3.7319
   11CHTO   C87 4404   7.132   6.842   2.522 -0.3321  0.5040  0.3232
   11CHTO  H159 4405   7.088   6.941   2.508 -0.8649  0.0656 -1.1791
   11CHTO   O53 4406   7.045   6.766   2.567 -0.2061  0.4975 -0.0171
   11CHTO   C82 4407   6.962   6.820   2.670 -0.2461  0.0821  0.0962
   11CHTO  H154 4408   6.928   6.921   2.649 -1.6114 -0.2906  0.4632
   11CHTO   C89 4409   6.835   6.732   2.692  0.0530  0.2029  0.4978
   11CHTO   O59 4410   6.782   6.659   2.580 -0.5625  0.0953  0.5228
   11CHTO  H137 4411   6.802   6.700   2.498 -0.5273 -1.7330 -0.4136
   11CHTO   O45 4412   7.192   6.804   2.379 -0.3346  0.2456  0.1832
   11CHTO   C67 4413   7.106   6.852   2.270 -0.6252  0.3456  0.0097
   11CHTO  H124 4414   7.015   6.792   2.278 -1.2255  1.1307 -0.7682
   11CHTO   C65 4415   7.060   7.002   2.274 -0.5994 -0.2427  0.7278
   11CHTO  H122 4416   7.134   7.052   2.336 -0.0491 -0.4703  0.2602
   11CHTO   O44 4417   6.933   7.009   2.331  0.5565 -0.2417  0.0345
   11CHTO  H102 4418   6.877   7.036   2.260 -0.7427  0.8345  1.4159
   11CHTO   C63 4419   7.084   7.080   2.134 -0.2710 -0.5041  0.2200
   11CHTO  H120 4420   7.191   7.082   2.116 -0.3094 -0.9711 -0.0804
   11CHTO   N11 4421   7.050   7.227   2.120  0.1979  0.2117 -0.0520
   11CHTO  H108 4422   7.080   7.269   2.026 -1.8679 -1.5434 -1.5604
   11CHTO  H109 4423   6.943   7.225   2.131  0.1283  2.8784  0.2429
   11CHTO   C61 4424   7.017   6.997   2.021  0.0619  0.0384 -0.2108
   11CHTO  H118 4425   7.051   7.043   1.927  0.9811  0.7035  0.4409
   11CHTO   O40 4426   7.074   6.867   2.020  0.0997 -0.0564  0.1343
   11CHTO   C68 4427   7.169   6.821   2.129  0.4077 -0.3477  0.0624
   11CHTO  H125 4428   7.265   6.875   2.116 -0.4281  0.9681 -0.7633
   11CHTO   C72 4429   7.191   6.678   2.092  0.2543  0.0552 -0.1404
   11CHTO   O48 4430   7.082   6.578   2.112  0.4830  0.0944 -0.1837
   11CHTO  H105 4431   6.998   6.618   2.097  0.6874  0.5092 -0.2213
   11CHTO   O38 4432   6.878   6.977   2.037  0.0055  0.1377 -0.4442
   11CHTO   C55 4433   6.798   6.947   1.921 -0.2709  0.5231  0.1167
   11CHTO  H112 4434   6.867   6.899   1.850 -1.2983  0.0438 -0.5793
   11CHTO   C56 4435   6.735   7.082   1.871  0.0921  0.4756 -0.6514
   11CHTO  H113 4436   6.669   7.113   1.953  0.4946  0.1437 -0.2015
   11CHTO   O42 4437   6.831   7.184   1.855  0.0336  0.4129 -0.2065
   11CHTO  H100 4438   6.816   7.255   1.914  1.5912  1.8728 -1.4804
   11CHTO   C57 4439   6.650   7.057   1.741  0.0388  0.4151 -0.1279
   11CHTO  H114 4440   6.721   7.037   1.661 -1.0018  0.8505 -1.1758
   11CHTO   N10 4441   6.580   7.175   1.689 -0.4253 -0.4927  0.2031
   11CHTO  H106 4442   6.563   7.175   1.583 -0.3470  1.8629  0.1759
   11CHTO  H107 4443   6.634   7.265   1.715  0.6817 -0.9661 -0.4132
   11CHTO   C58 4444   6.553   6.938   1.764 -0.0291 -0.7330 -0.6454
   11CHTO  H115 4445   6.468   6.979   1.821  0.8715  1.4383 -0.7906
   11CHTO   O37 4446   6.623   6.826   1.820 -0.3401  0.5844  0.2917
   11CHTO   C59 4447   6.687   6.845   1.953 -0.6433 -0.3998 -0.2946
   11CHTO  H116 4448   6.618   6.892   2.024  1.0657  1.3757  0.2265
   11CHTO   C70 4449   6.748   6.712   1.993  0.5859 -0.5358 -0.4177
   11CHTO   O46 4450   6.773   6.703   2.138  0.0314  0.1688  0.5668
   11CHTO  H103 4451   6.745   6.621   2.174 -2.4913  1.1464  0.9468
   11CHTO   O39 4452   6.515   6.880   1.623 -0.1336 -0.2427 -0.3541
   11CHTO   C60 4453   6.370   6.863   1.601 -0.0523  0.6957  0.6412
   11CHTO  H117 4454   6.305   6.882   1.686 -1.5074 -0.7284 -0.1121
   11CHTO   C62 4455   6.316   6.961   1.493 -0.5558  0.2360 -0.0695
   11CHTO  H119 4456   6.321   7.064   1.532  2.0951 -1.1407  3.4933
   11CHTO   O43 4457   6.399   6.945   1.380 -0.2882 -0.3443 -0.2163
   11CHTO  H101 4458   6.400   6.854   1.357 -0.9661 -0.5396  0.5053
   11CHTO   C66 4459   6.160   6.928   1.457  0.0352 -0.3619 -0.3700
   11CHTO  H123 4460   6.103   6.941   1.549  0.2447  0.5862 -0.3732
   11CHTO   N12 4461   6.109   7.027   1.364  0.7556 -0.1464  0.5818
   11CHTO  H110 4462   6.174   7.113   1.364 -0.2190  0.5981  1.8129
   11CHTO  H111 4463   6.010   7.058   1.392  1.0585  2.5669 -1.1428
   11CHTO   C69 4464   6.142   6.779   1.415  0.1954 -0.5859  1.0952
   11CHTO  H126 4465   6.193   6.751   1.321  0.1200 -1.9765  1.4499
   11CHTO   O41 4466   6.194   6.689   1.517 -0.0666  0.3680  0.1283
   11CHTO   C64 4467   6.344   6.714   1.563 -0.4069  0.0173  0.1790
   11CHTO  H121 4468   6.419   6.693   1.484 -0.6747  1.0440 -0.3522
   11CHTO   C71 4469   6.374   6.634   1.694 -0.0791 -0.1661 -0.1940
   11CHTO   O47 4470   6.343   6.497   1.682  0.3169  0.2104  0.4416
   11CHTO  H104 4471   6.360   6.454   1.764  2.2260  1.6575  0.8513
   11CHTO   O34 4472   5.986   6.748   1.383  0.1192 -0.3054  0.4581
   11CHTO   C49 4473   5.863   6.784   1.474  0.4192 -0.1698 -0.2233
   11CHTO   H91 4474   5.888   6.873   1.531  1.8167 -1.7512  1.6669
   11CHTO   C47 4475   5.840   6.674   1.571 -0.8258  0.0927 -0.8913
   11CHTO   H89 4476   5.752   6.705   1.632  0.3182  1.4914  0.0837
   11CHTO   O33 4477   5.949   6.654   1.664 -0.2004  0.6966  0.2185
   11CHTO   H70 4478   5.924   6.624   1.749 -2.4137 -0.6037 -0.8423
   11CHTO   C45 4479   5.804   6.545   1.488 -0.1560 -0.5129 -0.8193
   11CHTO   H87 4480   5.898   6.521   1.435  0.5736  1.5208 -0.4816
   11CHTO    N8 4481   5.771   6.431   1.574 -0.3173  0.3040 -0.0385
   11CHTO   H75 4482   5.847   6.393   1.641 -3.2716  0.2110  3.4014
   11CHTO   H76 4483   5.681   6.450   1.631 -0.2774  0.4099 -0.0108
   11CHTO   C43 4484   5.686   6.570   1.376 -0.0787 -0.3227 -1.2367
   11CHTO   H85 4485   5.691   6.480   1.314 -0.8708 -2.9767  2.4245
   11CHTO   O29 4486   5.708   6.698   1.312 -0.0200  0.4645 -0.3517
   11CHTO   C50 4487   5.749   6.813   1.385  0.3291  0.4282 -0.0394
   11CHTO   H92 4488   5.784   6.871   1.299  0.7866  0.3933  0.1214
   11CHTO   C54 4489   5.632   6.897   1.452  0.7481  0.0640 -0.9187
   11CHTO   O36 4490   5.683   7.005   1.528 -0.1426  0.6316  0.0075
   11CHTO   H72 4491   5.613   7.034   1.584 -2.2120 -0.1316 -2.1201
   11CHTO   O27 4492   5.554   6.569   1.435  0.5725  0.2509  0.2632
   11CHTO   C37 4493   5.440   6.525   1.508  0.7980  0.7319  0.2551
   11CHTO   H79 4494   5.470   6.441   1.572  0.4716 -1.7472 -2.6618
   11CHTO   C38 4495   5.371   6.633   1.599 -1.1235 -0.3703  1.1095
   11CHTO   H80 4496   5.347   6.719   1.534 -2.4279 -1.4254  0.1589
   11CHTO   O31 4497   5.470   6.688   1.696 -0.2076 -0.1265  0.5133
   11CHTO   H68 4498   5.498   6.623   1.758 -1.0150  0.1418  1.1776
   11CHTO   C39 4499   5.244   6.576   1.684  0.2903  0.5314  0.0508
   11CHTO   H81 4500   5.281   6.505   1.759 -0.4126  0.6272  0.4921
   11CHTO    N7 4501   5.170   6.680   1.762  0.3108 -0.2152  0.5941
   11CHTO   H73 4502   5.122   6.751   1.696 -1.4504 -1.2023  0.7699
   11CHTO   H74 4503   5.235   6.729   1.834  1.3489 -1.3091  0.4109
   11CHTO   C40 4504   5.150   6.508   1.584  0.5243  0.5322  0.6654
   11CHTO   H82 4505   5.086   6.579   1.532  0.5419  0.4092  0.4739
   11CHTO   O26 4506   5.215   6.415   1.492  0.5422 -0.2702  0.3385
   11CHTO   C41 4507   5.329   6.474   1.415 -0.2123 -0.3329  0.7065
   11CHTO   H83 4508   5.299   6.554   1.346 -0.8200 -0.0594  1.2833
   11CHTO   C52 4509   5.379   6.361   1.329  0.4040 -0.1340 -0.1718
   11CHTO   O35 4510   5.283   6.323   1.214  0.2078  0.1493  0.3174
   11CHTO   H71 4511   5.329   6.265   1.156 -0.0871 -0.8057  1.0434
   11CHTO   O28 4512   5.072   6.416   1.661  0.0154 -0.6424 -0.1199
   11CHTO   C42 4513   4.951   6.346   1.614  0.2916  0.2195  0.6156
   11CHTO   H84 4514   4.967   6.359   1.507  3.2396  1.3029  1.1218
   11CHTO   C44 4515   4.813   6.415   1.655  0.2556 -0.0780 -0.2282
   11CHTO   H86 4516   4.811   6.434   1.763 -1.3608 -0.1026 -0.2367
   11CHTO   O32 4517   4.805   6.546   1.592 -0.1734  0.1349  0.4522
   11CHTO   H69 4518   4.798   6.540   1.498  3.1307 -0.5603  0.1756
   11CHTO   C48 4519   4.691   6.315   1.632 -0.9539 -0.0468 -0.0252
   11CHTO   H90 4520   4.684   6.292   1.526 -4.2866  0.0627  0.1301
   11CHTO    N9 4521   4.561   6.379   1.671 -0.2027 -0.0404 -0.2828
   11CHTO   H77 4522   4.576   6.470   1.727 -1.4545 -1.1889  1.9733
   11CHTO   H78 4523   4.474   6.327   1.709 -0.0083 -0.0659  0.1275
   11CHTO   C51 4524   4.714   6.181   1.706 -0.2785  0.0601 -0.4289
   11CHTO   H93 4525   4.752   6.200   1.806 -0.6694 -1.9153  0.1133
   11CHTO   O30 4526   4.818   6.122   1.626  0.2403  0.2026 -0.0557
   11CHTO   C46 4527   4.955   6.197   1.646 -0.8467  0.4785 -0.0548
   11CHTO   H88 4528   4.977   6.186   1.752  2.3881 -3.9947 -1.0818
   11CHTO   C53 4529   5.071   6.121   1.567  0.0074  0.0320 -0.4773
   11CHTO   O72 4530   5.081   5.992   1.624 -0.1407  0.4572 -0.6790
   11CHTO  H199 4531   5.163   5.948   1.613 -0.3256 -0.4020  1.2176
   11CHTO   O22 4532   4.623   6.072   1.694  0.0986 -0.3533  0.3784
   11CHTO   C31 4533   4.586   6.008   1.824 -0.2342 -0.3923  0.6212
   11CHTO   H59 4534   4.652   6.049   1.903  0.0546  1.0668 -0.3593
   11CHTO   C29 4535   4.440   6.034   1.866  0.0222  0.2303 -0.6346
   11CHTO   H57 4536   4.378   6.025   1.776 -0.3177  1.6930 -0.5569
   11CHTO   O21 4537   4.427   6.166   1.914  0.4532  0.5056 -0.1275
   11CHTO   H37 4538   4.448   6.181   2.004 -0.3770 -0.4502  0.2436
   11CHTO   C27 4539   4.398   5.935   1.975  0.1952  0.8235  0.2381
   11CHTO   H55 4540   4.457   5.951   2.067  1.4701  0.1546 -0.4513
   11CHTO    N5 4541   4.254   5.944   2.007  0.7122  0.2187  0.1175
   11CHTO   H43 4542   4.197   6.001   1.934 -0.1222 -2.8285 -1.6766
   11CHTO   H44 4543   4.205   5.849   2.021 -1.8010  1.1971 -1.5422
   11CHTO   C25 4544   4.439   5.784   1.945  0.6555 -0.2433  0.6059
   11CHTO   H53 4545   4.390   5.749   1.852  0.1844  0.8823  0.4273
   11CHTO   O17 4546   4.585   5.779   1.935  0.0309 -0.4378 -0.2143
   11CHTO   C32 4547   4.624   5.852   1.818 -0.6039  0.2147 -0.2763
   11CHTO   H60 4548   4.582   5.801   1.732  0.7527 -1.6115  0.1183
   11CHTO   C36 4549   4.781   5.843   1.813  0.3307  0.0969  0.1309
   11CHTO   O25 4550   4.824   5.704   1.796 -0.2009  0.0280 -0.7645
   11CHTO   H40 4551   4.820   5.655   1.876  0.0996 -0.4934 -1.0699
   11CHTO   O15 4552   4.396   5.668   2.064  0.9355 -0.4503  0.4896
   11CHTO   C19 4553   4.420   5.524   2.039  0.4264  0.1371  0.1997
   11CHTO   H47 4554   4.406   5.511   1.930 -0.6404 -0.4368  0.3973
   11CHTO   C20 4555   4.562   5.465   2.079  0.0303 -0.2393  0.2097
   11CHTO   H48 4556   4.591   5.499   2.179 -0.8590  1.5302 -0.1166
   11CHTO   O19 4557   4.665   5.516   1.983  0.1796  0.3650 -0.1281
   11CHTO   H35 4558   4.670   5.610   1.980 -1.3464  0.4293 -1.1422
   11CHTO   C21 4559   4.568   5.308   2.063 -0.3370  0.0641  0.9130
   11CHTO   H49 4560   4.572   5.286   1.957 -1.1957 -0.2544  0.9394
   11CHTO    N4 4561   4.696   5.252   2.114  0.1286  0.5325 -0.9278
   11CHTO   H41 4562   4.708   5.263   2.221 -0.3334  1.2735 -0.9506
   11CHTO   H42 4563   4.688   5.147   2.091 -0.1900  0.6218 -1.2162
   11CHTO   C22 4564   4.437   5.246   2.114 -0.0568  0.7914  1.2474
   11CHTO   H50 4565   4.444   5.245   2.223 -0.3502  0.0513  1.2638
   11CHTO   O14 4566   4.319   5.306   2.060 -0.0244 -0.1961  0.2159
   11CHTO   C23 4567   4.306   5.442   2.105  0.2897  0.3997 -0.3712
   11CHTO   H51 4568   4.309   5.449   2.215  1.2122  1.9340 -0.4740
   11CHTO   C34 4569   4.170   5.493   2.062  0.0560  0.2848  0.5908
   11CHTO   O23 4570   4.142   5.613   2.132  0.3983  0.4428 -0.2497
   11CHTO   H38 4571   4.069   5.651   2.088  0.0162 -0.0499 -0.0468
   11CHTO   O16 4572   4.437   5.105   2.080  0.5377 -0.0070 -0.0849
   11CHTO   C24 4573   4.291   5.022   2.092  0.1782 -0.6446  0.6499
   11CHTO   H52 4574   4.203   5.088   2.093  0.0589 -0.8034  0.7440
   11CHTO   C26 4575   4.280   4.957   2.228 -0.1036 -0.3054  0.1877
   11CHTO   H54 4576   4.365   4.886   2.238  0.4368  0.1745 -0.9133
   11CHTO   O20 4577   4.290   5.061   2.334  0.1199  0.2686  0.0861
   11CHTO   H36 4578   4.381   5.073   2.354  1.0361 -0.8966 -3.1444
   11CHTO   C30 4579   4.153   4.869   2.246 -0.0805  0.3122 -0.1798
   11CHTO   H58 4580   4.062   4.931   2.244  0.6945  1.5495  1.6127
   11CHTO    N6 4581   4.167   4.791   2.378 -0.5229  0.5611 -0.5815
   11CHTO   H45 4582   4.269   4.762   2.400 -1.2367 -1.5206  0.0836
   11CHTO   H46 4583   4.102   4.705   2.377  0.3180 -0.0843 -0.6416
   11CHTO   C33 4584   4.131   4.784   2.118 -0.2390 -0.0861 -0.1513
   11CHTO   H61 4585   4.210   4.708   2.108 -0.6858 -1.0005  2.6727
   11CHTO   O18 4586   4.136   4.869   2.001 -0.8178 -0.1418 -0.1625
   11CHTO   C28 4587   4.271   4.927   1.975  0.1368 -0.0393  0.1697
   11CHTO   H56 4588   4.348   4.850   1.973 -1.1834 -1.3976  0.6129
   11CHTO   C35 4589   4.263   5.003   1.841 -0.4574  0.0667 -0.5186
   11CHTO   O24 4590   4.242   4.911   1.740 -0.1239 -0.7269 -0.2168
   11CHTO   H39 4591   4.155   4.920   1.706 -0.4739  0.7970  1.0084
   11CHTO    O9 4592   4.004   4.713   2.130  0.3583  0.2909  0.7196
   11CHTO   C13 4593   3.871   4.792   2.089 -0.1469  0.1697 -0.0034
   11CHTO   H26 4594   3.882   4.902   2.104 -1.3567  0.1260  1.2560
   11CHTO   C11 4595   3.742   4.735   2.165  0.0648 -0.2910  0.0768
   11CHTO   H24 4596   3.760   4.744   2.273 -3.5970  1.1393  0.6575
   11CHTO    O8 4597   3.723   4.593   2.158 -0.0345  0.5842  0.3159
   11CHTO    H3 4598   3.708   4.562   2.071 -2.5046 -0.0294  0.8967
   11CHTO    C9 4599   3.618   4.818   2.130 -0.1101 -0.5788  0.1439
   11CHTO   H22 4600   3.643   4.921   2.159 -0.2724  0.4080 -3.0866
   11CHTO    N2 4601   3.504   4.785   2.213 -0.3671 -0.3144 -0.6440
   11CHTO   H10 4602   3.444   4.709   2.166  0.2906 -1.5921  0.5708
   11CHTO   H11 4603   3.526   4.750   2.313 -1.5251  0.6123 -0.0563
   11CHTO    C7 4604   3.604   4.826   1.971 -0.6368  0.0406  0.8465
   11CHTO   H20 4605   3.628   4.932   1.948  0.8718 -0.4591  0.0382
   11CHTO    O4 4606   3.699   4.742   1.907  0.6486 -0.3613  0.5094
   11CHTO   C14 4607   3.834   4.776   1.927  0.3006  0.7685  0.5651
   11CHTO   H27 4608   3.855   4.869   1.871 -3.2310  1.4554  0.2174
   11CHTO   C18 4609   3.893   4.663   1.849 -0.0930 -0.2650 -0.1872
   11CHTO   O13 4610   4.008   4.707   1.789  0.2286  0.0596  0.5179
   11CHTO    H7 4611   4.014   4.661   1.708 -1.5007  3.5379 -1.6990
   11CHTO    O2 4612   3.474   4.794   1.911  0.1133 -0.1650 -0.0989
   11CHTO    C1 4613   3.448   4.799   1.766 -0.2700  0.7217  0.2849
   11CHTO   H14 4614   3.531   4.748   1.712 -0.6852  0.5370 -0.1846
   11CHTO    C2 4615   3.426   4.938   1.707 -0.0516  0.3349  0.2041
   11CHTO   H15 4616   3.341   4.986   1.757 -0.5372 -2.8177  2.5480
   11CHTO    O6 4617   3.543   5.017   1.731 -0.0139  0.1499  0.3367
   11CHTO    H1 4618   3.616   4.986   1.681 -1.8353 -0.1587 -2.2131
   11CHTO    C3 4619   3.401   4.937   1.549  0.1726  0.2592 -0.4482
   11CHTO   H16 4620   3.489   4.896   1.497 -0.7237 -0.8692 -1.1077
   11CHTO    N1 4621   3.363   5.069   1.491 -0.1596  0.2603 -0.1287
   11CHTO    H8 4622   3.282   5.114   1.546 -0.6200 -1.1101  0.3604
   11CHTO    H9 4623   3.344   5.061   1.385  1.6513  0.6655 -0.4968
   11CHTO    C4 4624   3.290   4.829   1.519 -0.1807  0.3265 -0.0422
   11CHTO   H17 4625   3.191   4.871   1.541 -0.9672 -1.5186  0.0485
   11CHTO    O1 4626   3.316   4.705   1.582 -0.5225 -0.0763  0.4090
   11CHTO    C5 4627   3.323   4.711   1.726  0.2367  0.0910  0.0842
   11CHTO   H18 4628   3.235   4.761   1.767 -0.4775 -1.0707 -0.0211
   11CHTO   C16 4629   3.322   4.569   1.792  0.0563 -0.1308  0.2800
   11CHTO   O11 4630   3.197   4.501   1.784 -0.8534 -0.1943 -0.2342
   11CHTO    H5 4631   3.150   4.500   1.866 -1.7509  0.6666 -0.7289
   11CHTO    O3 4632   3.287   4.804   1.372  0.2496 -0.0768 -0.6228
   11CHTO    C6 4633   3.157   4.777   1.305 -0.6498  0.6195  0.7023
   11CHTO   H19 4634   3.077   4.757   1.377 -1.0325 -0.9051 -0.1122
   11CHTO    C8 4635   3.114   4.905   1.225  0.7018  0.4663 -0.1736
   11CHTO   H21 4636   3.194   4.938   1.159  0.6823  0.1621 -0.3510
   11CHTO    O7 4637   3.081   5.004   1.322 -0.5675 -0.4549  0.5427
   11CHTO    H2 4638   3.145   5.011   1.390 -0.5091  1.1787  0.3582
   11CHTO   C12 4639   2.989   4.878   1.133 -0.5443  0.9639 -0.1673
   11CHTO   H25 4640   2.907   4.853   1.204  0.9175  1.0769  1.5858
   11CHTO    N3 4641   2.950   4.990   1.048  0.8202 -0.2912  0.2163
   11CHTO   H12 4642   2.903   5.064   1.111 -0.5812 -2.4493  1.7984
   11CHTO   H13 4643   3.034   5.036   0.999  0.9406 -1.1536 -0.4082
   11CHTO   C15 4644   3.020   4.746   1.049 -0.3158  0.4841  0.3992
   11CHTO   H28 4645   3.103   4.772   0.984  0.0586 -0.0080  0.6789
   11CHTO   O10 4646   2.884   4.695   0.978 -0.2044  0.3168  0.1020
   11CHTO    H4 4647   2.897   4.636   0.907 -0.9527  0.0018  0.2237
   11CHTO    O5 4648   3.048   4.634   1.131  0.5400  0.3474 -0.2048
   11CHTO   C10 4649   3.162   4.652   1.215  0.3039 -0.4151  0.5091
   11CHTO   H23 4650   3.248   4.652   1.148 -0.9538 -1.7652 -1.1463
   11CHTO   C17 4651   3.181   4.522   1.291  0.2040 -0.1949 -0.2673
   11CHTO   O12 4652   3.309   4.517   1.359  0.9234 -0.2137  0.2097
   11CHTO    H6 4653   3.302   4.468   1.438  0.8429 -0.1210  0.2603
   12CHTO  H203 4654   5.248   1.399   2.697 -2.5054  1.8984 -1.8854
   12CHTO   O82 4655   5.267   1.328   2.639  0.4906  0.4259  0.7374
   12CHTO  C123 4656   5.204   1.205   2.693  0.2675  0.2328 -0.3673
   12CHTO  H227 4657   5.211   1.208   2.803 -0.4719  0.3023 -0.3207
   12CHTO   O77 4658   5.067   1.223   2.651 -0.0854  0.3167 -0.6989
   12CHTO  C118 4659   4.975   1.121   2.703  0.1936  0.7969  0.5243
   12CHTO  H222 4660   4.992   1.100   2.809  0.8572  0.2181  0.3061
   12CHTO  C125 4661   4.819   1.152   2.680 -0.3495  0.1305 -0.0994
   12CHTO   O84 4662   4.807   1.287   2.723  0.1042  0.2864 -0.6959
   12CHTO  H205 4663   4.833   1.346   2.655 -1.5257  0.4566 -1.1998
   12CHTO  C114 4664   5.011   0.992   2.626  0.0778 -0.5097  1.5867
   12CHTO  H218 4665   4.976   1.004   2.523  0.2015 -0.3936  1.5582
   12CHTO  C116 4666   5.161   0.957   2.640 -0.1150  0.2975 -0.1644
   12CHTO  H220 4667   5.172   0.921   2.744  1.6606  0.5022 -0.2745
   12CHTO   O79 4668   5.195   0.847   2.554  0.0569  0.3105 -0.3982
   12CHTO  H201 4669   5.287   0.826   2.554 -0.8339 -3.9509  1.1368
   12CHTO  C120 4670   5.266   1.077   2.613  0.4160 -0.0835 -0.3529
   12CHTO  H224 4671   5.269   1.108   2.507  1.0794  2.0410  0.2664
   12CHTO   N21 4672   5.401   1.050   2.664 -0.2808 -0.5847  0.2595
   12CHTO  H211 4673   5.397   0.997   2.758  1.4975 -2.5573 -0.7491
   12CHTO  H212 4674   5.454   0.991   2.591 -1.0868  0.4689 -1.2004
   12CHTO   O75 4675   4.922   0.894   2.685 -0.4368  0.3096  0.1473
   12CHTO  C112 4676   4.951   0.723   2.671 -0.0120 -0.9790  0.6649
   12CHTO  H216 4677   5.048   0.698   2.717 -0.2086 -1.1651  0.9840
   12CHTO   O73 4678   4.950   0.685   2.536  0.3377 -0.1723  0.2206
   12CHTO  C113 4679   4.961   0.543   2.510  0.5561  0.7088  0.2486
   12CHTO  H217 4680   5.063   0.510   2.540 -0.2765 -0.2387  2.0635
   12CHTO  C124 4681   4.961   0.525   2.354  0.2974 -0.2170 -0.0803
   12CHTO   O83 4682   4.867   0.598   2.283 -0.9953 -0.3868  0.3184
   12CHTO  H204 4683   4.903   0.626   2.201 -1.2581 -0.4671  0.1739
   12CHTO  C109 4684   4.854   0.452   2.587  0.1183 -0.4552  0.4663
   12CHTO  H213 4685   4.759   0.467   2.533 -0.3944 -2.8570  0.6633
   12CHTO  C110 4686   4.845   0.496   2.737 -0.4991 -0.3781 -0.7253
   12CHTO  H214 4687   4.934   0.461   2.789  1.0971  2.1660 -1.6346
   12CHTO   O78 4688   4.736   0.432   2.812 -0.0397  0.3142 -0.3827
   12CHTO  H200 4689   4.657   0.482   2.801 -0.2141 -0.1922 -1.4267
   12CHTO  C111 4690   4.839   0.651   2.748 -0.8456  0.0263 -0.6890
   12CHTO  H215 4691   4.744   0.685   2.704 -0.7150  3.2992  1.3892
   12CHTO   N19 4692   4.853   0.702   2.888  0.0704 -0.2341  0.6093
   12CHTO  H207 4693   4.768   0.766   2.908 -1.8617 -1.9267 -1.7857
   12CHTO  H208 4694   4.876   0.636   2.970  1.3850 -0.4179  0.0928
   12CHTO   O74 4695   4.887   0.312   2.569  0.7205  0.2606 -0.0687
   12CHTO  C115 4696   4.766   0.206   2.582 -0.9847 -0.4026 -0.1747
   12CHTO  H219 4697   4.697   0.237   2.660  1.7020 -2.4345  3.0979
   12CHTO   O76 4698   4.674   0.199   2.440  0.0612  0.2449 -0.1039
   12CHTO  C122 4699   4.750   0.132   2.347 -0.3664 -0.5199  0.1792
   12CHTO  H226 4700   4.852   0.170   2.352 -0.8440  0.9515 -1.0251
   12CHTO  C126 4701   4.696   0.159   2.201 -0.4719  0.4072 -0.1942
   12CHTO   O85 4702   4.703   0.300   2.190  0.3028 -0.4735  0.1209
   12CHTO  H206 4703   4.654   0.321   2.113  0.9556  1.3844  0.1749
   12CHTO  C121 4704   4.758  -0.020   2.384 -0.4223  0.3323 -0.3580
   12CHTO  H225 4705   4.673  -0.075   2.338 -1.2095  0.9786  0.3046
   12CHTO   O81 4706   4.886  -0.073   2.342  0.1632 -0.8685  0.5562
   12CHTO  H202 4707   4.869  -0.149   2.289 -0.7900 -0.0132 -0.3782
   12CHTO  C119 4708   4.746  -0.048   2.531 -0.6843 -0.4069 -0.1939
   12CHTO  H223 4709   4.641  -0.034   2.560 -1.0668  1.5144 -2.3494
   12CHTO  C117 4710   4.829   0.064   2.613  0.2862 -0.5550  0.2387
   12CHTO  H221 4711   4.934   0.078   2.588 -0.4143  0.4779 -2.3282
   12CHTO   N20 4712   4.821   0.031   2.755  0.0833 -0.2480  0.2418
   12CHTO  H209 4713   4.876   0.102   2.816  1.0373  1.6020 -2.6897
   12CHTO  H210 4714   4.719   0.012   2.786  0.0030 -0.4566 -0.1525
   12CHTO   O80 4715   4.775  -0.215   2.574  0.2826 -0.9980 -0.2623
   12CHTO  C103 4716   4.697  -0.286   2.673 -0.2209  0.1099 -0.0883
   12CHTO  H190 4717   4.695  -0.217   2.758  0.2031 -0.1886  0.1714
   12CHTO  C101 4718   4.552  -0.341   2.638  0.0965  0.1718  0.0117
   12CHTO  H188 4719   4.561  -0.397   2.545 -1.4750 -1.0038  0.5486
   12CHTO   O68 4720   4.450  -0.203   2.634 -0.3487 -0.8966  0.0650
   12CHTO  H168 4721   4.361  -0.212   2.604 -0.2169  1.4377 -1.1608
   12CHTO   C99 4722   4.484  -0.448   2.737 -0.2577 -0.0867  0.4542
   12CHTO  H186 4723   4.453  -0.389   2.825  0.5181 -1.9905  2.0307
   12CHTO   N17 4724   4.360  -0.516   2.685  0.3566  0.1380 -0.4518
   12CHTO  H174 4725   4.272  -0.503   2.747 -0.5087  1.6455 -1.9425
   12CHTO  H175 4726   4.377  -0.619   2.659  1.1410  0.2702 -0.4646
   12CHTO   C97 4727   4.597  -0.541   2.787 -0.7244 -1.0331  0.0507
   12CHTO  H184 4728   4.622  -0.619   2.714 -0.2381 -1.6930  0.9168
   12CHTO   O64 4729   4.715  -0.469   2.827 -0.3524  0.1475  0.1981
   12CHTO  C104 4730   4.790  -0.404   2.719 -0.0927  0.2380  0.0820
   12CHTO  H191 4731   4.800  -0.476   2.637 -0.0594  0.6831 -0.3075
   12CHTO  C108 4732   4.935  -0.363   2.765 -0.3079 -0.6634  0.0138
   12CHTO   O71 4733   5.015  -0.341   2.649  0.1906  0.3282 -0.0142
   12CHTO  H171 4734   5.108  -0.341   2.657  0.3577  0.5904 -1.7313
   12CHTO   O62 4735   4.543  -0.595   2.908 -0.4828 -0.0011 -0.0569
   12CHTO   C91 4736   4.606  -0.718   2.953 -0.3857  0.2128 -0.0410
   12CHTO  H178 4737   4.686  -0.746   2.885 -0.3781  1.1552 -0.4203
   12CHTO   C92 4738   4.498  -0.830   2.952  0.0729  0.1072  0.5995
   12CHTO  H179 4739   4.460  -0.838   2.848  1.1864 -1.2933  0.2857
   12CHTO   O66 4740   4.561  -0.959   2.975 -0.0267 -0.3011  0.3644
   12CHTO  H166 4741   4.501  -1.016   3.018 -0.0637  0.2739  1.0938
   12CHTO   C93 4742   4.377  -0.814   3.055  0.5741 -0.3266 -0.5197
   12CHTO  H180 4743   4.338  -0.911   3.088 -0.9521  0.2226 -0.6824
   12CHTO   N16 4744   4.253  -0.751   3.000 -0.8498  0.4355 -0.4151
   12CHTO  H172 4745   4.283  -0.703   2.908  1.1156  0.4758  0.2431
   12CHTO  H173 4746   4.179  -0.826   2.977 -1.5323  1.1656 -0.6412
   12CHTO   C94 4747   4.433  -0.731   3.184  0.1188  0.1421  0.4356
   12CHTO  H181 4748   4.423  -0.623   3.171 -0.3468  0.0661  0.1296
   12CHTO   O61 4749   4.571  -0.754   3.196  0.7093 -0.6433  0.0800
   12CHTO   C95 4750   4.667  -0.705   3.100  0.2673  0.1816 -0.2226
   12CHTO  H182 4751   4.691  -0.601   3.123  0.5043 -0.1471  1.0160
   12CHTO  C106 4752   4.799  -0.784   3.111 -0.1302 -0.2336 -0.0559
   12CHTO   O69 4753   4.879  -0.778   3.231 -0.6641 -0.9846  0.2179
   12CHTO  H169 4754   4.955  -0.833   3.227  1.1939  1.5032  0.1859
   12CHTO   O63 4755   4.353  -0.792   3.312 -0.1139  0.1091  0.3845
   12CHTO   C96 4756   4.441  -0.803   3.432  0.0005 -0.1523  0.9050
   12CHTO  H183 4757   4.497  -0.710   3.444 -1.8882  1.3399 -1.4658
   12CHTO   C98 4758   4.538  -0.930   3.442  0.4261  0.1212 -0.8125
   12CHTO  H185 4759   4.598  -0.937   3.350  0.8116 -1.3890 -0.4536
   12CHTO   O67 4760   4.635  -0.895   3.543 -0.1034  0.4114  0.5281
   12CHTO  H167 4761   4.716  -0.873   3.502 -0.6404  3.4026  0.9440
   12CHTO  C102 4762   4.466  -1.068   3.475  0.0709 -0.1052  0.1446
   12CHTO  H189 4763   4.545  -1.144   3.482  1.2017  0.9041 -1.6170
   12CHTO   N18 4764   4.381  -1.113   3.366 -0.1985  0.3817  0.6019
   12CHTO  H176 4765   4.336  -1.031   3.312 -0.8181 -1.6118 -1.9903
   12CHTO  H177 4766   4.304  -1.175   3.408 -0.2991  0.4446  0.5103
   12CHTO  C105 4767   4.384  -1.051   3.606  0.2472  1.1083 -0.5566
   12CHTO  H192 4768   4.286  -1.099   3.598  0.0726  1.5107 -0.8632
   12CHTO   O65 4769   4.368  -0.914   3.649 -0.1385 -0.6456  0.4902
   12CHTO  C100 4770   4.339  -0.812   3.547  0.6962 -0.2646 -1.1008
   12CHTO  H187 4771   4.238  -0.826   3.506 -0.5378  1.7878  1.1301
   12CHTO  C107 4772   4.319  -0.673   3.616 -0.0895  0.8144 -0.2316
   12CHTO   O70 4773   4.271  -0.583   3.516 -0.2651 -0.3626 -0.3137
   12CHTO  H170 4774   4.293  -0.497   3.545 -2.1574 -0.5887  1.9319
   12CHTO   O57 4775   4.464  -1.165   3.724  0.0573 -0.0843  0.0538
   12CHTO   C85 4776   4.432  -1.139   3.860 -0.4040  0.2382 -0.0325
   12CHTO  H157 4777   4.347  -1.068   3.860 -0.6918 -0.0943  0.8345
   12CHTO   C83 4778   4.548  -1.059   3.941  0.1037  0.5078 -0.2476
   12CHTO  H155 4779   4.591  -0.978   3.882 -1.6406  1.5859 -0.0585
   12CHTO   O56 4780   4.672  -1.146   3.940 -0.0535 -0.3298  0.1209
   12CHTO  H135 4781   4.748  -1.093   3.953 -1.0820  1.1587  0.1079
   12CHTO   C81 4782   4.491  -1.009   4.074 -0.4999 -0.2910 -0.0736
   12CHTO  H153 4783   4.403  -0.949   4.053  0.3925 -0.0481 -3.3874
   12CHTO   N14 4784   4.577  -0.922   4.157  0.1815 -0.4912 -0.1579
   12CHTO  H141 4785   4.582  -0.822   4.119 -0.7855 -0.6330 -0.6759
   12CHTO  H142 4786   4.557  -0.916   4.262  3.9194 -3.8971  0.8760
   12CHTO   C79 4787   4.446  -1.138   4.151 -0.8894 -0.1555  1.0767
   12CHTO  H151 4788   4.396  -1.105   4.242  1.0176  0.2538  2.0043
   12CHTO   O52 4789   4.350  -1.224   4.073  0.9989 -0.2759 -0.0992
   12CHTO   C86 4790   4.407  -1.267   3.945 -0.4091 -1.2321  0.0262
   12CHTO  H158 4791   4.496  -1.326   3.974 -0.7506 -0.8030  2.0805
   12CHTO   C90 4792   4.306  -1.370   3.884 -0.6114 -0.0885 -0.5532
   12CHTO   O60 4793   4.308  -1.491   3.957  0.3046  1.0049  0.3914
   12CHTO  H138 4794   4.256  -1.482   4.034 -0.4546  3.3964 -0.3672
   12CHTO   O50 4795   4.557  -1.221   4.193  0.2191  0.4066  0.1191
   12CHTO   C73 4796   4.551  -1.322   4.297 -0.5954 -0.0599  0.5570
   12CHTO  H145 4797   4.456  -1.376   4.287  0.6148 -2.1643  0.1708
   12CHTO   C74 4798   4.550  -1.255   4.438  0.4993  0.5159  0.8478
   12CHTO  H146 4799   4.467  -1.183   4.441  1.2218  1.4000  0.1658
   12CHTO   O54 4800   4.520  -1.353   4.535  0.5604  0.2974 -0.4919
   12CHTO  H133 4801   4.431  -1.382   4.526  0.6331  0.2182 -1.0057
   12CHTO   C75 4802   4.690  -1.184   4.448  0.2435  0.0857  0.0597
   12CHTO  H147 4803   4.700  -1.106   4.371 -0.3263  1.5159  1.4154
   12CHTO   N13 4804   4.708  -1.108   4.572 -0.3905 -0.4115  0.3429
   12CHTO  H139 4805   4.641  -1.137   4.652  0.5856 -1.6340  0.7392
   12CHTO  H140 4806   4.811  -1.115   4.603 -0.1257 -1.0678 -0.6760
   12CHTO   C76 4807   4.807  -1.294   4.438  0.2176 -0.7129 -0.8688
   12CHTO  H148 4808   4.788  -1.377   4.506 -2.6706 -1.0870 -2.0781
   12CHTO   O49 4809   4.797  -1.337   4.299  0.3373 -0.1382  0.5360
   12CHTO   C77 4810   4.678  -1.423   4.278 -1.0729 -0.1767  0.2741
   12CHTO  H149 4811   4.672  -1.509   4.344  1.9642 -0.8252 -0.2322
   12CHTO   C88 4812   4.696  -1.482   4.130  0.4920  0.3848 -0.2222
   12CHTO   O58 4813   4.581  -1.564   4.091  1.1356  0.1657  0.4285
   12CHTO  H136 4814   4.604  -1.655   4.099 -0.0979 -0.0592  1.8916
   12CHTO   O51 4815   4.945  -1.234   4.450 -0.5558 -0.2499 -1.0406
   12CHTO   C78 4816   5.055  -1.337   4.423 -0.7591 -0.4477 -0.0215
   12CHTO  H150 4817   5.011  -1.429   4.379 -0.7952  0.9220 -2.9511
   12CHTO   C80 4818   5.127  -1.369   4.554  0.1660 -0.3091 -0.1341
   12CHTO  H152 4819   5.157  -1.273   4.601  0.1584  0.3597 -1.4935
   12CHTO   O55 4820   5.044  -1.437   4.643  0.2461  0.1304  0.8074
   12CHTO  H134 4821   5.060  -1.529   4.641  1.9516  0.4152 -1.0468
   12CHTO   C84 4822   5.244  -1.463   4.530  0.3371 -0.4291  0.5491
   12CHTO  H156 4823   5.218  -1.562   4.495 -0.3965 -0.0471  0.0079
   12CHTO   N15 4824   5.327  -1.484   4.658  0.8390 -0.0488 -0.1970
   12CHTO  H143 4825   5.288  -1.416   4.730  2.4569  0.7017 -0.0235
   12CHTO  H144 4826   5.427  -1.454   4.635  0.9487  0.0702  0.4348
   12CHTO   C87 4827   5.335  -1.400   4.417  0.2433 -0.9644 -0.2622
   12CHTO  H159 4828   5.375  -1.306   4.455  1.0627 -2.2777  2.2276
   12CHTO   O53 4829   5.247  -1.383   4.289  0.7681 -0.0468 -0.0775
   12CHTO   C82 4830   5.152  -1.278   4.320 -0.7163 -0.2643  0.7239
   12CHTO  H154 4831   5.204  -1.193   4.364  0.5816  0.8008 -2.7074
   12CHTO   C89 4832   5.082  -1.224   4.192 -0.2604 -0.1063  0.7198
   12CHTO   O59 4833   5.170  -1.174   4.086 -0.3016 -0.3423  0.9087
   12CHTO  H137 4834   5.140  -1.202   4.002  0.6914  0.7899  0.1513
   12CHTO   O45 4835   5.465  -1.506   4.382  0.3977 -0.6084 -0.0132
   12CHTO   C67 4836   5.582  -1.459   4.308  0.2675  0.2637  0.5505
   12CHTO  H124 4837   5.659  -1.536   4.317 -1.2412 -1.1661  1.5968
   12CHTO   C65 4838   5.540  -1.442   4.152  0.5258 -0.1806  0.0588
   12CHTO  H122 4839   5.431  -1.445   4.145  0.4278  0.6765  1.0749
   12CHTO   O44 4840   5.591  -1.556   4.084  0.4369 -0.2774 -0.2003
   12CHTO  H102 4841   5.682  -1.536   4.076 -0.2238  2.4587 -1.6625
   12CHTO   C63 4842   5.571  -1.302   4.091  0.7842 -0.7372  0.2798
   12CHTO  H120 4843   5.509  -1.226   4.140  0.9021  0.2657 -1.1017
   12CHTO   N11 4844   5.543  -1.286   3.941 -0.2086 -0.1650 -0.1116
   12CHTO  H108 4845   5.438  -1.270   3.923  0.5662  3.4232 -1.9658
   12CHTO  H109 4846   5.619  -1.226   3.895  0.6756 -1.4893 -0.3984
   12CHTO   C61 4847   5.720  -1.259   4.129  0.4554 -0.7453 -0.2451
   12CHTO  H118 4848   5.743  -1.153   4.109  1.0230 -1.0271 -1.0818
   12CHTO   O40 4849   5.748  -1.280   4.274 -0.0069 -0.1354 -0.1975
   12CHTO   C68 4850   5.646  -1.328   4.369  0.1886  0.1414  0.0812
   12CHTO  H125 4851   5.574  -1.245   4.381 -0.6346 -0.5637  0.0033
   12CHTO   C72 4852   5.716  -1.352   4.503  0.1528  0.1051  0.0741
   12CHTO   O48 4853   5.796  -1.469   4.525 -0.1366  0.2858  0.2230
   12CHTO  H105 4854   5.881  -1.471   4.484  0.0689 -1.4496  0.6775
   12CHTO   O38 4855   5.822  -1.342   4.064 -0.3193 -0.0652 -0.1947
   12CHTO   C55 4856   5.944  -1.272   4.017 -0.1006  0.0242  0.2332
   12CHTO  H112 4857   5.930  -1.166   4.042  1.2098  0.4358 -0.7203
   12CHTO   C56 4858   5.953  -1.295   3.860  0.1631 -0.0019  0.7809
   12CHTO  H113 4859   5.961  -1.405   3.856 -1.6896 -0.1736  1.2603
   12CHTO   O42 4860   5.839  -1.253   3.782 -0.3332 -0.4124  0.1026
   12CHTO  H100 4861   5.840  -1.274   3.691 -2.0906 -2.1835  0.4539
   12CHTO   C57 4862   6.086  -1.226   3.809  0.5244 -0.4919  0.6751
   12CHTO  H114 4863   6.070  -1.118   3.815  0.2857 -0.4688 -0.2483
   12CHTO   N10 4864   6.117  -1.251   3.667  0.2088 -0.0667 -0.1335
   12CHTO  H106 4865   6.089  -1.347   3.627 -0.4446 -0.4203  1.1633
   12CHTO  H107 4866   6.062  -1.172   3.617 -0.5205  0.1316  0.9693
   12CHTO   C58 4867   6.211  -1.250   3.902 -0.1162  0.3938 -0.3230
   12CHTO  H115 4868   6.253  -1.349   3.874 -1.4303  0.0364 -1.0710
   12CHTO   O37 4869   6.183  -1.247   4.042 -0.0373  0.7002 -0.5720
   12CHTO   C59 4870   6.072  -1.331   4.082 -0.3626  0.3841 -0.6189
   12CHTO  H116 4871   6.093  -1.435   4.059  0.5919  0.3089  0.5843
   12CHTO   C70 4872   6.073  -1.332   4.237 -0.2296 -0.3238  0.1196
   12CHTO   O46 4873   6.198  -1.383   4.281 -0.1971 -0.1836 -0.2817
   12CHTO  H103 4874   6.218  -1.362   4.370  1.4823  2.1519 -1.1760
   12CHTO   O39 4875   6.325  -1.143   3.888  0.2882 -0.0458 -0.0907
   12CHTO   C60 4876   6.438  -1.171   3.796  0.1435 -0.4644  0.2306
   12CHTO  H117 4877   6.429  -1.266   3.743  0.1498 -0.8892  0.9949
   12CHTO   C62 4878   6.449  -1.047   3.697 -0.6487  0.3763 -0.5339
   12CHTO  H119 4879   6.359  -1.046   3.632 -0.1022  0.5333 -1.2921
   12CHTO   O43 4880   6.437  -0.924   3.775 -0.3185  0.2692  0.2271
   12CHTO  H101 4881   6.416  -0.857   3.713  1.1465  0.5434  0.0108
   12CHTO   C66 4882   6.582  -1.050   3.607 -0.9679 -0.4304 -0.5216
   12CHTO  H123 4883   6.586  -1.145   3.553 -0.5552 -0.2270 -0.8489
   12CHTO   N12 4884   6.588  -0.949   3.501  0.5555 -0.7046  0.4464
   12CHTO  H110 4885   6.668  -0.877   3.511 -0.0850  0.2567 -1.1623
   12CHTO  H111 4886   6.599  -1.006   3.410 -2.0495 -1.5349  0.6117
   12CHTO   C69 4887   6.699  -1.050   3.714  0.5681  0.6254 -0.6004
   12CHTO  H126 4888   6.701  -0.957   3.775 -2.6649  0.2744  0.0932
   12CHTO   O41 4889   6.689  -1.175   3.807 -0.2525 -0.4598 -0.5213
   12CHTO   C64 4890   6.559  -1.179   3.890 -0.1110  0.0534  0.0971
   12CHTO  H121 4891   6.548  -1.103   3.970  0.0145  0.2426 -0.0661
   12CHTO   C71 4892   6.553  -1.319   3.965 -0.2011  0.0469  0.5828
   12CHTO   O47 4893   6.458  -1.322   4.066 -0.3792 -0.1126  0.1215
   12CHTO  H104 4894   6.479  -1.267   4.139 -0.4287 -0.4076  0.3623
   12CHTO   O34 4895   6.815  -1.057   3.649  0.0427  0.3806 -0.2378
   12CHTO   C49 4896   6.974  -1.052   3.613 -0.5475 -0.3277 -0.1435
   12CHTO   H91 4897   7.016  -0.967   3.666 -0.2652 -0.2018 -0.5719
   12CHTO   C47 4898   6.994  -1.045   3.461 -0.4513 -0.3293  0.0609
   12CHTO   H89 4899   7.100  -1.024   3.438 -1.0655  0.6936 -1.9001
   12CHTO   O33 4900   6.926  -0.928   3.407  0.2982  0.1495  0.2798
   12CHTO   H70 4901   6.979  -0.885   3.342  0.7375 -1.6859 -0.6178
   12CHTO   C45 4902   6.944  -1.179   3.389  0.1212  0.7929 -0.0476
   12CHTO   H87 4903   6.846  -1.169   3.342 -1.3737  2.5826  3.3008
   12CHTO    N8 4904   7.044  -1.212   3.283  0.5412  0.1658  0.4557
   12CHTO   H75 4905   7.075  -1.316   3.281  1.4669  0.4446 -0.7098
   12CHTO   H76 4906   7.011  -1.168   3.190  0.8715  2.5976  1.4718
   12CHTO   C43 4907   6.930  -1.296   3.497  0.7142 -0.4881 -0.0014
   12CHTO   H85 4908   6.835  -1.281   3.548 -0.4320 -2.8904 -1.3773
   12CHTO   O29 4909   7.041  -1.291   3.586  0.1787 -0.6061 -0.0863
   12CHTO   C50 4910   7.048  -1.175   3.665 -0.4761 -0.3433 -0.0940
   12CHTO   H92 4911   7.010  -1.197   3.766  1.0555  0.3939  0.6714
   12CHTO   C54 4912   7.196  -1.145   3.691 -0.2946 -0.0487  0.1923
   12CHTO   O36 4913   7.213  -1.053   3.800  0.6889  0.2322 -0.5246
   12CHTO   H72 4914   7.222  -1.097   3.882  1.0705 -0.0490 -0.7218
   12CHTO   O27 4915   6.894  -1.419   3.438 -0.3170  0.5228  1.0194
   12CHTO   C37 4916   6.802  -1.531   3.433  0.2710  0.1228 -0.7929
   12CHTO   H79 4917   6.825  -1.601   3.351  0.6333 -0.7643  0.0578
   12CHTO   C38 4918   6.813  -1.611   3.563 -0.5292  0.1640  0.5291
   12CHTO   H80 4919   6.819  -1.534   3.641 -0.5416  0.9499 -0.2455
   12CHTO   O31 4920   6.938  -1.687   3.559  0.4876  0.1731 -0.4023
   12CHTO   H68 4921   6.958  -1.717   3.646  1.5435  2.3004  0.1259
   12CHTO   C39 4922   6.692  -1.716   3.592 -0.9717 -0.2333 -0.4203
   12CHTO   H81 4923   6.707  -1.797   3.521 -0.8554  0.6109 -1.3769
   12CHTO    N7 4924   6.707  -1.772   3.728 -0.1286  0.1271 -0.3749
   12CHTO   H73 4925   6.647  -1.722   3.803 -0.8777 -0.7649 -0.3820
   12CHTO   H74 4926   6.812  -1.762   3.755  0.1602 -3.1638 -0.1214
   12CHTO   C40 4927   6.555  -1.645   3.577 -0.0213  0.3020  0.5593
   12CHTO   H82 4928   6.548  -1.576   3.661 -1.9560 -0.7392  1.2754
   12CHTO   O26 4929   6.553  -1.576   3.449 -0.5966  0.0040  0.1055
   12CHTO   C41 4930   6.652  -1.474   3.431  0.3031  0.1194 -0.2115
   12CHTO   H83 4931   6.644  -1.402   3.515  0.7673 -0.1373  0.0566
   12CHTO   C52 4932   6.630  -1.399   3.304 -0.2374 -0.1452 -0.5541
   12CHTO   O35 4933   6.652  -1.496   3.202 -0.1346  0.1678 -0.1070
   12CHTO   H71 4934   6.640  -1.448   3.123 -0.7153 -0.6730 -0.5305
   12CHTO   O28 4935   6.454  -1.741   3.572  0.5986  0.1410 -0.7088
   12CHTO   C42 4936   6.321  -1.723   3.620 -0.5847  0.3778  0.2459
   12CHTO   H84 4937   6.313  -1.614   3.631  3.1393  0.5573  1.9336
   12CHTO   C44 4938   6.287  -1.784   3.760 -0.0353  0.1641 -0.1729
   12CHTO   H86 4939   6.299  -1.893   3.760  0.6386  0.2087 -2.0239
   12CHTO   O32 4940   6.378  -1.726   3.856  0.1740 -0.0844 -0.5898
   12CHTO   H69 4941   6.362  -1.754   3.944  1.4168 -0.7675 -0.5636
   12CHTO   C48 4942   6.140  -1.757   3.799  0.3932  0.2117  0.3856
   12CHTO   H90 4943   6.139  -1.651   3.827 -2.1745  0.1007  0.8056
   12CHTO    N9 4944   6.095  -1.834   3.921 -0.1680 -0.4994  0.2071
   12CHTO   H77 4945   6.095  -1.941   3.911 -2.2581 -0.7206  2.0056
   12CHTO   H78 4946   5.996  -1.804   3.951 -0.7362  0.9409 -2.9343
   12CHTO   C51 4947   6.031  -1.760   3.680 -0.4885  0.3296  0.2473
   12CHTO   H93 4948   5.999  -1.865   3.675  1.3705 -0.3954  2.8145
   12CHTO   O30 4949   6.082  -1.717   3.554 -0.4681  0.2909 -0.0951
   12CHTO   C46 4950   6.214  -1.764   3.522  0.5035 -0.1913  0.6392
   12CHTO   H88 4951   6.206  -1.872   3.513 -0.1958 -0.2035  1.3499
   12CHTO   C53 4952   6.246  -1.713   3.379 -0.0639  0.1694 -0.5589
   12CHTO   O72 4953   6.354  -1.792   3.312 -0.2789  0.4602  0.2272
   12CHTO  H199 4954   6.349  -1.769   3.221 -1.8942  0.3042  0.2474
   12CHTO   O22 4955   5.924  -1.674   3.721 -0.0362  0.2511 -0.4321
   12CHTO   C31 4956   5.795  -1.690   3.665  0.6146 -0.7225 -0.2857
   12CHTO   H59 4957   5.811  -1.759   3.580  2.2122  0.1014 -0.6878
   12CHTO   C29 4958   5.682  -1.747   3.756  0.0529  0.1073  0.2647
   12CHTO   H57 4959   5.674  -1.682   3.844  1.2308 -1.0626  1.2621
   12CHTO   O21 4960   5.721  -1.877   3.804  0.6396  0.3130 -1.0535
   12CHTO   H37 4961   5.733  -1.937   3.733  0.6764  1.8362 -2.3593
   12CHTO   C27 4962   5.538  -1.750   3.680  0.0645  0.1148 -0.1938
   12CHTO   H55 4963   5.544  -1.818   3.595 -0.4960  1.0634 -1.0035
   12CHTO    N5 4964   5.424  -1.795   3.763 -0.2934 -1.0853  0.0267
   12CHTO   H43 4965   5.451  -1.891   3.805  1.0401 -0.5348  0.4479
   12CHTO   H44 4966   5.399  -1.718   3.834 -2.3282 -2.6212  1.0223
   12CHTO   C25 4967   5.509  -1.600   3.625  0.2061  0.0761 -0.0892
   12CHTO   H53 4968   5.497  -1.533   3.711  1.0871  0.4872 -0.2757
   12CHTO   O17 4969   5.614  -1.554   3.542 -0.3861 -0.2892  0.0392
   12CHTO   C32 4970   5.748  -1.552   3.600  0.0204  0.2323  0.0734
   12CHTO   H60 4971   5.750  -1.473   3.674 -1.6424  0.6145 -0.2516
   12CHTO   C36 4972   5.848  -1.507   3.490  0.1798  0.0529 -1.0434
   12CHTO   O25 4973   5.836  -1.366   3.447  0.1371  0.1331 -0.2684
   12CHTO   H40 4974   5.879  -1.350   3.365  0.1305 -0.8353 -0.4654
   12CHTO   O15 4975   5.380  -1.597   3.540  0.1137 -0.4373  0.6885
   12CHTO   C19 4976   5.324  -1.472   3.507  0.1460  0.0086  0.0002
   12CHTO   H47 4977   5.386  -1.389   3.544  1.3122 -1.3721  1.2026
   12CHTO   C20 4978   5.317  -1.444   3.351  0.2631 -0.1724 -0.0768
   12CHTO   H48 4979   5.261  -1.521   3.295 -0.4374  0.0176  0.3622
   12CHTO   O19 4980   5.456  -1.440   3.304  0.0101 -0.0359  0.6865
   12CHTO   H35 4981   5.458  -1.440   3.210  1.3268 -0.7378  0.7011
   12CHTO   C21 4982   5.250  -1.313   3.314  0.2378 -0.2547  0.1592
   12CHTO   H49 4983   5.318  -1.233   3.342  1.5736 -1.2165 -0.2943
   12CHTO    N4 4984   5.237  -1.292   3.166  0.6748 -0.0218  0.1334
   12CHTO   H41 4985   5.250  -1.186   3.146 -1.9264  0.4652  0.7881
   12CHTO   H42 4986   5.326  -1.343   3.136 -0.5214 -2.3101  0.3486
   12CHTO   C22 4987   5.109  -1.308   3.389 -0.2397 -0.3257 -0.7105
   12CHTO   H50 4988   5.061  -1.399   3.354  0.0038  0.0755 -2.1588
   12CHTO   O14 4989   5.132  -1.318   3.529 -0.6331  0.0751 -1.0433
   12CHTO   C23 4990   5.182  -1.450   3.566  0.5855 -0.2860 -0.1932
   12CHTO   H51 4991   5.108  -1.518   3.522  0.7763 -1.4017  1.1882
   12CHTO   C34 4992   5.193  -1.460   3.715 -0.0333  0.1498 -0.5202
   12CHTO   O23 4993   5.069  -1.473   3.781  0.0601 -0.0134 -0.0874
   12CHTO   H38 4994   5.011  -1.404   3.755  0.3528 -0.1534 -1.1143
   12CHTO   O16 4995   5.027  -1.189   3.362 -0.3766 -0.5036 -0.2063
   12CHTO   C24 4996   4.854  -1.229   3.401  0.7557  0.4583  0.4021
   12CHTO   H52 4997   4.791  -1.140   3.404 -1.7895 -1.2895  0.7544
   12CHTO   C26 4998   4.839  -1.284   3.549  0.6150 -0.1078 -0.0486
   12CHTO   H54 4999   4.910  -1.368   3.561  1.2075  0.6979  2.3656
   12CHTO   O20 5000   4.887  -1.172   3.623 -0.4881  0.3399 -0.1321
   12CHTO   H36 5001   4.839  -1.094   3.600 -0.0178  0.3556 -1.0690
   12CHTO   C30 5002   4.699  -1.343   3.584 -0.0598 -0.3907 -0.0834
   12CHTO   H58 5003   4.632  -1.259   3.605 -0.4850 -0.4651 -1.1109
   12CHTO    N6 5004   4.702  -1.417   3.711  0.0919 -0.3067  0.7186
   12CHTO   H45 5005   4.599  -1.438   3.732  0.0987  0.9397  2.0461
   12CHTO   H46 5006   4.740  -1.373   3.802 -1.5567 -1.0929  1.7903
   12CHTO   C33 5007   4.649  -1.429   3.465  0.5393  0.1035 -0.1916
   12CHTO   H61 5008   4.713  -1.516   3.441  0.9746  0.2790  0.3396
   12CHTO   O18 5009   4.650  -1.348   3.354 -0.6470  0.0597  0.6718
   12CHTO   C28 5010   4.781  -1.321   3.301  0.0017 -0.5010  0.1282
   12CHTO   H56 5011   4.837  -1.413   3.285  1.1837  0.0082  1.2415
   12CHTO   C35 5012   4.767  -1.234   3.164 -0.1523 -0.7233  0.0273
   12CHTO   O24 5013   4.724  -1.320   3.057  0.0336 -0.1667  0.1880
   12CHTO   H39 5014   4.643  -1.361   3.081  1.5648 -2.6348  1.4837
   12CHTO    O9 5015   4.521  -1.492   3.485  0.2478 -0.1941 -0.0282
   12CHTO   C13 5016   4.504  -1.615   3.362 -0.0497 -0.4013  0.3012
   12CHTO   H26 5017   4.606  -1.648   3.333  0.1416  1.2441 -0.9402
   12CHTO   C11 5018   4.424  -1.562   3.236  0.0232  0.2843 -0.8592
   12CHTO   H24 5019   4.487  -1.489   3.182  1.5885 -1.5456 -1.5373
   12CHTO    O8 5020   4.312  -1.486   3.282 -0.1496  0.4529 -0.5211
   12CHTO    H3 5021   4.253  -1.541   3.329 -0.4820  0.8556 -0.4575
   12CHTO    C9 5022   4.391  -1.684   3.145  0.7159  1.2932  0.8178
   12CHTO   H22 5023   4.488  -1.723   3.112  0.4050  0.1391  1.2586
   12CHTO    N2 5024   4.334  -1.649   3.013 -0.1271 -0.3968 -0.1547
   12CHTO   H10 5025   4.371  -1.550   2.988 -1.6393 -0.2783 -1.9778
   12CHTO   H11 5026   4.347  -1.723   2.936 -2.7786 -1.2976  0.2158
   12CHTO    C7 5027   4.300  -1.784   3.231 -0.1500 -0.0322  0.2625
   12CHTO   H20 5028   4.272  -1.868   3.164 -2.8673  1.7056 -0.8376
   12CHTO    O4 5029   4.380  -1.834   3.342  0.1026  0.3527 -0.4252
   12CHTO   C14 5030   4.440  -1.745   3.433 -0.2617  0.3346  0.5096
   12CHTO   H27 5031   4.524  -1.802   3.480  1.5832  1.2958 -1.5534
   12CHTO   C18 5032   4.342  -1.709   3.547 -0.0598 -0.0110 -0.2457
   12CHTO   O13 5033   4.314  -1.830   3.618  0.4492 -0.0947 -0.1369
   12CHTO    H7 5034   4.341  -1.824   3.708 -2.3404 -0.4895  0.7616
   12CHTO    O2 5035   4.162  -1.709   3.287  0.1985 -0.1233  0.1950
   12CHTO    C1 5036   4.039  -1.771   3.236  0.5214  0.4152  0.5504
   12CHTO   H14 5037   4.062  -1.863   3.179 -2.1483 -0.0799  0.2047
   12CHTO    C2 5038   3.949  -1.679   3.143 -0.8111  0.0287 -0.3373
   12CHTO   H15 5039   3.936  -1.581   3.191 -1.3836 -0.6887  1.0028
   12CHTO    O6 5040   4.013  -1.666   3.013 -0.0261  0.0592 -0.0456
   12CHTO    H1 5041   4.058  -1.743   2.986 -2.7747 -1.9156  0.7564
   12CHTO    C3 5042   3.800  -1.738   3.116  0.2967  0.3092  0.3880
   12CHTO   H16 5043   3.802  -1.817   3.040 -1.1676  0.2232  0.4240
   12CHTO    N1 5044   3.706  -1.634   3.055 -0.6626 -0.0488 -0.9098
   12CHTO    H8 5045   3.623  -1.606   3.119  0.8858 -2.4521  2.3221
   12CHTO    H9 5046   3.769  -1.548   3.037  0.1782 -0.1456  1.3510
   12CHTO    C4 5047   3.737  -1.800   3.242  0.2415 -0.0879 -0.1827
   12CHTO   H17 5048   3.701  -1.717   3.304 -0.4642  0.5800 -1.4605
   12CHTO    O1 5049   3.837  -1.878   3.313  0.8938  0.3610 -0.2216
   12CHTO    C5 5050   3.951  -1.806   3.359  0.9385  0.1847  0.0533
   12CHTO   H18 5051   3.926  -1.708   3.399 -1.9332 -0.0271 -1.0943
   12CHTO   C16 5052   4.022  -1.893   3.463  0.3424 -0.3049 -0.5858
   12CHTO   O11 5053   3.942  -1.900   3.578  0.0902 -0.0743 -0.2521
   12CHTO    H5 5054   3.897  -1.982   3.579  2.4630 -1.4469 -1.3780
   12CHTO    O3 5055   3.631  -1.899   3.214 -0.7172 -0.1577 -0.0433
   12CHTO    C6 5056   3.510  -1.896   3.294  0.1399  0.2480 -0.0770
   12CHTO   H19 5057   3.510  -1.839   3.387  0.2932  0.8879 -0.4700
   12CHTO    C8 5058   3.391  -1.841   3.215  0.3230  0.7146 -0.0246
   12CHTO   H21 5059   3.380  -1.890   3.118  1.4800  0.4857 -0.0541
   12CHTO    O7 5060   3.409  -1.696   3.200  0.0719 -0.6661  0.3615
   12CHTO    H2 5061   3.492  -1.673   3.163 -1.1116  2.0548 -0.6593
   12CHTO   C12 5062   3.252  -1.856   3.287 -0.3960 -0.1615  0.2586
   12CHTO   H25 5063   3.259  -1.791   3.376  2.1130  0.3128 -0.2418
   12CHTO    N3 5064   3.144  -1.808   3.199  0.3966 -0.1158  0.2718
   12CHTO   H12 5065   3.058  -1.776   3.256 -0.5312 -3.0418  0.6478
   12CHTO   H13 5066   3.114  -1.897   3.146  0.5196 -1.7961  2.9251
   12CHTO   C15 5067   3.234  -2.010   3.337 -0.7648  0.5386 -0.2065
   12CHTO   H28 5068   3.213  -2.078   3.255  0.3449  2.2292 -1.9588
   12CHTO   O10 5069   3.116  -2.034   3.444  0.2425 -0.2589 -0.1592
   12CHTO    H4 5070   3.083  -2.122   3.441 -1.8866  0.4548  0.9682
   12CHTO    O5 5071   3.347  -2.044   3.415 -0.2230  0.3948  0.2611
   12CHTO   C10 5072   3.462  -2.041   3.331 -0.2664 -0.6736 -0.0087
   12CHTO   H23 5073   3.443  -2.096   3.239  2.6132  0.3143 -1.2603
   12CHTO   C17 5074   3.567  -2.122   3.408 -0.2069  0.6500  0.6689
   12CHTO   O12 5075   3.606  -2.071   3.538 -0.0641 -0.9723  0.3659
   12CHTO    H6 5076   3.528  -2.031   3.570  0.1341 -0.9617  0.8485
   13CHTO  H203 5077   7.169   3.963   2.809  0.1860  0.1040  0.2033
   13CHTO   O82 5078   7.155   4.009   2.889  0.0725 -0.1336  0.3178
   13CHTO  C123 5079   7.073   4.128   2.859  0.6886  0.2557 -0.1260
   13CHTO  H227 5080   7.125   4.189   2.784  0.7022  3.3525  2.2490
   13CHTO   O77 5081   6.941   4.081   2.810 -0.2776 -0.1210 -0.2898
   13CHTO  C118 5082   6.843   4.179   2.795 -0.3604  0.0341 -0.7667
   13CHTO  H222 5083   6.885   4.253   2.725  0.3668  0.2955 -0.0637
   13CHTO  C125 5084   6.720   4.109   2.726 -0.5054 -0.0557  0.0294
   13CHTO   O84 5085   6.731   4.046   2.595 -0.1407  0.1193 -0.2991
   13CHTO  H205 5086   6.767   3.961   2.610 -1.3743  0.0319  2.6657
   13CHTO  C114 5087   6.809   4.254   2.926  0.1957 -0.2078  0.6920
   13CHTO  H218 5088   6.786   4.181   3.004  1.7586 -0.7210  0.6901
   13CHTO  C116 5089   6.940   4.324   2.964  0.1624 -0.4687  0.8812
   13CHTO  H220 5090   6.973   4.391   2.882 -1.5580  1.8448  2.0027
   13CHTO   O79 5091   6.912   4.416   3.076 -0.4723  0.4296  0.2381
   13CHTO  H201 5092   6.839   4.474   3.066 -0.5250  0.5643  1.3418
   13CHTO  C120 5093   7.056   4.220   2.987  0.5513 -0.2284  0.3065
   13CHTO  H224 5094   7.023   4.141   3.058  3.9877 -0.8565  1.3071
   13CHTO   N21 5095   7.184   4.274   3.035  0.4130  0.6786 -0.3822
   13CHTO  H211 5096   7.189   4.279   3.143 -0.1003  0.7134 -0.3584
   13CHTO  H212 5097   7.214   4.358   2.974  0.4343  1.3786  0.5714
   13CHTO   O75 5098   6.709   4.350   2.903  0.0442 -0.4220 -0.5137
   13CHTO  C112 5099   6.554   4.313   2.941  0.2666 -0.0376 -0.0662
   13CHTO  H216 5100   6.551   4.216   2.993 -1.9796 -0.3301 -0.6904
   13CHTO   O73 5101   6.485   4.303   2.817  0.5490  0.6410 -0.7919
   13CHTO  C113 5102   6.355   4.243   2.833  0.5301  0.3449  0.0234
   13CHTO  H217 5103   6.364   4.142   2.878 -0.6759  0.0423 -0.3975
   13CHTO  C124 5104   6.307   4.214   2.689  0.7967 -0.5447 -0.0064
   13CHTO   O83 5105   6.372   4.110   2.625 -0.4426 -0.0771 -0.3659
   13CHTO  H204 5106   6.458   4.136   2.599 -0.3584 -1.2090 -1.2404
   13CHTO  C109 5107   6.265   4.335   2.912 -0.3197 -0.6626  0.5619
   13CHTO  H213 5108   6.260   4.427   2.852 -0.1160 -0.2797  1.1336
   13CHTO  C110 5109   6.334   4.372   3.048 -0.9112 -0.5001 -0.2757
   13CHTO  H214 5110   6.332   4.284   3.112  2.6479 -2.1362 -2.2517
   13CHTO   O78 5111   6.257   4.470   3.116 -0.6407  0.2091 -0.8341
   13CHTO  H200 5112   6.289   4.466   3.204 -1.3327 -1.8609 -0.6489
   13CHTO  C111 5113   6.480   4.424   3.030 -0.0834 -0.0666  0.3280
   13CHTO  H215 5114   6.480   4.517   2.972 -0.3784 -1.4043 -1.8922
   13CHTO   N19 5115   6.552   4.449   3.158  0.2061  0.5109  0.3467
   13CHTO  H207 5116   6.560   4.555   3.179  0.6988  0.3473  1.0324
   13CHTO  H208 5117   6.651   4.406   3.158 -0.9109 -2.1685  0.9568
   13CHTO   O74 5118   6.130   4.276   2.917 -0.1648 -0.3863  0.0857
   13CHTO  C115 5119   6.015   4.380   2.909  0.0518 -0.4308  0.0061
   13CHTO  H219 5120   6.045   4.476   2.953 -0.9850 -0.2984  0.4329
   13CHTO   O76 5121   5.974   4.413   2.752  0.2095 -0.5279 -0.0175
   13CHTO  C122 5122   5.866   4.508   2.751  0.5483 -0.2421  0.2839
   13CHTO  H226 5123   5.838   4.506   2.646 -2.4983  0.7419  1.0158
   13CHTO  C126 5124   5.911   4.654   2.779 -0.2009  0.6030 -0.2673
   13CHTO   O85 5125   6.000   4.695   2.674  0.2671 -0.2992  0.1779
   13CHTO  H206 5126   6.068   4.749   2.708  1.2946 -1.5899  0.2020
   13CHTO  C121 5127   5.739   4.455   2.840  0.4191  0.1336  1.0575
   13CHTO  H225 5128   5.671   4.542   2.848  0.3276  0.1233  0.3768
   13CHTO   O81 5129   5.665   4.360   2.760  0.0590  0.1649  0.0643
   13CHTO  H202 5130   5.674   4.373   2.667 -0.1575 -0.4355 -0.0410
   13CHTO  C119 5131   5.774   4.419   2.980 -0.3546 -0.6472  0.0687
   13CHTO  H223 5132   5.801   4.513   3.029 -0.3557  0.3592 -1.8395
   13CHTO  C117 5133   5.896   4.323   2.990  0.0764 -0.0555 -0.0996
   13CHTO  H221 5134   5.878   4.223   2.950 -2.4040  0.1009  0.5025
   13CHTO   N20 5135   5.934   4.298   3.134  0.3671 -0.1979  0.1026
   13CHTO  H209 5136   5.964   4.388   3.185  0.2180  0.0820 -0.3054
   13CHTO  H210 5137   6.008   4.219   3.143  1.4667  0.4794 -2.5366
   13CHTO   O80 5138   5.640   4.378   3.072  0.4279  0.5892  0.4610
   13CHTO  C103 5139   5.562   4.500   3.159 -0.2079  0.5274 -0.1747
   13CHTO  H190 5140   5.579   4.492   3.267 -0.8899 -1.1993 -0.1828
   13CHTO  C101 5141   5.589   4.652   3.114 -0.5499 -0.1729 -0.5733
   13CHTO  H188 5142   5.577   4.664   3.007 -2.5688 -0.1479 -0.3554
   13CHTO   O68 5143   5.749   4.693   3.149 -0.0602  0.6480 -0.2982
   13CHTO  H168 5144   5.753   4.787   3.149  0.1863  0.6384  0.9734
   13CHTO   C99 5145   5.493   4.751   3.185  0.3812  0.1784  0.4384
   13CHTO  H186 5146   5.509   4.751   3.295 -0.7648 -0.6819  0.6112
   13CHTO   N17 5147   5.521   4.893   3.148  0.3726  0.5381 -0.0877
   13CHTO  H174 5148   5.483   4.915   3.049 -0.0170  0.0400 -0.0460
   13CHTO  H175 5149   5.627   4.913   3.144  0.6767 -1.1413 -1.0465
   13CHTO   C97 5150   5.350   4.704   3.157 -0.1465  0.5439  0.1068
   13CHTO  H184 5151   5.322   4.722   3.052  1.8607  0.6534 -0.4498
   13CHTO   O64 5152   5.335   4.566   3.198 -0.0584  0.0848  0.5296
   13CHTO  C104 5153   5.417   4.468   3.135  0.2510 -0.0968 -0.8521
   13CHTO  H191 5154   5.396   4.464   3.028 -1.5045  0.9708 -0.5669
   13CHTO  C108 5155   5.381   4.333   3.192 -0.0200 -0.3318 -0.0855
   13CHTO   O71 5156   5.397   4.327   3.332  0.1548 -0.1966 -0.1034
   13CHTO  H171 5157   5.389   4.238   3.361 -0.2922 -0.8283 -2.0930
   13CHTO   O62 5158   5.259   4.777   3.245  0.6400  0.0689  0.2733
   13CHTO   C91 5159   5.120   4.773   3.224 -0.0913  0.1655 -0.2964
   13CHTO  H178 5160   5.095   4.742   3.123 -2.4415  1.0500 -0.0300
   13CHTO   C92 5161   5.067   4.922   3.248  0.2758  0.4567 -0.2344
   13CHTO  H179 5162   5.090   4.970   3.344  0.3855 -0.5537  0.2451
   13CHTO   O66 5163   5.126   4.998   3.136  0.4514  0.3231 -0.2522
   13CHTO  H166 5164   5.126   5.092   3.139  0.6940  0.3212 -0.1126
   13CHTO   C93 5165   4.906   4.928   3.230 -0.1457  0.0553 -0.0067
   13CHTO  H180 5166   4.887   4.910   3.123 -1.0839 -2.3127  0.5226
   13CHTO   N16 5167   4.841   5.053   3.276  0.3544  0.6897  0.2354
   13CHTO  H172 5168   4.733   5.045   3.265  0.4639 -1.5392  0.4073
   13CHTO  H173 5169   4.876   5.135   3.215 -2.4982  2.1695  0.4903
   13CHTO   C94 5170   4.839   4.804   3.304 -0.4664 -0.2426  0.0231
   13CHTO  H181 5171   4.759   4.835   3.370 -0.4393 -0.4974  0.1763
   13CHTO   O61 5172   4.934   4.728   3.391 -0.2259  0.7465  0.6215
   13CHTO   C95 5173   5.052   4.672   3.323  0.7593 -0.4549  0.0872
   13CHTO  H182 5174   5.128   4.649   3.398 -1.5321 -1.2707  2.2231
   13CHTO  C106 5175   5.015   4.530   3.264  0.0703 -0.1886 -0.4792
   13CHTO   O69 5176   4.997   4.429   3.358  0.2860 -0.0286  0.1763
   13CHTO  H169 5177   4.991   4.342   3.322 -2.7942  0.2917 -0.2180
   13CHTO   O63 5178   4.770   4.704   3.186  0.3277 -0.2285  0.2913
   13CHTO   C96 5179   4.627   4.663   3.224  0.4740  0.6170 -0.7438
   13CHTO  H183 5180   4.585   4.754   3.267  0.9770  0.8008 -0.6482
   13CHTO   C98 5181   4.613   4.545   3.330 -0.1621  0.4629 -0.1956
   13CHTO  H185 5182   4.653   4.452   3.287  2.1238  1.2340  0.1943
   13CHTO   O67 5183   4.683   4.571   3.455 -0.3291 -0.6838 -0.0563
   13CHTO  H167 5184   4.680   4.495   3.510  0.1048 -0.2498  0.5725
   13CHTO  C102 5185   4.457   4.518   3.363 -0.7692  0.5941 -0.0608
   13CHTO  H189 5186   4.416   4.602   3.420 -1.8976 -1.7869  2.7951
   13CHTO   N18 5187   4.420   4.400   3.450  0.5309  0.2954  0.0141
   13CHTO  H176 5188   4.315   4.379   3.443  0.7969 -0.6002 -1.3539
   13CHTO  H177 5189   4.468   4.305   3.431 -1.1582 -0.2992 -1.4009
   13CHTO  C105 5190   4.383   4.512   3.230  0.0870  0.1839 -0.0611
   13CHTO  H192 5191   4.407   4.416   3.186  0.6717 -0.4044  1.4889
   13CHTO   O65 5192   4.414   4.610   3.130  0.2168 -0.4126  0.1847
   13CHTO  C100 5193   4.544   4.639   3.098  0.0942  0.8967  0.4947
   13CHTO  H187 5194   4.586   4.549   3.051 -1.0620  1.9489 -2.6661
   13CHTO  C107 5195   4.551   4.748   2.988  0.2698 -0.4418 -0.7564
   13CHTO   O70 5196   4.679   4.768   2.932  0.4182 -0.5028  0.1493
   13CHTO  H170 5197   4.670   4.833   2.865 -1.7916 -0.5994  0.3262
   13CHTO   O57 5198   4.221   4.525   3.267  0.3402  0.3054  0.7838
   13CHTO   C85 5199   4.129   4.528   3.152 -0.6125 -0.7640 -0.3291
   13CHTO  H157 5200   4.183   4.478   3.068  0.7328 -3.2514  1.9131
   13CHTO   C83 5201   4.107   4.673   3.114 -0.6592 -0.0264  0.1866
   13CHTO  H155 5202   4.204   4.711   3.081 -0.9565 -0.7958 -1.6374
   13CHTO   O56 5203   4.070   4.752   3.225  0.0674 -0.0814  0.1285
   13CHTO  H135 5204   4.145   4.787   3.269  0.4170 -0.4531 -0.1640
   13CHTO   C81 5205   4.007   4.676   2.995 -0.3025  0.4296 -0.9214
   13CHTO  H153 5206   4.051   4.620   2.913  0.5488  1.4419 -1.1625
   13CHTO   N14 5207   3.975   4.804   2.931  0.2438  0.0245 -0.5072
   13CHTO  H141 5208   3.908   4.869   2.983  0.0743  0.1058 -0.8254
   13CHTO  H142 5209   3.939   4.800   2.831  0.4764  0.4253 -0.6086
   13CHTO   C79 5210   3.872   4.609   3.027 -0.0329  0.0623  1.2893
   13CHTO  H151 5211   3.820   4.597   2.932  1.1362 -1.9874  0.8609
   13CHTO   O52 5212   3.897   4.473   3.070 -0.1319 -0.2897 -0.4325
   13CHTO   C86 5213   3.991   4.464   3.177  0.0861 -0.5099 -1.0599
   13CHTO  H158 5214   3.938   4.524   3.255 -0.4735 -1.5974 -0.5876
   13CHTO   C90 5215   4.001   4.323   3.238  0.0236 -0.0838  0.1092
   13CHTO   O60 5216   3.888   4.262   3.314  0.5942  0.1750 -0.4162
   13CHTO  H138 5217   3.890   4.293   3.402  1.1080  1.6409 -0.9406
   13CHTO   O50 5218   3.784   4.671   3.121 -0.2833 -0.1675 -0.1211
   13CHTO   C73 5219   3.644   4.668   3.131  0.5166  0.6789  0.1658
   13CHTO  H145 5220   3.606   4.576   3.085 -0.2574  0.9996  0.1606
   13CHTO   C74 5221   3.583   4.787   3.053  0.3933  0.2357 -0.1499
   13CHTO  H146 5222   3.607   4.792   2.946 -0.0473  1.9053 -0.1848
   13CHTO   O54 5223   3.439   4.754   3.053 -0.4127 -0.4129  0.0097
   13CHTO  H133 5224   3.388   4.831   3.038 -1.7204 -1.4104 -0.8641
   13CHTO   C75 5225   3.622   4.924   3.130 -0.5928  0.1351  0.9170
   13CHTO  H147 5226   3.731   4.933   3.118 -0.7818  0.5973 -0.4771
   13CHTO   N13 5227   3.562   5.042   3.066 -0.1354  0.6147  0.4042
   13CHTO  H139 5228   3.623   5.076   2.984 -2.0828  2.6402 -0.2557
   13CHTO  H140 5229   3.456   5.030   3.047  0.1301 -0.5618 -0.3543
   13CHTO   C76 5230   3.575   4.906   3.287 -0.3292  0.0795 -0.6693
   13CHTO  H148 5231   3.467   4.892   3.283  0.0632 -3.8494 -0.1316
   13CHTO   O49 5232   3.632   4.786   3.351  0.1881  0.3531 -0.1686
   13CHTO   C77 5233   3.596   4.673   3.277 -0.5088  0.5582  0.2387
   13CHTO  H149 5234   3.487   4.664   3.272 -0.3224 -1.3351 -1.2183
   13CHTO   C88 5235   3.651   4.542   3.345  0.0432 -0.0441 -0.0799
   13CHTO   O58 5236   3.592   4.513   3.479 -0.0562 -0.0766 -0.3070
   13CHTO  H136 5237   3.516   4.459   3.469 -0.0734  0.0331 -0.7482
   13CHTO   O51 5238   3.614   5.053   3.371 -0.8212  0.4719 -0.1290
   13CHTO   C78 5239   3.776   5.086   3.406  0.1629  0.2861  0.0153
   13CHTO  H150 5240   3.775   5.193   3.435 -2.6819 -0.0569  1.3513
   13CHTO   C80 5241   3.875   5.069   3.292  0.2475 -0.2136 -0.0245
   13CHTO  H152 5242   3.889   4.962   3.265  3.2332  0.0580  0.2395
   13CHTO   O55 5243   3.837   5.146   3.179 -0.6612 -0.0396  0.0274
   13CHTO  H134 5244   3.748   5.132   3.153 -1.4222  1.4266  1.7438
   13CHTO   C84 5245   4.026   5.110   3.335  0.7924  0.0550 -0.3598
   13CHTO  H156 5246   4.026   5.219   3.333 -2.0628  0.0900 -1.2273
   13CHTO   N15 5247   4.128   5.070   3.231  0.1179 -0.0043  0.6075
   13CHTO  H143 5248   4.195   4.998   3.273 -1.9318 -2.2733  0.1199
   13CHTO  H144 5249   4.183   5.153   3.191  0.9872 -1.0108 -0.3001
   13CHTO   C87 5250   4.063   5.051   3.472 -0.2956 -0.6220  0.1826
   13CHTO  H159 5251   4.097   4.948   3.467  0.6838 -0.2431 -1.1971
   13CHTO   O53 5252   3.944   5.078   3.569 -0.2140 -0.4334 -0.0983
   13CHTO   C82 5253   3.825   5.005   3.529  0.0141  0.2099 -0.3277
   13CHTO  H154 5254   3.839   4.903   3.494 -3.0364  0.1959 -1.6030
   13CHTO   C89 5255   3.716   4.996   3.643 -0.0132 -0.3474  0.0896
   13CHTO   O59 5256   3.777   4.937   3.756  0.8090 -0.1034 -0.0567
   13CHTO  H137 5257   3.766   4.844   3.759 -2.4365  0.2571 -0.0010
   13CHTO   O45 5258   4.182   5.130   3.544  0.7616  0.1667 -0.4569
   13CHTO   C67 5259   4.318   5.111   3.507  0.0810  0.0172 -0.0109
   13CHTO  H124 5260   4.326   5.091   3.400  0.4802 -1.5206  0.2924
   13CHTO   C65 5261   4.395   5.240   3.534  0.1642  0.0515 -0.6541
   13CHTO  H122 5262   4.344   5.321   3.483  0.2374  0.6714  0.2458
   13CHTO   O44 5263   4.519   5.227   3.467 -0.4147 -0.1904  0.0630
   13CHTO  H102 5264   4.586   5.187   3.519  0.3010  0.4392 -0.3611
   13CHTO   C63 5265   4.391   5.268   3.693  0.2728  0.4933 -0.1937
   13CHTO  H120 5266   4.287   5.270   3.725  0.5602  1.8788  0.7407
   13CHTO   N11 5267   4.444   5.406   3.729  0.2254  0.2733  0.0739
   13CHTO  H108 5268   4.434   5.416   3.835 -0.7674  2.0711 -0.1641
   13CHTO  H109 5269   4.380   5.482   3.690 -1.4493 -1.5429 -0.8311
   13CHTO   C61 5270   4.462   5.145   3.765  0.2589  0.6681  0.3015
   13CHTO  H118 5271   4.434   5.151   3.871  1.1295 -2.3482  0.7636
   13CHTO   O40 5272   4.423   5.007   3.720 -0.0425  0.3827 -0.3869
   13CHTO   C68 5273   4.383   4.989   3.583 -0.3394  0.5554  0.2649
   13CHTO  H125 5274   4.305   4.910   3.584 -0.6767  0.8989  0.8883
   13CHTO   C72 5275   4.502   4.927   3.509  0.1432 -0.3471  0.3485
   13CHTO   O48 5276   4.551   4.801   3.553 -0.3250  0.1342  0.1820
   13CHTO  H105 5277   4.584   4.807   3.640  1.0583  0.0767 -0.3255
   13CHTO   O38 5278   4.607   5.149   3.767 -0.3187 -0.0203 -0.3902
   13CHTO   C55 5279   4.683   5.093   3.872 -0.6619  0.4906 -0.3599
   13CHTO  H112 5280   4.633   4.999   3.902 -0.9406 -0.0383 -2.4040
   13CHTO   C56 5281   4.706   5.188   3.993 -0.5623  0.3217 -0.4621
   13CHTO  H113 5282   4.760   5.271   3.945  0.9515  0.9052  2.1379
   13CHTO   O42 5283   4.575   5.226   4.043 -0.1219  0.4208 -0.4713
   13CHTO  H100 5284   4.596   5.274   4.121  0.3544  0.3340 -0.5403
   13CHTO   C57 5285   4.800   5.119   4.097 -0.1922  0.0167 -0.7049
   13CHTO  H114 5286   4.751   5.036   4.147  1.4008 -0.6383 -0.2217
   13CHTO   N10 5287   4.833   5.225   4.198  0.5446 -0.0977  0.2773
   13CHTO  H106 5288   4.915   5.290   4.172 -0.3197  1.2624  0.8883
   13CHTO  H107 5289   4.859   5.168   4.286  2.9433  1.3724  0.5412
   13CHTO   C58 5290   4.927   5.072   4.026 -0.4870  0.1352  0.0403
   13CHTO  H115 5291   4.971   5.160   3.975 -1.6761  0.0060 -1.2623
   13CHTO   O37 5292   4.895   4.980   3.919  0.4047 -0.1724  0.1720
   13CHTO   C59 5293   4.825   5.049   3.810  0.6113 -0.6965 -0.6443
   13CHTO  H116 5294   4.878   5.140   3.782  2.3327 -0.9393  1.6955
   13CHTO   C70 5295   4.812   4.961   3.683  0.5028 -0.5369  0.1245
   13CHTO   O46 5296   4.935   4.901   3.640 -0.0880 -0.2558  0.3616
   13CHTO  H103 5297   4.934   4.868   3.552 -2.0536 -0.1819  0.3379
   13CHTO   O39 5298   5.025   4.999   4.120 -0.6138  0.3124 -0.4282
   13CHTO   C60 5299   5.145   5.061   4.172 -0.4913  0.8400  0.2743
   13CHTO  H117 5300   5.152   5.157   4.122 -1.3559  0.0190 -1.4835
   13CHTO   C62 5301   5.150   5.095   4.324 -0.4650 -0.8080 -0.1384
   13CHTO  H119 5302   5.069   5.171   4.337  0.6301  0.2330  0.7258
   13CHTO   O43 5303   5.116   4.981   4.401 -0.0552 -0.2898  0.5531
   13CHTO  H101 5304   5.183   4.915   4.403 -1.0549 -1.2857  2.0756
   13CHTO   C66 5305   5.293   5.165   4.365 -0.5698  0.3781  0.7372
   13CHTO  H123 5306   5.295   5.262   4.316 -0.3328  1.1936  2.3146
   13CHTO   N12 5307   5.299   5.190   4.507  0.4322 -0.1872 -0.5674
   13CHTO  H110 5308   5.205   5.168   4.556 -0.1404 -1.4004 -2.1613
   13CHTO  H111 5309   5.340   5.288   4.528  2.1759 -0.6807 -1.5494
   13CHTO   C69 5310   5.404   5.070   4.319  0.0318 -0.1258  0.3551
   13CHTO  H126 5311   5.397   4.972   4.371  0.4529 -1.2230 -1.5988
   13CHTO   O41 5312   5.383   5.039   4.160  0.2844 -0.2138 -0.3725
   13CHTO   C64 5313   5.268   4.973   4.122  0.1359  0.1295  0.3670
   13CHTO  H121 5314   5.265   4.872   4.169 -1.7093  0.0428  0.1251
   13CHTO   C71 5315   5.280   4.961   3.959 -0.6702 -0.4035  0.0799
   13CHTO   O47 5316   5.386   4.880   3.916 -0.3190  0.1598  0.5636
   13CHTO  H104 5317   5.442   4.935   3.865 -1.8797  0.8173 -0.4817
   13CHTO   O34 5318   5.549   5.139   4.342  0.5767 -0.3743 -0.1508
   13CHTO   C49 5319   5.621   5.234   4.229 -0.0546 -0.2485 -0.1622
   13CHTO   H91 5320   5.629   5.163   4.146 -1.1381 -0.8724  0.2578
   13CHTO   C47 5321   5.752   5.281   4.279 -0.1179 -0.0364  0.4210
   13CHTO   H89 5322   5.797   5.324   4.187 -0.2428 -1.5036 -0.3307
   13CHTO   O33 5323   5.834   5.177   4.322 -0.0445  0.0385  0.2660
   13CHTO   H70 5324   5.925   5.197   4.327 -0.1869  0.9592 -0.8061
   13CHTO   C45 5325   5.732   5.392   4.395  0.3011  0.1672  0.7486
   13CHTO   H87 5326   5.666   5.347   4.471  0.0829 -2.4918 -0.9539
   13CHTO    N8 5327   5.858   5.437   4.460  0.3545 -0.0852 -0.0787
   13CHTO   H75 5328   5.849   5.412   4.565 -0.9275  2.1722  0.3823
   13CHTO   H76 5329   5.876   5.543   4.449  4.2944 -0.6767 -0.2222
   13CHTO   C43 5330   5.644   5.518   4.338 -0.4574  0.2021 -0.0269
   13CHTO   H85 5331   5.625   5.593   4.415  3.1108 -0.2711  1.4154
   13CHTO   O29 5332   5.514   5.467   4.288 -0.2437  0.0281 -0.9193
   13CHTO   C50 5333   5.532   5.361   4.194 -0.0914  0.1243  0.4888
   13CHTO   H92 5334   5.436   5.315   4.169  0.1356 -0.9314  1.4737
   13CHTO   C54 5335   5.561   5.412   4.046  0.0689  0.0346 -0.0286
   13CHTO   O36 5336   5.436   5.429   3.976 -0.3128  0.0791  0.2960
   13CHTO   H72 5337   5.433   5.492   3.907  1.0171 -0.4568 -0.2781
   13CHTO   O27 5338   5.714   5.592   4.238 -0.2824 -0.2934 -0.0319
   13CHTO   C37 5339   5.690   5.723   4.177  0.7201 -0.0724  0.0126
   13CHTO   H79 5340   5.611   5.708   4.102  0.5109  0.6692  0.0719
   13CHTO   C38 5341   5.644   5.834   4.275  0.1023 -0.4344 -0.0413
   13CHTO   H80 5342   5.709   5.833   4.364 -0.0651 -3.0292  0.0756
   13CHTO   O31 5343   5.506   5.804   4.313 -0.4490  0.6668 -0.4116
   13CHTO   H68 5344   5.495   5.805   4.406  2.2567 -1.2361 -0.0118
   13CHTO   C39 5345   5.662   5.979   4.212  0.6771  0.9753  0.2191
   13CHTO   H81 5346   5.592   5.989   4.129  0.2820  0.1530  0.4492
   13CHTO    N7 5347   5.632   6.093   4.309 -0.2285  0.4805  0.1620
   13CHTO   H73 5348   5.531   6.131   4.303 -0.3878 -0.1084 -1.0246
   13CHTO   H74 5349   5.709   6.167   4.296  0.5082 -0.1528  0.8139
   13CHTO   C40 5350   5.794   5.999   4.147 -0.8078 -0.0706  0.0798
   13CHTO   H82 5351   5.878   6.006   4.216 -0.4958 -1.8476 -0.1001
   13CHTO   O26 5352   5.816   5.898   4.051 -0.0953  0.0126  0.6113
   13CHTO   C41 5353   5.821   5.765   4.111 -0.2110  0.4597  0.5532
   13CHTO   H83 5354   5.902   5.754   4.185 -0.2876 -0.7713  0.4549
   13CHTO   C52 5355   5.859   5.677   3.989 -0.3593  0.4653 -0.3933
   13CHTO   O35 5356   5.954   5.730   3.903 -0.5302 -0.1775  0.1215
   13CHTO   H71 5357   6.025   5.766   3.954  0.3847 -2.0703  0.2610
   13CHTO   O28 5358   5.790   6.122   4.076 -0.8934 -0.8905 -0.0612
   13CHTO   C42 5359   5.917   6.167   4.021  0.3680 -0.2549  0.3149
   13CHTO   H84 5360   5.988   6.084   4.013  1.0683  0.3914 -0.1918
   13CHTO   C44 5361   5.983   6.275   4.117 -0.2577  0.6176 -0.5877
   13CHTO   H86 5362   5.901   6.337   4.155 -1.2722 -0.0476 -1.6449
   13CHTO   O32 5363   6.034   6.210   4.236  0.2665  0.8643 -0.5947
   13CHTO   H69 5364   5.964   6.161   4.275 -0.2073  1.4757 -0.6614
   13CHTO   C48 5365   6.089   6.366   4.037 -0.2134  0.1690  0.3448
   13CHTO   H90 5366   6.169   6.303   3.998  0.1667  0.6981  0.2687
   13CHTO    N9 5367   6.148   6.471   4.126 -0.0206  0.7338 -0.2674
   13CHTO   H77 5368   6.224   6.517   4.065 -0.9787 -0.3187 -2.3014
   13CHTO   H78 5369   6.070   6.543   4.148  1.3635  1.5653  2.0755
   13CHTO   C51 5370   6.014   6.429   3.907  0.3026 -0.5180  0.2607
   13CHTO   H93 5371   5.918   6.470   3.939  1.2032  3.0700 -1.4060
   13CHTO   O30 5372   6.001   6.306   3.829  0.0456  0.9407  0.1149
   13CHTO   C46 5373   5.892   6.216   3.875  0.2254 -0.4281 -0.6911
   13CHTO   H88 5374   5.795   6.266   3.878  0.9664  0.8912  2.5298
   13CHTO   C53 5375   5.877   6.094   3.782 -0.1215 -0.1404 -0.0919
   13CHTO   O72 5376   5.835   6.141   3.652  0.5990  0.1692 -0.8593
   13CHTO  H199 5377   5.743   6.125   3.639  0.4846 -0.4429  0.5004
   13CHTO   O22 5378   6.079   6.530   3.829 -0.0167 -0.4849 -0.2721
   13CHTO   C31 5379   6.001   6.611   3.735  0.0853 -0.2938 -0.4693
   13CHTO   H59 5380   6.069   6.692   3.702 -0.1310 -0.1832 -0.6435
   13CHTO   C29 5381   5.954   6.537   3.606  0.1529 -0.1291 -0.2089
   13CHTO   H57 5382   5.878   6.462   3.631 -0.0347  0.5635  1.3732
   13CHTO   O21 5383   6.064   6.464   3.548  0.6993  0.4227  0.0114
   13CHTO   H37 5384   6.055   6.427   3.462  1.0685 -4.1453  1.7679
   13CHTO   C27 5385   5.886   6.634   3.499  0.1440  0.3646 -0.0724
   13CHTO   H55 5386   5.964   6.704   3.466  0.6742 -0.4483 -0.5498
   13CHTO    N5 5387   5.834   6.563   3.380  0.0112  0.5767 -0.1988
   13CHTO   H43 5388   5.739   6.603   3.348  0.4782  1.9737  0.1198
   13CHTO   H44 5389   5.912   6.546   3.307 -0.1364 -1.0109  0.0079
   13CHTO   C25 5390   5.771   6.708   3.574 -0.3568  0.1968 -0.6908
   13CHTO   H53 5391   5.697   6.633   3.606  0.3744 -0.4886 -0.6247
   13CHTO   O17 5392   5.808   6.770   3.697  0.0333 -0.1568 -0.0524
   13CHTO   C32 5393   5.873   6.681   3.792  0.5470  0.5653 -0.0170
   13CHTO   H60 5394   5.810   6.605   3.839  1.4679 -1.1189 -1.4701
   13CHTO   C36 5395   5.900   6.773   3.917  0.6974  0.3635  0.0972
   13CHTO   O25 5396   6.013   6.848   3.889 -0.1681 -0.1164 -0.4428
   13CHTO   H40 5397   5.999   6.902   3.814  1.2750  0.1661 -0.5303
   13CHTO   O15 5398   5.709   6.820   3.477  0.1057 -0.1481  0.2597
   13CHTO   C19 5399   5.579   6.864   3.514 -0.5623  0.0899  0.8813
   13CHTO   H47 5400   5.562   6.809   3.607  3.4089 -0.3885  1.3934
   13CHTO   C20 5401   5.554   7.021   3.530 -0.3835  0.8791 -0.0431
   13CHTO   H48 5402   5.542   7.067   3.431 -3.3598 -0.4424 -0.3394
   13CHTO   O19 5403   5.672   7.072   3.596 -0.2821 -0.1795  0.3932
   13CHTO   H35 5404   5.743   7.039   3.544  0.6516  0.9763  0.9179
   13CHTO   C21 5405   5.420   7.050   3.606  0.9301  0.1256  0.2456
   13CHTO   H49 5406   5.423   7.000   3.703  0.6239  1.2999  0.8684
   13CHTO    N4 5407   5.399   7.193   3.639  0.1179 -0.8843  0.2846
   13CHTO   H41 5408   5.353   7.237   3.552 -3.1793  0.0840  2.4121
   13CHTO   H42 5409   5.326   7.196   3.718 -1.2358 -0.3247 -0.9732
   13CHTO   C22 5410   5.309   6.978   3.523 -0.1525  0.1694  0.0575
   13CHTO   H50 5411   5.289   7.032   3.430  1.0244  1.4215  0.5160
   13CHTO   O14 5412   5.341   6.843   3.491  0.4229  0.4175  0.0396
   13CHTO   C23 5413   5.469   6.814   3.422  0.3171  0.0163 -0.5283
   13CHTO   H51 5414   5.465   6.869   3.327 -2.0293 -0.6184 -0.8219
   13CHTO   C34 5415   5.464   6.666   3.417 -0.3993 -0.7339  0.4596
   13CHTO   O23 5416   5.397   6.625   3.295 -0.6031 -0.3817 -0.1358
   13CHTO   H38 5417   5.308   6.609   3.319 -0.4016 -0.5533  0.4993
   13CHTO   O16 5418   5.186   6.967   3.598  0.3519  0.7130  0.0251
   13CHTO   C24 5419   5.049   6.970   3.505 -0.0714  0.1141 -0.0019
   13CHTO   H52 5420   5.073   6.965   3.399  0.3327  0.2519  0.0822
   13CHTO   C26 5421   4.963   7.100   3.529  0.7044  0.0167 -0.2863
   13CHTO   H54 5422   4.941   7.109   3.637  0.2129 -1.5734 -0.2424
   13CHTO   O20 5423   5.028   7.219   3.472  0.6628 -0.3172  0.6971
   13CHTO   H36 5424   5.075   7.194   3.395  1.1835 -0.5614  1.0927
   13CHTO   C30 5425   4.821   7.089   3.456 -0.0121 -0.1151  0.8121
   13CHTO   H58 5426   4.823   7.097   3.346 -1.5572  3.8235  0.9841
   13CHTO    N6 5427   4.729   7.201   3.493 -0.4089  0.9564  0.3152
   13CHTO   H45 5428   4.749   7.285   3.428  0.1207 -1.0469 -2.2187
   13CHTO   H46 5429   4.629   7.170   3.466 -0.1886  0.2190  0.3330
   13CHTO   C33 5430   4.756   6.950   3.484  0.7982 -0.1691  0.8416
   13CHTO   H61 5431   4.732   6.940   3.591 -0.4624  0.5917  0.6480
   13CHTO   O18 5432   4.850   6.849   3.453 -0.2797 -0.0239  0.0944
   13CHTO   C28 5433   4.966   6.849   3.536  0.4534  0.9808  0.4614
   13CHTO   H56 5434   4.936   6.849   3.641  1.3343 -1.3209  0.7416
   13CHTO   C35 5435   5.045   6.718   3.496  0.4449 -0.0143  0.2777
   13CHTO   O24 5436   5.005   6.582   3.534  0.9005  0.1479  0.0806
   13CHTO   H39 5437   5.049   6.515   3.486 -0.4561 -1.3816  0.9325
   13CHTO    O9 5438   4.636   6.931   3.417 -0.4962  0.1705  0.1593
   13CHTO   C13 5439   4.512   6.884   3.504 -0.6190  0.1488 -0.2701
   13CHTO   H26 5440   4.514   6.944   3.597  1.5621  1.4959 -1.1447
   13CHTO   C11 5441   4.529   6.723   3.533 -0.0097 -0.9897 -0.2425
   13CHTO   H24 5442   4.618   6.706   3.595  0.3972  1.2837 -0.1697
   13CHTO    O8 5443   4.565   6.665   3.406  0.5999 -0.8035 -0.2396
   13CHTO    H3 5444   4.534   6.577   3.410  0.7703 -0.8232  0.6084
   13CHTO    C9 5445   4.399   6.672   3.603  0.3146 -0.4909 -0.2462
   13CHTO   H22 5446   4.394   6.720   3.702 -0.7574  2.9928 -1.8920
   13CHTO    N2 5447   4.405   6.530   3.647  0.1059  0.1442  0.2450
   13CHTO   H10 5448   4.487   6.510   3.714  0.1302  1.6039  0.6576
   13CHTO   H11 5449   4.311   6.502   3.693 -0.5940  1.7402 -0.1969
   13CHTO    C7 5450   4.261   6.703   3.522 -0.0871  0.6498 -0.3092
   13CHTO   H20 5451   4.198   6.754   3.598  0.1517  1.7816 -0.8523
   13CHTO    O4 5452   4.292   6.792   3.413  0.0345  0.2278 -0.0699
   13CHTO   C14 5453   4.368   6.915   3.435  0.2215  0.5479 -0.2135
   13CHTO   H27 5454   4.305   6.972   3.506 -1.6172  0.7324 -1.9632
   13CHTO   C18 5455   4.357   6.991   3.307  0.2454 -0.0684 -0.6102
   13CHTO   O13 5456   4.407   7.126   3.319 -0.2153 -0.0881 -0.0601
   13CHTO    H7 5457   4.331   7.180   3.332 -0.7123 -0.8943  0.4597
   13CHTO    O2 5458   4.191   6.568   3.460  0.1358 -0.8051  0.2286
   13CHTO    C1 5459   4.048   6.570   3.438 -0.5041 -0.2535  0.4999
   13CHTO   H14 5460   4.025   6.670   3.396 -0.2938 -0.0950  0.7605
   13CHTO    C2 5461   3.967   6.541   3.570 -0.1121 -0.3631  0.1417
   13CHTO   H15 5462   4.029   6.460   3.611 -1.7399 -1.1866  1.0092
   13CHTO    O6 5463   3.979   6.650   3.667  0.2624  0.1542  0.1416
   13CHTO    H1 5464   4.000   6.733   3.628  0.2967  0.1273  0.1037
   13CHTO    C3 5465   3.815   6.494   3.548 -0.0464  0.1646  0.3547
   13CHTO   H16 5466   3.750   6.575   3.511 -0.8506 -0.1453  1.0750
   13CHTO    N1 5467   3.752   6.439   3.673  0.0897  0.3162 -0.5746
   13CHTO    H8 5468   3.736   6.524   3.738  2.1043  0.4771 -0.2620
   13CHTO    H9 5469   3.658   6.395   3.644  0.8479 -2.8830  1.5965
   13CHTO    C4 5470   3.821   6.388   3.430  0.0431  0.9282 -0.5057
   13CHTO   H17 5471   3.884   6.302   3.456  1.2770  2.0002  0.0824
   13CHTO    O1 5472   3.870   6.458   3.315  1.0980  0.1000 -0.1248
   13CHTO    C5 5473   4.013   6.463   3.328  0.3114 -0.4794 -0.0927
   13CHTO   H18 5474   4.058   6.368   3.354 -1.9267 -0.9723  2.2062
   13CHTO   C16 5475   4.066   6.509   3.189  0.3861  0.1869  0.1544
   13CHTO   O11 5476   4.051   6.412   3.086  0.4986 -0.1169 -0.4987
   13CHTO    H5 5477   4.119   6.350   3.104 -0.1966 -0.9330 -0.6352
   13CHTO    O3 5478   3.687   6.344   3.391  0.0278 -0.7625  0.4901
   13CHTO    C6 5479   3.648   6.282   3.260  0.2283  0.1208  0.2373
   13CHTO   H19 5480   3.673   6.343   3.173 -1.9826 -1.1779 -1.3868
   13CHTO    C8 5481   3.706   6.137   3.246  0.3600 -0.2943  0.6145
   13CHTO   H21 5482   3.673   6.080   3.332  0.2152 -0.6172  0.3492
   13CHTO    O7 5483   3.847   6.139   3.249 -0.4067  0.5225 -0.1559
   13CHTO    H2 5484   3.882   6.058   3.281  0.7467  0.8127 -0.6421
   13CHTO   C12 5485   3.646   6.062   3.120  0.5149 -0.3011  0.6784
   13CHTO   H25 5486   3.675   6.123   3.032  1.0270 -0.3578  0.8048
   13CHTO    N3 5487   3.706   5.931   3.093 -0.4709  0.1623  0.9782
   13CHTO   H12 5488   3.814   5.936   3.086 -0.5033 -0.6807 -0.3386
   13CHTO   H13 5489   3.676   5.856   3.165 -1.5314 -1.2700 -0.8890
   13CHTO   C15 5490   3.490   6.061   3.128 -0.2333  0.4065 -0.3201
   13CHTO   H28 5491   3.446   6.009   3.213 -0.9339  0.6523 -0.5329
   13CHTO   O10 5492   3.424   6.012   3.023 -0.2606 -0.2543 -0.3416
   13CHTO    H4 5493   3.336   6.040   3.005 -0.3147  0.2889  0.7422
   13CHTO    O5 5494   3.451   6.195   3.136 -0.0668  0.0324 -0.0768
   13CHTO   C10 5495   3.492   6.262   3.255  0.0728 -0.3963 -0.5334
   13CHTO   H23 5496   3.455   6.198   3.336 -2.0622 -0.6343 -1.6663
   13CHTO   C17 5497   3.424   6.400   3.264 -0.2882 -0.2017  0.1426
   13CHTO   O12 5498   3.429   6.440   3.401 -0.1436  0.0459 -0.2306
   13CHTO    H6 5499   3.417   6.533   3.398 -0.6887 -0.0446 -1.1636
   14CHTO  H203 5500   5.511   4.698   0.728  2.5743  0.0419 -0.8206
   14CHTO   O82 5501   5.536   4.690   0.819  0.3441 -0.0821 -0.1919
   14CHTO  C123 5502   5.442   4.602   0.880  0.2840 -0.6276 -1.1094
   14CHTO  H227 5503   5.447   4.614   0.989  0.3034 -0.4660 -1.1277
   14CHTO   O77 5504   5.299   4.644   0.852 -0.0327  0.2588  0.1880
   14CHTO  C118 5505   5.203   4.565   0.925  0.1673  0.2427  0.3656
   14CHTO  H222 5506   5.225   4.586   1.031 -0.5588  0.6733  0.4339
   14CHTO  C125 5507   5.062   4.635   0.900  0.3034  0.4435 -0.4285
   14CHTO   O84 5508   5.022   4.622   0.759 -0.1407  0.1221 -0.1824
   14CHTO  H205 5509   4.937   4.659   0.745 -0.5172 -0.7991 -0.4058
   14CHTO  C114 5510   5.210   4.427   0.873  0.9909  0.3862 -0.0771
   14CHTO  H218 5511   5.194   4.431   0.766 -0.8213 -1.1954  0.1033
   14CHTO  C116 5512   5.356   4.364   0.895 -0.4589 -0.2413  0.5255
   14CHTO  H220 5513   5.388   4.358   1.001  1.0054  0.2092  0.1246
   14CHTO   O79 5514   5.354   4.231   0.839 -0.2764 -0.4547 -0.0574
   14CHTO  H201 5515   5.336   4.166   0.904 -0.4481  0.2333  0.5888
   14CHTO  C120 5516   5.461   4.452   0.829 -0.4312  0.4537 -0.3410
   14CHTO  H224 5517   5.442   4.453   0.719 -2.1122 -0.6301 -0.0843
   14CHTO   N21 5518   5.598   4.402   0.856  0.2645  0.9969  0.0474
   14CHTO  H211 5519   5.640   4.460   0.936  1.3456 -0.0840  0.2827
   14CHTO  H212 5520   5.659   4.409   0.767 -1.0351  2.8315 -0.7124
   14CHTO   O75 5521   5.105   4.356   0.949  0.0784 -0.2582 -0.0229
   14CHTO  C112 5522   5.036   4.238   0.882  0.4389  0.4564  0.7607
   14CHTO  H216 5523   5.058   4.144   0.933 -0.1800  1.5020  2.9942
   14CHTO   O73 5524   5.069   4.234   0.740 -0.1617  0.1282  0.0734
   14CHTO  C113 5525   5.018   4.116   0.674  0.2838  0.2389  0.5332
   14CHTO  H217 5526   5.047   4.027   0.733 -1.4205 -0.5736  0.2023
   14CHTO  C124 5527   5.079   4.089   0.536  0.5827 -0.1099  0.2790
   14CHTO   O83 5528   5.222   4.084   0.541  0.0994  0.8417 -0.0153
   14CHTO  H204 5529   5.253   4.149   0.600 -0.5961  1.4334 -0.3022
   14CHTO  C109 5530   4.862   4.121   0.672  0.6755  0.4325  0.3147
   14CHTO  H213 5531   4.835   4.214   0.621 -2.3571  0.6579  2.2583
   14CHTO  C110 5532   4.813   4.121   0.822 -0.4152  0.7227 -1.2539
   14CHTO  H214 5533   4.829   4.023   0.868 -2.3101  0.3541 -1.3610
   14CHTO   O78 5534   4.669   4.117   0.824  0.0617 -0.1219  0.3328
   14CHTO  H200 5535   4.642   4.135   0.912 -2.9968  0.5188 -0.6800
   14CHTO  C111 5536   4.876   4.242   0.893 -0.1805  0.1968 -0.0516
   14CHTO  H215 5537   4.846   4.335   0.841  2.1482  0.6144 -0.6884
   14CHTO   N19 5538   4.832   4.249   1.032 -0.5162  0.5222 -0.5638
   14CHTO  H207 5539   4.726   4.241   1.051 -0.3921 -1.5214 -0.6055
   14CHTO  H208 5540   4.884   4.173   1.089  0.9458  2.2534  0.4558
   14CHTO   O74 5541   4.806   4.005   0.595 -0.4971  0.4159 -0.9595
   14CHTO  C115 5542   4.704   4.061   0.478  0.2433  0.0423 -0.2921
   14CHTO  H219 5543   4.655   4.155   0.507  1.2606  1.0900 -1.8626
   14CHTO   O76 5544   4.784   4.098   0.340 -0.3380  0.0037  0.3136
   14CHTO  C122 5545   4.809   3.981   0.265  0.3880 -0.0945  0.5187
   14CHTO  H226 5546   4.853   3.909   0.333  1.2624 -1.0039 -0.9780
   14CHTO  C126 5547   4.922   4.001   0.158  0.4557  0.2450  0.0258
   14CHTO   O85 5548   5.051   4.007   0.219 -0.2392 -0.0115  0.4371
   14CHTO  H206 5549   5.112   3.968   0.160  1.0466  0.3943  1.4737
   14CHTO  C121 5550   4.676   3.912   0.202  0.1460  0.3701 -0.0531
   14CHTO  H225 5551   4.650   3.942   0.098 -1.4420 -0.3763  0.1126
   14CHTO   O81 5552   4.692   3.771   0.202  0.1440 -0.3482 -0.1142
   14CHTO  H202 5553   4.690   3.734   0.116 -2.3709 -1.3634  0.3542
   14CHTO  C119 5554   4.554   3.945   0.299 -0.6180 -0.1410  0.3122
   14CHTO  H223 5555   4.528   4.047   0.269 -1.0469 -0.8863 -1.9820
   14CHTO  C117 5556   4.598   3.945   0.449 -0.5788 -0.5742 -0.6376
   14CHTO  H221 5557   4.644   3.852   0.483 -1.2159 -0.6370  0.0596
   14CHTO   N20 5558   4.488   3.961   0.539  0.3610 -0.2842 -0.0777
   14CHTO  H209 5559   4.434   3.868   0.550  1.8718 -0.8533  3.1851
   14CHTO  H210 5560   4.424   4.044   0.511 -1.0820 -0.4747  2.4813
   14CHTO   O80 5561   4.424   3.873   0.257 -0.0826 -0.1046 -0.0899
   14CHTO  C103 5562   4.370   3.897   0.110 -0.1730 -0.5431  0.1728
   14CHTO  H190 5563   4.438   3.961   0.053  0.2101 -2.5351 -1.7020
   14CHTO  C101 5564   4.334   3.762   0.032 -0.5229  0.0574 -0.0853
   14CHTO  H188 5565   4.287   3.700   0.109 -0.1490 -1.3710 -1.0018
   14CHTO   O68 5566   4.467   3.681  -0.022 -0.1560 -0.4024  0.0571
   14CHTO  H168 5567   4.488   3.618   0.044  0.0338  0.0916  0.4765
   14CHTO   C99 5568   4.228   3.792  -0.088  0.0397  0.7728  0.4651
   14CHTO  H186 5569   4.278   3.844  -0.173 -0.5675 -1.6348 -1.4313
   14CHTO   N17 5570   4.181   3.661  -0.140  0.0840 -0.4423 -0.0605
   14CHTO  H174 5571   4.105   3.664  -0.217  0.6950  0.7281 -0.6319
   14CHTO  H175 5572   4.155   3.592  -0.062 -1.0450  0.4792  0.3938
   14CHTO   C97 5573   4.119   3.882  -0.038  0.7312 -0.4764  0.2756
   14CHTO  H184 5574   4.060   3.828   0.037 -1.3848 -0.5990 -1.4382
   14CHTO   O64 5575   4.174   3.999   0.010  0.5315  0.2435 -0.3119
   14CHTO  C104 5576   4.239   3.981   0.139 -0.2605  0.2183 -0.4398
   14CHTO  H191 5577   4.177   3.928   0.211 -0.8957 -0.6067 -1.5665
   14CHTO  C108 5578   4.260   4.127   0.182  0.3672 -0.1946 -1.0402
   14CHTO   O71 5579   4.308   4.132   0.317 -0.0029  0.0246 -0.2527
   14CHTO  H171 5580   4.397   4.103   0.314  0.4744  1.4352 -0.0799
   14CHTO   O62 5581   4.032   3.922  -0.149 -0.5625 -0.4000 -0.5319
   14CHTO   C91 5582   3.888   3.940  -0.114 -0.7484  0.5794  0.4055
   14CHTO  H178 5583   3.851   3.855  -0.057  0.0308  0.6802  1.0615
   14CHTO   C92 5584   3.801   3.930  -0.247 -0.0199  0.0260  0.4393
   14CHTO  H179 5585   3.830   3.841  -0.306  4.0807  2.2523 -1.1278
   14CHTO   O66 5586   3.658   3.910  -0.225 -0.4601 -0.2016  0.1859
   14CHTO  H166 5587   3.652   3.834  -0.169  0.9481 -0.8223 -0.4868
   14CHTO   C93 5588   3.823   4.058  -0.332  0.0082  0.4473 -0.1504
   14CHTO  H180 5589   3.737   4.059  -0.401  0.2293 -0.9300 -0.4710
   14CHTO   N16 5590   3.941   4.042  -0.422  0.1263 -0.8812 -0.5895
   14CHTO  H172 5591   4.030   4.037  -0.361  0.6232 -1.6916 -1.3795
   14CHTO  H173 5592   3.938   3.946  -0.472 -0.0683 -2.3262  2.0833
   14CHTO   C94 5593   3.810   4.189  -0.233  0.4670 -0.2146  0.1404
   14CHTO  H181 5594   3.908   4.236  -0.221  0.8154 -1.4773  2.6189
   14CHTO   O61 5595   3.767   4.163  -0.097 -0.2205 -0.5333  0.5481
   14CHTO   C95 5596   3.859   4.078  -0.031  0.4332  0.7653  0.0534
   14CHTO  H182 5597   3.956   4.127  -0.021  1.6892 -1.3930 -1.0064
   14CHTO  C106 5598   3.811   4.052   0.120 -0.4077  0.2692  0.3810
   14CHTO   O69 5599   3.900   3.966   0.194 -0.5525 -0.2684 -0.5449
   14CHTO  H169 5600   3.988   3.966   0.160 -0.0145  1.7720  0.8043
   14CHTO   O63 5601   3.706   4.287  -0.295 -0.4452 -0.0298 -0.6875
   14CHTO   C96 5602   3.724   4.435  -0.241  0.8712 -0.2188 -0.2597
   14CHTO  H183 5603   3.792   4.446  -0.158 -1.5200 -0.3711  1.7797
   14CHTO   C98 5604   3.588   4.490  -0.187  0.2368  0.1474  0.0500
   14CHTO  H185 5605   3.503   4.445  -0.241  0.9062 -1.1386  0.0592
   14CHTO   O67 5606   3.580   4.440  -0.051 -0.3145 -0.5113  0.3491
   14CHTO  H167 5607   3.660   4.436  -0.002 -0.8714 -2.9174  1.1036
   14CHTO  C102 5608   3.568   4.641  -0.185 -0.1442  0.0724 -0.2603
   14CHTO  H189 5609   3.615   4.673  -0.091 -0.1067 -0.1335 -0.2077
   14CHTO   N18 5610   3.422   4.682  -0.182 -0.7102 -0.4070  0.1718
   14CHTO  H176 5611   3.369   4.654  -0.271  0.0839 -1.5214  0.0500
   14CHTO  H177 5612   3.428   4.790  -0.173 -1.4541 -0.3490  0.0256
   14CHTO  C105 5613   3.652   4.713  -0.299  0.6223  0.2669 -0.1491
   14CHTO  H192 5614   3.604   4.703  -0.397 -0.5566  2.2828  0.2019
   14CHTO   O65 5615   3.777   4.660  -0.324 -0.2206 -0.1860 -0.5914
   14CHTO  C100 5616   3.771   4.522  -0.370  1.4497  0.1104 -0.0767
   14CHTO  H187 5617   3.695   4.512  -0.450  2.1259 -0.4783 -0.6574
   14CHTO  C107 5618   3.901   4.488  -0.438  0.3183  0.4632 -0.1962
   14CHTO   O70 5619   3.905   4.366  -0.511 -0.3617 -0.2607 -0.2586
   14CHTO  H170 5620   3.843   4.378  -0.580 -0.2474  2.1370  0.0392
   14CHTO   O57 5621   3.677   4.855  -0.237  0.1436  0.1712  0.2105
   14CHTO   C85 5622   3.659   4.974  -0.319  0.2625 -0.0572 -0.6538
   14CHTO  H157 5623   3.592   4.947  -0.403  0.4497  0.8596 -1.1015
   14CHTO   C83 5624   3.790   5.010  -0.390  0.1950 -0.0297  0.0396
   14CHTO  H155 5625   3.812   4.933  -0.464 -1.2372  1.6420 -2.2123
   14CHTO   O56 5626   3.890   5.000  -0.288  0.1556  0.3767  0.0421
   14CHTO  H135 5627   3.901   5.083  -0.245 -2.3813  0.4347  0.6244
   14CHTO   C81 5628   3.783   5.152  -0.462  0.5636 -0.0121 -0.3191
   14CHTO  H153 5629   3.702   5.153  -0.535  0.4410 -1.4499 -0.2052
   14CHTO   N14 5630   3.906   5.189  -0.533  0.3319  0.0320  0.4123
   14CHTO  H141 5631   3.990   5.171  -0.470 -1.2964  1.0820  3.0033
   14CHTO  H142 5632   3.911   5.125  -0.618 -0.8518  1.1105 -0.4984
   14CHTO   C79 5633   3.746   5.260  -0.354 -1.1744  0.0908  0.0954
   14CHTO  H151 5634   3.724   5.351  -0.410  0.1691  1.3326  1.5356
   14CHTO   O52 5635   3.624   5.234  -0.301 -0.3699 -0.1270 -0.3519
   14CHTO   C86 5636   3.604   5.101  -0.238 -0.6121 -0.1704  0.0790
   14CHTO  H158 5637   3.655   5.107  -0.139 -2.2904 -1.7620  1.0709
   14CHTO   C90 5638   3.456   5.095  -0.217 -0.4287  0.1437 -0.2205
   14CHTO   O60 5639   3.408   5.198  -0.133 -0.7572 -0.2229  0.2882
   14CHTO  H138 5640   3.328   5.174  -0.089 -0.1040 -0.1761  1.5476
   14CHTO   O50 5641   3.852   5.278  -0.257 -0.9387 -0.6311  0.1633
   14CHTO   C73 5642   3.875   5.339  -0.128  1.0908 -0.1756  0.2016
   14CHTO  H145 5643   3.813   5.288  -0.054  1.4102 -2.8041 -1.2776
   14CHTO   C74 5644   3.855   5.497  -0.134 -0.4203  0.7536  0.6364
   14CHTO  H146 5645   3.748   5.509  -0.156 -0.8443 -1.9330  1.1068
   14CHTO   O54 5646   3.874   5.551  -0.003  0.2596 -1.3486  0.2691
   14CHTO  H133 5647   3.965   5.542   0.017  0.6791  1.8298 -0.0361
   14CHTO   C75 5648   3.944   5.557  -0.248  0.1633  0.3599 -0.2730
   14CHTO  H147 5649   3.922   5.497  -0.337  2.4492 -2.0598  0.7367
   14CHTO   N13 5650   3.922   5.700  -0.273  0.1335 -0.1086  0.0112
   14CHTO  H139 5651   3.866   5.704  -0.365  0.0684  0.5327  0.0705
   14CHTO  H140 5652   4.014   5.756  -0.280  1.5785 -2.2997  0.8546
   14CHTO   C76 5653   4.097   5.520  -0.219 -0.3963  0.3151 -0.1001
   14CHTO  H148 5654   4.142   5.580  -0.139 -0.6345  1.0319 -0.5000
   14CHTO   O49 5655   4.112   5.376  -0.179 -0.2220 -0.0390  0.2155
   14CHTO   C77 5656   4.019   5.319  -0.084 -0.6781 -0.1754 -0.1647
   14CHTO  H149 5657   4.034   5.364   0.014  0.4924 -2.7765  0.9215
   14CHTO   C88 5658   4.055   5.167  -0.067  0.2916 -0.3761  0.2607
   14CHTO   O58 5659   4.184   5.139  -0.050  0.0890 -0.4720 -0.2991
   14CHTO  H136 5660   4.194   5.049  -0.026 -0.5735 -0.1642  1.1508
   14CHTO   O51 5661   4.181   5.536  -0.371 -0.5143  0.2610 -0.0015
   14CHTO   C78 5662   4.314   5.604  -0.356 -0.0958 -0.1262  0.6825
   14CHTO  H150 5663   4.331   5.639  -0.252 -1.4989 -0.7441  1.1236
   14CHTO   C80 5664   4.333   5.722  -0.452  0.4692 -0.0959  0.4695
   14CHTO  H152 5665   4.320   5.686  -0.556  0.9321  1.2662 -0.0884
   14CHTO   O55 5666   4.229   5.818  -0.428  0.1927  0.7826 -0.1538
   14CHTO  H134 5667   4.237   5.844  -0.338  2.3480 -0.3923  0.0403
   14CHTO   C84 5668   4.479   5.794  -0.440 -0.2579  0.4562 -0.8288
   14CHTO  H156 5669   4.483   5.847  -0.345  1.5581 -3.5948  1.5008
   14CHTO   N15 5670   4.500   5.897  -0.548 -0.4542  0.4280 -0.5397
   14CHTO  H143 5671   4.585   5.956  -0.520 -1.1917  1.7001 -0.9282
   14CHTO  H144 5672   4.408   5.952  -0.546 -0.5612  0.2240  2.6966
   14CHTO   C87 5673   4.595   5.685  -0.442  0.1926 -0.5714 -0.6095
   14CHTO  H159 5674   4.629   5.649  -0.539  1.9466 -2.4160  0.6462
   14CHTO   O53 5675   4.556   5.551  -0.356  0.1472 -0.2074  0.4832
   14CHTO   C82 5676   4.424   5.499  -0.390  0.9078 -0.5189  1.0558
   14CHTO  H154 5677   4.425   5.482  -0.498 -0.8541  1.2219  0.7190
   14CHTO   C89 5678   4.397   5.361  -0.318  0.1176 -0.0008  0.5718
   14CHTO   O59 5679   4.491   5.262  -0.338 -0.6792 -0.4918  0.3699
   14CHTO  H137 5680   4.561   5.281  -0.279  1.0464  1.8171 -2.3077
   14CHTO   O45 5681   4.742   5.753  -0.379 -0.0607  0.2068  0.4739
   14CHTO   C67 5682   4.864   5.688  -0.410 -0.1744  0.0770 -0.1766
   14CHTO  H124 5683   4.945   5.753  -0.377  0.3129 -0.3895 -0.4549
   14CHTO   C65 5684   4.882   5.552  -0.343 -0.3399 -0.7739 -0.0901
   14CHTO  H122 5685   4.785   5.514  -0.310 -0.2732 -1.4157 -0.6285
   14CHTO   O44 5686   4.960   5.583  -0.226 -0.2253 -0.1273  0.2743
   14CHTO  H102 5687   4.903   5.618  -0.160 -0.2319  0.2239  0.0831
   14CHTO   C63 5688   4.932   5.444  -0.443 -0.0598  0.1469  0.6921
   14CHTO  H120 5689   4.850   5.435  -0.513 -0.8744 -1.1566  1.7934
   14CHTO   N11 5690   4.950   5.309  -0.384  0.5880 -0.3065 -0.3164
   14CHTO  H108 5691   4.935   5.317  -0.279  1.9136 -1.1558 -0.0480
   14CHTO  H109 5692   4.886   5.235  -0.427  0.7303 -1.0647  0.7644
   14CHTO   C61 5693   5.053   5.509  -0.524 -0.4292 -0.1204  0.0142
   14CHTO  H118 5694   5.084   5.435  -0.599  0.1680  0.6288 -0.4950
   14CHTO   O40 5695   5.017   5.626  -0.602  0.4399 -0.0193  0.2999
   14CHTO   C68 5696   4.883   5.684  -0.569  0.2431 -0.0332  0.1331
   14CHTO  H125 5697   4.806   5.622  -0.619 -0.0949  2.1976 -2.2576
   14CHTO   C72 5698   4.871   5.827  -0.626 -0.0225  0.1260  0.1675
   14CHTO   O48 5699   4.873   5.842  -0.773  0.1305 -0.8287  0.3589
   14CHTO  H105 5700   4.783   5.842  -0.801  0.2961 -1.7766 -0.1767
   14CHTO   O38 5701   5.165   5.545  -0.436 -0.1534  0.0510 -0.6633
   14CHTO   C55 5702   5.292   5.573  -0.499 -0.2204  0.3027 -0.2454
   14CHTO  H112 5703   5.267   5.619  -0.596  0.8782 -0.0505 -0.6985
   14CHTO   C56 5704   5.384   5.446  -0.517 -0.1185 -0.3710 -0.1701
   14CHTO  H113 5705   5.404   5.410  -0.415 -0.7532  0.3701  0.2183
   14CHTO   O42 5706   5.304   5.348  -0.588  0.0738 -0.8437 -0.0788
   14CHTO  H100 5707   5.297   5.380  -0.676 -1.4920  0.1791  0.3980
   14CHTO   C57 5708   5.515   5.496  -0.594 -0.1690 -0.1735 -0.0371
   14CHTO  H114 5709   5.500   5.520  -0.699 -0.1511  0.7204  0.1608
   14CHTO   N10 5710   5.624   5.393  -0.597  0.4978  0.4843 -0.6168
   14CHTO  H106 5711   5.629   5.333  -0.687 -0.1743  0.2688 -0.5113
   14CHTO  H107 5712   5.622   5.329  -0.510 -1.2088 -0.5366 -1.3709
   14CHTO   C58 5713   5.573   5.623  -0.521  0.2527 -0.0623 -0.3761
   14CHTO  H115 5714   5.634   5.590  -0.434 -1.1883  1.1769  1.1376
   14CHTO   O37 5715   5.472   5.724  -0.491  0.1678 -0.2009 -0.5390
   14CHTO   C59 5716   5.370   5.673  -0.408 -0.3059 -0.0765  0.0805
   14CHTO  H116 5717   5.403   5.627  -0.315 -1.6551 -2.2093 -0.4531
   14CHTO   C70 5718   5.276   5.788  -0.377  0.3568 -0.2547  0.1665
   14CHTO   O46 5719   5.196   5.771  -0.261  0.2069  0.2786 -0.2061
   14CHTO  H103 5720   5.250   5.777  -0.184 -1.5513  0.6837  1.0434
   14CHTO   O39 5721   5.660   5.709  -0.635 -0.2424 -0.3355 -0.4758
   14CHTO   C60 5722   5.804   5.695  -0.656 -0.2436  0.3117 -0.2878
   14CHTO  H117 5723   5.841   5.627  -0.581 -0.1229 -0.2136 -0.8192
   14CHTO   C62 5724   5.843   5.643  -0.796  1.0001  0.3425 -0.8152
   14CHTO  H119 5725   5.780   5.552  -0.809 -1.2119  1.2329  2.8785
   14CHTO   O43 5726   5.806   5.739  -0.899 -0.2314  0.3325 -0.2476
   14CHTO  H101 5727   5.845   5.710  -0.980  1.2362  2.6893 -0.4285
   14CHTO   C66 5728   6.003   5.615  -0.807  0.4703  0.1946  0.0416
   14CHTO  H123 5729   6.033   5.541  -0.733  0.2729  1.8699  1.8204
   14CHTO   N12 5730   6.048   5.570  -0.940  0.4824  0.3202  0.3449
   14CHTO  H110 5731   5.986   5.606  -1.021 -0.6212  0.3348  1.1883
   14CHTO  H111 5732   6.149   5.602  -0.960  0.5119 -1.2843 -2.2802
   14CHTO   C69 5733   6.078   5.749  -0.772  0.2134  0.4297 -0.0504
   14CHTO  H126 5734   6.067   5.817  -0.858  0.7958 -1.1514 -1.4013
   14CHTO   O41 5735   6.028   5.812  -0.642  0.0024  0.2752  0.1222
   14CHTO   C64 5736   5.879   5.828  -0.632  0.6182 -0.0621  0.3525
   14CHTO  H121 5737   5.838   5.892  -0.714  0.9307  1.0800  1.0781
   14CHTO   C71 5738   5.841   5.890  -0.498 -0.1263  0.6171  0.1332
   14CHTO   O47 5739   5.912   6.012  -0.479  0.1832  0.0417  0.1589
   14CHTO  H104 5740   5.925   6.032  -0.388  2.4672 -2.5848  0.4711
   14CHTO   O34 5741   6.239   5.698  -0.733 -0.4462 -0.6622  0.2758
   14CHTO   C49 5742   6.344   5.652  -0.619 -0.4636  0.0772 -0.1699
   14CHTO   H91 5743   6.442   5.687  -0.650 -0.2393  0.2426  0.7390
   14CHTO   C47 5744   6.350   5.495  -0.606 -0.0212  0.1290  0.1358
   14CHTO   H89 5745   6.437   5.484  -0.538 -0.3381  0.1617  0.5512
   14CHTO   O33 5746   6.384   5.441  -0.736 -0.6453 -0.0602 -0.7708
   14CHTO   H70 5747   6.394   5.347  -0.732 -0.7796 -0.0499 -0.1036
   14CHTO   C45 5748   6.220   5.424  -0.543 -0.6550  0.2830 -0.3151
   14CHTO   H87 5749   6.159   5.395  -0.630 -1.2879  1.0099 -0.1165
   14CHTO    N8 5750   6.253   5.297  -0.473  0.0572 -0.6075  0.5375
   14CHTO   H75 5751   6.227   5.211  -0.532  1.6269  0.2766 -1.5011
   14CHTO   H76 5752   6.353   5.291  -0.433 -0.2907  0.4195  1.6019
   14CHTO   C43 5753   6.125   5.531  -0.464 -0.1466  0.3712 -0.0766
   14CHTO   H85 5754   6.067   5.584  -0.539  3.0467  3.3886 -0.5796
   14CHTO   O29 5755   6.218   5.625  -0.396  0.1128 -0.2129  0.1039
   14CHTO   C50 5756   6.296   5.708  -0.477 -0.1953  0.4591  1.0068
   14CHTO   H92 5757   6.222   5.787  -0.494 -2.3800 -1.6436  0.4830
   14CHTO   C54 5758   6.418   5.763  -0.391 -0.1537 -1.0749 -0.1145
   14CHTO   O36 5759   6.510   5.847  -0.466  0.3857  0.5051 -0.1592
   14CHTO   H72 5760   6.550   5.904  -0.403 -0.0876  0.1737  0.4503
   14CHTO   O27 5761   6.030   5.466  -0.376  0.2938  0.2701  0.7049
   14CHTO   C37 5762   5.955   5.486  -0.250 -0.2634  0.1536  0.0297
   14CHTO   H79 5763   6.019   5.468  -0.162  1.2325  0.7791 -0.9005
   14CHTO   C38 5764   5.895   5.628  -0.235  0.6286  0.5624 -0.1691
   14CHTO   H80 5765   5.850   5.654  -0.332 -0.0088  1.0186  0.2471
   14CHTO   O31 5766   5.993   5.722  -0.205  0.0604  0.4387 -0.2024
   14CHTO   H68 5767   6.050   5.680  -0.143  0.2327  1.2321  0.1904
   14CHTO   C39 5768   5.784   5.633  -0.120  0.0765  0.1659  0.1798
   14CHTO   H81 5769   5.840   5.634  -0.027  0.1862 -0.5697  0.1303
   14CHTO    N7 5770   5.702   5.755  -0.128 -0.2087 -0.3774  0.3645
   14CHTO   H73 5771   5.650   5.756  -0.223  1.2996 -0.6854 -0.4782
   14CHTO   H74 5772   5.631   5.751  -0.047  0.5738  2.5752  1.2227
   14CHTO   C40 5773   5.692   5.514  -0.118 -0.5596  0.0687  0.4577
   14CHTO   H82 5774   5.610   5.517  -0.189 -1.7436 -3.0216  1.6436
   14CHTO   O26 5775   5.771   5.390  -0.130 -0.3402 -0.4330  0.1526
   14CHTO   C41 5776   5.845   5.381  -0.254 -1.0435 -0.5328  0.3064
   14CHTO   H83 5777   5.786   5.398  -0.345  2.0908 -0.8650 -1.8799
   14CHTO   C52 5778   5.901   5.237  -0.252 -0.0120  0.4359  0.3392
   14CHTO   O35 5779   5.781   5.124  -0.261 -0.3495  0.5189 -0.3494
   14CHTO   H71 5780   5.808   5.053  -0.316 -1.3565  0.4088 -0.6970
   14CHTO   O28 5781   5.630   5.501   0.008  0.5824  0.2392 -0.0179
   14CHTO   C42 5782   5.500   5.448   0.025  0.0800 -0.1604 -0.1771
   14CHTO   H84 5783   5.499   5.401   0.124  0.7073 -1.2215 -0.6623
   14CHTO   C44 5784   5.455   5.333  -0.065  0.3971  0.1584  0.1730
   14CHTO   H86 5785   5.461   5.368  -0.168  0.6088 -1.3866 -0.3518
   14CHTO   O32 5786   5.545   5.222  -0.052  0.5467  0.5110 -0.5539
   14CHTO   H69 5787   5.623   5.244  -0.100 -0.1862  0.2057 -1.9287
   14CHTO   C48 5788   5.314   5.280  -0.042  0.2377 -0.2468  0.4504
   14CHTO   H90 5789   5.311   5.216   0.045 -0.8789  0.3715  0.8864
   14CHTO    N9 5790   5.260   5.182  -0.149  0.1546 -0.2090  0.1668
   14CHTO   H77 5791   5.314   5.089  -0.140 -1.2444 -1.0055  0.4151
   14CHTO   H78 5792   5.272   5.238  -0.241 -2.8076 -0.8993 -0.6919
   14CHTO   C51 5793   5.207   5.395  -0.012  0.1014 -0.1426  0.2755
   14CHTO   H93 5794   5.166   5.440  -0.102  1.0193 -0.2757 -0.2144
   14CHTO   O30 5795   5.262   5.500   0.067  0.5083  0.0635 -0.4527
   14CHTO   C46 5796   5.389   5.561   0.027 -0.2514  0.7451  0.1022
   14CHTO   H88 5797   5.375   5.595  -0.076 -2.1121 -1.1748 -0.3169
   14CHTO   C53 5798   5.424   5.683   0.120  0.2128  0.5258  0.1371
   14CHTO   O72 5799   5.449   5.646   0.258  0.3927  0.2717  0.2624
   14CHTO  H199 5800   5.533   5.604   0.263  1.4071  2.0444 -1.3114
   14CHTO   O22 5801   5.099   5.346   0.068  0.0416  0.2897  0.2815
   14CHTO   C31 5802   4.952   5.381   0.046 -0.3647 -0.2119  0.2108
   14CHTO   H59 5803   4.947   5.429  -0.054 -0.8173 -3.2813 -1.3258
   14CHTO   C29 5804   4.865   5.257   0.038 -0.0635 -0.3823 -0.4013
   14CHTO   H57 5805   4.878   5.203   0.133 -2.0341  1.8665  1.2191
   14CHTO   O21 5806   4.920   5.167  -0.059  0.2372 -0.1103 -0.0899
   14CHTO   H37 5807   5.005   5.138  -0.034 -0.3099 -1.3771  0.3581
   14CHTO   C27 5808   4.713   5.290   0.011  0.1503 -0.1197  0.3154
   14CHTO   H55 5809   4.699   5.313  -0.096 -1.4588  0.4496  0.6232
   14CHTO    N5 5810   4.630   5.173   0.045  0.2066  0.8170  0.5336
   14CHTO   H43 5811   4.564   5.141  -0.034  0.0636 -1.0398  1.3702
   14CHTO   H44 5812   4.599   5.169   0.148 -0.5046 -0.1534  0.2906
   14CHTO   C25 5813   4.659   5.410   0.094  0.1190 -0.3159  0.2398
   14CHTO   H53 5814   4.627   5.382   0.195 -0.9248 -1.8017 -0.4861
   14CHTO   O17 5815   4.755   5.523   0.102 -0.0404 -0.0006 -0.5162
   14CHTO   C32 5816   4.886   5.486   0.146 -0.3897  0.2340  0.1122
   14CHTO   H60 5817   4.870   5.433   0.240  1.1621 -0.8131 -0.1991
   14CHTO   C36 5818   4.968   5.617   0.179 -0.5678  0.1163 -0.3211
   14CHTO   O25 5819   4.973   5.706   0.064  1.2905 -0.5418 -0.0988
   14CHTO   H40 5820   5.037   5.694  -0.003  0.7260 -3.0532 -0.2243
   14CHTO   O15 5821   4.528   5.449   0.033 -0.4353  0.4249 -0.1648
   14CHTO   C19 5822   4.399   5.519   0.053 -0.3867 -1.1038  0.4983
   14CHTO   H47 5823   4.349   5.498  -0.043  2.5087 -2.5187 -0.7343
   14CHTO   C20 5824   4.334   5.454   0.178 -0.2740  1.0755 -0.2534
   14CHTO   H48 5825   4.402   5.457   0.265 -2.1990 -2.4698  1.4612
   14CHTO   O19 5826   4.313   5.316   0.144  0.7708  0.0639 -0.3027
   14CHTO   H35 5827   4.397   5.281   0.123  1.2008  0.9903 -0.1690
   14CHTO   C21 5828   4.199   5.520   0.211 -0.7127 -0.1474  0.1777
   14CHTO   H49 5829   4.131   5.499   0.129  0.4751  0.7295 -1.0306
   14CHTO    N4 5830   4.118   5.479   0.330 -0.2779  0.0262 -0.0472
   14CHTO   H41 5831   4.129   5.373   0.343  0.4351  0.0745 -0.2548
   14CHTO   H42 5832   4.015   5.511   0.341  0.5281  2.9047 -0.3861
   14CHTO   C22 5833   4.222   5.673   0.215  0.1197 -0.2473  0.0385
   14CHTO   H50 5834   4.280   5.694   0.305 -0.4291  0.2399  0.2773
   14CHTO   O14 5835   4.287   5.724   0.098 -0.9630  0.0823 -0.2485
   14CHTO   C23 5836   4.417   5.681   0.064 -0.1525 -0.2487  0.0393
   14CHTO   H51 5837   4.474   5.710   0.154 -1.1629 -2.7370  1.5601
   14CHTO   C34 5838   4.451   5.749  -0.066 -0.3094 -0.3636  0.1735
   14CHTO   O23 5839   4.585   5.706  -0.095 -0.4006  0.4696 -0.1268
   14CHTO   H38 5840   4.594   5.685  -0.186  1.5759 -0.8608  0.3321
   14CHTO   O16 5841   4.098   5.747   0.208 -0.0963 -0.2840 -0.2155
   14CHTO   C24 5842   4.112   5.929   0.196  0.1964 -0.4296  0.3875
   14CHTO   H52 5843   4.030   5.981   0.247 -0.8594  0.7771 -2.4101
   14CHTO   C26 5844   4.102   5.966   0.047  0.2225 -0.2281 -0.3845
   14CHTO   H54 5845   4.178   5.904  -0.005  0.5049 -0.7507  0.6327
   14CHTO   O20 5846   3.972   5.925   0.002 -0.2479  0.0460  0.2258
   14CHTO   H36 5847   3.948   5.946  -0.086 -0.3979  0.4354  0.3573
   14CHTO   C30 5848   4.131   6.113   0.014 -0.2841  0.1841 -0.0449
   14CHTO   H58 5849   4.059   6.187   0.051  0.1273  0.4490  0.2294
   14CHTO    N6 5850   4.150   6.129  -0.136  0.3336  0.4126 -0.0881
   14CHTO   H45 5851   4.238   6.086  -0.181 -0.3131 -1.9631  0.8385
   14CHTO   H46 5852   4.065   6.083  -0.184  0.9007 -0.3292 -0.3808
   14CHTO   C33 5853   4.258   6.158   0.090 -0.1032  0.3560 -0.6314
   14CHTO   H61 5854   4.344   6.100   0.053  0.3570  0.9242 -0.4668
   14CHTO   O18 5855   4.249   6.128   0.230 -0.1289 -0.2829  0.1001
   14CHTO   C28 5856   4.238   5.990   0.256 -0.4128  0.1571  0.3154
   14CHTO   H56 5857   4.327   5.937   0.222 -1.3983  0.3048 -2.7142
   14CHTO   C35 5858   4.241   5.985   0.414 -0.1266  0.8029  0.3195
   14CHTO   O24 5859   4.376   6.006   0.461  0.7077  0.2029  0.2707
   14CHTO   H39 5860   4.394   5.947   0.531  1.5243 -0.9223 -0.8737
   14CHTO    O9 5861   4.287   6.300   0.070 -0.3856  0.4964  0.0520
   14CHTO   C13 5862   4.435   6.344   0.098 -0.5761  0.2334 -0.7509
   14CHTO   H26 5863   4.496   6.264   0.052  1.7403  1.3673  0.2634
   14CHTO   C11 5864   4.468   6.361   0.254  0.8135 -0.4412 -0.0778
   14CHTO   H24 5865   4.452   6.262   0.301 -1.4244  1.1839  2.8101
   14CHTO    O8 5866   4.379   6.452   0.318 -0.3752 -0.0289 -0.1236
   14CHTO    H3 5867   4.395   6.451   0.410  4.3765 -0.6030 -0.7980
   14CHTO    C9 5868   4.618   6.403   0.264 -0.3522  0.1184  0.2065
   14CHTO   H22 5869   4.679   6.320   0.227  0.3830  0.5119  0.5159
   14CHTO    N2 5870   4.664   6.403   0.408 -0.7143  0.7714  0.1630
   14CHTO   H10 5871   4.626   6.319   0.465 -0.7048  1.8713  1.8182
   14CHTO   H11 5872   4.771   6.394   0.414 -0.7592  0.9755  1.2172
   14CHTO    C7 5873   4.652   6.531   0.178  0.2592  0.9296  0.4476
   14CHTO   H20 5874   4.721   6.487   0.102 -1.8303 -0.8345 -0.4758
   14CHTO    O4 5875   4.540   6.579   0.106  0.2782 -0.1847  0.4611
   14CHTO   C14 5876   4.475   6.477   0.029  0.7235  0.1366  0.1150
   14CHTO   H27 5877   4.548   6.446  -0.048 -0.0361 -2.8610  0.5287
   14CHTO   C18 5878   4.357   6.545  -0.049 -0.3037 -0.4315 -0.3570
   14CHTO   O13 5879   4.411   6.632  -0.150 -0.2263 -0.2662 -0.1538
   14CHTO    H7 5880   4.401   6.723  -0.130  2.5687  0.1050 -0.2898
   14CHTO    O2 5881   4.722   6.654   0.261  0.5353 -0.2313  0.3618
   14CHTO    C1 5882   4.802   6.730   0.175  0.4235  0.1731  0.1549
   14CHTO   H14 5883   4.771   6.722   0.068 -0.3989  1.0780  0.3189
   14CHTO    C2 5884   4.955   6.688   0.182 -0.3307  0.0529  0.7432
   14CHTO   H15 5885   4.964   6.682   0.292 -0.6251  0.3344  0.7834
   14CHTO    O6 5886   4.975   6.562   0.109  0.0185  0.1287 -0.0535
   14CHTO    H1 5887   5.065   6.543   0.090  0.9850  2.7361  1.6172
   14CHTO    C3 5888   5.060   6.806   0.127  0.0334  0.2862 -0.8373
   14CHTO   H16 5889   5.078   6.806   0.019 -0.2758 -0.6667 -0.8892
   14CHTO    N1 5890   5.201   6.781   0.174  0.5458  0.8529  0.4325
   14CHTO    H8 5891   5.240   6.863   0.233  2.2927  1.1381 -1.0700
   14CHTO    H9 5892   5.217   6.687   0.224 -0.8834  0.6325  0.4904
   14CHTO    C4 5893   5.009   6.949   0.164  0.1901  0.2555 -0.0625
   14CHTO   H17 5894   5.028   6.974   0.269  1.5201  0.9849 -0.4525
   14CHTO    O1 5895   4.868   6.959   0.128 -0.3119 -0.5313 -0.1415
   14CHTO    C5 5896   4.781   6.884   0.211 -0.0733  0.2879  0.2754
   14CHTO   H18 5897   4.809   6.899   0.315  3.7778  1.4275 -0.8725
   14CHTO   C16 5898   4.640   6.936   0.189  0.0404 -0.1436 -0.1029
   14CHTO   O11 5899   4.594   6.930   0.055 -0.0893 -0.9636  1.2437
   14CHTO    H5 5900   4.511   6.972   0.041  1.7309  2.1463 -0.9991
   14CHTO    O3 5901   5.067   7.052   0.079 -0.0619 -0.8592 -0.4328
   14CHTO    C6 5902   5.060   7.184   0.139 -0.3192 -0.8388  0.2512
   14CHTO   H19 5903   4.987   7.193   0.220 -1.8482 -2.0201 -0.9563
   14CHTO    C8 5904   5.195   7.235   0.198  1.0446 -0.0892  0.0225
   14CHTO   H21 5905   5.272   7.223   0.121 -0.5565 -1.8335 -1.3432
   14CHTO    O7 5906   5.230   7.150   0.308 -0.1297  0.2363 -0.4074
   14CHTO    H2 5907   5.171   7.155   0.380 -0.2481 -1.1597 -0.3925
   14CHTO   C12 5908   5.182   7.390   0.239 -0.3273 -0.0416 -0.9130
   14CHTO   H25 5909   5.124   7.393   0.333 -0.8797 -0.7608 -1.2249
   14CHTO    N3 5910   5.320   7.435   0.270  0.3504 -0.4335 -0.0651
   14CHTO   H12 5911   5.378   7.361   0.323  1.9612 -0.4447 -1.8104
   14CHTO   H13 5912   5.324   7.533   0.315 -1.4052  0.0102 -0.8392
   14CHTO   C15 5913   5.113   7.482   0.132  0.6819  0.3936  0.2618
   14CHTO   H28 5914   5.175   7.518   0.050  1.0851  2.4188  1.4222
   14CHTO   O10 5915   5.036   7.601   0.199 -0.4498  0.2965  0.3149
   14CHTO    H4 5916   5.079   7.680   0.171  0.2661 -0.7391 -1.6482
   14CHTO    O5 5917   4.996   7.417   0.084 -0.0010  0.2525 -0.4865
   14CHTO   C10 5918   5.011   7.286   0.024 -0.0134  0.1762  0.4654
   14CHTO   H23 5919   5.087   7.290  -0.054 -2.7793 -0.6388 -2.3686
   14CHTO   C17 5920   4.883   7.230  -0.044  0.4669 -0.7145  0.0815
   14CHTO   O12 5921   4.850   7.283  -0.171  0.2880 -0.0363 -0.7504
   14CHTO    H6 5922   4.757   7.287  -0.177  0.2333 -1.2542 -0.7202
   15CHTO  H203 5923   5.633   4.967   2.595  2.2374 -0.5390  0.1308
   15CHTO   O82 5924   5.605   4.900   2.653  0.1745 -0.2647 -0.4931
   15CHTO  C123 5925   5.536   4.802   2.574 -0.4000 -0.6919  0.3996
   15CHTO  H227 5926   5.465   4.855   2.508  0.1925 -1.2038 -0.6539
   15CHTO   O77 5927   5.641   4.738   2.492 -0.2179  0.0309 -0.0160
   15CHTO  C118 5928   5.590   4.634   2.406  0.4238  0.0467  0.7216
   15CHTO  H222 5929   5.522   4.685   2.337  1.6462 -1.3881 -1.6031
   15CHTO  C125 5930   5.709   4.588   2.316 -0.6239 -0.0559  0.1864
   15CHTO   O84 5931   5.825   4.540   2.389 -0.7208 -0.4293 -0.4636
   15CHTO  H205 5932   5.795   4.464   2.435 -0.0955  0.9284  2.2467
   15CHTO  C114 5933   5.525   4.521   2.486  0.1389  0.3704  0.4747
   15CHTO  H218 5934   5.605   4.469   2.538 -0.8473 -1.6779 -0.0227
   15CHTO  C116 5935   5.421   4.572   2.580 -0.0390 -0.2812 -0.2253
   15CHTO  H220 5936   5.325   4.587   2.526 -0.3714 -0.8845  0.1887
   15CHTO   O79 5937   5.396   4.475   2.671  0.6186  0.1842  0.4654
   15CHTO  H201 5938   5.339   4.506   2.740 -0.3873  0.5349 -0.5084
   15CHTO  C120 5939   5.461   4.704   2.662 -0.0282  1.0552 -0.4417
   15CHTO  H224 5940   5.521   4.670   2.748 -1.6562 -0.2283  0.2165
   15CHTO   N21 5941   5.344   4.767   2.732 -0.2970 -0.3946 -0.4023
   15CHTO  H211 5942   5.270   4.698   2.768  1.1742 -2.6711 -1.5772
   15CHTO  H212 5943   5.314   4.841   2.659  0.4164 -0.0322 -0.3318
   15CHTO   O75 5944   5.475   4.432   2.381 -0.4318 -0.2778  0.4007
   15CHTO  C112 5945   5.490   4.270   2.402 -0.6514  1.0987 -0.1847
   15CHTO  H216 5946   5.427   4.238   2.486  0.8323  0.2562  0.6288
   15CHTO   O73 5947   5.633   4.244   2.430  0.1555 -0.4980  0.1440
   15CHTO  C113 5948   5.665   4.107   2.455  0.4588  0.1333  0.7613
   15CHTO  H217 5949   5.607   4.084   2.547  1.2446 -1.8890  0.7650
   15CHTO  C124 5950   5.810   4.093   2.491 -0.1474 -0.2849 -0.4068
   15CHTO   O83 5951   5.848   4.178   2.608 -0.5148  0.7359  0.1641
   15CHTO  H204 5952   5.875   4.122   2.678  0.2038  0.0461 -0.6602
   15CHTO  C109 5953   5.618   4.013   2.340  0.6379  0.0313 -0.3299
   15CHTO  H213 5954   5.687   4.028   2.255 -0.2072 -1.7589 -1.3582
   15CHTO  C110 5955   5.470   4.037   2.299 -0.2305  0.2283  0.7739
   15CHTO  H214 5956   5.403   4.005   2.378 -1.7624 -1.5763 -1.1879
   15CHTO   O78 5957   5.431   3.964   2.179 -0.3251 -0.3400  0.2996
   15CHTO  H200 5958   5.478   3.883   2.178 -1.4463 -1.0022 -0.7254
   15CHTO  C111 5959   5.452   4.193   2.269  0.2956 -0.4227  0.5148
   15CHTO  H215 5960   5.511   4.225   2.182  0.9066 -1.2714  0.6061
   15CHTO   N19 5961   5.311   4.228   2.238  0.1512  0.5060  0.2862
   15CHTO  H207 5962   5.244   4.177   2.306 -1.4654  0.1912 -1.4921
   15CHTO  H208 5963   5.291   4.206   2.134 -0.5319  0.9138  0.3248
   15CHTO   O74 5964   5.636   3.867   2.396 -0.1741  0.2555  0.3907
   15CHTO  C115 5965   5.766   3.780   2.343  0.2702  0.3014  0.3738
   15CHTO  H219 5966   5.858   3.838   2.340  1.4278 -1.5833 -1.7341
   15CHTO   O76 5967   5.789   3.651   2.440 -0.3131 -0.9412 -0.2791
   15CHTO  C122 5968   5.669   3.583   2.465  0.0359  0.2381  0.6250
   15CHTO  H226 5969   5.616   3.632   2.547  1.7290  0.9366  1.3334
   15CHTO  C126 5970   5.709   3.444   2.515 -0.6755 -0.7678 -0.1626
   15CHTO   O85 5971   5.786   3.364   2.420 -0.1529 -0.0214  0.7375
   15CHTO  H206 5972   5.727   3.307   2.374 -1.6422  3.1650 -1.4856
   15CHTO  C121 5973   5.570   3.573   2.336 -0.7735  0.3665  0.1275
   15CHTO  H225 5974   5.529   3.470   2.335  0.8147 -0.2948  1.0260
   15CHTO   O81 5975   5.451   3.643   2.345  0.5231 -0.0941  0.7578
   15CHTO  H202 5976   5.465   3.718   2.399  3.2250  1.3384 -1.7579
   15CHTO  C119 5977   5.648   3.596   2.198  0.3266 -0.4541  0.4694
   15CHTO  H223 5978   5.716   3.511   2.191 -1.4647 -1.7835 -1.5328
   15CHTO  C117 5979   5.723   3.728   2.200 -0.1503  0.2556  0.0525
   15CHTO  H221 5980   5.662   3.806   2.154  0.0606  0.9644  0.9738
   15CHTO   N20 5981   5.842   3.723   2.111 -0.0695 -0.2445 -0.5230
   15CHTO  H209 5982   5.814   3.718   2.007  1.2891 -1.4371 -0.8629
   15CHTO  H210 5983   5.902   3.638   2.140  0.0948 -0.9045 -2.6800
   15CHTO   O80 5984   5.565   3.568   2.075 -0.4373  0.1613 -0.4052
   15CHTO  C103 5985   5.494   3.425   2.049 -0.4282  0.4781  0.1861
   15CHTO  H190 5986   5.477   3.379   2.147 -2.1054  2.0402  0.6571
   15CHTO  C101 5987   5.354   3.446   1.991  0.3502 -0.9572  0.0175
   15CHTO  H188 5988   5.349   3.511   1.903  0.2124 -2.9590 -1.5160
   15CHTO   O68 5989   5.267   3.529   2.103 -0.0046  0.1590 -0.4079
   15CHTO  H168 5990   5.183   3.549   2.067  1.6359  3.4463 -2.6691
   15CHTO   C99 5991   5.297   3.293   1.970  0.0499 -0.1112  0.2882
   15CHTO  H186 5992   5.283   3.247   2.069 -1.0692  0.1599  0.2585
   15CHTO   N17 5993   5.157   3.288   1.906 -0.0419  0.3791  0.3518
   15CHTO  H174 5994   5.153   3.231   1.815  1.3145  0.4300  0.2490
   15CHTO  H175 5995   5.091   3.247   1.981  0.9765  0.3374  1.2525
   15CHTO   C97 5996   5.390   3.202   1.887  0.6538 -0.2393  0.9112
   15CHTO  H184 5997   5.396   3.239   1.784  2.3900 -1.6324  0.4914
   15CHTO   O64 5998   5.517   3.199   1.953  0.2046 -0.3666  0.0818
   15CHTO  C104 5999   5.586   3.329   1.964  0.1578  0.4000  0.5499
   15CHTO  H191 6000   5.598   3.371   1.864 -1.6636 -0.3325  0.0055
   15CHTO  C108 6001   5.727   3.310   2.019 -0.2542  0.1519 -0.6037
   15CHTO   O71 6002   5.727   3.237   2.139  0.1390  0.2142 -0.1631
   15CHTO  H171 6003   5.810   3.199   2.160  1.2100  2.9283  0.7197
   15CHTO   O62 6004   5.351   3.060   1.886  0.1500 -0.5244 -0.3577
   15CHTO   C91 6005   5.373   2.986   1.771  0.0766  0.0106 -0.2141
   15CHTO  H178 6006   5.443   3.043   1.710  0.4778  0.1820  0.3999
   15CHTO   C92 6007   5.237   2.959   1.696 -0.3185 -0.3938 -0.2149
   15CHTO  H179 6008   5.169   3.044   1.712  1.8427  1.0803  1.3265
   15CHTO   O66 6009   5.262   2.961   1.557 -0.9850  0.6793 -0.0831
   15CHTO  H166 6010   5.331   2.899   1.541  1.8463  4.1529 -1.9783
   15CHTO   C93 6011   5.164   2.825   1.738 -0.5054 -0.1649 -0.3190
   15CHTO  H180 6012   5.087   2.791   1.668 -0.2669  1.0590 -1.1915
   15CHTO   N16 6013   5.082   2.839   1.859  0.5395 -0.3223  0.4250
   15CHTO  H172 6014   5.138   2.825   1.951  0.2846  2.2136  1.0023
   15CHTO  H173 6015   5.025   2.930   1.856  0.4199 -0.3872  0.7075
   15CHTO   C94 6016   5.269   2.703   1.765  0.0170  0.4299 -0.1172
   15CHTO  H181 6017   5.273   2.667   1.868  1.5316  0.8012 -0.0280
   15CHTO   O61 6018   5.397   2.739   1.731  0.2851  0.4168 -0.0659
   15CHTO   C95 6019   5.447   2.849   1.806  0.0387  0.3115  0.0866
   15CHTO  H182 6020   5.431   2.829   1.912 -0.9745  2.5382  0.3824
   15CHTO  C106 6021   5.605   2.861   1.786 -0.7168  0.1287 -0.3826
   15CHTO   O69 6022   5.670   2.936   1.886  0.4444 -0.0664 -1.0187
   15CHTO  H169 6023   5.754   2.958   1.851  1.7747 -3.3492 -0.0212
   15CHTO   O63 6024   5.223   2.578   1.669  0.7012 -0.0293 -0.5877
   15CHTO   C96 6025   5.299   2.430   1.701 -0.3375 -0.0177  0.4220
   15CHTO  H183 6026   5.243   2.372   1.775  0.5347 -3.2207 -1.3224
   15CHTO   C98 6027   5.444   2.430   1.754 -0.0453  0.5513 -0.3701
   15CHTO  H185 6028   5.509   2.490   1.689  1.8429 -1.3969 -0.3063
   15CHTO   O67 6029   5.436   2.501   1.880 -0.0815  0.3642 -0.1106
   15CHTO  H167 6030   5.392   2.456   1.949  0.9243  0.5220  0.6391
   15CHTO  C102 6031   5.509   2.283   1.773  0.6332  0.2068 -0.1364
   15CHTO  H189 6032   5.455   2.240   1.858 -0.7156  1.0800 -0.5337
   15CHTO   N18 6033   5.650   2.289   1.824  0.1204 -0.0541  0.6355
   15CHTO  H176 6034   5.698   2.193   1.807 -2.3831 -1.5666  1.8113
   15CHTO  H177 6035   5.710   2.360   1.769 -0.2551 -0.7844 -0.7405
   15CHTO  C105 6036   5.488   2.198   1.647 -0.0515  0.0775  0.3081
   15CHTO  H192 6037   5.549   2.238   1.566 -0.2352  0.0277  0.1435
   15CHTO   O65 6038   5.352   2.208   1.603 -0.1016 -0.3988  0.2053
   15CHTO  C100 6039   5.300   2.340   1.576 -0.4178  0.4933 -0.2173
   15CHTO  H187 6040   5.369   2.387   1.504  0.9965  2.3002  2.2125
   15CHTO  C107 6041   5.159   2.313   1.506 -0.0445  0.0209 -0.2761
   15CHTO   O70 6042   5.099   2.432   1.454  0.3170  0.1089 -0.4026
   15CHTO  H170 6043   5.032   2.463   1.512 -0.7746 -0.3124 -1.4227
   15CHTO   O57 6044   5.538   2.023   1.675 -0.2882  0.0289  0.4725
   15CHTO   C85 6045   5.457   1.945   1.758 -0.1339  0.3532 -0.5094
   15CHTO  H157 6046   5.401   2.010   1.828  1.1851 -0.4804  1.3795
   15CHTO   C83 6047   5.556   1.870   1.856  0.4193 -0.2335  0.3319
   15CHTO  H155 6048   5.615   1.947   1.904  0.1538  0.3195 -0.2315
   15CHTO   O56 6049   5.641   1.786   1.784 -0.0441  0.2843 -0.0888
   15CHTO  H135 6050   5.723   1.829   1.768  0.0355 -0.2688 -1.2397
   15CHTO   C81 6051   5.472   1.804   1.961  0.8696  0.0681  0.6871
   15CHTO  H153 6052   5.409   1.878   2.011  3.2705  0.2515  3.6244
   15CHTO   N14 6053   5.549   1.747   2.074  0.4680 -0.1440 -0.8061
   15CHTO  H141 6054   5.636   1.806   2.093  0.8122 -0.9812  0.2019
   15CHTO  H142 6055   5.483   1.766   2.156  1.3345 -0.2042 -0.0878
   15CHTO   C79 6056   5.376   1.692   1.891 -0.4649  0.4611  0.1782
   15CHTO  H151 6057   5.309   1.649   1.966 -0.4735 -3.4130 -1.8774
   15CHTO   O52 6058   5.289   1.751   1.787  0.4603  0.3297 -0.3000
   15CHTO   C86 6059   5.363   1.836   1.693 -0.7047 -0.2866  0.5431
   15CHTO  H158 6060   5.423   1.762   1.636 -1.7004  0.3646 -1.4132
   15CHTO   C90 6061   5.255   1.897   1.593  0.2177 -0.7663 -0.5325
   15CHTO   O60 6062   5.183   1.800   1.525 -0.1063  0.3117  0.1351
   15CHTO  H138 6063   5.238   1.758   1.461 -1.4228 -2.0098  0.4976
   15CHTO   O50 6064   5.447   1.584   1.838 -0.1191  0.0139 -0.2480
   15CHTO   C73 6065   5.431   1.448   1.801  0.3509 -0.0668  0.1348
   15CHTO  H145 6066   5.343   1.424   1.739  2.3707 -0.7976 -2.5731
   15CHTO   C74 6067   5.414   1.340   1.918  0.4763 -0.0718 -0.1451
   15CHTO  H146 6068   5.330   1.367   1.983  0.8819 -0.6078  0.6099
   15CHTO   O54 6069   5.383   1.210   1.862 -0.4794  0.2108  0.0665
   15CHTO  H133 6070   5.371   1.153   1.935 -3.9425 -0.1053 -0.6611
   15CHTO   C75 6071   5.553   1.341   1.990 -1.3010  0.1824 -0.5748
   15CHTO  H147 6072   5.567   1.443   2.029  0.6849 -0.5941  0.7915
   15CHTO   N13 6073   5.549   1.269   2.122 -0.6235 -0.3524 -0.4845
   15CHTO  H139 6074   5.529   1.164   2.110 -2.0295 -0.2004  0.4397
   15CHTO  H140 6075   5.470   1.320   2.174 -0.1430 -0.9709  0.8816
   15CHTO   C76 6076   5.682   1.308   1.901 -0.0128 -0.3592  0.1413
   15CHTO  H148 6077   5.668   1.204   1.873  2.9763 -0.5129 -0.8882
   15CHTO   O49 6078   5.676   1.392   1.781 -0.3448 -0.3555 -0.0339
   15CHTO   C77 6079   5.548   1.405   1.717  0.4203  0.2225  0.8083
   15CHTO  H149 6080   5.520   1.305   1.681 -0.1611  0.2717  1.1190
   15CHTO   C88 6081   5.569   1.494   1.597  0.2139 -0.3932 -0.1737
   15CHTO   O58 6082   5.495   1.477   1.509 -0.1085 -0.1698  0.1968
   15CHTO  H136 6083   5.486   1.558   1.462  1.7868 -0.7590 -1.2061
   15CHTO   O51 6084   5.828   1.332   1.976  0.3182  0.0817  0.0597
   15CHTO   C78 6085   5.939   1.365   1.889  0.0142  0.3678 -0.4993
   15CHTO  H150 6086   5.908   1.397   1.787 -1.9730  0.6143  0.1599
   15CHTO   C80 6087   6.029   1.242   1.864  0.6832 -0.1739 -0.3838
   15CHTO  H152 6088   6.049   1.193   1.962 -1.9478  1.0148  0.8290
   15CHTO   O55 6089   5.947   1.143   1.801  0.4802  0.0360  0.0626
   15CHTO  H134 6090   5.864   1.128   1.842  0.1152  1.3194 -0.1692
   15CHTO   C84 6091   6.154   1.266   1.778  0.1705 -0.0274  0.1005
   15CHTO  H156 6092   6.135   1.293   1.674 -1.6599  1.3817  0.7787
   15CHTO   N15 6093   6.238   1.140   1.764 -0.1023  0.0695 -0.0784
   15CHTO  H143 6094   6.225   1.063   1.837  1.0044  1.0948  1.2345
   15CHTO  H144 6095   6.256   1.101   1.666  1.9524 -0.7374  0.5971
   15CHTO   C87 6096   6.228   1.383   1.843  0.2367 -0.5178 -0.1986
   15CHTO  H159 6097   6.267   1.358   1.941  1.9597  0.6777 -0.5488
   15CHTO   O53 6098   6.122   1.511   1.867  0.6678 -0.0527  0.0254
   15CHTO   C82 6099   6.019   1.478   1.957  0.3606  0.1083  0.1267
   15CHTO  H154 6100   6.058   1.458   2.057  0.9137 -0.2110 -0.1513
   15CHTO   C89 6101   5.925   1.603   1.969 -0.1974  0.1095  0.7810
   15CHTO   O59 6102   5.987   1.722   2.023  0.2759  0.0474 -0.3766
   15CHTO  H137 6103   5.916   1.758   2.072 -0.4635 -1.3293 -0.3907
   15CHTO   O45 6104   6.331   1.438   1.746 -0.4080 -0.5588  0.9555
   15CHTO   C67 6105   6.428   1.527   1.810  0.3264 -0.3990  0.2625
   15CHTO  H124 6106   6.376   1.604   1.867  0.7894  0.9061 -1.0514
   15CHTO   C65 6107   6.534   1.450   1.904  0.2695 -0.6269 -0.1464
   15CHTO  H122 6108   6.542   1.347   1.868 -0.6642 -0.7187 -0.0888
   15CHTO   O44 6109   6.480   1.463   2.037  0.3869  0.2823  0.3682
   15CHTO  H102 6110   6.511   1.540   2.080  1.8329  0.5804 -1.1595
   15CHTO   C63 6111   6.680   1.509   1.883  0.3896  0.0206  0.6114
   15CHTO  H120 6112   6.714   1.480   1.784 -0.3990  1.5510 -0.1187
   15CHTO   N11 6113   6.786   1.440   1.970  0.3763 -0.4525  0.1199
   15CHTO  H108 6114   6.850   1.513   2.016 -2.5623  2.7579 -0.6554
   15CHTO  H109 6115   6.752   1.358   2.029 -0.2262 -0.3303 -0.0562
   15CHTO   C61 6116   6.678   1.665   1.879 -0.5867 -0.2553 -0.6411
   15CHTO  H118 6117   6.777   1.712   1.876 -0.3114 -0.7289  0.7136
   15CHTO   O40 6118   6.610   1.696   1.758 -0.5978  0.0010 -0.2856
   15CHTO   C68 6119   6.506   1.608   1.702  0.3288  0.5185  0.0983
   15CHTO  H125 6120   6.554   1.531   1.638 -0.5295  0.5488 -0.5918
   15CHTO   C72 6121   6.429   1.699   1.602  0.1861 -0.6539 -0.3455
   15CHTO   O48 6122   6.364   1.816   1.653 -0.2074 -0.1800  0.1416
   15CHTO  H105 6123   6.398   1.899   1.624  2.3509 -1.2491 -0.0388
   15CHTO   O38 6124   6.606   1.725   1.985  0.1287  0.6097 -0.2517
   15CHTO   C55 6125   6.550   1.858   1.980  0.5411 -0.4704  0.6959
   15CHTO  H112 6126   6.463   1.860   1.913  0.4565 -3.3783  0.6529
   15CHTO   C56 6127   6.655   1.970   1.943  0.6473 -1.3020 -0.1873
   15CHTO  H113 6128   6.741   1.961   2.011  0.1669 -2.2433  0.3176
   15CHTO   O42 6129   6.724   1.953   1.821 -0.1560 -0.0464  0.8162
   15CHTO  H100 6130   6.772   1.873   1.816 -1.1551 -0.9920  4.5215
   15CHTO   C57 6131   6.581   2.116   1.953  0.3315 -0.3654  0.5909
   15CHTO  H114 6132   6.529   2.116   1.857 -1.1506 -1.6205  1.3778
   15CHTO   N10 6133   6.673   2.235   1.947 -0.0300  0.0838  0.3722
   15CHTO  H106 6134   6.623   2.307   1.884 -3.1066 -1.5308  0.8528
   15CHTO  H107 6135   6.681   2.275   2.047 -1.6117 -0.4874  0.7366
   15CHTO   C58 6136   6.475   2.122   2.071  0.0465  0.2698  0.1214
   15CHTO  H115 6137   6.529   2.138   2.167 -1.2571 -0.7786  1.0363
   15CHTO   O37 6138   6.402   2.000   2.098 -0.3216 -0.2187 -0.1321
   15CHTO   C59 6139   6.477   1.885   2.114  0.0103 -0.2354 -0.7894
   15CHTO  H116 6140   6.547   1.905   2.195 -0.0698 -0.8652 -0.5576
   15CHTO   C70 6141   6.379   1.769   2.147  0.1803 -0.4151 -0.6638
   15CHTO   O46 6142   6.276   1.745   2.049 -0.6810 -0.2344 -0.1122
   15CHTO  H103 6143   6.296   1.791   1.969 -0.6786  0.1058  0.0834
   15CHTO   O39 6144   6.366   2.241   2.046  0.5039 -0.2160 -0.4623
   15CHTO   C60 6145   6.290   2.239   1.925  0.2626  0.1721 -0.1299
   15CHTO  H117 6146   6.352   2.220   1.837 -1.1714  2.2571 -1.6318
   15CHTO   C62 6147   6.180   2.139   1.924  0.0644  0.3163  0.3021
   15CHTO  H119 6148   6.238   2.044   1.920 -0.2095  0.0070  2.7593
   15CHTO   O43 6149   6.106   2.138   2.047  0.0828  0.4911 -0.0985
   15CHTO  H101 6150   6.088   2.050   2.073  1.6756  0.3572  0.6246
   15CHTO   C66 6151   6.090   2.147   1.790 -0.2563  0.3130 -0.0625
   15CHTO  H123 6152   6.150   2.124   1.703  0.2008 -0.5659  0.4825
   15CHTO   N12 6153   5.982   2.043   1.786  0.5091  0.7227  0.0594
   15CHTO  H110 6154   5.995   1.973   1.867 -2.2987 -1.2900 -1.1509
   15CHTO  H111 6155   5.885   2.090   1.786  0.5853  0.9873 -2.6120
   15CHTO   C69 6156   6.041   2.291   1.774 -0.1290  0.3511  0.4969
   15CHTO  H126 6157   5.966   2.318   1.851  0.1806  1.7831  0.3086
   15CHTO   O41 6158   6.155   2.385   1.774 -0.6290 -0.0468  0.1987
   15CHTO   C64 6159   6.235   2.384   1.901 -0.0353  0.6002 -0.0714
   15CHTO  H121 6160   6.182   2.411   1.994  0.9486  2.2132  0.0454
   15CHTO   C71 6161   6.351   2.477   1.887  0.8072  0.5654  0.5661
   15CHTO   O47 6162   6.322   2.593   1.821  0.5205 -0.4773  0.2605
   15CHTO  H104 6163   6.230   2.613   1.819  0.3735 -1.1158  0.4857
   15CHTO   O34 6164   5.964   2.325   1.637 -0.6245  0.4792  0.2492
   15CHTO   C49 6165   5.929   2.327   1.480 -0.0275  0.1573 -0.7842
   15CHTO   H91 6166   5.926   2.224   1.443 -1.6331 -0.2582  0.4636
   15CHTO   C47 6167   6.041   2.415   1.416  0.4495 -0.1153  0.4164
   15CHTO   H89 6168   6.025   2.415   1.306  1.1293  0.5040  0.3147
   15CHTO   O33 6169   6.159   2.340   1.441 -0.5170  0.4641 -0.0158
   15CHTO   H70 6170   6.227   2.371   1.385  1.9514  2.3481  3.9001
   15CHTO   C45 6171   6.036   2.563   1.477 -0.0514  0.7977 -0.5333
   15CHTO   H87 6172   6.052   2.553   1.585  0.6433 -2.1777 -0.8624
   15CHTO    N8 6173   6.143   2.652   1.428 -0.2446  0.8285 -0.0862
   15CHTO   H75 6174   6.235   2.596   1.441 -2.5193 -3.4867 -1.8896
   15CHTO   H76 6175   6.146   2.753   1.467 -0.7997  0.5715  0.6320
   15CHTO   C43 6176   5.884   2.622   1.444 -0.0836 -0.1566 -0.1575
   15CHTO   H85 6177   5.881   2.722   1.486  1.2090 -0.4234  0.5656
   15CHTO   O29 6178   5.788   2.524   1.498  0.0665 -0.5006  0.3872
   15CHTO   C50 6179   5.788   2.386   1.464  0.0274  0.5774  0.0006
   15CHTO   H92 6180   5.723   2.333   1.535 -0.9786  1.5780 -0.1586
   15CHTO   C54 6181   5.711   2.366   1.332 -0.6519 -0.2303 -0.0399
   15CHTO   O36 6182   5.580   2.414   1.344  0.0665 -0.1937  0.2380
   15CHTO   H72 6183   5.564   2.505   1.326  2.7162  0.4728  1.0944
   15CHTO   O27 6184   5.860   2.647   1.304 -0.7269 -0.4723  0.2067
   15CHTO   C37 6185   5.816   2.753   1.209 -0.5889  0.8539 -0.5405
   15CHTO   H79 6186   5.725   2.728   1.153  0.9496 -2.3579 -1.6888
   15CHTO   C38 6187   5.777   2.879   1.287  0.2823  0.6234  0.3235
   15CHTO   H80 6188   5.863   2.919   1.342  1.9296  2.5021 -3.4673
   15CHTO   O31 6189   5.675   2.853   1.382 -0.8717 -0.2358  0.3235
   15CHTO   H68 6190   5.617   2.785   1.355 -1.2958 -0.5221  1.9037
   15CHTO   C39 6191   5.736   2.987   1.182  0.0142 -0.3648 -0.2507
   15CHTO   H81 6192   5.648   2.953   1.127 -2.1258  1.7999  1.6878
   15CHTO    N7 6193   5.691   3.121   1.243 -0.0816  0.5031  0.4538
   15CHTO   H73 6194   5.706   3.137   1.349 -0.8741  1.2751  0.4572
   15CHTO   H74 6195   5.735   3.206   1.193 -0.6180  0.2228 -0.5038
   15CHTO   C40 6196   5.860   3.011   1.078 -0.0313 -0.1547 -0.1438
   15CHTO   H82 6197   5.942   3.051   1.137  1.0676 -0.8849 -1.1576
   15CHTO   O26 6198   5.896   2.888   1.015  0.5038 -0.4628 -0.4731
   15CHTO   C41 6199   5.931   2.778   1.108  0.2895  0.0047 -0.3093
   15CHTO   H83 6200   6.019   2.809   1.167 -0.6234  0.7558  0.6665
   15CHTO   C52 6201   5.972   2.658   1.025 -0.4664  0.2788  0.2584
   15CHTO   O35 6202   5.869   2.611   0.926 -0.0390 -0.5421  0.3037
   15CHTO   H71 6203   5.851   2.520   0.940 -1.8262 -0.0493  1.2977
   15CHTO   O28 6204   5.824   3.086   0.966 -0.3582  0.0575  0.4113
   15CHTO   C42 6205   5.898   3.201   0.905  0.0118  0.4597 -0.5243
   15CHTO   H84 6206   5.900   3.179   0.798  0.3030  1.0243 -0.6348
   15CHTO   C44 6207   6.052   3.216   0.946  0.1300  0.5893  0.6570
   15CHTO   H86 6208   6.060   3.211   1.054 -2.5684 -1.1981  0.8128
   15CHTO   O32 6209   6.122   3.103   0.891  0.0154 -0.0944  0.2225
   15CHTO   H69 6210   6.216   3.107   0.896  0.2047  2.0244 -3.2916
   15CHTO   C48 6211   6.107   3.352   0.890  0.8347  0.1481  0.1012
   15CHTO   H90 6212   6.111   3.341   0.782 -0.4801 -1.0391  0.1600
   15CHTO    N9 6213   6.245   3.382   0.934 -0.2037 -0.1720 -0.2561
   15CHTO   H77 6214   6.262   3.481   0.895  0.0939 -0.7170 -1.5326
   15CHTO   H78 6215   6.312   3.309   0.890  1.8702  1.1840  0.5815
   15CHTO   C51 6216   6.013   3.473   0.930 -0.4643  0.2301 -0.7746
   15CHTO   H93 6217   6.008   3.479   1.039 -1.8449  0.5875 -0.8408
   15CHTO   O30 6218   5.885   3.435   0.872 -0.4814 -0.2529 -0.1023
   15CHTO   C46 6219   5.814   3.339   0.922  0.7981 -0.2044  0.4639
   15CHTO   H88 6220   5.792   3.352   1.028 -0.5390 -1.3580  0.3497
   15CHTO   C53 6221   5.687   3.323   0.838 -0.4631  0.4075 -0.5230
   15CHTO   O72 6222   5.601   3.245   0.922 -0.1038 -0.1337  0.3187
   15CHTO  H199 6223   5.634   3.158   0.928 -1.0151 -0.5156 -0.0847
   15CHTO   O22 6224   6.046   3.598   0.860  0.5839  0.4089 -0.2781
   15CHTO   C31 6225   6.006   3.726   0.912  0.2270 -0.1419 -0.0361
   15CHTO   H59 6226   6.051   3.801   0.843  0.8373 -0.1841  0.3143
   15CHTO   C29 6227   5.850   3.746   0.926 -0.4811  0.7912 -0.4404
   15CHTO   H57 6228   5.834   3.680   1.013  1.0778  0.7897 -0.1372
   15CHTO   O21 6229   5.776   3.698   0.811  0.0379  0.0818 -0.5597
   15CHTO   H37 6230   5.788   3.606   0.803 -0.3884 -0.0428  0.1300
   15CHTO   C27 6231   5.822   3.895   0.963 -0.6806 -0.0358 -0.3907
   15CHTO   H55 6232   5.863   3.961   0.885 -1.1857 -0.3863 -0.9529
   15CHTO    N5 6233   5.676   3.934   0.986  0.1048 -0.0743  0.2649
   15CHTO   H43 6234   5.618   3.899   0.902  3.1649 -0.8273 -1.5991
   15CHTO   H44 6235   5.643   3.877   1.071  0.6746  1.1740  1.3366
   15CHTO   C25 6236   5.901   3.920   1.096  0.1508 -0.6072  0.2246
   15CHTO   H53 6237   5.862   3.858   1.178  0.8855  0.7534  1.6262
   15CHTO   O17 6238   6.041   3.887   1.093  0.1762  0.4287 -0.1088
   15CHTO   C32 6239   6.073   3.754   1.048 -0.0297  0.0893  0.0663
   15CHTO   H60 6240   6.040   3.678   1.119 -0.9279  0.1250 -0.3128
   15CHTO   C36 6241   6.228   3.749   1.040 -0.2384  0.1522 -0.2023
   15CHTO   O25 6242   6.296   3.769   1.163  0.0765  0.0115  0.9866
   15CHTO   H40 6243   6.279   3.857   1.190  1.3699  1.0551 -1.5351
   15CHTO   O15 6244   5.889   4.077   1.147 -0.0217 -0.1446 -0.3301
   15CHTO   C19 6245   5.878   4.168   1.261 -0.4115 -0.0660 -0.0375
   15CHTO   H47 6246   5.972   4.139   1.311 -1.7323 -1.3175  1.7701
   15CHTO   C20 6247   5.879   4.316   1.221 -0.0243  0.3750  0.3036
   15CHTO   H48 6248   5.795   4.340   1.154 -1.0724 -0.6248  1.2241
   15CHTO   O19 6249   6.008   4.347   1.158 -0.6417  0.1393  0.1870
   15CHTO   H35 6250   6.021   4.439   1.144  0.8846 -0.0003  0.5460
   15CHTO   C21 6251   5.869   4.402   1.360  0.3473  0.6316  0.0610
   15CHTO   H49 6252   5.964   4.394   1.414 -0.1190 -0.0980  0.7708
   15CHTO    N4 6253   5.847   4.549   1.337  0.1048  0.9608  1.2037
   15CHTO   H41 6254   5.836   4.610   1.425  2.2432  3.4349 -0.1506
   15CHTO   H42 6255   5.764   4.569   1.271  0.8840  1.7595  0.4462
   15CHTO   C22 6256   5.754   4.351   1.452 -0.5205  0.3262  0.8834
   15CHTO   H50 6257   5.655   4.378   1.414 -1.0926 -0.9914  1.4159
   15CHTO   O14 6258   5.766   4.210   1.471  0.4648  0.2148 -0.1171
   15CHTO   C23 6259   5.760   4.131   1.356 -0.3397 -0.1221  0.1337
   15CHTO   H51 6260   5.663   4.143   1.307 -0.1967 -0.4793 -0.2362
   15CHTO   C34 6261   5.773   3.985   1.405 -0.2394  0.3735 -0.2542
   15CHTO   O23 6262   5.651   3.930   1.459 -0.0049 -0.4293 -0.0610
   15CHTO   H38 6263   5.664   3.838   1.469 -1.9816 -0.7502 -0.2416
   15CHTO   O16 6264   5.770   4.388   1.592 -0.0622  0.4046  0.1750
   15CHTO   C24 6265   5.877   4.320   1.695  0.4008 -0.2674 -0.4100
   15CHTO   H52 6266   5.953   4.263   1.641  0.6378  1.0996 -1.5468
   15CHTO   C26 6267   5.806   4.224   1.789 -0.0954  0.3723  0.2640
   15CHTO   H54 6268   5.725   4.278   1.842 -0.6577  0.5428 -0.7821
   15CHTO   O20 6269   5.746   4.119   1.718  0.2484  0.3600 -0.2876
   15CHTO   H36 6270   5.729   4.045   1.773  0.6659  0.5309  0.0683
   15CHTO   C30 6271   5.895   4.166   1.908 -0.5189  0.0593  0.6088
   15CHTO   H58 6272   5.970   4.091   1.881 -0.0161  0.4422  0.9453
   15CHTO    N6 6273   5.816   4.105   2.014  0.2317  0.2058 -0.1390
   15CHTO   H45 6274   5.885   4.072   2.089  1.4322 -1.5710 -1.9831
   15CHTO   H46 6275   5.761   4.020   1.977 -2.6180  1.1150  1.8012
   15CHTO   C33 6276   5.983   4.283   1.969 -0.0094  0.2739  0.7021
   15CHTO   H61 6277   5.922   4.354   2.025  0.2973  1.9253 -1.0149
   15CHTO   O18 6278   6.047   4.359   1.865  0.4143 -0.2197 -0.4467
   15CHTO   C28 6279   5.953   4.426   1.775 -0.9386  0.2260 -0.4616
   15CHTO   H56 6280   5.881   4.492   1.824 -0.5399 -0.1443  0.6361
   15CHTO   C35 6281   6.028   4.515   1.670 -0.9034  0.5770  0.1345
   15CHTO   O24 6282   6.109   4.603   1.742 -0.7216  0.0252 -0.4748
   15CHTO   H39 6283   6.055   4.676   1.763  1.2515  0.9255  1.7330
   15CHTO    O9 6284   6.076   4.228   2.060  0.4819 -0.4024 -0.9210
   15CHTO   C13 6285   6.094   4.311   2.204  0.2801 -0.2311  0.6262
   15CHTO   H26 6286   5.995   4.323   2.253  0.1738  0.6117  0.2126
   15CHTO   C11 6287   6.160   4.452   2.182  0.2991 -0.2237 -0.2187
   15CHTO   H24 6288   6.099   4.514   2.114  0.0242  0.3551  0.5544
   15CHTO    O8 6289   6.278   4.431   2.106 -0.0112 -0.3122 -0.2273
   15CHTO    H3 6290   6.338   4.365   2.137 -1.1723 -2.5386 -2.5311
   15CHTO    C9 6291   6.180   4.522   2.319 -0.6159  0.0703 -0.4974
   15CHTO   H22 6292   6.081   4.522   2.366 -1.5150  0.0469 -2.3606
   15CHTO    N2 6293   6.216   4.668   2.304  0.3174  0.2183 -0.0726
   15CHTO   H10 6294   6.167   4.731   2.377 -2.0335 -1.8085  0.1712
   15CHTO   H11 6295   6.323   4.677   2.295  0.3805 -2.0191 -1.8098
   15CHTO    C7 6296   6.285   4.443   2.404 -0.2460 -0.3102 -0.0789
   15CHTO   H20 6297   6.252   4.450   2.510  1.6174 -1.5858  0.5911
   15CHTO    O4 6298   6.297   4.303   2.360  0.3432  0.4323 -0.6946
   15CHTO   C14 6299   6.172   4.238   2.321  0.2665 -0.5241 -0.6402
   15CHTO   H27 6300   6.104   4.235   2.408  1.1732 -0.0104  0.0907
   15CHTO   C18 6301   6.196   4.088   2.279 -0.2795  0.6454 -0.1821
   15CHTO   O13 6302   6.067   4.029   2.265 -0.0741 -0.7140  0.0187
   15CHTO    H7 6303   6.009   4.036   2.338  0.3128  1.6878  0.1311
   15CHTO    O2 6304   6.438   4.500   2.398  0.1893  0.5775 -0.3308
   15CHTO    C1 6305   6.523   4.491   2.514 -0.4045  0.4208 -0.1684
   15CHTO   H14 6306   6.516   4.396   2.571 -0.2093  1.3608  1.4514
   15CHTO    C2 6307   6.500   4.605   2.620 -0.1696 -0.0168 -0.6965
   15CHTO   H15 6308   6.490   4.697   2.562 -3.8733 -0.6396 -1.1348
   15CHTO    O6 6309   6.377   4.580   2.695 -0.2960 -0.0024  0.0624
   15CHTO    H1 6310   6.339   4.657   2.734 -1.9395 -1.6327  1.8130
   15CHTO    C3 6311   6.624   4.622   2.727  0.7282  0.1733 -0.2357
   15CHTO   H16 6312   6.613   4.537   2.797 -0.4006  0.1299 -0.4596
   15CHTO    N1 6313   6.601   4.748   2.809  0.4730 -0.0324  0.2702
   15CHTO    H8 6314   6.499   4.751   2.846 -0.0677 -0.9298 -1.1209
   15CHTO    H9 6315   6.676   4.758   2.886  1.2172 -0.2417 -0.4234
   15CHTO    C4 6316   6.763   4.603   2.658 -0.5163 -0.4673  0.3989
   15CHTO   H17 6317   6.780   4.690   2.595  4.1869 -1.5667 -0.0639
   15CHTO    O1 6318   6.767   4.488   2.570 -0.1443 -0.5251 -0.2377
   15CHTO    C5 6319   6.671   4.492   2.461  0.0480 -0.0374 -0.5585
   15CHTO   H18 6320   6.680   4.578   2.395 -0.1019 -1.0754 -1.9657
   15CHTO   C16 6321   6.704   4.364   2.381 -0.4702 -0.1337 -0.0723
   15CHTO   O11 6322   6.833   4.373   2.315  0.2130  0.4314  0.3609
   15CHTO    H5 6323   6.907   4.367   2.372  1.5324 -2.8925 -1.5974
   15CHTO    O3 6324   6.869   4.583   2.748 -0.4123 -0.2215  0.2839
   15CHTO    C6 6325   6.989   4.665   2.732 -0.0568 -0.3608  0.4937
   15CHTO   H19 6326   6.985   4.743   2.656  1.5936 -1.3519 -0.6536
   15CHTO    C8 6327   7.026   4.734   2.869 -0.9549 -0.6661  0.1350
   15CHTO   H21 6328   7.041   4.658   2.946  0.0351 -0.5465  0.0713
   15CHTO    O7 6329   6.909   4.810   2.914 -0.0906 -0.1735 -0.2997
   15CHTO    H2 6330   6.884   4.881   2.858  3.0433 -0.5138 -2.2849
   15CHTO   C12 6331   7.163   4.810   2.868  0.0002 -0.9001  0.1361
   15CHTO   H25 6332   7.153   4.891   2.792 -1.5733  0.0015  1.2701
   15CHTO    N3 6333   7.193   4.879   2.998 -0.1835  0.1259 -0.3080
   15CHTO   H12 6334   7.210   4.806   3.075 -1.3263 -0.5152 -0.6543
   15CHTO   H13 6335   7.286   4.932   2.980 -0.2144 -0.0840 -1.1170
   15CHTO   C15 6336   7.271   4.708   2.823 -0.3477 -0.4068 -0.8857
   15CHTO   H28 6337   7.283   4.626   2.894 -2.2833  0.1761  0.1639
   15CHTO   O10 6338   7.409   4.781   2.792  0.3013  0.2588 -0.6416
   15CHTO    H4 6339   7.460   4.790   2.870 -0.4828  0.3543 -0.1374
   15CHTO    O5 6340   7.228   4.662   2.691 -0.6867  0.0550 -0.1808
   15CHTO   C10 6341   7.112   4.573   2.693 -0.0264  0.3278 -0.2993
   15CHTO   H23 6342   7.121   4.495   2.768 -0.7324 -1.0442 -1.6073
   15CHTO   C17 6343   7.098   4.487   2.561  0.4504 -0.0380  0.0415
   15CHTO   O12 6344   7.077   4.568   2.444 -0.3392 -0.5041  0.4209
   15CHTO    H6 6345   6.995   4.613   2.442 -0.3718 -0.5506  0.6549
   16CHTO  H203 6346   4.309   4.249   0.881 -1.6049 -0.0774 -0.6551
   16CHTO   O82 6347   4.341   4.162   0.864 -0.1502  0.3533 -0.1720
   16CHTO  C123 6348   4.348   4.065   0.968  0.3603 -0.6498 -1.2824
   16CHTO  H227 6349   4.245   4.030   0.986  0.4313 -1.0820 -1.7148
   16CHTO   O77 6350   4.426   3.952   0.920  0.2449  0.6598  0.3157
   16CHTO  C118 6351   4.467   3.854   1.020 -0.1104 -0.0206 -0.8786
   16CHTO  H222 6352   4.377   3.819   1.073 -0.0659 -1.0550 -1.4614
   16CHTO  C125 6353   4.532   3.740   0.946 -0.5001  0.0479  0.1962
   16CHTO   O84 6354   4.659   3.755   0.880  0.2795 -0.4265 -0.0281
   16CHTO  H205 6355   4.693   3.675   0.845  1.6702  0.0958  0.0802
   16CHTO  C114 6356   4.554   3.927   1.127 -0.2189  0.0232  0.1034
   16CHTO  H218 6357   4.632   3.989   1.082  0.0887  0.7153  1.5655
   16CHTO  C116 6358   4.468   4.020   1.199 -0.0669 -0.2501 -0.5998
   16CHTO  H220 6359   4.388   3.963   1.249  0.7580 -0.6659  0.2747
   16CHTO   O79 6360   4.547   4.084   1.303  0.1935  0.5812  0.4727
   16CHTO  H201 6361   4.482   4.115   1.364 -0.6849  0.2454 -0.2789
   16CHTO  C120 6362   4.409   4.132   1.101 -0.1353  0.2551  0.7313
   16CHTO  H224 6363   4.491   4.198   1.066  0.2308 -0.1951  0.7191
   16CHTO   N21 6364   4.317   4.230   1.164 -0.6581  0.0758 -0.0665
   16CHTO  H211 6365   4.349   4.243   1.267  1.0459  0.8200 -0.6740
   16CHTO  H212 6366   4.217   4.190   1.174 -0.8038 -0.0350 -1.9248
   16CHTO   O75 6367   4.619   3.828   1.212  0.1850 -0.3084 -0.1068
   16CHTO  C112 6368   4.787   3.857   1.245 -0.0714  0.4656 -0.8067
   16CHTO  H216 6369   4.788   3.961   1.283  1.5203  0.7625 -1.6132
   16CHTO   O73 6370   4.870   3.843   1.119  0.7446  0.3605 -0.4820
   16CHTO  C113 6371   5.011   3.874   1.140  0.3842  0.2148  0.6720
   16CHTO  H217 6372   5.011   3.970   1.195 -0.5365  0.8995 -0.4954
   16CHTO  C124 6373   5.089   3.870   1.006 -1.0765  0.1465 -0.2918
   16CHTO   O83 6374   5.220   3.937   1.014  0.4028 -0.4605  0.1356
   16CHTO  H204 6375   5.212   4.031   1.018 -0.4473 -0.5579  0.7162
   16CHTO  C109 6376   5.068   3.769   1.244  0.1353 -0.3593  0.0688
   16CHTO  H213 6377   5.057   3.671   1.193 -0.5595  0.8336 -2.1527
   16CHTO  C110 6378   4.985   3.765   1.373 -0.2285  0.6044  0.0609
   16CHTO  H214 6379   4.996   3.858   1.428 -0.1384 -0.6610  2.2368
   16CHTO   O78 6380   5.038   3.648   1.444 -0.3534 -0.2372 -0.3516
   16CHTO  H200 6381   5.022   3.650   1.536  1.7896 -0.2616  0.0461
   16CHTO  C111 6382   4.833   3.747   1.345 -0.1827 -0.2604 -0.7151
   16CHTO  H215 6383   4.820   3.653   1.289  0.6883  0.4023 -2.0876
   16CHTO   N19 6384   4.744   3.744   1.464 -0.2854  0.2728  0.1395
   16CHTO  H207 6385   4.653   3.801   1.451 -0.0958  0.1714 -1.7270
   16CHTO  H208 6386   4.727   3.643   1.497 -1.1450  0.3291 -0.1148
   16CHTO   O74 6387   5.207   3.796   1.280  0.1180 -0.0503 -0.1298
   16CHTO  C115 6388   5.296   3.679   1.278 -0.2849 -0.3850  0.6098
   16CHTO  H219 6389   5.243   3.584   1.292  1.9611 -1.5486  1.4303
   16CHTO   O76 6390   5.357   3.664   1.136  0.3043  0.4134 -0.1752
   16CHTO  C122 6391   5.451   3.557   1.118  0.4251 -0.0994  0.2654
   16CHTO  H226 6392   5.492   3.569   1.018  0.5763 -1.4815  0.1422
   16CHTO  C126 6393   5.367   3.423   1.101  0.5009 -0.2367 -0.1201
   16CHTO   O85 6394   5.259   3.425   0.998 -0.1545  0.1951  0.0164
   16CHTO  H206 6395   5.212   3.506   1.003 -0.6145 -0.1627  1.7988
   16CHTO  C121 6396   5.568   3.556   1.226 -0.6275  0.5766 -0.0879
   16CHTO  H225 6397   5.627   3.462   1.221 -0.1033  0.7290  2.5868
   16CHTO   O81 6398   5.657   3.665   1.201 -0.2697 -0.1704 -0.3414
   16CHTO  H202 6399   5.620   3.727   1.140  0.9527  2.9871  1.9721
   16CHTO  C119 6400   5.519   3.567   1.378  0.7307 -0.9026 -0.5006
   16CHTO  H223 6401   5.468   3.473   1.400  0.6042 -0.3335  1.7162
   16CHTO  C117 6402   5.415   3.692   1.391 -0.3906  0.5617 -0.0465
   16CHTO  H221 6403   5.457   3.791   1.374  1.2826  0.1841  1.6401
   16CHTO   N20 6404   5.360   3.695   1.528 -0.1676 -0.3588 -0.0450
   16CHTO  H209 6405   5.436   3.684   1.604  1.2314 -0.2541 -1.4001
   16CHTO  H210 6406   5.291   3.612   1.539  0.8362 -1.6088 -2.7765
   16CHTO   O80 6407   5.640   3.556   1.495 -0.7631 -0.1287  0.5679
   16CHTO  C103 6408   5.762   3.464   1.477  0.1914  0.5697  0.1784
   16CHTO  H190 6409   5.773   3.405   1.386  4.1307 -1.7623  1.9875
   16CHTO  C101 6410   5.899   3.551   1.481 -0.6566  0.1003  0.6168
   16CHTO  H188 6411   5.900   3.618   1.567  1.1037 -0.8295  1.3406
   16CHTO   O68 6412   5.910   3.620   1.376 -0.0005  0.2110 -0.0278
   16CHTO  H168 6413   5.984   3.678   1.381  0.5619 -0.4475 -0.6173
   16CHTO   C99 6414   6.034   3.463   1.501 -0.1754  0.4138 -0.1133
   16CHTO  H186 6415   6.044   3.387   1.420  0.2221  1.2914 -0.8896
   16CHTO   N17 6416   6.163   3.530   1.511  0.7241  0.1731 -0.0996
   16CHTO  H174 6417   6.230   3.470   1.570  1.2272  0.7706 -0.0585
   16CHTO  H175 6418   6.146   3.627   1.555  1.1384 -0.5143  1.6169
   16CHTO   C97 6419   6.012   3.368   1.625 -0.6870  0.0804  0.0990
   16CHTO  H184 6420   5.989   3.429   1.714  0.1942  0.7090 -0.0941
   16CHTO   O64 6421   5.898   3.292   1.584  0.1049  0.3721 -0.4298
   16CHTO  C104 6422   5.769   3.358   1.590 -0.4013  0.2539 -0.3849
   16CHTO  H191 6423   5.757   3.407   1.687 -1.8552 -1.4547  0.3311
   16CHTO  C108 6424   5.645   3.262   1.570 -0.7089 -0.3633  0.6757
   16CHTO   O71 6425   5.653   3.139   1.644 -0.2180  0.0467  0.5097
   16CHTO  H171 6426   5.744   3.116   1.640  0.7149  3.5604  0.2657
   16CHTO   O62 6427   6.118   3.268   1.652 -0.0940 -1.0581 -0.2191
   16CHTO   C91 6428   6.113   3.197   1.778  0.0109 -0.2635  0.2429
   16CHTO  H178 6429   6.015   3.217   1.823  0.2854  0.1322  0.6699
   16CHTO   C92 6430   6.215   3.247   1.883 -0.0794 -0.2136 -0.0062
   16CHTO  H179 6431   6.316   3.253   1.840  0.5173 -1.5993  1.1574
   16CHTO   O66 6432   6.183   3.384   1.908 -0.2871  0.6191  0.2994
   16CHTO  H166 6433   6.201   3.393   2.000 -1.2647  0.3598  0.5204
   16CHTO   C93 6434   6.213   3.164   2.016  0.2733  0.6402 -0.5406
   16CHTO  H180 6435   6.115   3.178   2.064  1.3805 -0.9039  2.3253
   16CHTO   N16 6436   6.309   3.194   2.121  0.2441 -0.8892  0.6756
   16CHTO  H172 6437   6.409   3.218   2.089 -0.0634 -0.0814  0.3110
   16CHTO  H173 6438   6.275   3.277   2.182  0.7317 -0.6683  0.6475
   16CHTO   C94 6439   6.229   3.011   1.979  0.2239 -0.0408  0.1128
   16CHTO  H181 6440   6.322   2.993   1.926  0.3315  0.2549  0.2009
   16CHTO   O61 6441   6.121   2.970   1.893 -0.4735  0.1149 -0.2888
   16CHTO   C95 6442   6.133   3.039   1.768 -0.0913  0.5272 -0.4826
   16CHTO  H182 6443   6.236   3.023   1.735  0.0521  0.0958  0.1656
   16CHTO  C106 6444   6.029   2.983   1.664  0.0642 -0.5598 -0.2400
   16CHTO   O69 6445   5.895   3.002   1.710 -0.3867  0.0550  0.2790
   16CHTO  H169 6446   5.834   2.935   1.685  0.8469 -0.8922 -0.2523
   16CHTO   O63 6447   6.230   2.917   2.101  0.0053  0.1703  0.1993
   16CHTO   C96 6448   6.078   2.849   2.154  0.2535  0.6134 -0.1277
   16CHTO  H183 6449   6.116   2.783   2.233 -1.5819 -1.6161 -1.0389
   16CHTO   C98 6450   6.005   2.752   2.059 -0.3200 -0.3272  0.0694
   16CHTO  H185 6451   5.975   2.803   1.966  0.7533  3.5734  1.7206
   16CHTO   O67 6452   6.090   2.642   2.017 -0.1208 -0.7198 -0.0375
   16CHTO  H167 6453   6.147   2.676   1.950  1.1089  0.8350  1.7206
   16CHTO  C102 6454   5.867   2.692   2.126  0.0953 -0.5023  0.2325
   16CHTO  H189 6455   5.897   2.633   2.214 -0.7462  2.2563  2.4267
   16CHTO   N18 6456   5.788   2.599   2.040  0.1140  0.9018  0.4935
   16CHTO  H176 6457   5.752   2.630   1.943 -2.6396  0.8191  1.4448
   16CHTO  H177 6458   5.705   2.577   2.105 -0.0779  0.4179  0.0980
   16CHTO  C105 6459   5.789   2.814   2.179  0.5823 -0.2322  0.7515
   16CHTO  H192 6460   5.764   2.880   2.096  0.2417  1.9455  2.5315
   16CHTO   O65 6461   5.866   2.884   2.280  0.3938  0.9920  0.0077
   16CHTO  C100 6462   5.990   2.951   2.226  0.1198 -0.2389 -0.1874
   16CHTO  H187 6463   5.962   3.027   2.151  0.3439  0.8685  0.8321
   16CHTO  C107 6464   6.074   3.016   2.340  0.4565 -0.3862  0.2754
   16CHTO   O70 6465   6.014   3.139   2.389  0.2916  0.1271  0.0723
   16CHTO  H170 6466   6.066   3.182   2.454  0.4984  0.6551 -0.4394
   16CHTO   O57 6467   5.648   2.772   2.249 -0.3608  0.5422 -0.0022
   16CHTO   C85 6468   5.544   2.862   2.233  0.9242 -0.4721 -0.3743
   16CHTO  H157 6469   5.559   2.906   2.132  0.0195 -0.2220 -0.4064
   16CHTO   C83 6470   5.557   2.987   2.329 -0.6322  0.4357  0.0964
   16CHTO  H155 6471   5.649   3.040   2.305 -0.1214 -0.2497  0.5249
   16CHTO   O56 6472   5.579   2.957   2.467  0.3535 -0.3768  0.0253
   16CHTO  H135 6473   5.603   2.868   2.486  0.1274 -0.3789  0.3176
   16CHTO   C81 6474   5.432   3.072   2.295 -0.3312  0.7301 -0.2354
   16CHTO  H153 6475   5.436   3.099   2.189 -0.3370 -0.6430 -0.5985
   16CHTO   N14 6476   5.425   3.199   2.365 -0.3534 -0.2584  0.0900
   16CHTO  H141 6477   5.433   3.199   2.471  0.6113  3.0647  0.0696
   16CHTO  H142 6478   5.493   3.271   2.324 -0.8131 -0.0566 -0.3308
   16CHTO   C79 6479   5.299   2.995   2.317 -0.3957 -0.2698 -0.1894
   16CHTO  H151 6480   5.217   3.054   2.275  0.2403 -0.4838 -1.7870
   16CHTO   O52 6481   5.298   2.875   2.231  0.4004 -0.0285  0.4121
   16CHTO   C86 6482   5.412   2.786   2.246  0.4585 -0.8479 -0.5038
   16CHTO  H158 6483   5.391   2.739   2.344 -0.8304  0.2393 -0.2462
   16CHTO   C90 6484   5.408   2.675   2.138 -0.5578  0.7396  0.7757
   16CHTO   O60 6485   5.290   2.598   2.118 -0.1699  0.0106 -0.1152
   16CHTO  H138 6486   5.316   2.514   2.085  1.0008 -0.8410  2.7587
   16CHTO   O50 6487   5.281   2.959   2.454 -0.1254  0.3936  0.0780
   16CHTO   C73 6488   5.215   2.918   2.576  0.6630  0.8306 -0.1052
   16CHTO  H145 6489   5.292   2.877   2.642  0.6046  0.4092 -0.2945
   16CHTO   C74 6490   5.112   2.802   2.542 -0.7565  1.0020 -0.2007
   16CHTO  H146 6491   5.158   2.710   2.503  0.3316  0.5486  2.0933
   16CHTO   O54 6492   5.058   2.752   2.665  0.1875 -0.0500  0.1114
   16CHTO  H133 6493   5.035   2.826   2.718 -0.0708 -0.9558  1.2879
   16CHTO   C75 6494   5.005   2.854   2.439  0.3698 -0.5749 -0.8192
   16CHTO  H147 6495   5.051   2.898   2.350 -1.7697  1.0329 -1.1645
   16CHTO   N13 6496   4.915   2.744   2.384 -0.8150  0.4637 -0.3292
   16CHTO  H139 6497   4.836   2.776   2.318 -0.7856  0.3684 -0.4100
   16CHTO  H140 6498   4.970   2.662   2.341 -0.3790  0.4701  0.2038
   16CHTO   C76 6499   4.925   2.978   2.505 -0.0724 -0.1734 -0.4256
   16CHTO  H148 6500   4.861   2.938   2.582  1.5836 -1.7146  0.1935
   16CHTO   O49 6501   5.016   3.078   2.566 -0.0385 -0.6087 -0.4462
   16CHTO   C77 6502   5.128   3.028   2.646  0.0804  0.6090  0.3244
   16CHTO  H149 6503   5.098   2.988   2.743 -0.4605  0.2784  0.0228
   16CHTO   C88 6504   5.203   3.160   2.673 -0.1009 -0.0442  0.2388
   16CHTO   O58 6505   5.304   3.168   2.810  0.4649  0.2742  0.2365
   16CHTO  H136 6506   5.262   3.132   2.886  0.1755 -2.3105 -1.0760
   16CHTO   O51 6507   4.833   3.068   2.375 -0.8485  0.1640 -0.2400
   16CHTO   C78 6508   4.790   3.208   2.413  0.2289  0.3038 -0.9079
   16CHTO  H150 6509   4.864   3.262   2.475  0.8924 -0.6718 -0.8382
   16CHTO   C80 6510   4.653   3.213   2.485  0.0712 -0.2374  0.9422
   16CHTO  H152 6511   4.579   3.169   2.415  0.0898 -0.5853  1.1421
   16CHTO   O55 6512   4.667   3.122   2.597 -0.1421 -0.1585  0.1229
   16CHTO  H134 6513   4.674   3.032   2.570  0.5917 -0.7390  2.1434
   16CHTO   C84 6514   4.606   3.357   2.530 -0.0824 -0.0725  0.0303
   16CHTO  H156 6515   4.679   3.378   2.609 -0.8737  2.6200  0.0835
   16CHTO   N15 6516   4.466   3.359   2.594  0.1902  0.1546 -0.2419
   16CHTO  H143 6517   4.422   3.454   2.571  0.3187 -0.0068 -1.1784
   16CHTO  H144 6518   4.404   3.281   2.554  0.7134  0.0909 -0.9309
   16CHTO   C87 6519   4.632   3.462   2.419 -0.7620 -0.6932 -0.2042
   16CHTO  H159 6520   4.554   3.474   2.344  0.2519  1.5427 -0.9545
   16CHTO   O53 6521   4.760   3.436   2.346 -0.8878 -0.1994 -0.2074
   16CHTO   C82 6522   4.772   3.306   2.294  0.4709  0.3354  0.5253
   16CHTO  H154 6523   4.696   3.283   2.221  1.1727 -1.0076  0.2052
   16CHTO   C89 6524   4.907   3.305   2.220  0.1358 -0.5107  0.2145
   16CHTO   O59 6525   4.950   3.203   2.131 -0.2912  0.3087 -0.0193
   16CHTO  H137 6526   4.893   3.128   2.132  0.6513 -0.4475 -1.2983
   16CHTO   O45 6527   4.651   3.615   2.505 -0.4350  0.3161  0.0927
   16CHTO   C67 6528   4.788   3.637   2.551  0.1168 -0.0414 -0.0285
   16CHTO  H124 6529   4.837   3.540   2.547 -1.3387 -0.8970  2.0588
   16CHTO   C65 6530   4.862   3.739   2.456  0.1190  0.0579 -0.0107
   16CHTO  H122 6531   4.787   3.765   2.382 -0.5761 -0.7244  0.4144
   16CHTO   O44 6532   4.961   3.669   2.383 -0.3891 -0.1983 -1.0110
   16CHTO  H102 6533   5.023   3.634   2.444 -1.1080 -2.6677 -1.6079
   16CHTO   C63 6534   4.893   3.872   2.525  0.7139 -0.8427  0.4769
   16CHTO  H120 6535   4.797   3.910   2.560  0.3819  0.3991 -1.7371
   16CHTO   N11 6536   4.947   3.979   2.433  0.1869 -0.3230  0.6328
   16CHTO  H108 6537   4.885   4.010   2.352 -0.6948 -0.5181  1.2265
   16CHTO  H109 6538   5.053   3.971   2.418  0.4485  1.8191  1.1746
   16CHTO   C61 6539   4.973   3.842   2.655  0.6052  0.3653 -0.0754
   16CHTO  H118 6540   4.964   3.939   2.706  1.8161 -0.3529  1.5490
   16CHTO   O40 6541   4.918   3.739   2.736 -0.1634  0.2208  0.4887
   16CHTO   C68 6542   4.783   3.682   2.700 -0.2284  0.6593  0.1368
   16CHTO  H125 6543   4.698   3.752   2.713 -0.4251  0.4145  0.1735
   16CHTO   C72 6544   4.771   3.567   2.800  0.4812  0.1239  0.2697
   16CHTO   O48 6545   4.865   3.463   2.782 -0.1931  0.0974  0.3024
   16CHTO  H105 6546   4.873   3.412   2.860 -4.8103  3.1167  2.9915
   16CHTO   O38 6547   5.111   3.816   2.622 -0.4572  0.2412  0.0071
   16CHTO   C55 6548   5.217   3.798   2.720 -0.1450 -0.0078  0.5338
   16CHTO  H112 6549   5.182   3.757   2.816 -2.4500  0.1772 -0.1905
   16CHTO   C56 6550   5.281   3.938   2.743 -0.4514  0.1037  0.2698
   16CHTO  H113 6551   5.307   3.974   2.643 -1.3925 -0.7967 -0.3106
   16CHTO   O42 6552   5.186   4.033   2.789  0.0558 -0.3313 -0.5133
   16CHTO  H100 6553   5.096   4.016   2.769  0.4919 -1.1851 -1.7902
   16CHTO   C57 6554   5.412   3.924   2.831 -0.0127  0.1518  0.2145
   16CHTO  H114 6555   5.382   3.906   2.934 -0.0894  1.6546  0.4666
   16CHTO   N10 6556   5.487   4.051   2.823 -0.1294  0.6176 -0.0980
   16CHTO  H106 6557   5.505   4.073   2.719  0.8363 -0.1148 -0.0917
   16CHTO  H107 6558   5.582   4.036   2.872 -1.0526 -2.0818  0.9228
   16CHTO   C58 6559   5.503   3.811   2.775  0.0218 -0.1493 -0.2922
   16CHTO  H115 6560   5.535   3.838   2.673 -1.8902 -1.8936 -1.4037
   16CHTO   O37 6561   5.429   3.688   2.761  0.1315  0.0256 -0.5715
   16CHTO   C59 6562   5.331   3.703   2.666  0.1326 -0.4094  0.6874
   16CHTO  H116 6563   5.371   3.743   2.573  1.5707 -2.4035  0.4184
   16CHTO   C70 6564   5.285   3.561   2.644 -0.2944 -0.2656 -0.1315
   16CHTO   O46 6565   5.195   3.532   2.534  0.5184 -0.2593  0.4097
   16CHTO  H103 6566   5.245   3.515   2.456  2.1601  1.9484  0.9712
   16CHTO   O39 6567   5.635   3.786   2.877 -0.6682  0.4922  0.1592
   16CHTO   C60 6568   5.753   3.744   2.806  0.2603 -0.3860 -0.3082
   16CHTO  H117 6569   5.711   3.724   2.707  0.3301 -0.2693 -0.3612
   16CHTO   C62 6570   5.860   3.860   2.801  0.4229 -0.1513  0.2624
   16CHTO  H119 6571   5.799   3.943   2.758  1.3668  0.2469 -0.3045
   16CHTO   O43 6572   5.905   3.875   2.936  0.8263  0.3367  0.1360
   16CHTO  H101 6573   5.880   3.960   2.968  0.2760 -0.0553  0.7442
   16CHTO   C66 6574   5.985   3.814   2.713  0.5247 -0.0425 -0.0378
   16CHTO  H123 6575   5.941   3.800   2.614 -0.9854  1.3037  0.4324
   16CHTO   N12 6576   6.092   3.914   2.700 -0.1404  0.0865 -0.1210
   16CHTO  H110 6577   6.134   3.927   2.799  1.0250 -0.6362 -0.5195
   16CHTO  H111 6578   6.163   3.872   2.630 -2.7872 -0.1675 -2.7711
   16CHTO   C69 6579   6.040   3.678   2.767 -0.2021 -0.1200  0.5637
   16CHTO  H126 6580   6.076   3.685   2.872 -0.5355  2.3723  0.5286
   16CHTO   O41 6581   5.928   3.581   2.759  0.1989 -0.2272 -0.3140
   16CHTO   C64 6582   5.818   3.613   2.858 -0.2314 -0.0866 -0.1452
   16CHTO  H121 6583   5.862   3.622   2.959 -0.6064 -1.5551  0.1600
   16CHTO   C71 6584   5.716   3.493   2.850  0.1856 -0.0896  0.0616
   16CHTO   O47 6585   5.649   3.466   2.980  0.0402  0.4381  0.3499
   16CHTO  H104 6586   5.617   3.549   3.010  2.2359  1.4691 -0.1093
   16CHTO   O34 6587   6.175   3.635   2.688 -0.6339  0.1013  0.7161
   16CHTO   C49 6588   6.277   3.564   2.582 -0.4494  0.9496  0.0237
   16CHTO   H91 6589   6.279   3.457   2.602 -1.0392  1.3628  2.3765
   16CHTO   C47 6590   6.416   3.626   2.604 -0.0550  0.3847 -0.4945
   16CHTO   H89 6591   6.447   3.569   2.694  0.8726  1.0512 -0.3870
   16CHTO   O33 6592   6.409   3.761   2.636  0.3647 -0.5169 -0.1515
   16CHTO   H70 6593   6.334   3.773   2.691  1.6460  1.7714  1.1759
   16CHTO   C45 6594   6.505   3.609   2.476 -1.3126 -0.1618  0.4372
   16CHTO   H87 6595   6.490   3.699   2.416  4.3958  2.4283  2.5368
   16CHTO    N8 6596   6.648   3.610   2.521  0.6138  0.0568 -0.4685
   16CHTO   H75 6597   6.684   3.514   2.555  0.9888  0.8584  1.4627
   16CHTO   H76 6598   6.718   3.641   2.445  0.2917  1.0538 -0.3735
   16CHTO   C43 6599   6.464   3.484   2.383  0.0443  0.6524 -0.1618
   16CHTO   H85 6600   6.527   3.503   2.295  1.4425 -0.5046  0.5719
   16CHTO   O29 6601   6.329   3.495   2.354  0.5705  0.3473  0.5949
   16CHTO   C50 6602   6.238   3.566   2.435 -0.1987  0.0759 -0.7553
   16CHTO   H92 6603   6.213   3.667   2.400  2.3111  0.6721 -0.9130
   16CHTO   C54 6604   6.096   3.501   2.415 -1.0419  0.3266 -0.2998
   16CHTO   O36 6605   6.028   3.526   2.291 -0.1704  0.2401  0.7369
   16CHTO   H72 6606   5.969   3.454   2.276  1.9872 -1.0599 -2.1515
   16CHTO   O27 6607   6.487   3.358   2.457  0.5478  0.4493  0.3166
   16CHTO   C37 6608   6.552   3.240   2.517 -0.3356 -0.3947 -0.3782
   16CHTO   H79 6609   6.655   3.269   2.543  0.2123 -1.1242 -1.6979
   16CHTO   C38 6610   6.472   3.188   2.638  0.0268 -0.1024  0.2145
   16CHTO   H80 6611   6.366   3.177   2.611 -0.0644  0.7492  0.2117
   16CHTO   O31 6612   6.484   3.287   2.746 -0.0554 -0.4272  0.2621
   16CHTO   H68 6613   6.432   3.278   2.823  1.1589  1.0035  1.2807
   16CHTO   C39 6614   6.526   3.055   2.705  0.0443 -0.0665  0.1147
   16CHTO   H81 6615   6.620   3.077   2.755 -0.4433  0.8425  0.6590
   16CHTO    N7 6616   6.443   2.999   2.819 -0.4555  0.1824 -0.2569
   16CHTO   H73 6617   6.345   2.970   2.784 -1.3258  1.5619  0.9914
   16CHTO   H74 6618   6.491   2.909   2.855 -0.5235  0.8764  1.6144
   16CHTO   C40 6619   6.555   2.941   2.598  0.2222 -0.3315  0.1384
   16CHTO   H82 6620   6.461   2.894   2.570 -0.0047 -1.4255  2.6782
   16CHTO   O26 6621   6.622   2.998   2.481  0.1460 -0.2366  0.0222
   16CHTO   C41 6622   6.558   3.122   2.414  0.2064  0.2071  0.0217
   16CHTO   H83 6623   6.457   3.094   2.380  0.0163 -0.8965  1.4344
   16CHTO   C52 6624   6.638   3.162   2.278 -0.2200  0.1122 -0.2801
   16CHTO   O35 6625   6.788   3.196   2.299  0.1344  0.4149  0.2422
   16CHTO   H71 6626   6.837   3.121   2.325  1.1750  0.5413 -1.2567
   16CHTO   O28 6627   6.636   2.838   2.655 -0.6137 -0.0318  0.3261
   16CHTO   C42 6628   6.632   2.702   2.596 -0.0928 -0.2403 -0.0490
   16CHTO   H84 6629   6.730   2.663   2.626 -0.5784  0.8779  3.1610
   16CHTO   C44 6630   6.617   2.675   2.443  0.0338 -0.0941 -0.1940
   16CHTO   H86 6631   6.522   2.723   2.417 -0.8121 -0.4627  2.1082
   16CHTO   O32 6632   6.720   2.739   2.368 -0.2428 -0.1588 -0.0844
   16CHTO   H69 6633   6.725   2.704   2.281 -0.0946  0.4138 -0.3074
   16CHTO   C48 6634   6.589   2.526   2.392  0.0330 -0.2200  0.3890
   16CHTO   H90 6635   6.685   2.475   2.394  0.0617 -0.3003 -1.8432
   16CHTO    N9 6636   6.545   2.526   2.245 -0.1580 -0.0421 -0.0128
   16CHTO   H77 6637   6.469   2.602   2.233  0.9790  1.3690  1.4961
   16CHTO   H78 6638   6.632   2.549   2.185 -0.5776  1.0028 -0.2459
   16CHTO   C51 6639   6.485   2.445   2.482  0.0714 -0.1642 -0.7518
   16CHTO   H93 6640   6.386   2.490   2.471 -0.4580 -0.4507  2.4431
   16CHTO   O30 6641   6.532   2.457   2.612 -0.0564  0.3293  0.3312
   16CHTO   C46 6642   6.530   2.614   2.670  0.1383 -0.2815  0.0513
   16CHTO   H88 6643   6.433   2.655   2.644 -0.2690 -1.2876  0.0011
   16CHTO   C53 6644   6.544   2.614   2.817 -0.4099  0.0369  0.0790
   16CHTO   O72 6645   6.426   2.576   2.881 -0.3372 -0.3909  0.1347
   16CHTO  H199 6646   6.444   2.577   2.973 -0.6970 -1.8929  0.2361
   16CHTO   O22 6647   6.492   2.300   2.463 -0.6425 -0.0570  0.4117
   16CHTO   C31 6648   6.377   2.219   2.506 -0.3441  0.0465  0.1501
   16CHTO   H59 6649   6.315   2.288   2.568  0.6864 -0.6326  1.9764
   16CHTO   C29 6650   6.290   2.170   2.387  0.3668 -0.4091 -0.7086
   16CHTO   H57 6651   6.349   2.099   2.326  0.1702 -0.8846 -0.3526
   16CHTO   O21 6652   6.253   2.290   2.318  0.1960 -0.6090  0.8010
   16CHTO   H37 6653   6.299   2.281   2.237 -0.6154  0.0713  0.2560
   16CHTO   C27 6654   6.161   2.092   2.446  0.4247  0.0902  0.4595
   16CHTO   H55 6655   6.093   2.164   2.494 -1.5908 -2.0537  0.9003
   16CHTO    N5 6656   6.085   2.026   2.334  0.1084 -0.0035  0.2201
   16CHTO   H43 6657   6.046   2.102   2.267 -0.9551  0.2689  1.1339
   16CHTO   H44 6658   6.155   1.969   2.275 -1.0174 -1.0425 -0.1150
   16CHTO   C25 6659   6.201   1.985   2.554 -0.4938  0.2774  0.2613
   16CHTO   H53 6660   6.256   1.901   2.510 -2.6630 -1.9348  1.6095
   16CHTO   O17 6661   6.301   2.036   2.654  0.2284  0.4621 -0.1356
   16CHTO   C32 6662   6.414   2.098   2.598 -0.5967 -0.2711  0.5691
   16CHTO   H60 6663   6.462   2.024   2.535  0.3987  1.8976 -1.3217
   16CHTO   C36 6664   6.521   2.134   2.705 -0.1172 -0.0720 -0.4002
   16CHTO   O25 6665   6.455   2.216   2.808 -0.1384 -0.2590 -0.3788
   16CHTO   H40 6666   6.376   2.181   2.845 -1.4494  0.7142 -2.1641
   16CHTO   O15 6667   6.089   1.931   2.636 -0.2154 -0.1033 -0.6025
   16CHTO   C19 6668   5.946   1.911   2.651 -0.0940  0.2792 -0.2724
   16CHTO   H47 6669   5.950   1.858   2.747 -2.4203 -0.5452 -0.6125
   16CHTO   C20 6670   5.845   2.032   2.675 -0.1335  0.8394 -0.0537
   16CHTO   H48 6671   5.842   2.099   2.588  0.1981  2.4577  1.1526
   16CHTO   O19 6672   5.899   2.099   2.785 -0.3256 -0.2848 -0.3615
   16CHTO   H35 6673   5.975   2.150   2.763 -0.4435 -0.7730 -1.9103
   16CHTO   C21 6674   5.692   1.982   2.702  0.3013  0.1718  0.4763
   16CHTO   H49 6675   5.684   1.927   2.796  0.0364 -0.6639 -0.0282
   16CHTO    N4 6676   5.608   2.101   2.712  0.1110 -0.0590  0.4440
   16CHTO   H41 6677   5.503   2.081   2.701  0.8375 -3.5314 -0.9395
   16CHTO   H42 6678   5.632   2.185   2.649  0.1727 -0.4813 -0.1034
   16CHTO   C22 6679   5.649   1.895   2.579 -0.0753  0.6581 -0.2113
   16CHTO   H50 6680   5.627   1.955   2.491 -1.4125 -1.4858 -1.3883
   16CHTO   O14 6681   5.746   1.788   2.573 -0.0285 -0.0409  0.0826
   16CHTO   C23 6682   5.882   1.818   2.545  0.5886 -0.6439  0.2263
   16CHTO   H51 6683   5.874   1.867   2.447  1.3766  0.8631  0.9064
   16CHTO   C34 6684   5.951   1.681   2.538 -0.0689  0.0681 -0.6877
   16CHTO   O23 6685   5.921   1.595   2.427 -0.0577  0.9755  0.1172
   16CHTO   H38 6686   5.840   1.547   2.429  1.8334 -2.4179 -0.7021
   16CHTO   O16 6687   5.524   1.829   2.604  0.1926 -0.3724 -0.1512
   16CHTO   C24 6688   5.424   1.814   2.488  0.5162 -0.0882  0.0777
   16CHTO   H52 6689   5.467   1.836   2.390 -0.4551 -2.1166 -0.8271
   16CHTO   C26 6690   5.303   1.902   2.523 -0.2153  0.1764 -0.3145
   16CHTO   H54 6691   5.273   1.887   2.629 -0.0456  0.2066 -0.2620
   16CHTO   O20 6692   5.330   2.041   2.522  0.1596 -0.2371  0.2872
   16CHTO   H36 6693   5.270   2.090   2.468 -1.1542 -0.4608  1.5086
   16CHTO   C30 6694   5.192   1.866   2.432  0.2538 -0.8988  0.6878
   16CHTO   H58 6695   5.203   1.920   2.336  1.2807  0.2455  1.4412
   16CHTO    N6 6696   5.062   1.926   2.482 -0.0679  0.0550 -0.3387
   16CHTO   H45 6697   5.046   2.032   2.469 -1.1829  0.1375  1.5378
   16CHTO   H46 6698   5.060   1.904   2.588  2.4772  0.9499 -0.0818
   16CHTO   C33 6699   5.170   1.709   2.395 -0.7487 -0.2604  0.3980
   16CHTO   H61 6700   5.119   1.657   2.478 -0.1333 -1.4693  0.0229
   16CHTO   O18 6701   5.301   1.649   2.379  0.8636  0.5403 -0.1426
   16CHTO   C28 6702   5.388   1.667   2.493  0.2068 -0.5058  0.6658
   16CHTO   H56 6703   5.337   1.642   2.585 -1.1001  0.0665  0.1029
   16CHTO   C35 6704   5.497   1.563   2.475  0.6170 -0.2817  0.3738
   16CHTO   O24 6705   5.443   1.431   2.461  0.2969  0.3768 -0.1521
   16CHTO   H39 6706   5.499   1.373   2.413 -1.1566  0.3223 -1.8152
   16CHTO    O9 6707   5.086   1.689   2.281  0.5345 -0.4655 -0.0150
   16CHTO   C13 6708   5.007   1.552   2.291  0.0560 -0.2139  0.0396
   16CHTO   H26 6709   5.020   1.514   2.395  1.7098 -0.4563 -0.2443
   16CHTO   C11 6710   5.075   1.458   2.186 -0.1822  0.4153 -0.2594
   16CHTO   H24 6711   5.183   1.467   2.205 -0.3356 -1.3235  1.4917
   16CHTO    O8 6712   5.063   1.523   2.056  0.1197  0.0705 -0.0140
   16CHTO    H3 6713   5.117   1.600   2.047 -0.0507  0.1621 -0.2715
   16CHTO    C9 6714   5.015   1.317   2.192 -0.6492  0.4763 -0.2707
   16CHTO   H22 6715   5.059   1.276   2.285 -1.8332  2.7908  1.3542
   16CHTO    N2 6716   5.068   1.237   2.087  0.6337  0.6647 -0.0885
   16CHTO   H10 6717   5.172   1.222   2.112  0.0793  0.5164  2.2010
   16CHTO   H11 6718   5.015   1.145   2.100  1.3106  0.1452 -0.9221
   16CHTO    C7 6719   4.860   1.320   2.203 -0.2439  0.3523 -0.1157
   16CHTO   H20 6720   4.856   1.304   2.312 -2.1604  1.4809 -0.0026
   16CHTO    O4 6721   4.803   1.454   2.176  0.1033  0.2489  0.4881
   16CHTO   C14 6722   4.851   1.563   2.258  0.1690 -1.0149 -0.3761
   16CHTO   H27 6723   4.801   1.564   2.357  0.0362 -1.3492 -0.4381
   16CHTO   C18 6724   4.802   1.697   2.187 -0.0286 -0.6828  0.1012
   16CHTO   O13 6725   4.847   1.711   2.049 -0.3305  0.3237 -0.2793
   16CHTO    H7 6726   4.905   1.784   2.043  1.7052 -1.2351  0.0341
   16CHTO    O2 6727   4.784   1.191   2.114  0.6036 -0.2624  0.4642
   16CHTO    C1 6728   4.678   1.134   2.195 -0.1036 -0.2295 -0.1135
   16CHTO   H14 6729   4.631   1.062   2.125 -2.0877 -0.8209  1.7488
   16CHTO    C2 6730   4.565   1.229   2.259  0.6282 -0.1416  0.3532
   16CHTO   H15 6731   4.618   1.300   2.325  0.5836 -0.7993  1.0994
   16CHTO    O6 6732   4.489   1.296   2.158 -0.3658 -0.3210 -0.1093
   16CHTO    H1 6733   4.430   1.355   2.201 -0.1885  0.5981 -1.0838
   16CHTO    C3 6734   4.461   1.141   2.339  0.5277 -0.5772  0.2273
   16CHTO   H16 6735   4.416   1.080   2.259  0.6852  1.1216 -1.2087
   16CHTO    N1 6736   4.358   1.224   2.408  0.2205 -0.1675 -0.3380
   16CHTO    H8 6737   4.258   1.184   2.417 -0.1625  1.2013  1.9041
   16CHTO    H9 6738   4.352   1.331   2.401 -2.3250 -0.3590 -1.5257
   16CHTO    C4 6739   4.542   1.049   2.435 -0.6506  0.4686 -0.4839
   16CHTO   H17 6740   4.586   1.106   2.518  2.1383  2.8248 -3.4426
   16CHTO    O1 6741   4.645   0.972   2.370 -0.4403  0.3907 -0.2462
   16CHTO    C5 6742   4.747   1.047   2.306 -0.3681  0.1684  0.1601
   16CHTO   H18 6743   4.811   1.109   2.368 -1.9495 -0.9193  2.9848
   16CHTO   C16 6744   4.838   0.929   2.246  0.8853 -0.5620 -0.1277
   16CHTO   O11 6745   4.977   0.944   2.285 -0.0318  0.5201  0.5394
   16CHTO    H5 6746   5.024   0.875   2.242 -0.5159 -0.7210  1.9455
   16CHTO    O3 6747   4.449   0.949   2.498 -0.6092 -0.4700  0.3792
   16CHTO    C6 6748   4.492   0.895   2.625  0.0213  0.5961 -0.2436
   16CHTO   H19 6749   4.600   0.899   2.641 -0.2917  1.3482  1.8409
   16CHTO    C8 6750   4.417   0.961   2.747 -0.1662  0.4402 -0.5377
   16CHTO   H21 6751   4.309   0.954   2.738 -0.0557 -0.4989 -1.2448
   16CHTO    O7 6752   4.446   1.098   2.765 -0.8144 -0.3471 -0.8088
   16CHTO    H2 6753   4.378   1.152   2.799 -1.3782  0.6245 -3.3721
   16CHTO   C12 6754   4.454   0.884   2.881  0.6459 -0.2244  0.5701
   16CHTO   H25 6755   4.563   0.903   2.886  0.3499  1.1919  1.7387
   16CHTO    N3 6756   4.407   0.936   3.013 -0.7869  0.3306  0.3256
   16CHTO   H12 6757   4.301   0.917   3.026 -0.1587 -1.7614  3.0187
   16CHTO   H13 6758   4.462   0.885   3.090  3.2594  2.5228 -0.9901
   16CHTO   C15 6759   4.430   0.729   2.855  0.1115 -0.3670 -0.2123
   16CHTO   H28 6760   4.323   0.717   2.840  0.1964 -2.3210  0.6049
   16CHTO   O10 6761   4.495   0.645   2.961 -0.0075  0.1059 -0.2358
   16CHTO    H4 6762   4.459   0.640   3.047  1.6904  0.2390  0.5038
   16CHTO    O5 6763   4.497   0.679   2.734  0.5888  0.2816  0.6462
   16CHTO   C10 6764   4.465   0.743   2.611  0.0675 -0.7321 -0.5448
   16CHTO   H23 6765   4.359   0.724   2.591  0.1847 -1.2502 -0.6835
   16CHTO   C17 6766   4.543   0.681   2.503 -0.2529  0.3364 -0.5058
   16CHTO   O12 6767   4.506   0.539   2.494  0.6935  0.1755 -0.0331
   16CHTO    H6 6768   4.414   0.533   2.474  0.9572  0.4749 -1.3709
   17CHTO  H203 6769   3.719   5.136   1.219 -0.4923  0.3032  1.3620
   17CHTO   O82 6770   3.790   5.196   1.203 -0.2116 -0.4215 -0.2416
   17CHTO  C123 6771   3.913   5.149   1.260 -0.4340 -0.0604 -0.0758
   17CHTO  H227 6772   3.940   5.057   1.204  2.3373  0.6409  0.0035
   17CHTO   O77 6773   3.989   5.261   1.209  0.7014  0.6000  0.8300
   17CHTO  C118 6774   4.126   5.266   1.244  0.5639  0.2196 -0.4611
   17CHTO  H222 6775   4.166   5.172   1.204 -0.5380  0.2446 -1.6648
   17CHTO  C125 6776   4.200   5.383   1.166  0.0700  0.5519  0.4711
   17CHTO   O84 6777   4.141   5.509   1.191 -0.3521  0.0189  0.3056
   17CHTO  H205 6778   4.183   5.567   1.130  0.5517  1.2564  2.0582
   17CHTO  C114 6779   4.148   5.265   1.396  0.6968  0.1392  0.2222
   17CHTO  H218 6780   4.108   5.360   1.431 -0.9164 -0.6280  0.5466
   17CHTO  C116 6781   4.068   5.154   1.465 -0.4222  0.2624  0.2483
   17CHTO  H220 6782   4.119   5.057   1.451  2.4354  1.4391  2.0531
   17CHTO   O79 6783   4.079   5.168   1.605  0.0380  1.1122  0.2542
   17CHTO  H201 6784   4.025   5.242   1.625 -3.2436  1.1376 -7.1678
   17CHTO  C120 6785   3.919   5.141   1.420  0.2187  0.0764  0.2966
   17CHTO  H224 6786   3.865   5.229   1.460 -0.9930 -0.5570  0.0719
   17CHTO   N21 6787   3.860   5.011   1.465 -0.2016  0.1667  0.4407
   17CHTO  H211 6788   3.899   4.932   1.403 -0.4639 -1.4268  2.2607
   17CHTO  H212 6789   3.754   5.010   1.445 -0.3149  0.6217  1.0290
   17CHTO   O75 6790   4.286   5.258   1.424  0.5138 -0.4090 -0.2417
   17CHTO  C112 6791   4.366   5.391   1.498 -0.0594  0.7817 -0.3044
   17CHTO  H216 6792   4.296   5.438   1.568  0.2146 -1.0074  1.2208
   17CHTO   O73 6793   4.400   5.479   1.387  0.7472 -0.3957  0.0042
   17CHTO  C113 6794   4.468   5.601   1.405  0.7760 -0.8044  0.4063
   17CHTO  H217 6795   4.408   5.676   1.461  0.1507 -1.4142  0.5619
   17CHTO  C124 6796   4.488   5.665   1.267 -0.0633  0.2036  0.1143
   17CHTO   O83 6797   4.373   5.700   1.195  0.3634  0.6212 -0.7329
   17CHTO  H204 6798   4.301   5.659   1.239  0.3212  1.3328 -0.1308
   17CHTO  C109 6799   4.604   5.567   1.467  0.4360 -0.1519  0.5244
   17CHTO  H213 6800   4.659   5.511   1.390 -1.8932  0.4148 -1.6331
   17CHTO  C110 6801   4.586   5.479   1.599  0.2596  0.9831 -0.0374
   17CHTO  H214 6802   4.534   5.534   1.677  1.5321 -1.8672  2.9267
   17CHTO   O78 6803   4.716   5.446   1.648 -0.7862 -0.4337  0.3352
   17CHTO  H200 6804   4.762   5.526   1.662 -1.9884  0.2711  0.2437
   17CHTO  C111 6805   4.505   5.350   1.573  0.0305  0.2585  0.1221
   17CHTO  H215 6806   4.563   5.284   1.508  1.8926  0.8730  1.1157
   17CHTO   N19 6807   4.471   5.273   1.695  0.8095  0.2362 -0.2767
   17CHTO  H207 6808   4.552   5.211   1.731 -0.0397 -0.4097  0.5619
   17CHTO  H208 6809   4.376   5.222   1.689  0.4660  0.9615 -1.0220
   17CHTO   O74 6810   4.679   5.691   1.500 -0.0087  0.4032 -0.4848
   17CHTO  C115 6811   4.844   5.702   1.456  0.2920  0.3447 -0.0371
   17CHTO  H219 6812   4.897   5.765   1.527  0.4136 -1.6016  1.6370
   17CHTO   O76 6813   4.913   5.563   1.465 -0.1158  0.0784 -0.2736
   17CHTO  C122 6814   5.052   5.560   1.437 -0.5225 -0.4511  0.0035
   17CHTO  H226 6815   5.077   5.455   1.422  0.2667 -0.5722  1.9342
   17CHTO  C126 6816   5.139   5.617   1.546  0.0644 -0.1501  0.8407
   17CHTO   O85 6817   5.274   5.577   1.531  0.1840  0.1146 -0.0145
   17CHTO  H206 6818   5.323   5.639   1.581  1.6819 -0.9159 -0.1647
   17CHTO  C121 6819   5.086   5.627   1.297 -0.5019 -0.2298 -0.0042
   17CHTO  H225 6820   5.196   5.631   1.284 -0.2735 -1.1173  1.4399
   17CHTO   O81 6821   5.034   5.546   1.189  0.4450  0.1004 -0.6553
   17CHTO  H202 6822   4.945   5.527   1.209  0.8297  0.3697  1.3529
   17CHTO  C119 6823   5.025   5.767   1.278  0.2335  0.6378 -0.1657
   17CHTO  H223 6824   5.078   5.837   1.343 -1.0947  1.3261  0.1873
   17CHTO  C117 6825   4.869   5.767   1.311  0.2154  0.5521 -0.7764
   17CHTO  H221 6826   4.798   5.710   1.250  2.2545 -2.0576 -0.7868
   17CHTO   N20 6827   4.821   5.905   1.315 -1.1286  0.9770  0.6489
   17CHTO  H209 6828   4.895   5.979   1.342  0.5660 -0.3165 -0.3497
   17CHTO  H210 6829   4.765   5.928   1.226 -2.0327  1.3140  1.2958
   17CHTO   O80 6830   5.055   5.835   1.128  0.0593 -0.2140  0.0811
   17CHTO  C103 6831   5.179   5.921   1.106  0.3671  0.7080  0.4182
   17CHTO  H190 6832   5.206   5.972   1.198  0.3109 -0.2440  0.9699
   17CHTO  C101 6833   5.316   5.850   1.051  0.0315  0.4042  0.0042
   17CHTO  H188 6834   5.295   5.791   0.962 -0.3805 -2.7183  2.0907
   17CHTO   O68 6835   5.381   5.745   1.162 -0.3553 -0.4119  0.0157
   17CHTO  H168 6836   5.378   5.659   1.124 -0.8815 -0.2606 -0.2988
   17CHTO   C99 6837   5.422   5.957   1.011  0.0589 -0.3691 -0.0295
   17CHTO  H186 6838   5.447   6.011   1.104  0.8688 -1.6278  0.5062
   17CHTO   N17 6839   5.550   5.908   0.951 -0.3223  0.4700 -0.7168
   17CHTO  H174 6840   5.643   5.949   0.986 -0.5573  1.1606 -0.9075
   17CHTO  H175 6841   5.526   5.907   0.845  0.7199 -0.4018 -0.9627
   17CHTO   C97 6842   5.355   6.060   0.915 -0.4223  0.7643  0.6658
   17CHTO  H184 6843   5.330   6.026   0.814  0.4543  0.3738  0.5829
   17CHTO   O64 6844   5.244   6.116   0.983 -0.0597  0.1561 -0.1616
   17CHTO  C104 6845   5.130   6.024   1.002 -0.2144  0.3960 -0.2101
   17CHTO  H191 6846   5.095   5.974   0.912 -2.3603 -0.3463  0.9957
   17CHTO  C108 6847   5.004   6.094   1.054  0.1911  0.3998 -0.6083
   17CHTO   O71 6848   4.981   6.215   0.987  0.4898  0.2003 -0.7351
   17CHTO  H171 6849   5.003   6.219   0.896  3.8020 -0.2223  0.0010
   17CHTO   O62 6850   5.439   6.178   0.907  0.6062 -0.4435  0.1945
   17CHTO   C91 6851   5.429   6.251   0.784 -0.7182 -0.4446  0.2436
   17CHTO  H178 6852   5.457   6.182   0.705 -0.0101  0.4081 -0.2557
   17CHTO   C92 6853   5.544   6.355   0.795 -0.2278 -0.0369  0.0728
   17CHTO  H179 6854   5.635   6.304   0.831 -0.4469 -1.2127 -1.0040
   17CHTO   O66 6855   5.578   6.403   0.666  0.2681 -0.6722 -0.2820
   17CHTO  H166 6856   5.518   6.467   0.633  0.9911  0.1643  0.0096
   17CHTO   C93 6857   5.506   6.474   0.891 -0.0934 -0.3577  0.8123
   17CHTO  H180 6858   5.544   6.564   0.840 -0.8463 -1.1258 -1.1143
   17CHTO   N16 6859   5.569   6.460   1.020 -0.9057 -0.1501 -0.2153
   17CHTO  H172 6860   5.620   6.550   1.052 -0.4648 -1.1994  2.1609
   17CHTO  H173 6861   5.638   6.378   1.009  0.6428  1.1713 -0.5559
   17CHTO   C94 6862   5.349   6.495   0.901 -0.9579 -0.6830 -0.3756
   17CHTO  H181 6863   5.304   6.429   0.975 -0.8589  0.8578  1.1039
   17CHTO   O61 6864   5.297   6.462   0.771 -0.9756 -0.5038  0.6706
   17CHTO   C95 6865   5.293   6.325   0.742 -0.2156  0.1023  0.2118
   17CHTO  H182 6866   5.206   6.279   0.789  1.0130 -1.3439  1.1609
   17CHTO  C106 6867   5.275   6.312   0.586 -0.3855 -0.1043 -0.1860
   17CHTO   O69 6868   5.155   6.373   0.540  0.5724 -0.4157 -0.5191
   17CHTO  H169 6869   5.111   6.313   0.482  0.4551 -0.5031 -0.3391
   17CHTO   O63 6870   5.313   6.643   0.919  0.0295  0.8035  0.4654
   17CHTO   C96 6871   5.280   6.674   1.069 -0.0073  0.0599  0.1281
   17CHTO  H183 6872   5.329   6.601   1.133  0.7914 -0.3714 -0.9704
   17CHTO   C98 6873   5.128   6.654   1.092 -0.3258 -0.0366 -0.1406
   17CHTO  H185 6874   5.073   6.709   1.015  0.8852  0.9426 -0.3241
   17CHTO   O67 6875   5.088   6.519   1.074 -0.1814  0.6015  0.0346
   17CHTO  H167 6876   5.141   6.457   1.120 -0.4812  1.0763  1.0394
   17CHTO  C102 6877   5.071   6.705   1.237  0.1063 -0.2483 -0.4230
   17CHTO  H189 6878   5.101   6.628   1.310 -1.2738 -0.4556 -0.0531
   17CHTO   N18 6879   4.924   6.711   1.256  0.2446  0.5177  0.0606
   17CHTO  H176 6880   4.888   6.633   1.322 -1.4846 -0.3307 -1.8140
   17CHTO  H177 6881   4.889   6.806   1.292  2.3467  2.3225 -2.4709
   17CHTO  C105 6882   5.144   6.841   1.283  0.4975  0.0390  0.4064
   17CHTO  H192 6883   5.102   6.920   1.220  2.8683  1.7630  0.9476
   17CHTO   O65 6884   5.280   6.827   1.258 -0.2614  0.4655 -0.4502
   17CHTO  C100 6885   5.314   6.814   1.118 -0.0032  0.3508  0.7598
   17CHTO  H187 6886   5.262   6.894   1.064 -0.8496  0.1354  1.2395
   17CHTO  C107 6887   5.467   6.840   1.090  0.4015  1.0537 -0.2607
   17CHTO   O70 6888   5.497   6.965   1.150  0.0616 -0.1614  0.0593
   17CHTO  H170 6889   5.583   6.957   1.188 -0.3631  0.1330  1.0994
   17CHTO   O57 6890   5.116   6.857   1.436 -0.2448 -0.7386 -0.1955
   17CHTO   C85 6891   5.099   6.989   1.487 -0.6270  0.4255 -0.0791
   17CHTO  H157 6892   5.078   7.054   1.399  2.5902  2.0956  0.3231
   17CHTO   C83 6893   5.231   7.057   1.546 -0.2176  0.3802  0.6027
   17CHTO  H155 6894   5.314   7.057   1.476 -0.9054 -1.6933 -0.2259
   17CHTO   O56 6895   5.290   6.976   1.651 -0.1104 -0.2707 -0.0077
   17CHTO  H135 6896   5.286   7.019   1.734 -2.6392 -0.7238  0.1472
   17CHTO   C81 6897   5.202   7.204   1.587  0.5085 -0.3883 -0.4600
   17CHTO  H153 6898   5.157   7.258   1.503  0.6377  1.4694  0.6339
   17CHTO   N14 6899   5.320   7.285   1.617  0.4296 -0.0533  0.2666
   17CHTO  H141 6900   5.330   7.303   1.722 -0.8311  0.5340  0.2903
   17CHTO  H142 6901   5.327   7.378   1.564 -0.5156  0.9668  1.8852
   17CHTO   C79 6902   5.097   7.193   1.704  0.0120  0.6587 -0.4313
   17CHTO  H151 6903   5.067   7.294   1.729 -0.3403 -0.0716  2.2486
   17CHTO   O52 6904   4.977   7.130   1.657  0.5519 -0.2401  0.3008
   17CHTO   C86 6905   4.986   6.998   1.596  0.0850 -0.1072 -0.0297
   17CHTO  H158 6906   5.009   6.933   1.683 -0.2679  0.7592  0.7314
   17CHTO   C90 6907   4.848   6.953   1.544  0.0525  0.3918  0.1061
   17CHTO   O60 6908   4.745   6.945   1.639 -0.2532  0.3906 -0.2461
   17CHTO  H138 6909   4.767   6.891   1.712 -1.1902  0.5355  0.1559
   17CHTO   O50 6910   5.148   7.128   1.821 -0.6959  0.0566  0.2422
   17CHTO   C73 6911   5.163   7.170   1.952  0.4857  0.3834  0.1556
   17CHTO  H145 6912   5.159   7.279   1.964  4.1509  0.6773 -0.7544
   17CHTO   C74 6913   5.294   7.114   2.021 -0.4369  0.0084  0.6520
   17CHTO  H146 6914   5.379   7.152   1.963 -1.5362  2.1105  0.3703
   17CHTO   O54 6915   5.310   7.179   2.150 -0.1721 -0.0484  0.0478
   17CHTO  H133 6916   5.277   7.134   2.225 -0.1797 -1.6672 -0.9105
   17CHTO   C75 6917   5.291   6.955   2.026 -0.3914  0.0270  0.2950
   17CHTO  H147 6918   5.296   6.927   1.920 -4.6125 -0.4322  0.1427
   17CHTO   N13 6919   5.413   6.892   2.071 -0.3509  0.1080  0.4402
   17CHTO  H139 6920   5.405   6.799   2.125  0.2186 -0.3908 -0.3098
   17CHTO  H140 6921   5.484   6.887   1.989  0.6581  1.3736  1.2247
   17CHTO   C76 6922   5.155   6.896   2.091  0.7623 -0.2942 -0.0648
   17CHTO  H148 6923   5.163   6.911   2.199  0.8623 -0.8084  0.0009
   17CHTO   O49 6924   5.043   6.970   2.028 -0.0265  0.3356  0.0596
   17CHTO   C77 6925   5.041   7.113   2.026  0.7083 -0.2747  0.0157
   17CHTO  H149 6926   5.046   7.143   2.130 -1.9514 -0.1994  0.1629
   17CHTO   C88 6927   4.911   7.167   1.969  0.0607 -0.1407  0.3761
   17CHTO   O58 6928   4.791   7.147   2.057 -0.2213 -0.0272  0.2791
   17CHTO  H136 6929   4.729   7.218   2.051 -1.3069 -1.0601 -1.1574
   17CHTO   O51 6930   5.125   6.752   2.055  0.0040  0.2234  0.2738
   17CHTO   C78 6931   5.017   6.688   2.128  0.6224 -0.2264  0.3342
   17CHTO  H150 6932   4.967   6.766   2.189  1.3398  0.3334  0.2088
   17CHTO   C80 6933   5.070   6.573   2.216 -0.0793 -0.0235  0.4820
   17CHTO  H152 6934   5.129   6.506   2.151 -0.1559  0.6028 -0.2478
   17CHTO   O55 6935   5.139   6.634   2.321 -0.3882  1.0342 -0.3012
   17CHTO  H134 6936   5.223   6.662   2.291 -0.4352  3.1520  1.4267
   17CHTO   C84 6937   4.942   6.497   2.272 -0.2119  0.4501  0.0821
   17CHTO  H156 6938   4.885   6.567   2.333  0.3163  0.1359  0.9400
   17CHTO   N15 6939   4.975   6.381   2.368 -0.2853 -0.5732  0.3021
   17CHTO  H143 6940   4.948   6.285   2.331 -0.6321  0.1296 -1.2890
   17CHTO  H144 6941   5.073   6.385   2.412  0.1892 -3.1281 -0.4297
   17CHTO   C87 6942   4.859   6.446   2.151 -0.2099  0.1495  0.2970
   17CHTO  H159 6943   4.921   6.386   2.086 -1.1233 -0.6987  0.1919
   17CHTO   O53 6944   4.816   6.553   2.095 -0.0750 -0.1145  0.0291
   17CHTO   C82 6945   4.916   6.635   2.021 -0.0981  0.2485 -0.4002
   17CHTO  H154 6946   4.954   6.573   1.940  0.5076 -1.4310  1.1247
   17CHTO   C89 6947   4.835   6.744   1.960  1.0044  0.1637 -0.0730
   17CHTO   O59 6948   4.714   6.703   1.890 -0.0038 -0.3390  0.5848
   17CHTO  H137 6949   4.698   6.768   1.825 -1.0120  0.9958  2.1230
   17CHTO   O45 6950   4.721   6.367   2.186  0.1592  0.6042 -0.3268
   17CHTO   C67 6951   4.629   6.428   2.275  0.0623  0.0627  0.8533
   17CHTO  H124 6952   4.675   6.481   2.359  1.5566  0.2390 -0.0585
   17CHTO   C65 6953   4.534   6.520   2.189 -0.3157  0.1004 -0.3526
   17CHTO  H122 6954   4.598   6.582   2.126 -0.3295 -1.4283 -1.8954
   17CHTO   O44 6955   4.471   6.615   2.275 -0.0982  0.1081 -0.0913
   17CHTO  H102 6956   4.419   6.571   2.340  1.3050 -1.1066  0.2566
   17CHTO   C63 6957   4.434   6.440   2.091 -0.0206 -0.2900 -0.4400
   17CHTO  H120 6958   4.493   6.373   2.028  1.8349  2.0688 -1.2772
   17CHTO   N11 6959   4.356   6.524   1.987 -0.1858  0.1764 -0.7743
   17CHTO  H108 6960   4.255   6.489   1.990 -0.2648  0.4833  0.6344
   17CHTO  H109 6961   4.392   6.515   1.887 -0.4300  0.5957 -0.8997
   17CHTO   C61 6962   4.341   6.348   2.178  0.0942 -0.5756 -0.2117
   17CHTO  H118 6963   4.303   6.281   2.099  0.5778 -3.4960  1.9542
   17CHTO   O40 6964   4.438   6.269   2.248 -0.2558  0.3518  0.1107
   17CHTO   C68 6965   4.531   6.324   2.344 -0.1876  0.1805  0.5710
   17CHTO  H125 6966   4.593   6.237   2.376 -0.0542  0.2599  0.5317
   17CHTO   C72 6967   4.463   6.386   2.468 -0.0984 -0.3643 -0.0971
   17CHTO   O48 6968   4.398   6.291   2.550 -0.3712 -0.0830  0.0194
   17CHTO  H105 6969   4.462   6.224   2.567 -0.9422 -0.3820  1.0698
   17CHTO   O38 6970   4.247   6.425   2.253  0.1382  0.1533 -0.3021
   17CHTO   C55 6971   4.112   6.375   2.238 -0.1842 -0.1326  0.0232
   17CHTO  H112 6972   4.055   6.422   2.321  1.6368  3.9901 -0.9143
   17CHTO   C56 6973   4.100   6.215   2.242  0.5055  0.0950 -0.4778
   17CHTO  H113 6974   4.152   6.165   2.160 -0.0219 -0.6827 -0.3388
   17CHTO   O42 6975   4.178   6.163   2.357  0.0231 -0.1363 -0.1598
   17CHTO  H100 6976   4.182   6.225   2.427 -1.2799 -1.3058  0.9695
   17CHTO   C57 6977   3.946   6.180   2.246  0.2987 -0.0093 -0.4030
   17CHTO  H114 6978   3.903   6.228   2.334  1.5030  1.6642 -0.7115
   17CHTO   N10 6979   3.928   6.030   2.255 -0.0195 -0.3055  0.2872
   17CHTO  H106 6980   3.938   5.982   2.159  2.5260 -2.3725  1.5206
   17CHTO  H107 6981   3.826   6.021   2.290 -0.0456  0.3070  0.3770
   17CHTO   C58 6982   3.882   6.244   2.119  0.1709  0.0985 -0.5649
   17CHTO  H115 6983   3.932   6.199   2.030  0.8648 -1.8181  0.7385
   17CHTO   O37 6984   3.902   6.380   2.117  0.1775  0.0843  0.4261
   17CHTO   C59 6985   4.039   6.425   2.114 -0.2030 -0.0069 -0.1457
   17CHTO  H116 6986   4.095   6.400   2.024 -1.9400 -2.1226 -0.6681
   17CHTO   C70 6987   4.021   6.575   2.116 -0.2782 -0.1439 -0.3822
   17CHTO   O46 6988   3.945   6.620   2.001  0.5893  0.1068  0.1614
   17CHTO  H103 6989   4.009   6.637   1.934 -0.2955 -0.6498 -0.8974
   17CHTO   O39 6990   3.722   6.210   2.114  0.4474 -0.0459 -0.1986
   17CHTO   C60 6991   3.637   6.316   2.166 -0.6315 -0.7346  0.4009
   17CHTO  H117 6992   3.685   6.381   2.239 -1.6955 -1.4342  1.7509
   17CHTO   C62 6993   3.607   6.418   2.057  0.3766 -0.0876 -0.2590
   17CHTO  H119 6994   3.701   6.444   2.003  0.7258  0.4685  0.6053
   17CHTO   O43 6995   3.525   6.360   1.949  0.2783 -0.0335 -0.2272
   17CHTO  H101 6996   3.565   6.374   1.865  1.5364 -0.6481  0.2713
   17CHTO   C66 6997   3.552   6.553   2.120  0.1773  0.3057  0.1789
   17CHTO  H123 6998   3.619   6.582   2.201  2.3410  1.6021 -2.0169
   17CHTO   N12 6999   3.537   6.659   2.016 -0.1683 -0.0398  0.1251
   17CHTO  H110 7000   3.547   6.620   1.916  1.7434  2.4227 -0.7122
   17CHTO  H111 7001   3.434   6.692   2.027 -0.1667  0.8833 -2.3632
   17CHTO   C69 7002   3.420   6.517   2.187  0.7056  0.7008 -0.6228
   17CHTO  H126 7003   3.347   6.495   2.107  1.5666 -2.3095 -0.6245
   17CHTO   O41 7004   3.437   6.400   2.289  0.2204  0.2383  0.1001
   17CHTO   C64 7005   3.504   6.272   2.226 -0.0760  0.8392  0.0222
   17CHTO  H121 7006   3.443   6.216   2.153 -1.6854  1.5815  0.7856
   17CHTO   C71 7007   3.512   6.169   2.347  0.2891 -0.3398  0.8195
   17CHTO   O47 7008   3.376   6.131   2.357  0.1449  0.1008 -0.3997
   17CHTO  H104 7009   3.375   6.064   2.422  0.9116  0.1909 -0.2883
   17CHTO   O34 7010   3.376   6.646   2.277 -0.5076 -0.4081 -0.6526
   17CHTO   C49 7011   3.249   6.744   2.292 -0.6290  0.2121 -0.5625
   17CHTO   H91 7012   3.250   6.812   2.208  0.5056  0.6378 -0.2204
   17CHTO   C47 7013   3.265   6.822   2.425 -0.2346  0.2236 -0.5280
   17CHTO   H89 7014   3.192   6.905   2.411 -0.0187  0.2983 -1.2142
   17CHTO   O33 7015   3.394   6.880   2.445  0.4322  0.4525 -0.4918
   17CHTO   H70 7016   3.460   6.825   2.407 -1.8119 -2.4804 -0.3296
   17CHTO   C45 7017   3.236   6.734   2.558  0.1322 -0.4400 -0.5203
   17CHTO   H87 7018   3.338   6.723   2.597 -0.0411 -0.5629 -0.1015
   17CHTO    N8 7019   3.153   6.814   2.656  0.3801 -0.4808 -0.1468
   17CHTO   H75 7020   3.202   6.801   2.752  0.2238 -0.3564 -0.0485
   17CHTO   H76 7021   3.142   6.915   2.620 -0.8282 -1.1061 -1.5604
   17CHTO   C43 7022   3.188   6.590   2.528  0.1942 -0.3393 -0.4753
   17CHTO   H85 7023   3.280   6.535   2.509  1.3058  0.8656  1.3068
   17CHTO   O29 7024   3.094   6.585   2.417  0.1362 -0.4852  0.2713
   17CHTO   C50 7025   3.115   6.661   2.298  0.2804 -0.8973  0.3329
   17CHTO   H92 7026   3.120   6.591   2.214  1.5366 -0.2513 -0.1555
   17CHTO   C54 7027   2.995   6.760   2.266 -0.3250 -0.3502  0.2702
   17CHTO   O36 7028   2.941   6.836   2.373  0.4964 -0.6154 -0.1821
   17CHTO   H72 7029   2.847   6.837   2.369  0.3824  0.6001  2.0820
   17CHTO   O27 7030   3.136   6.522   2.647 -0.0808 -0.0803  0.0874
   17CHTO   C37 7031   3.094   6.381   2.670 -0.7407 -0.3540 -0.2928
   17CHTO   H79 7032   3.057   6.376   2.774  0.3592 -3.9242 -0.0116
   17CHTO   C38 7033   2.975   6.335   2.581  0.1197 -0.2474  0.2855
   17CHTO   H80 7034   3.013   6.340   2.477  0.4278  0.9089  0.4469
   17CHTO   O31 7035   2.866   6.433   2.600 -0.2364 -0.1252  0.1861
   17CHTO   H68 7036   2.787   6.394   2.567 -0.2207  0.2519 -0.3081
   17CHTO   C39 7037   2.931   6.181   2.617 -0.2363  0.3002 -0.3365
   17CHTO   H81 7038   2.901   6.182   2.722  0.8884  1.0421 -0.0211
   17CHTO    N7 7039   2.820   6.131   2.528 -0.1486 -0.0426  0.1843
   17CHTO   H73 7040   2.830   6.038   2.473  0.1906  0.8690 -1.3240
   17CHTO   H74 7041   2.819   6.193   2.440 -0.9904 -2.7934 -1.8120
   17CHTO   C40 7042   3.061   6.086   2.607  0.1578 -0.0293 -0.0409
   17CHTO   H82 7043   3.096   6.073   2.505  0.5452  1.6418 -0.1283
   17CHTO   O26 7044   3.163   6.151   2.692  0.5813  0.7945 -0.2128
   17CHTO   C41 7045   3.210   6.281   2.655 -0.1159 -0.0846 -0.0955
   17CHTO   H83 7046   3.243   6.283   2.550 -0.1484  0.8307 -0.0957
   17CHTO   C52 7047   3.329   6.320   2.750 -0.4097 -0.6322  0.0013
   17CHTO   O35 7048   3.435   6.219   2.770  0.5629 -0.6089 -0.1389
   17CHTO   H71 7049   3.516   6.255   2.800 -1.0943  0.9089  2.8011
   17CHTO   O28 7050   3.048   5.956   2.657  0.4164  0.3588 -0.6470
   17CHTO   C42 7051   3.141   5.851   2.619  0.0062  0.5016  0.9354
   17CHTO   H84 7052   3.128   5.775   2.696  0.8318  0.7801  1.3539
   17CHTO   C44 7053   3.292   5.883   2.616 -0.1153 -0.5933  0.5540
   17CHTO   H86 7054   3.306   5.965   2.545 -0.4778 -1.6453 -0.7317
   17CHTO   O32 7055   3.318   5.928   2.748 -0.3110 -0.1737 -0.3422
   17CHTO   H69 7056   3.316   6.021   2.743  0.7255 -0.0701  0.7419
   17CHTO   C48 7057   3.388   5.766   2.570 -0.1704 -0.2185 -0.0340
   17CHTO   H90 7058   3.382   5.685   2.642  1.1766 -0.3882 -0.1162
   17CHTO    N9 7059   3.533   5.801   2.581 -0.3810 -0.5637  0.0411
   17CHTO   H77 7060   3.592   5.727   2.528  0.3272  0.3292 -0.4213
   17CHTO   H78 7061   3.553   5.803   2.688  0.4262 -0.4318 -0.1083
   17CHTO   C51 7062   3.344   5.725   2.428 -0.3404 -0.6388 -0.2567
   17CHTO   H93 7063   3.364   5.812   2.366 -0.1861 -1.7507 -1.7916
   17CHTO   O30 7064   3.208   5.685   2.425  0.0159 -0.5562  0.0419
   17CHTO   C46 7065   3.106   5.781   2.480  0.4993  0.1339 -0.7071
   17CHTO   H88 7066   3.093   5.860   2.406 -1.2790 -0.0676 -0.6262
   17CHTO   C53 7067   2.979   5.698   2.483 -0.2244  0.1568 -0.4373
   17CHTO   O72 7068   2.947   5.654   2.348  0.7190 -0.4583 -0.3935
   17CHTO  H199 7069   2.862   5.692   2.333 -0.0351 -1.7345  0.5043
   17CHTO   O22 7070   3.412   5.608   2.369  0.1156  0.4605 -0.0766
   17CHTO   C31 7071   3.457   5.621   2.222 -0.4484  0.6941 -0.8416
   17CHTO   H59 7072   3.464   5.516   2.187 -1.2033  0.1401  0.6095
   17CHTO   C29 7073   3.361   5.696   2.131  0.7942 -0.2200  0.2537
   17CHTO   H57 7074   3.322   5.784   2.184 -1.2846 -1.2965  0.5657
   17CHTO   O21 7075   3.247   5.610   2.114  0.5570  0.0937 -0.2204
   17CHTO   H37 7076   3.271   5.521   2.094 -1.1299 -0.0144 -1.8906
   17CHTO   C27 7077   3.417   5.739   1.991 -0.5667  0.4807 -0.4564
   17CHTO   H55 7078   3.424   5.650   1.927 -1.2862  0.1712 -0.1057
   17CHTO    N5 7079   3.336   5.835   1.915 -0.0481  0.2774  0.8066
   17CHTO   H43 7080   3.390   5.916   1.870  1.2760 -1.8828 -1.6194
   17CHTO   H44 7081   3.256   5.884   1.970  0.7596  1.6722  0.7579
   17CHTO   C25 7082   3.571   5.774   1.995  0.2777  0.0636  0.4018
   17CHTO   H53 7083   3.586   5.869   2.047 -0.0368 -0.0134  0.6388
   17CHTO   O17 7084   3.648   5.675   2.072  0.2810 -0.1204  0.2101
   17CHTO   C32 7085   3.605   5.671   2.213 -0.5242  0.3801  0.1355
   17CHTO   H60 7086   3.617   5.763   2.270  1.2289 -1.1149  2.2184
   17CHTO   C36 7087   3.701   5.578   2.289  0.0794  0.1907  0.3756
   17CHTO   O25 7088   3.830   5.637   2.274 -0.0559  0.3696 -0.0842
   17CHTO   H40 7089   3.877   5.605   2.348 -2.0620 -1.1528  0.5647
   17CHTO   O15 7090   3.632   5.777   1.833  0.0477  0.5249 -0.2065
   17CHTO   C19 7091   3.699   5.869   1.742  0.0275  0.3580  0.1354
   17CHTO   H47 7092   3.768   5.805   1.685  0.7171  2.4307 -1.3831
   17CHTO   C20 7093   3.598   5.931   1.644 -0.0326  0.3071  0.6420
   17CHTO   H48 7094   3.506   5.963   1.695  0.0321  1.3419  0.1120
   17CHTO   O19 7095   3.559   5.824   1.554 -0.2422  0.2273 -0.2133
   17CHTO   H35 7096   3.473   5.836   1.518  0.0143  0.4240 -0.7713
   17CHTO   C21 7097   3.650   6.050   1.556 -0.5690  0.2258  0.0547
   17CHTO   H49 7098   3.715   6.015   1.476  0.4142  0.5271  0.7089
   17CHTO    N4 7099   3.539   6.127   1.494  0.2020  0.1860  0.3323
   17CHTO   H41 7100   3.445   6.093   1.535  0.2213 -0.2023  0.0605
   17CHTO   H42 7101   3.535   6.104   1.389 -2.8483 -0.3823  0.5135
   17CHTO   C22 7102   3.738   6.145   1.642  0.5668 -0.0535  0.5785
   17CHTO   H50 7103   3.677   6.197   1.715  0.7018 -0.3946  0.9337
   17CHTO   O14 7104   3.837   6.069   1.718  0.3417 -0.1742  0.6326
   17CHTO   C23 7105   3.784   5.975   1.810 -0.0684 -0.1239 -0.4127
   17CHTO   H51 7106   3.739   6.016   1.901  1.0376 -0.1864  0.1742
   17CHTO   C34 7107   3.912   5.921   1.869  0.5946  0.0708 -0.1262
   17CHTO   O23 7108   3.898   5.818   1.967 -0.3166 -0.5612  0.0454
   17CHTO   H38 7109   3.976   5.768   1.983  0.2096  0.1015 -0.4005
   17CHTO   O16 7110   3.803   6.243   1.559 -0.2285  0.2555 -0.6514
   17CHTO   C24 7111   3.832   6.386   1.658  0.3689 -0.3448  0.0227
   17CHTO   H52 7112   3.805   6.368   1.762 -1.7860 -0.2145 -0.4890
   17CHTO   C26 7113   3.732   6.481   1.585 -0.4475 -0.1499 -0.0757
   17CHTO   H54 7114   3.744   6.470   1.475 -1.0752 -0.0191 -0.1624
   17CHTO   O20 7115   3.597   6.440   1.619  0.2948  0.0743  0.6398
   17CHTO   H36 7116   3.536   6.495   1.574  2.2367  1.4649 -0.3602
   17CHTO   C30 7117   3.765   6.615   1.646  0.0204  0.1765  0.4704
   17CHTO   H58 7118   3.754   6.620   1.755 -2.4936  0.2501  0.2443
   17CHTO    N6 7119   3.674   6.726   1.597 -0.8550 -0.3868  0.4192
   17CHTO   H45 7120   3.649   6.796   1.675 -0.1682 -2.3199  2.4425
   17CHTO   H46 7121   3.698   6.779   1.506 -0.9265 -0.9024  0.0913
   17CHTO   C33 7122   3.913   6.656   1.621 -0.2529 -0.2396  0.2575
   17CHTO   H61 7123   3.929   6.649   1.512 -0.8725 -0.2649  0.1689
   17CHTO   O18 7124   3.997   6.564   1.689 -0.8623 -0.2695  0.0719
   17CHTO   C28 7125   3.983   6.424   1.648 -0.1311 -1.0148  0.2449
   17CHTO   H56 7126   4.019   6.404   1.547  0.9959 -0.2260  0.4805
   17CHTO   C35 7127   4.081   6.336   1.734  0.1143 -0.5132 -0.0405
   17CHTO   O24 7128   4.219   6.372   1.714  0.1422 -0.4142  0.0826
   17CHTO   H39 7129   4.275   6.306   1.751 -0.4516 -0.6210  0.6277
   17CHTO    O9 7130   3.945   6.791   1.658  0.1676  0.3684 -0.0702
   17CHTO   C13 7131   4.077   6.841   1.591  0.0476 -0.5675 -0.6721
   17CHTO   H26 7132   4.066   6.834   1.481 -2.7925  0.8207 -0.5238
   17CHTO   C11 7133   4.215   6.773   1.639  0.4948 -0.3638 -1.1354
   17CHTO   H24 7134   4.215   6.666   1.615 -1.2611 -0.7413  0.3946
   17CHTO    O8 7135   4.227   6.787   1.787 -0.0234  0.7209 -0.1659
   17CHTO    H3 7136   4.143   6.785   1.828  0.4798 -1.6685  0.8168
   17CHTO    C9 7137   4.329   6.842   1.561 -0.5107  0.0098  0.3013
   17CHTO   H22 7138   4.303   6.831   1.455 -0.7660  0.4296  0.3214
   17CHTO    N2 7139   4.450   6.757   1.578  0.1015  0.4389  0.5526
   17CHTO   H10 7140   4.498   6.765   1.675  1.8925 -0.1264 -0.2741
   17CHTO   H11 7141   4.524   6.755   1.499 -1.0578 -0.1233 -0.5288
   17CHTO    C7 7142   4.335   6.997   1.594  0.0269  0.1982 -0.0457
   17CHTO   H20 7143   4.404   7.030   1.514  0.3649  0.0682  0.1944
   17CHTO    O4 7144   4.205   7.073   1.594  0.4230 -0.5541  0.3830
   17CHTO   C14 7145   4.083   7.001   1.627 -0.3944 -0.1817 -0.7087
   17CHTO   H27 7146   4.000   7.047   1.569 -0.1208  2.9398  1.2235
   17CHTO   C18 7147   4.043   7.027   1.779 -0.4558  0.3095  0.0177
   17CHTO   O13 7148   3.972   7.146   1.816 -0.2651 -0.9065  0.0534
   17CHTO    H7 7149   3.912   7.130   1.886 -1.2438  1.2656 -0.2256
   17CHTO    O2 7150   4.407   7.013   1.741  0.0852  0.1544 -0.0410
   17CHTO    C1 7151   4.435   7.152   1.767  0.6222  1.0526  0.2673
   17CHTO   H14 7152   4.348   7.219   1.749 -2.0068 -1.8486  1.6653
   17CHTO    C2 7153   4.564   7.210   1.692  0.1407 -0.2073  0.6236
   17CHTO   H15 7154   4.652   7.151   1.722  0.1197 -0.2098  0.6802
   17CHTO    O6 7155   4.550   7.200   1.548 -0.3182  0.0151 -0.8808
   17CHTO    H1 7156   4.560   7.109   1.525 -0.5191 -0.5006  0.9844
   17CHTO    C3 7157   4.588   7.366   1.728  0.1121  0.3812 -0.0913
   17CHTO   H16 7158   4.513   7.434   1.687  0.2402  0.9282  0.5605
   17CHTO    N1 7159   4.715   7.418   1.657  0.3018 -0.5824 -0.1734
   17CHTO    H8 7160   4.765   7.334   1.612  0.0664 -2.3091  2.6489
   17CHTO    H9 7161   4.676   7.481   1.578 -0.1446 -1.0203 -0.3053
   17CHTO    C4 7162   4.583   7.387   1.885  0.4137  0.5259  0.1067
   17CHTO   H17 7163   4.680   7.361   1.927 -0.0626  3.4464  3.1772
   17CHTO    O1 7164   4.472   7.314   1.937  0.2972  0.5076  0.5725
   17CHTO    C5 7165   4.469   7.172   1.908 -0.5210 -0.4223 -0.0927
   17CHTO   H18 7166   4.570   7.131   1.916 -0.9206 -1.5826 -0.8012
   17CHTO   C16 7167   4.376   7.100   2.009  0.0404 -0.9751  0.2865
   17CHTO   O11 7168   4.406   7.118   2.147  0.0010 -0.3002  0.0453
   17CHTO    H5 7169   4.355   7.186   2.187  0.2881 -1.0708  1.8152
   17CHTO    O3 7170   4.555   7.523   1.915  0.6445 -0.5942  0.2964
   17CHTO    C6 7171   4.598   7.581   2.047 -0.3438 -0.7339 -0.2559
   17CHTO   H19 7172   4.561   7.683   2.062 -0.4329 -0.8419  0.2569
   17CHTO    C8 7173   4.541   7.511   2.179 -0.3434 -0.1217 -0.4468
   17CHTO   H21 7174   4.569   7.406   2.177  2.2882  0.5290  0.2021
   17CHTO    O7 7175   4.400   7.531   2.189  0.3291  0.1205  0.8167
   17CHTO    H2 7176   4.354   7.479   2.127  0.0547 -0.6604  1.6688
   17CHTO   C12 7177   4.605   7.567   2.313 -0.3216  0.7421  0.2837
   17CHTO   H25 7178   4.588   7.676   2.324 -0.5928  0.7116  0.1682
   17CHTO    N3 7179   4.553   7.492   2.431  0.0758 -0.1191 -0.3506
   17CHTO   H12 7180   4.571   7.385   2.429 -1.1253 -0.3514  0.7880
   17CHTO   H13 7181   4.541   7.544   2.525 -2.3206 -1.2093 -0.0031
   17CHTO   C15 7182   4.762   7.556   2.293 -0.2651  0.3253  0.1444
   17CHTO   H28 7183   4.792   7.452   2.281  0.9248  0.6440  0.2909
   17CHTO   O10 7184   4.842   7.626   2.409 -0.3110 -0.3079 -0.3429
   17CHTO    H4 7185   4.795   7.631   2.490  1.2980  0.7405  0.5573
   17CHTO    O5 7186   4.803   7.639   2.180 -0.4717 -0.1467 -0.4797
   17CHTO   C10 7187   4.750   7.588   2.057  0.5010 -0.2510 -0.6882
   17CHTO   H23 7188   4.793   7.491   2.032  0.5053 -0.3640 -0.2370
   17CHTO   C17 7189   4.797   7.681   1.938 -0.1862  0.6316  0.7269
   17CHTO   O12 7190   4.937   7.701   1.918 -0.3330  0.4724  0.3792
   17CHTO    H6 7191   4.960   7.653   1.841 -0.4749  0.7562  0.1584
   18CHTO  H203 7192   6.156   7.402   2.679  0.2446 -0.1824  0.1989
   18CHTO   O82 7193   6.194   7.456   2.613 -0.3173 -0.4413 -0.3402
   18CHTO  C123 7194   6.112   7.464   2.499 -0.3629 -0.1079  0.2911
   18CHTO  H227 7195   6.021   7.520   2.524 -2.0340 -2.6142  0.0417
   18CHTO   O77 7196   6.190   7.548   2.412 -0.1900 -0.3584 -0.6874
   18CHTO  C118 7197   6.133   7.563   2.278  0.3720  0.0761 -0.3169
   18CHTO  H222 7198   6.035   7.609   2.298  1.0711  0.7371  1.7046
   18CHTO  C125 7199   6.218   7.662   2.198 -0.4019 -0.3339 -0.3758
   18CHTO   O84 7200   6.225   7.788   2.268 -0.6174  0.3335 -0.0382
   18CHTO  H205 7201   6.158   7.849   2.246  0.4621  1.9633  1.0350
   18CHTO  C114 7202   6.114   7.427   2.206  0.6368 -0.2075  0.2318
   18CHTO  H218 7203   6.207   7.374   2.182  1.4493  0.5493  1.6604
   18CHTO  C116 7204   6.028   7.331   2.292  0.3727  0.5703  0.6738
   18CHTO  H220 7205   5.928   7.380   2.290 -0.5948 -1.3047  2.0235
   18CHTO   O79 7206   6.012   7.202   2.237  0.9480 -0.4868  0.0981
   18CHTO  H201 7207   5.926   7.175   2.262  0.8147  1.8000  2.2056
   18CHTO  C120 7208   6.081   7.324   2.445 -0.1419  0.9979 -0.3985
   18CHTO  H224 7209   6.167   7.253   2.444 -0.4507  0.6039  0.5267
   18CHTO   N21 7210   5.975   7.254   2.526  0.4687  0.3896 -0.0345
   18CHTO  H211 7211   5.929   7.178   2.464 -0.9496 -0.1154  1.6135
   18CHTO  H212 7212   6.003   7.211   2.621  2.7305 -1.9538 -1.6988
   18CHTO   O75 7213   6.053   7.456   2.076  0.2545  0.0607 -0.7890
   18CHTO  C112 7214   6.156   7.390   1.945 -0.2869 -0.3506 -0.2945
   18CHTO  H216 7215   6.229   7.316   1.979 -0.2823 -1.3697 -2.4527
   18CHTO   O73 7216   6.217   7.502   1.882 -0.5629 -0.6346 -0.6453
   18CHTO  C113 7217   6.315   7.478   1.778 -0.2173 -0.2841 -0.9432
   18CHTO  H217 7218   6.386   7.396   1.800 -0.7507 -0.0859  1.6871
   18CHTO  C124 7219   6.398   7.611   1.754  0.3478  0.3301 -0.1653
   18CHTO   O83 7220   6.493   7.642   1.861 -0.0009  0.2642 -0.3794
   18CHTO  H204 7221   6.583   7.618   1.846 -0.2221 -0.4745 -0.5385
   18CHTO  C109 7222   6.231   7.435   1.651 -0.2242 -0.0198  0.3727
   18CHTO  H213 7223   6.165   7.520   1.625  0.9002  0.7489  0.0048
   18CHTO  C110 7224   6.144   7.313   1.690 -0.3152  0.0222  0.2481
   18CHTO  H214 7225   6.218   7.233   1.693  0.7226  0.9360 -0.4001
   18CHTO   O78 7226   6.062   7.296   1.578 -0.9142  0.3308  0.4841
   18CHTO  H200 7227   6.016   7.375   1.559  1.0417  1.5566  0.7732
   18CHTO  C111 7228   6.067   7.326   1.829 -0.0404 -0.1632 -0.5347
   18CHTO  H215 7229   5.986   7.401   1.820 -1.3223 -1.4002  0.3925
   18CHTO   N19 7230   6.002   7.202   1.880  0.2375  0.5459 -0.3215
   18CHTO  H207 7231   5.922   7.172   1.813 -0.1863  1.2019 -0.1136
   18CHTO  H208 7232   6.075   7.123   1.891  0.2876  0.7704  0.9750
   18CHTO   O74 7233   6.325   7.404   1.549  0.1184 -0.2086 -0.2503
   18CHTO  C115 7234   6.302   7.492   1.418  0.1485 -0.0859 -0.9288
   18CHTO  H219 7235   6.202   7.480   1.375 -0.5935 -0.0676  0.7763
   18CHTO   O76 7236   6.317   7.645   1.452  0.1692  0.1308 -0.2063
   18CHTO  C122 7237   6.316   7.740   1.342  0.2092 -0.2136  0.1632
   18CHTO  H226 7238   6.352   7.834   1.383 -1.1683 -0.3464  1.7568
   18CHTO  C126 7239   6.162   7.765   1.303  0.2704 -0.0342 -0.6362
   18CHTO   O85 7240   6.143   7.807   1.168 -0.4883  0.2829 -0.0069
   18CHTO  H206 7241   6.180   7.892   1.154 -0.4235  0.1976 -0.3846
   18CHTO  C121 7242   6.407   7.700   1.227  0.1634 -0.2057  0.6588
   18CHTO  H225 7243   6.365   7.765   1.147  2.5171  1.3435  0.6067
   18CHTO   O81 7244   6.540   7.747   1.242 -0.0339  0.3494 -0.0100
   18CHTO  H202 7245   6.591   7.741   1.163 -1.0059  1.1388 -0.6982
   18CHTO  C119 7246   6.401   7.550   1.187 -0.6705 -0.1586 -0.4456
   18CHTO  H223 7247   6.309   7.526   1.132 -3.7084 -2.6613  5.2846
   18CHTO  C117 7248   6.406   7.440   1.306 -0.1896 -0.6427  0.2651
   18CHTO  H221 7249   6.506   7.435   1.348  0.6999 -0.3096 -1.7404
   18CHTO   N20 7250   6.379   7.298   1.254 -0.0045  0.1302 -0.4371
   18CHTO  H209 7251   6.448   7.230   1.301  1.0160  0.6655 -1.1454
   18CHTO  H210 7252   6.282   7.267   1.291 -0.1117  0.4457 -0.4535
   18CHTO   O80 7253   6.513   7.520   1.077  0.1160 -0.2625 -0.5923
   18CHTO  C103 7254   6.465   7.490   0.921 -0.0573 -0.1598  0.6325
   18CHTO  H190 7255   6.557   7.489   0.863 -1.0499 -1.9899 -0.9186
   18CHTO  C101 7256   6.396   7.354   0.904 -0.4856 -0.0740 -0.3726
   18CHTO  H188 7257   6.324   7.339   0.985  0.4883 -0.6324  0.3893
   18CHTO   O68 7258   6.498   7.250   0.921 -0.3874  0.3551 -0.6592
   18CHTO  H168 7259   6.480   7.172   0.873 -0.0151  0.2196 -0.5794
   18CHTO   C99 7260   6.315   7.345   0.761 -0.1086  0.4842 -0.0416
   18CHTO  H186 7261   6.385   7.342   0.675 -1.2079  0.4221 -0.9475
   18CHTO   N17 7262   6.230   7.222   0.736  0.2940  0.5816 -0.0083
   18CHTO  H174 7263   6.144   7.224   0.801 -0.1653  2.7882 -0.6109
   18CHTO  H175 7264   6.289   7.132   0.729 -1.3552 -0.5346  0.3777
   18CHTO   C97 7265   6.228   7.473   0.744 -0.5141 -0.0397 -0.3221
   18CHTO  H184 7266   6.145   7.477   0.816 -0.4876 -0.5545 -0.2594
   18CHTO   O64 7267   6.317   7.590   0.760  0.0129  0.1678 -0.5471
   18CHTO  C104 7268   6.384   7.613   0.882 -0.2101 -0.2852 -0.1349
   18CHTO  H191 7269   6.309   7.633   0.959 -0.7731  0.6322 -0.9116
   18CHTO  C108 7270   6.466   7.738   0.862  0.2745 -0.6058 -0.2403
   18CHTO   O71 7271   6.551   7.718   0.750  0.2940  0.0208 -0.7953
   18CHTO  H171 7272   6.577   7.800   0.711  0.9344  0.4742  0.5317
   18CHTO   O62 7273   6.165   7.484   0.619  0.4140  0.4989  0.5947
   18CHTO   C91 7274   6.045   7.564   0.610 -0.1821 -0.4252  0.0542
   18CHTO  H178 7275   6.023   7.606   0.709  0.1389  0.4308 -0.2317
   18CHTO   C92 7276   5.922   7.478   0.565 -1.5788 -0.8360  0.6896
   18CHTO  H179 7277   5.921   7.461   0.456 -0.8616  2.8877  0.0365
   18CHTO   O66 7278   5.925   7.346   0.619  0.0499 -0.4477  0.4890
   18CHTO  H166 7279   5.860   7.302   0.568  0.2535  0.1895 -0.3434
   18CHTO   C93 7280   5.783   7.558   0.587 -0.4209  0.2233  0.5912
   18CHTO  H180 7281   5.767   7.568   0.695  0.4640 -1.3636  0.8797
   18CHTO   N16 7282   5.673   7.479   0.535  0.3861 -0.5493 -0.2913
   18CHTO  H172 7283   5.644   7.490   0.431  1.7163 -1.1577 -0.7334
   18CHTO  H173 7284   5.592   7.506   0.601  1.7050  2.1227  0.3097
   18CHTO   C94 7285   5.787   7.703   0.516  0.0342  0.8793  0.2114
   18CHTO  H181 7286   5.783   7.693   0.407  1.6693  0.9829  0.1248
   18CHTO   O61 7287   5.915   7.764   0.545 -0.0711 -0.3228 -0.6650
   18CHTO   C95 7288   6.036   7.691   0.514  0.6183  0.6640  0.3603
   18CHTO  H182 7289   6.039   7.651   0.413  1.7975 -3.5271  1.9530
   18CHTO  C106 7290   6.161   7.784   0.533 -0.6457 -0.4086  0.5164
   18CHTO   O69 7291   6.259   7.761   0.427  0.0392  0.0251  0.0010
   18CHTO  H169 7292   6.341   7.804   0.443  0.0281  0.9229 -2.2491
   18CHTO   O63 7293   5.671   7.804   0.581 -0.3100  0.1882 -0.0511
   18CHTO   C96 7294   5.600   7.902   0.467  0.3356  0.8889  0.2367
   18CHTO  H183 7295   5.618   7.860   0.368  1.0146  0.6378  0.4689
   18CHTO   C98 7296   5.651   8.046   0.452  0.6214  0.5053 -0.4008
   18CHTO  H185 7297   5.656   8.088   0.554  0.0552 -0.6475  0.1136
   18CHTO   O67 7298   5.789   8.044   0.402 -0.0323 -0.2960  0.6908
   18CHTO  H167 7299   5.842   8.011   0.472 -1.8187 -3.3293  0.6925
   18CHTO  C102 7300   5.557   8.139   0.357 -0.2888 -0.3262  0.0878
   18CHTO  H189 7301   5.565   8.090   0.259 -2.9476 -0.3252 -0.1618
   18CHTO   N18 7302   5.612   8.281   0.338  0.7560  0.5665 -0.0143
   18CHTO  H176 7303   5.558   8.360   0.387  1.9164  1.9111 -0.8779
   18CHTO  H177 7304   5.649   8.320   0.244 -0.0421  0.6669 -0.2952
   18CHTO  C105 7305   5.413   8.128   0.404  0.5112 -0.4875 -0.0870
   18CHTO  H192 7306   5.412   8.159   0.509  1.6235  0.5948 -0.3837
   18CHTO   O65 7307   5.376   7.993   0.400 -0.5661 -0.2141 -0.1654
   18CHTO  C100 7308   5.445   7.899   0.492 -0.4596 -0.4921  0.5786
   18CHTO  H187 7309   5.413   7.947   0.585  1.4180  1.5928  0.1844
   18CHTO  C107 7310   5.389   7.755   0.478 -0.2103  0.7292  0.4863
   18CHTO   O70 7311   5.429   7.668   0.585  0.0575 -0.4918 -0.7662
   18CHTO  H170 7312   5.352   7.618   0.605 -0.6853  1.1908  0.7284
   18CHTO   O57 7313   5.301   8.224   0.314 -0.5324 -0.3436 -0.1861
   18CHTO   C85 7314   5.157   8.207   0.308 -0.7186 -0.2809  0.5133
   18CHTO  H157 7315   5.116   8.290   0.247  2.0655  0.0963 -0.9611
   18CHTO   C83 7316   5.091   8.222   0.452  0.1805 -0.5838 -0.1400
   18CHTO  H155 7317   5.120   8.323   0.482  1.2060 -0.9979  0.3105
   18CHTO   O56 7318   5.141   8.136   0.556 -0.2239  0.1557 -0.0086
   18CHTO  H135 7319   5.182   8.061   0.518  0.1839  0.7699 -0.8038
   18CHTO   C81 7320   4.941   8.215   0.431 -0.4263  0.3804  0.3438
   18CHTO  H153 7321   4.920   8.281   0.347 -0.3744  1.0386  0.8413
   18CHTO   N14 7322   4.864   8.266   0.551  0.4074  0.3064 -0.7752
   18CHTO  H141 7323   4.901   8.358   0.588 -0.9246  0.8054 -0.6446
   18CHTO  H142 7324   4.763   8.284   0.517 -0.3271 -2.3767 -0.1521
   18CHTO   C79 7325   4.899   8.074   0.391  0.6518  0.1383 -0.0411
   18CHTO  H151 7326   4.793   8.076   0.366  0.2491 -0.8719  1.5189
   18CHTO   O52 7327   4.964   8.053   0.262  0.3001  0.0318 -0.1710
   18CHTO   C86 7328   5.109   8.067   0.259 -0.3864  0.5531 -0.3120
   18CHTO  H158 7329   5.144   7.983   0.321  1.8414  0.4335 -1.6869
   18CHTO   C90 7330   5.157   8.038   0.117 -0.6383 -0.1485 -0.6524
   18CHTO   O60 7331   5.136   7.900   0.066  0.0068  0.1991 -0.0142
   18CHTO  H138 7332   5.214   7.870   0.024 -0.4546  0.7740 -1.2973
   18CHTO   O50 7333   4.931   7.969   0.489 -0.2381  0.2721  0.4381
   18CHTO   C73 7334   4.902   7.829   0.505  0.2410 -0.0459  0.6142
   18CHTO  H145 7335   4.967   7.754   0.459 -0.7516 -0.1001 -0.7434
   18CHTO   C74 7336   4.759   7.795   0.451 -0.1913  0.1566 -0.8054
   18CHTO  H146 7337   4.759   7.828   0.346  0.3536 -1.1687 -1.2306
   18CHTO   O54 7338   4.757   7.649   0.441 -0.0973 -0.3035 -0.1170
   18CHTO  H133 7339   4.696   7.619   0.376  0.1439 -2.0287  0.4479
   18CHTO   C75 7340   4.647   7.869   0.540 -0.0997 -0.7632  0.0174
   18CHTO  H147 7341   4.660   7.978   0.529 -0.8574 -0.8400 -1.9423
   18CHTO   N13 7342   4.517   7.835   0.487 -0.3512 -0.2616  0.3333
   18CHTO  H139 7343   4.450   7.919   0.498 -1.5336 -1.3427  1.4770
   18CHTO  H140 7344   4.524   7.811   0.382 -0.4613  1.5184 -0.0930
   18CHTO   C76 7345   4.668   7.822   0.692 -0.0885 -0.0733  0.7019
   18CHTO  H148 7346   4.660   7.714   0.677  1.8043 -0.1757  0.2907
   18CHTO   O49 7347   4.803   7.882   0.730 -0.2011 -0.3684 -0.0170
   18CHTO   C77 7348   4.903   7.799   0.659  0.2196  0.3400 -0.0558
   18CHTO  H149 7349   4.881   7.692   0.666 -0.3368  0.3563 -1.4542
   18CHTO   C88 7350   5.031   7.821   0.730  0.3090  0.0738  0.2447
   18CHTO   O58 7351   5.027   7.774   0.881 -0.4869  0.4584  0.1178
   18CHTO  H136 7352   4.983   7.839   0.932 -1.2652 -0.7885  1.0686
   18CHTO   O51 7353   4.561   7.886   0.803 -0.1969  0.8785  0.2719
   18CHTO   C78 7354   4.620   7.911   0.948 -0.4875  0.3658  0.6467
   18CHTO  H150 7355   4.730   7.918   0.955 -0.4249  1.6794 -1.3110
   18CHTO   C80 7356   4.576   7.800   1.050 -0.7119 -0.0062 -0.7573
   18CHTO  H152 7357   4.466   7.790   1.049 -0.8327  0.9990  0.8192
   18CHTO   O55 7358   4.632   7.675   1.004 -0.2688  0.1171  0.5606
   18CHTO  H134 7359   4.570   7.606   0.990  0.1339  0.3277 -2.8103
   18CHTO   C84 7360   4.627   7.833   1.194  0.3259  0.4509  0.2163
   18CHTO  H156 7361   4.735   7.843   1.186 -0.0759  3.5380 -2.2771
   18CHTO   N15 7362   4.598   7.735   1.300 -0.2186 -0.2256  0.4329
   18CHTO  H143 7363   4.607   7.775   1.398  1.7028 -1.3176  0.7254
   18CHTO  H144 7364   4.659   7.647   1.295  0.1156  0.0826 -1.2782
   18CHTO   C87 7365   4.594   7.985   1.237  0.6659  0.2205 -0.2148
   18CHTO  H159 7366   4.491   7.974   1.271  1.3909 -1.4651  1.5511
   18CHTO   O53 7367   4.609   8.084   1.128 -0.4745  0.1414 -0.5338
   18CHTO   C82 7368   4.570   8.051   0.992  0.5246 -0.4248  0.6544
   18CHTO  H154 7369   4.461   8.047   0.985  0.4221 -0.0078  2.0048
   18CHTO   C89 7370   4.617   8.161   0.894 -0.2537 -0.2141 -0.6719
   18CHTO   O59 7371   4.759   8.181   0.897 -0.4390  0.3820  0.0278
   18CHTO  H137 7372   4.778   8.236   0.970  0.8798  0.8616 -0.6541
   18CHTO   O45 7373   4.699   8.034   1.371  0.1080 -0.5029 -0.6991
   18CHTO   C67 7374   4.841   8.018   1.363 -0.0789 -0.1968  0.1353
   18CHTO  H124 7375   4.860   7.923   1.313  1.1127  1.2819 -2.2604
   18CHTO   C65 7376   4.905   8.127   1.280  0.7184  0.3862 -0.0899
   18CHTO  H122 7377   4.824   8.196   1.257 -0.8459 -1.0475  0.9868
   18CHTO   O44 7378   4.935   8.076   1.151  0.6744  0.8566 -0.2911
   18CHTO  H102 7379   5.027   8.084   1.135  0.7356  0.2856 -0.2498
   18CHTO   C63 7380   5.019   8.201   1.350 -0.1831  0.1658  0.5307
   18CHTO  H120 7381   4.985   8.263   1.433  1.1527  0.0626  1.1639
   18CHTO   N11 7382   5.086   8.310   1.267 -0.0227  0.2820 -0.2331
   18CHTO  H108 7383   5.022   8.395   1.253  1.5813  1.6570  0.5561
   18CHTO  H109 7384   5.130   8.270   1.178 -1.0060 -0.9509 -0.1710
   18CHTO   C61 7385   5.114   8.106   1.416 -0.4691 -0.1646 -0.3461
   18CHTO  H118 7386   5.177   8.164   1.485  0.2331 -2.1215  0.7212
   18CHTO   O40 7387   5.046   8.007   1.502 -0.0888  0.7284  0.4193
   18CHTO   C68 7388   4.898   8.004   1.504  0.3549  0.0586 -0.7845
   18CHTO  H125 7389   4.864   8.092   1.562 -0.1380 -0.1684 -0.7229
   18CHTO   C72 7390   4.842   7.877   1.576  0.3430  0.0313  1.0838
   18CHTO   O48 7391   4.892   7.767   1.502  0.0298 -0.3426 -0.5081
   18CHTO  H105 7392   4.829   7.702   1.476 -0.5199  0.3703 -0.9640
   18CHTO   O38 7393   5.197   8.026   1.324 -0.0373 -0.1698 -0.7170
   18CHTO   C55 7394   5.325   7.998   1.375  0.2892 -0.0878 -0.3142
   18CHTO  H112 7395   5.333   7.990   1.484  3.7059  2.7208 -0.3040
   18CHTO   C56 7396   5.425   8.094   1.321 -0.5678  0.9957 -0.4852
   18CHTO  H113 7397   5.411   8.108   1.213 -1.6298 -1.5581 -0.7174
   18CHTO   O42 7398   5.406   8.217   1.390  0.3906 -0.5046  0.7312
   18CHTO  H100 7399   5.442   8.289   1.342 -1.0592  0.5360  1.1537
   18CHTO   C57 7400   5.578   8.057   1.345  0.1433 -0.0936  0.6875
   18CHTO  H114 7401   5.601   8.078   1.449 -2.2324  1.3619  0.9494
   18CHTO   N10 7402   5.678   8.136   1.275 -0.3090 -0.2973 -0.0893
   18CHTO  H106 7403   5.709   8.094   1.180  2.0123  1.1845 -0.0398
   18CHTO  H107 7404   5.636   8.233   1.255 -1.1880 -0.9927 -1.7126
   18CHTO   C58 7405   5.596   7.905   1.327  0.1476  0.6616  0.0317
   18CHTO  H115 7406   5.597   7.877   1.220 -0.9146  0.6645  0.0220
   18CHTO   O37 7407   5.492   7.814   1.383 -0.0554  0.1230 -0.0318
   18CHTO   C59 7408   5.365   7.849   1.331 -0.0619  0.3017  0.1731
   18CHTO  H116 7409   5.368   7.854   1.222 -1.4674 -1.1610  0.0599
   18CHTO   C70 7410   5.271   7.742   1.384  0.3416  0.4881  0.3360
   18CHTO   O46 7411   5.144   7.744   1.321 -0.1097 -0.4126 -0.0595
   18CHTO  H103 7412   5.104   7.670   1.363  2.4349 -1.8852 -0.1684
   18CHTO   O39 7413   5.752   7.855   1.366  0.1168 -0.3734 -0.0754
   18CHTO   C60 7414   5.757   7.791   1.492 -0.3801  0.7554  0.0063
   18CHTO  H117 7415   5.668   7.806   1.552 -1.1672 -0.5211 -0.8135
   18CHTO   C62 7416   5.763   7.639   1.473 -0.2792  0.1714  0.6258
   18CHTO  H119 7417   5.668   7.609   1.424 -0.1225  0.2316  0.2907
   18CHTO   O43 7418   5.886   7.599   1.405  0.3660 -0.2919  0.1278
   18CHTO  H101 7419   5.957   7.635   1.454 -0.2233  2.7794 -1.1532
   18CHTO   C66 7420   5.757   7.581   1.624  0.2250  0.2293  0.0310
   18CHTO  H123 7421   5.661   7.610   1.666 -1.2969 -2.1479 -1.6758
   18CHTO   N12 7422   5.737   7.435   1.630 -0.8930 -0.3329  0.3342
   18CHTO  H110 7423   5.831   7.389   1.606 -0.7589 -1.2697  2.5156
   18CHTO  H111 7424   5.691   7.400   1.721  1.8408 -1.4801  1.3221
   18CHTO   C69 7425   5.872   7.635   1.711  0.1005 -0.4853  0.0482
   18CHTO  H126 7426   5.973   7.601   1.681  0.2904  0.3101 -0.2225
   18CHTO   O41 7427   5.885   7.773   1.702 -0.3570 -0.0117  0.1039
   18CHTO   C64 7428   5.876   7.839   1.575  0.4632 -0.1050 -0.2289
   18CHTO  H121 7429   5.971   7.824   1.518 -0.1268 -1.1907 -0.9480
   18CHTO   C71 7430   5.872   7.997   1.607 -0.4867  0.1002  0.2309
   18CHTO   O47 7431   5.773   8.038   1.704  0.3159 -0.0667  0.0938
   18CHTO  H104 7432   5.789   8.127   1.729  2.2798 -0.8724  1.9193
   18CHTO   O34 7433   5.831   7.592   1.872  0.4664  0.2416  0.0764
   18CHTO   C49 7434   5.765   7.660   2.001  0.0558  0.2602 -0.1813
   18CHTO   H91 7435   5.841   7.669   2.079  0.4146  1.4135 -0.6619
   18CHTO   C47 7436   5.660   7.563   2.057  0.6824  0.3078  0.4325
   18CHTO   H89 7437   5.620   7.603   2.153 -0.8008 -0.0393 -0.0383
   18CHTO   O33 7438   5.722   7.435   2.086  0.2360 -0.3831 -0.0705
   18CHTO   H70 7439   5.657   7.374   2.116  0.9547 -1.1985 -0.1532
   18CHTO   C45 7440   5.543   7.550   1.948 -0.0169  0.3844 -0.3017
   18CHTO   H87 7441   5.582   7.506   1.855  1.4084 -1.8501  1.2907
   18CHTO    N8 7442   5.431   7.468   1.996 -0.2139  0.2071  0.1409
   18CHTO   H75 7443   5.375   7.519   2.073  0.2906 -0.6086  1.0698
   18CHTO   H76 7444   5.357   7.456   1.919 -0.6456 -1.3080  0.7784
   18CHTO   C43 7445   5.483   7.699   1.903 -0.0368 -0.1975 -0.0910
   18CHTO   H85 7446   5.419   7.685   1.816 -3.2108 -3.0845  2.5619
   18CHTO   O29 7447   5.594   7.785   1.875  0.5877 -0.1032  0.2327
   18CHTO   C50 7448   5.707   7.795   1.956 -0.5491 -0.2346  0.1115
   18CHTO   H92 7449   5.784   7.847   1.897 -0.9776  0.4338  0.1362
   18CHTO   C54 7450   5.689   7.891   2.078 -0.0359 -0.0840  0.4026
   18CHTO   O36 7451   5.817   7.919   2.148  0.2765 -0.4244 -0.1593
   18CHTO   H72 7452   5.805   7.975   2.222  1.3196  0.6922 -0.8196
   18CHTO   O27 7453   5.404   7.756   2.000  0.0679  0.1923  0.2366
   18CHTO   C37 7454   5.330   7.873   2.024 -0.3398  0.0218  0.1551
   18CHTO   H79 7455   5.376   7.928   2.108  1.6130 -0.5359 -0.5320
   18CHTO   C38 7456   5.334   7.965   1.898  0.0337  0.5218  0.5111
   18CHTO   H80 7457   5.309   7.908   1.808 -1.9906 -0.2367  1.5198
   18CHTO   O31 7458   5.464   8.019   1.869 -0.3638 -0.2696 -0.2015
   18CHTO   H68 7459   5.530   7.956   1.893 -3.3873 -3.4893 -0.0169
   18CHTO   C39 7460   5.234   8.086   1.919 -0.3918 -0.4511 -1.0897
   18CHTO   H81 7461   5.276   8.138   2.005  0.5181 -0.2464 -1.6441
   18CHTO    N7 7462   5.227   8.176   1.799 -0.5232  0.2217  0.0640
   18CHTO   H73 7463   5.323   8.223   1.780 -0.0789 -1.0053 -0.8286
   18CHTO   H74 7464   5.147   8.247   1.803 -0.6416  0.1090 -0.3076
   18CHTO   C40 7465   5.095   8.029   1.960  0.3310 -0.3436 -0.3852
   18CHTO   H82 7466   5.059   7.970   1.876  0.9012 -1.9750  0.4929
   18CHTO   O26 7467   5.102   7.949   2.080  0.4979 -0.6354 -0.3841
   18CHTO   C41 7468   5.189   7.835   2.053  0.2824 -0.0812  0.0324
   18CHTO   H83 7469   5.155   7.777   1.966 -0.6578  0.9607 -0.2989
   18CHTO   C52 7470   5.176   7.740   2.182 -0.3254 -0.0167  0.3848
   18CHTO   O35 7471   5.155   7.817   2.319  0.0175  0.1587 -0.3170
   18CHTO   H71 7472   5.067   7.819   2.350  0.0197  1.0185 -0.3425
   18CHTO   O28 7473   5.006   8.135   2.002 -0.1860  0.1990  0.5955
   18CHTO   C42 7474   4.862   8.141   2.017 -0.7420  0.7162  0.6290
   18CHTO   H84 7475   4.844   8.235   2.071 -0.7532 -0.3369  2.5067
   18CHTO   C44 7476   4.794   8.040   2.097  0.0710 -0.1343 -0.2850
   18CHTO   H86 7477   4.820   7.939   2.062  2.6153  0.2259  0.4710
   18CHTO   O32 7478   4.860   8.049   2.220  0.2877  0.0025  0.7398
   18CHTO   H69 7479   4.851   8.122   2.277 -0.0165  2.0947 -1.9091
   18CHTO   C48 7480   4.637   8.059   2.102 -0.0440  0.5952 -0.2775
   18CHTO   H90 7481   4.622   8.157   2.147  0.6639 -0.9050  3.4612
   18CHTO    N9 7482   4.568   7.952   2.183  0.6268 -0.1978 -0.6808
   18CHTO   H77 7483   4.506   7.894   2.117 -1.2808  0.3464  0.5866
   18CHTO   H78 7484   4.634   7.880   2.229 -0.2522 -0.2249  0.5672
   18CHTO   C51 7485   4.583   8.077   1.951 -0.1478 -0.1399  0.4627
   18CHTO   H93 7486   4.585   7.984   1.894 -0.2759 -1.5376  2.6957
   18CHTO   O30 7487   4.665   8.181   1.890  0.0653 -0.3571  0.2875
   18CHTO   C46 7488   4.795   8.160   1.875  0.5245 -0.0952 -0.4980
   18CHTO   H88 7489   4.819   8.077   1.809  3.6081  0.2515  0.1350
   18CHTO   C53 7490   4.865   8.282   1.809 -0.3142 -0.6895 -0.5489
   18CHTO   O72 7491   4.832   8.302   1.672  0.0142 -0.2909 -0.3977
   18CHTO  H199 7492   4.846   8.391   1.645  0.9081  0.1428  1.4613
   18CHTO   O22 7493   4.447   8.137   1.951  1.0590  0.2026 -0.5438
   18CHTO   C31 7494   4.360   8.138   1.826  0.0668 -0.2605  0.0995
   18CHTO   H59 7495   4.265   8.188   1.855 -0.3197 -1.3470  0.7285
   18CHTO   C29 7496   4.419   8.217   1.704  0.4707 -0.6506 -0.5104
   18CHTO   H57 7497   4.517   8.171   1.683  1.7989  1.4762  0.7873
   18CHTO   O21 7498   4.457   8.348   1.739 -0.4067 -0.4644 -0.1944
   18CHTO   H37 7499   4.524   8.386   1.686 -1.4013  1.7111  0.0617
   18CHTO   C27 7500   4.323   8.219   1.570 -0.0726  0.4464  0.2318
   18CHTO   H55 7501   4.228   8.268   1.594 -0.2468 -0.4352  1.3683
   18CHTO    N5 7502   4.373   8.275   1.451  0.1588  0.2293 -0.2914
   18CHTO   H43 7503   4.303   8.349   1.415  1.9698  3.0860  1.8606
   18CHTO   H44 7504   4.468   8.322   1.473 -0.2940  0.8990  0.2324
   18CHTO   C25 7505   4.282   8.071   1.544  1.0266 -0.0121  0.4946
   18CHTO   H53 7506   4.365   8.013   1.501  1.7933  0.7470  0.9351
   18CHTO   O17 7507   4.226   8.012   1.671 -0.4296 -0.0044  1.0624
   18CHTO   C32 7508   4.318   8.000   1.782 -0.6584 -0.0779 -0.3376
   18CHTO   H60 7509   4.407   7.943   1.755  1.0160  0.5734  3.5680
   18CHTO   C36 7510   4.251   7.922   1.893 -0.2780  0.4918 -0.6236
   18CHTO   O25 7511   4.241   7.781   1.872  0.2014  0.3315 -0.2239
   18CHTO   H40 7512   4.257   7.735   1.952 -0.2893  0.4515 -0.0517
   18CHTO   O15 7513   4.161   8.060   1.419 -0.0633 -0.5102 -0.4045
   18CHTO   C19 7514   4.137   7.947   1.340  0.6207  0.8982 -0.0041
   18CHTO   H47 7515   4.027   7.945   1.332  0.5094 -0.9337  1.5215
   18CHTO   C20 7516   4.190   7.953   1.187  0.6250  0.8636  0.6608
   18CHTO   H48 7517   4.300   7.956   1.182  0.7588 -2.1020  1.0811
   18CHTO   O19 7518   4.142   8.073   1.122  0.4833 -0.0020 -0.3218
   18CHTO   H35 7519   4.131   8.143   1.184  1.6277  0.5176 -0.6835
   18CHTO   C21 7520   4.145   7.829   1.109  0.3879 -0.4661 -0.4847
   18CHTO   H49 7521   4.037   7.817   1.110  0.5455 -1.9381  0.0672
   18CHTO    N4 7522   4.181   7.825   0.963  0.2598  0.0090 -0.2381
   18CHTO   H41 7523   4.284   7.844   0.937  0.5098  1.1805  1.5092
   18CHTO   H42 7524   4.112   7.887   0.907  1.5057  2.2380  0.6144
   18CHTO   C22 7525   4.200   7.706   1.185  1.0286 -0.3614 -0.7195
   18CHTO   H50 7526   4.309   7.714   1.180  1.0247 -0.1673 -0.5141
   18CHTO   O14 7527   4.146   7.702   1.322  0.6138  0.0587  0.2241
   18CHTO   C23 7528   4.180   7.806   1.396 -0.1080 -0.2078 -0.2309
   18CHTO   H51 7529   4.288   7.803   1.417  0.9048  2.0453 -4.4768
   18CHTO   C34 7530   4.108   7.773   1.531 -0.1555  0.8484  0.2635
   18CHTO   O23 7531   4.168   7.654   1.592 -0.6434  0.0096 -0.3601
   18CHTO   H38 7532   4.151   7.586   1.531  0.6577 -0.2487 -0.4553
   18CHTO   O16 7533   4.156   7.573   1.139  0.6294  0.3689 -0.3346
   18CHTO   C24 7534   4.277   7.459   1.117  0.2837 -0.4397  0.2124
   18CHTO   H52 7535   4.375   7.502   1.136  1.6756 -2.3716 -2.4389
   18CHTO   C26 7536   4.274   7.405   0.975  0.0224 -0.3520 -0.6229
   18CHTO   H54 7537   4.176   7.357   0.961 -0.4662  0.0364  1.2159
   18CHTO   O20 7538   4.303   7.522   0.897  0.3942 -0.0447 -0.5659
   18CHTO   H36 7539   4.239   7.542   0.831 -0.3117  1.7515  0.6005
   18CHTO   C30 7540   4.390   7.298   0.958  0.0771  0.4259  0.1315
   18CHTO   H58 7541   4.488   7.347   0.946 -0.3602  0.9017 -1.6224
   18CHTO    N6 7542   4.386   7.233   0.825 -0.3822 -0.3478  0.7732
   18CHTO   H45 7543   4.333   7.139   0.835 -3.0091  0.9969  0.0838
   18CHTO   H46 7544   4.487   7.218   0.790 -0.8125  1.3751 -1.2792
   18CHTO   C33 7545   4.392   7.196   1.077  0.0454  0.2183  0.3467
   18CHTO   H61 7546   4.310   7.124   1.069 -0.2958  0.6165  0.2525
   18CHTO   O18 7547   4.375   7.258   1.204  0.4235 -0.6760  0.1546
   18CHTO   C28 7548   4.264   7.344   1.219  0.9966 -0.4295  0.2619
   18CHTO   H56 7549   4.172   7.287   1.203  0.4982 -0.0583  1.7509
   18CHTO   C35 7550   4.255   7.402   1.363  0.5556 -0.2855  0.0495
   18CHTO   O24 7551   4.243   7.297   1.457 -0.5938  0.4648  0.2240
   18CHTO   H39 7552   4.209   7.334   1.536 -0.3708  0.7231  0.2043
   18CHTO    O9 7553   4.514   7.116   1.069  0.4385 -0.5751 -0.3099
   18CHTO   C13 7554   4.634   7.150   1.182 -0.3810  0.2435  0.3743
   18CHTO   H26 7555   4.591   7.121   1.280 -1.9891  0.1654 -0.3339
   18CHTO   C11 7556   4.687   7.301   1.174 -0.4825  0.1088 -0.0887
   18CHTO   H24 7557   4.606   7.365   1.213 -0.5256  0.3415 -0.5590
   18CHTO    O8 7558   4.710   7.345   1.042 -0.4422  0.6286 -0.4757
   18CHTO    H3 7559   4.731   7.436   1.045  0.9302  0.2640  1.6322
   18CHTO    C9 7560   4.807   7.307   1.269 -0.6080 -0.3132 -0.0113
   18CHTO   H22 7561   4.772   7.287   1.372 -2.7353 -0.1014 -0.6683
   18CHTO    N2 7562   4.862   7.444   1.289 -0.0510  0.1518  0.4501
   18CHTO   H10 7563   4.969   7.450   1.297 -0.0956  1.3009  0.2650
   18CHTO   H11 7564   4.813   7.503   1.366 -0.1711  0.1877  0.3459
   18CHTO    C7 7565   4.920   7.203   1.225 -0.2031  0.1257 -0.2084
   18CHTO   H20 7566   4.994   7.216   1.307 -0.3326 -2.0510  0.2800
   18CHTO    O4 7567   4.866   7.070   1.217  0.3843  0.9909  0.1583
   18CHTO   C14 7568   4.745   7.044   1.142 -0.3803 -0.8407  0.0092
   18CHTO   H27 7569   4.709   6.942   1.167  0.5264 -1.7469 -2.2726
   18CHTO   C18 7570   4.779   7.042   0.990  0.1882  0.2447  0.2237
   18CHTO   O13 7571   4.836   6.916   0.957 -0.0648 -0.1289  0.2365
   18CHTO    H7 7572   4.910   6.923   0.901 -1.2276 -2.0575 -1.6040
   18CHTO    O2 7573   4.983   7.237   1.080 -0.4918 -0.0788  0.1021
   18CHTO    C1 7574   5.117   7.275   1.050  0.2440  0.1530 -0.0069
   18CHTO   H14 7575   5.154   7.210   0.968 -1.9925  0.7963 -1.5739
   18CHTO    C2 7576   5.219   7.271   1.170  0.2514 -0.1581  0.0560
   18CHTO   H15 7577   5.177   7.321   1.259 -0.2504  1.5140 -1.0859
   18CHTO    O6 7578   5.245   7.134   1.208 -0.5096 -0.0409  0.3360
   18CHTO    H1 7579   5.292   7.088   1.141  0.0888  4.0146 -2.2365
   18CHTO    C3 7580   5.362   7.346   1.135 -0.1757 -0.2685  0.3281
   18CHTO   H16 7581   5.419   7.279   1.069  1.9615  2.3018 -0.5353
   18CHTO    N1 7582   5.440   7.357   1.265  0.4675 -0.1579  0.8778
   18CHTO    H8 7583   5.541   7.389   1.244 -0.5326  2.2484 -0.4634
   18CHTO    H9 7584   5.387   7.425   1.331  0.3771 -1.6662  2.3650
   18CHTO    C4 7585   5.348   7.476   1.060 -0.1727  0.0976  0.4440
   18CHTO   H17 7586   5.319   7.554   1.131  1.8110  1.3966 -0.1298
   18CHTO    O1 7587   5.249   7.464   0.957 -0.1767 -0.2485  0.5059
   18CHTO    C5 7588   5.117   7.420   0.992  0.3198  0.2005  0.3946
   18CHTO   H18 7589   5.083   7.488   1.070  2.0083  3.4434 -1.5581
   18CHTO   C16 7590   5.044   7.442   0.857 -0.2743  0.0131  0.7708
   18CHTO   O11 7591   4.900   7.439   0.861 -0.3531 -0.6626  0.3346
   18CHTO    H5 7592   4.862   7.524   0.874  0.1494 -0.5828  1.3854
   18CHTO    O3 7593   5.461   7.507   0.981 -0.4411 -0.2723 -0.4688
   18CHTO    C6 7594   5.561   7.605   1.025  0.0483 -0.5697 -0.0506
   18CHTO   H19 7595   5.541   7.640   1.126 -1.3870  1.2307 -0.9202
   18CHTO    C8 7596   5.699   7.533   1.001  0.6828  0.0243 -0.1052
   18CHTO   H21 7597   5.706   7.509   0.895  0.2270 -0.6201  0.0101
   18CHTO    O7 7598   5.696   7.412   1.080 -0.1741  0.1512  0.4086
   18CHTO    H2 7599   5.702   7.419   1.173  1.3348 -0.5553  0.3787
   18CHTO   C12 7600   5.811   7.633   1.045  0.5647 -0.3859  0.5991
   18CHTO   H25 7601   5.818   7.651   1.155  1.8201  0.7277  0.3600
   18CHTO    N3 7602   5.950   7.569   1.011 -0.1322  0.2772  0.0491
   18CHTO   H12 7603   6.008   7.628   0.941  1.6235 -0.1235  1.1357
   18CHTO   H13 7604   5.942   7.466   0.980  2.0155  0.0513  0.1729
   18CHTO   C15 7605   5.793   7.774   0.974 -0.3717  0.3751  0.0959
   18CHTO   H28 7606   5.833   7.778   0.873  2.4308 -0.6287  1.1023
   18CHTO   O10 7607   5.880   7.883   1.051 -0.6930 -0.2631  0.3872
   18CHTO    H4 7608   5.948   7.847   1.105 -0.3895 -1.0700 -0.5154
   18CHTO    O5 7609   5.656   7.826   0.984  0.0685  0.1050 -0.1070
   18CHTO   C10 7610   5.566   7.731   0.937  0.0911 -0.5010 -0.0428
   18CHTO   H23 7611   5.594   7.716   0.832 -1.0024 -0.0199 -0.4096
   18CHTO   C17 7612   5.442   7.814   0.941 -0.5054 -0.6231 -0.0327
   18CHTO   O12 7613   5.331   7.746   0.897 -0.3344 -0.2346 -0.2366
   18CHTO    H6 7614   5.268   7.812   0.874 -0.0232  0.0021 -0.4116
   19CHTO  H203 7615   5.343   9.325   0.138  1.3953 -1.2464  3.5813
   19CHTO   O82 7616   5.420   9.304   0.089 -0.1503  0.4574  0.2850
   19CHTO  C123 7617   5.390   9.206  -0.013  0.1636  0.2229  0.4507
   19CHTO  H227 7618   5.370   9.258  -0.108  1.0018 -0.8519 -0.3170
   19CHTO   O77 7619   5.514   9.129  -0.014  0.7073 -0.4883  0.1832
   19CHTO  C118 7620   5.514   9.008  -0.089 -0.2683 -0.0780 -0.0153
   19CHTO  H222 7621   5.504   9.023  -0.197  1.7925 -1.3574 -0.4035
   19CHTO  C125 7622   5.660   8.948  -0.063 -0.1645 -0.0025  0.5619
   19CHTO   O84 7623   5.753   9.046  -0.111 -0.4408  0.2605  0.8822
   19CHTO  H205 7624   5.797   9.083  -0.037  2.5219 -1.9660  0.3336
   19CHTO  C114 7625   5.412   8.913  -0.043  0.3287  1.1533  0.1305
   19CHTO  H218 7626   5.434   8.884   0.060 -1.6202  1.7692  0.7438
   19CHTO  C116 7627   5.269   8.980  -0.045 -0.1518 -0.6626  0.3125
   19CHTO  H220 7628   5.238   8.997  -0.150  2.3017  1.7569 -0.0669
   19CHTO   O79 7629   5.163   8.888   0.003 -0.8851 -0.5757 -0.2911
   19CHTO  H201 7630   5.073   8.910  -0.011 -1.1104 -2.6519 -2.5667
   19CHTO  C120 7631   5.264   9.118   0.031  0.1610 -0.0676 -0.1003
   19CHTO  H224 7632   5.288   9.098   0.137  1.4039  0.2059 -0.3246
   19CHTO   N21 7633   5.136   9.190   0.021  0.0132 -0.1867 -0.2854
   19CHTO  H211 7634   5.075   9.104  -0.003  2.7171 -2.3011  0.1170
   19CHTO  H212 7635   5.112   9.236   0.115  3.1037 -2.1332  1.5627
   19CHTO   O75 7636   5.424   8.792  -0.124  0.6063  0.9291  0.2860
   19CHTO  C112 7637   5.457   8.661  -0.042  0.0111 -0.3690 -0.1793
   19CHTO  H216 7638   5.435   8.670   0.065 -2.9381  0.7450 -0.8303
   19CHTO   O73 7639   5.600   8.635  -0.069  0.5768  0.1209 -0.6757
   19CHTO  C113 7640   5.646   8.501  -0.029  0.1390  0.0560  0.4993
   19CHTO  H217 7641   5.641   8.492   0.082 -1.1921  1.6886  0.5891
   19CHTO  C124 7642   5.795   8.490  -0.073  0.2283 -0.1692 -1.0340
   19CHTO   O83 7643   5.872   8.602  -0.030  0.7453  0.2245  0.4330
   19CHTO  H204 7644   5.958   8.584  -0.064  0.8049 -0.2133  0.8072
   19CHTO  C109 7645   5.566   8.385  -0.100 -0.1492 -0.3697  0.0266
   19CHTO  H213 7646   5.579   8.399  -0.208 -2.1164  1.4422  0.0071
   19CHTO  C110 7647   5.417   8.403  -0.059  0.4553  0.3822  0.0486
   19CHTO  H214 7648   5.419   8.383   0.048 -0.1087 -0.3272 -0.0719
   19CHTO   O78 7649   5.336   8.295  -0.118  0.9172 -0.2265 -0.1015
   19CHTO  H200 7650   5.254   8.288  -0.072 -0.5738  2.3393 -2.2140
   19CHTO  C111 7651   5.362   8.543  -0.097  0.9709 -0.2590 -0.4882
   19CHTO  H215 7652   5.367   8.563  -0.205 -1.0532  1.0117 -0.3739
   19CHTO   N19 7653   5.219   8.558  -0.057 -0.3983  0.1371  0.4110
   19CHTO  H207 7654   5.182   8.658  -0.071 -0.0049  0.2570  0.2189
   19CHTO  H208 7655   5.199   8.542   0.048 -0.1194 -0.3526  0.3931
   19CHTO   O74 7656   5.623   8.257  -0.062 -0.7585 -0.3661  0.2068
   19CHTO  C115 7657   5.596   8.138  -0.175 -0.1727 -0.0608  0.2400
   19CHTO  H219 7658   5.491   8.111  -0.184  0.0596 -0.7516 -0.5244
   19CHTO   O76 7659   5.642   8.179  -0.305  0.0659 -0.1273 -0.4773
   19CHTO  C122 7660   5.625   8.095  -0.415 -0.5255 -0.4929  0.2919
   19CHTO  H226 7661   5.690   8.151  -0.482  0.7302 -0.4009  1.5525
   19CHTO  C126 7662   5.475   8.111  -0.470 -0.0759 -0.1401 -0.1965
   19CHTO   O85 7663   5.458   8.047  -0.597  0.2020 -0.0341 -0.3384
   19CHTO  H206 7664   5.436   7.955  -0.594 -1.2556  0.3315  0.6322
   19CHTO  C121 7665   5.664   7.951  -0.389 -0.8826 -0.2984 -0.1302
   19CHTO  H225 7666   5.617   7.887  -0.467 -1.1354  1.5354 -1.4952
   19CHTO   O81 7667   5.800   7.936  -0.406  0.4749  0.3092 -0.0359
   19CHTO  H202 7668   5.848   7.969  -0.332 -1.5580  2.8513  0.2206
   19CHTO  C119 7669   5.621   7.900  -0.244 -0.1877 -0.2172  0.1825
   19CHTO  H223 7670   5.512   7.894  -0.246 -0.1424 -1.2725  0.5275
   19CHTO  C117 7671   5.665   8.002  -0.131  0.3739  0.1444  0.6744
   19CHTO  H221 7672   5.771   8.028  -0.125  0.1778  1.4038 -0.9745
   19CHTO   N20 7673   5.629   7.956   0.009  0.4057  0.4257  0.1791
   19CHTO  H209 7674   5.673   8.022   0.082  2.0053 -1.8692  1.3468
   19CHTO  H210 7675   5.653   7.854   0.036  2.5464  1.2169  1.4032
   19CHTO   O80 7676   5.660   7.728  -0.224 -0.3644  0.2942  0.1075
   19CHTO  C103 7677   5.589   7.628  -0.307 -0.0925  0.0321  0.6564
   19CHTO  H190 7678   5.525   7.677  -0.381  0.9545  0.4386  0.0038
   19CHTO  C101 7679   5.682   7.526  -0.384 -0.5270 -0.1777  0.2357
   19CHTO  H188 7680   5.745   7.476  -0.311 -0.4123  0.4604  0.5783
   19CHTO   O68 7681   5.774   7.593  -0.493 -0.9496  0.4782 -0.1309
   19CHTO  H168 7682   5.819   7.527  -0.543 -1.1381 -0.1171  0.4848
   19CHTO   C99 7683   5.590   7.411  -0.454  0.1368 -0.0651  0.1348
   19CHTO  H186 7684   5.536   7.473  -0.529  0.4592  0.6880  0.5197
   19CHTO   N17 7685   5.666   7.297  -0.527  0.5393 -0.4583  0.2659
   19CHTO  H174 7686   5.690   7.206  -0.473  0.8279 -1.7424 -1.9560
   19CHTO  H175 7687   5.615   7.275  -0.619  1.9418  1.4605 -1.0072
   19CHTO   C97 7688   5.482   7.362  -0.353  0.0702  0.1356  0.2788
   19CHTO  H184 7689   5.537   7.295  -0.286 -0.2035  0.6120  0.9856
   19CHTO   O64 7690   5.410   7.462  -0.284  0.3365 -0.6262 -0.3624
   19CHTO  C104 7691   5.493   7.548  -0.206  0.1082  0.4997 -0.5459
   19CHTO  H191 7692   5.554   7.491  -0.135 -0.4876  1.5651  0.8325
   19CHTO  C108 7693   5.411   7.638  -0.109 -0.2035  0.2424  0.1585
   19CHTO   O71 7694   5.327   7.729  -0.177  0.0322 -0.4953  0.3431
   19CHTO  H171 7695   5.264   7.750  -0.111  0.8045 -1.2176  1.3352
   19CHTO   O62 7696   5.386   7.289  -0.426 -0.2335 -0.0098  0.2307
   19CHTO   C91 7697   5.270   7.233  -0.360  0.4840 -0.0643 -0.7102
   19CHTO  H178 7698   5.259   7.284  -0.264  1.5970  0.8280 -1.0459
   19CHTO   C92 7699   5.288   7.082  -0.326 -0.1325 -0.3487  0.0144
   19CHTO  H179 7700   5.333   7.033  -0.414  1.5969  0.5876  0.3571
   19CHTO   O66 7701   5.390   7.075  -0.223  0.3742 -0.0106  0.3079
   19CHTO  H166 7702   5.392   6.990  -0.183 -0.0975  0.9823  2.4811
   19CHTO   C93 7703   5.155   7.016  -0.277 -0.3912 -0.0433  0.0593
   19CHTO  H180 7704   5.132   7.051  -0.175 -1.9051 -1.6448  0.2887
   19CHTO   N16 7705   5.156   6.869  -0.272  0.2402 -0.0757 -0.4168
   19CHTO  H172 7706   5.244   6.831  -0.323  1.1731  1.3955  0.0876
   19CHTO  H173 7707   5.159   6.830  -0.171  0.5229  1.6201  0.2384
   19CHTO   C94 7708   5.032   7.065  -0.372 -1.1429  0.0729 -0.2209
   19CHTO  H181 7709   5.049   7.036  -0.476  1.8938 -0.6416  0.4018
   19CHTO   O61 7710   5.023   7.206  -0.364  0.0253 -0.4665  0.0768
   19CHTO   C95 7711   5.133   7.266  -0.429  0.0246  0.3919 -0.3352
   19CHTO  H182 7712   5.135   7.235  -0.534 -1.0678  1.5628 -0.7164
   19CHTO  C106 7713   5.100   7.424  -0.444 -0.3277 -0.1633 -0.3714
   19CHTO   O69 7714   5.193   7.485  -0.537 -0.4278 -0.3635  0.1254
   19CHTO  H169 7715   5.265   7.432  -0.563  0.0377  0.5076 -0.3839
   19CHTO   O63 7716   4.900   7.020  -0.326 -0.4553 -0.3429  0.3816
   19CHTO   C96 7717   4.843   6.886  -0.394  0.4343 -0.7923  0.1236
   19CHTO  H183 7718   4.925   6.817  -0.412  0.4013 -0.8988  0.3793
   19CHTO   C98 7719   4.771   6.916  -0.527  0.4184  1.0059 -0.6678
   19CHTO  H185 7720   4.843   6.974  -0.587  2.6737 -0.0106  0.9617
   19CHTO   O67 7721   4.736   6.795  -0.597  0.0780  0.1326  0.2230
   19CHTO  H167 7722   4.782   6.799  -0.679 -1.1050  0.1940 -0.4491
   19CHTO  C102 7723   4.639   7.006  -0.503 -0.1607 -0.2724  0.6140
   19CHTO  H189 7724   4.569   6.978  -0.583 -0.6270 -1.0406  1.2751
   19CHTO   N18 7725   4.656   7.150  -0.509  0.0549  0.2906  0.0704
   19CHTO  H176 7726   4.703   7.181  -0.600 -1.3822  2.3824 -0.0103
   19CHTO  H177 7727   4.719   7.177  -0.425  0.8741 -1.2712 -0.0358
   19CHTO  C105 7728   4.564   6.964  -0.377  0.6342 -0.1226 -0.4765
   19CHTO  H192 7729   4.588   7.029  -0.293  0.6002  0.7809 -1.1587
   19CHTO   O65 7730   4.600   6.831  -0.329  0.4117 -0.1893  0.1977
   19CHTO  C100 7731   4.737   6.806  -0.308  0.1711 -0.2940  0.1768
   19CHTO  H187 7732   4.758   6.845  -0.207 -0.1605  1.7352 -0.5198
   19CHTO  C107 7733   4.761   6.647  -0.302  0.3356 -0.5299  0.6925
   19CHTO   O70 7734   4.894   6.596  -0.274 -0.1627  0.4878 -0.1776
   19CHTO  H170 7735   4.927   6.558  -0.353 -0.3062 -1.2246  0.5409
   19CHTO   O57 7736   4.411   6.973  -0.416 -0.8200  0.2400  0.3291
   19CHTO   C85 7737   4.306   6.941  -0.321  0.3665 -0.1407  0.7769
   19CHTO  H157 7738   4.349   6.904  -0.226 -0.2482 -0.4128  0.9534
   19CHTO   C83 7739   4.227   6.819  -0.370  0.3696 -0.4270  0.1534
   19CHTO  H155 7740   4.294   6.734  -0.379  0.6195 -0.3725  1.4272
   19CHTO   O56 7741   4.194   6.837  -0.507  0.6879 -0.1175 -0.3106
   19CHTO  H135 7742   4.102   6.854  -0.507  0.9212  1.2392  0.8121
   19CHTO   C81 7743   4.110   6.776  -0.273 -0.1007  0.2907  0.1087
   19CHTO  H153 7744   4.151   6.759  -0.174  2.1088  1.3583 -0.5896
   19CHTO   N14 7745   4.044   6.649  -0.309  0.2754  0.2426  0.1143
   19CHTO  H141 7746   3.958   6.648  -0.372  0.8321  1.8109 -0.6774
   19CHTO  H142 7747   4.114   6.575  -0.343 -1.4710 -0.3562 -2.2983
   19CHTO   C79 7748   4.010   6.900  -0.269  0.7388  0.3389 -0.4803
   19CHTO  H151 7749   3.940   6.886  -0.186 -2.4028 -0.8253 -3.2174
   19CHTO   O52 7750   4.078   7.025  -0.238  0.2786  0.6015 -0.3092
   19CHTO   C86 7751   4.202   7.060  -0.303 -0.1770 -0.1872  0.6146
   19CHTO  H158 7752   4.179   7.095  -0.406 -1.7108  0.1877  1.0787
   19CHTO   C90 7753   4.262   7.182  -0.225  0.0909  0.2515  0.4797
   19CHTO   O60 7754   4.324   7.151  -0.099  0.4738 -0.1978 -0.0135
   19CHTO  H138 7755   4.261   7.162  -0.030 -0.5139 -0.0273 -0.9246
   19CHTO   O50 7756   3.932   6.909  -0.387 -0.3783 -0.4654 -0.2290
   19CHTO   C73 7757   3.790   6.929  -0.421 -0.1399 -0.3906  0.7697
   19CHTO  H145 7758   3.722   6.874  -0.354  1.0843  0.2139  2.5519
   19CHTO   C74 7759   3.765   6.879  -0.570  0.0080  0.5609 -0.1422
   19CHTO  H146 7760   3.790   6.772  -0.576 -3.0298 -0.3480  2.0080
   19CHTO   O54 7761   3.623   6.893  -0.596 -0.1371 -0.0892 -0.0416
   19CHTO  H133 7762   3.572   6.836  -0.542 -1.6575  1.2323 -0.0362
   19CHTO   C75 7763   3.852   6.967  -0.667  0.2536 -0.3350 -0.7030
   19CHTO  H147 7764   3.959   6.948  -0.650  0.7761  2.9493  0.0458
   19CHTO   N13 7765   3.854   6.935  -0.810 -0.2068  0.5631  0.4322
   19CHTO  H139 7766   3.871   7.025  -0.868  1.0398 -0.1652 -0.3372
   19CHTO  H140 7767   3.763   6.889  -0.846  0.8057 -0.5495 -0.7093
   19CHTO   C76 7768   3.832   7.121  -0.643 -0.7023 -0.5173  0.4606
   19CHTO  H148 7769   3.737   7.163  -0.678 -0.6772 -0.7677  0.0777
   19CHTO   O49 7770   3.843   7.157  -0.498  0.0537  0.2215 -0.1544
   19CHTO   C77 7771   3.753   7.083  -0.413 -0.2174  0.5463 -0.5119
   19CHTO  H149 7772   3.647   7.098  -0.435 -0.9507 -0.8515  1.8699
   19CHTO   C88 7773   3.766   7.149  -0.273  0.4308 -0.8240 -0.2620
   19CHTO   O58 7774   3.645   7.245  -0.240 -0.0568  0.3028  0.0288
   19CHTO  H136 7775   3.648   7.321  -0.294 -0.5066  1.4166  1.5453
   19CHTO   O51 7776   3.971   7.211  -0.705 -0.4207  0.0752 -0.4783
   19CHTO   C78 7777   3.947   7.370  -0.689  0.1153 -0.4992  0.9782
   19CHTO  H150 7778   3.867   7.397  -0.617  1.2093 -0.1542  2.0686
   19CHTO   C80 7779   3.915   7.428  -0.823 -0.1384 -1.0411  0.7564
   19CHTO  H152 7780   3.992   7.390  -0.894  1.0418  0.4748  1.1994
   19CHTO   O55 7781   3.787   7.379  -0.877  0.2514 -0.4171 -0.2394
   19CHTO  H134 7782   3.791   7.286  -0.867  1.2264 -0.6583 -2.7418
   19CHTO   C84 7783   3.916   7.586  -0.833  0.2749  1.3620  1.3459
   19CHTO  H156 7784   3.823   7.604  -0.780 -0.1718  2.7505  0.1111
   19CHTO   N15 7785   3.899   7.643  -0.967 -0.3057  0.2107  0.5067
   19CHTO  H143 7786   3.923   7.747  -0.973 -1.2527  0.5005  1.5661
   19CHTO  H144 7787   3.947   7.598  -1.051 -1.8128  1.4532 -1.0536
   19CHTO   C87 7788   4.041   7.644  -0.759 -0.0341 -0.1513  0.2756
   19CHTO  H159 7789   4.121   7.642  -0.834 -1.9691 -1.1907 -1.8259
   19CHTO   O53 7790   4.081   7.571  -0.637 -0.6236 -0.0199 -0.0870
   19CHTO   C82 7791   4.078   7.430  -0.638 -0.1386 -0.0968 -0.1424
   19CHTO  H154 7792   4.165   7.394  -0.693  0.5631  3.5044 -1.5315
   19CHTO   C89 7793   4.104   7.392  -0.485 -0.7434 -0.1585 -0.2781
   19CHTO   O59 7794   4.025   7.450  -0.376  0.6097  0.2012 -0.2154
   19CHTO  H137 7795   3.934   7.441  -0.397  0.6693  0.1624 -0.4530
   19CHTO   O45 7796   3.992   7.807  -0.722  0.4831  0.2674 -0.0324
   19CHTO   C67 7797   3.983   7.834  -0.582 -0.4345 -0.1854 -0.4334
   19CHTO  H124 7798   3.956   7.738  -0.540 -1.0603  0.2053  0.0670
   19CHTO   C65 7799   4.129   7.870  -0.526 -0.3166 -0.5629  0.3351
   19CHTO  H122 7800   4.184   7.899  -0.616 -1.7589 -1.0714 -0.7259
   19CHTO   O44 7801   4.174   7.751  -0.464  0.1772  0.2663  0.1127
   19CHTO  H102 7802   4.264   7.769  -0.443  0.8395  0.2160 -2.4529
   19CHTO   C63 7803   4.120   8.001  -0.437 -0.3403  0.1584 -0.5037
   19CHTO  H120 7804   4.080   8.085  -0.494 -1.0093  0.6931  0.7509
   19CHTO   N11 7805   4.248   8.051  -0.377 -0.2654 -0.2597 -0.1830
   19CHTO  H108 7806   4.335   7.989  -0.382  1.3781  1.8791  0.9510
   19CHTO  H109 7807   4.260   8.151  -0.415  1.3994  0.0631  1.1174
   19CHTO   C61 7808   4.010   7.990  -0.328  0.6433 -0.2903 -0.0927
   19CHTO  H118 7809   3.999   8.089  -0.283 -0.4795 -0.8225  0.8079
   19CHTO   O40 7810   3.879   7.961  -0.399 -0.2609  0.3260  0.0254
   19CHTO   C68 7811   3.868   7.936  -0.538 -0.2346  0.3756 -0.1278
   19CHTO  H125 7812   3.882   8.034  -0.587  1.8907  1.1506  1.9429
   19CHTO   C72 7813   3.730   7.889  -0.571 -0.7547  0.6882  0.2851
   19CHTO   O48 7814   3.719   7.840  -0.707  0.2578  0.0194  0.3859
   19CHTO  H105 7815   3.629   7.819  -0.720  0.4796  1.1808 -3.7375
   19CHTO   O38 7816   4.041   7.880  -0.234  0.3321  0.0726  0.1234
   19CHTO   C55 7817   3.952   7.879  -0.120 -0.2269  0.1440  0.0030
   19CHTO  H112 7818   3.856   7.930  -0.141 -0.0548  0.3817 -0.2079
   19CHTO   C56 7819   4.028   7.954  -0.002  0.4003  0.3147 -0.3277
   19CHTO  H113 7820   4.133   7.923  -0.005  0.7735  1.6788 -2.4828
   19CHTO   O42 7821   4.030   8.095  -0.012 -0.8790 -0.1200  0.2807
   19CHTO  H100 7822   3.948   8.127  -0.045 -1.2064 -1.5798 -0.3684
   19CHTO   C57 7823   3.963   7.911   0.134 -0.6308 -0.7862 -0.2780
   19CHTO  H114 7824   3.942   8.004   0.186 -0.4955 -1.1259  0.3986
   19CHTO   N10 7825   4.058   7.851   0.227  0.4113  0.2646  0.0083
   19CHTO  H106 7826   4.024   7.823   0.326  0.4859  1.9631  0.5245
   19CHTO  H107 7827   4.156   7.894   0.236  0.4045  0.2005  0.4358
   19CHTO   C58 7828   3.832   7.827   0.131 -0.4592  0.0076 -0.4362
   19CHTO  H115 7829   3.795   7.805   0.233  0.0763  1.3745  0.0649
   19CHTO   O37 7830   3.845   7.709   0.044  0.3585 -0.2679 -0.2736
   19CHTO   C59 7831   3.916   7.728  -0.083 -0.2732  0.3904 -0.1403
   19CHTO  H116 7832   4.011   7.676  -0.081 -0.7706 -0.5122  2.2390
   19CHTO   C70 7833   3.829   7.653  -0.192  0.0965  0.2568 -0.2062
   19CHTO   O46 7834   3.803   7.516  -0.173 -0.2259  0.0684 -0.4852
   19CHTO  H103 7835   3.729   7.501  -0.228 -0.9343  0.3006  0.3976
   19CHTO   O39 7836   3.720   7.937   0.067 -0.5198  0.3272  0.0139
   19CHTO   C60 7837   3.616   7.901  -0.024  0.6581 -0.7975  0.6465
   19CHTO  H117 7838   3.653   7.873  -0.123  1.3082  2.0509  0.0592
   19CHTO   C62 7839   3.543   7.778   0.033  0.6790  0.2229 -0.4108
   19CHTO  H119 7840   3.619   7.699   0.023  3.6680  2.8217  0.8723
   19CHTO   O43 7841   3.503   7.805   0.171  0.3423 -0.4377 -0.5967
   19CHTO  H101 7842   3.479   7.728   0.220  0.5776 -0.3859 -0.3997
   19CHTO   C66 7843   3.418   7.743  -0.058 -0.0955  0.2714 -0.0238
   19CHTO  H123 7844   3.457   7.731  -0.159 -1.4082 -0.6625 -0.4421
   19CHTO   N12 7845   3.342   7.617  -0.025 -0.7655  0.0642 -0.1880
   19CHTO  H110 7846   3.247   7.625  -0.076 -0.1804  0.5314 -1.2241
   19CHTO  H111 7847   3.395   7.538  -0.076 -0.5667  0.0959 -0.0300
   19CHTO   C69 7848   3.321   7.871  -0.067 -0.4541 -0.5385 -0.5841
   19CHTO  H126 7849   3.284   7.894   0.035  2.2226 -0.7746  0.4752
   19CHTO   O41 7850   3.405   7.982  -0.124  0.1446  0.2603  0.0193
   19CHTO   C64 7851   3.520   8.021  -0.051 -0.4026  0.2677  0.0558
   19CHTO  H121 7852   3.494   8.058   0.051  0.1442 -0.0215  0.3032
   19CHTO   C71 7853   3.597   8.134  -0.134 -0.2405  0.3052 -0.2426
   19CHTO   O47 7854   3.519   8.240  -0.189  0.1680 -0.3203  0.1642
   19CHTO  H104 7855   3.497   8.218  -0.277 -0.4771 -1.5127  0.6106
   19CHTO   O34 7856   3.202   7.845  -0.147 -0.1996 -0.5204  0.4747
   19CHTO   C49 7857   3.096   7.943  -0.193 -0.8967  0.7305 -0.1822
   19CHTO   H91 7858   3.107   8.032  -0.132 -2.0140  0.9051 -0.2225
   19CHTO   C47 7859   2.962   7.861  -0.176 -0.4906 -0.3697 -0.2632
   19CHTO   H89 7860   2.878   7.925  -0.210 -1.5889 -1.1886  0.8513
   19CHTO   O33 7861   2.932   7.820  -0.043  0.6114  0.6148  0.1920
   19CHTO   H70 7862   2.935   7.892   0.017  0.4858  1.8388 -1.2628
   19CHTO   C45 7863   2.973   7.737  -0.277 -1.0486  0.1906 -0.1085
   19CHTO   H87 7864   3.011   7.649  -0.224 -1.2688  0.0212 -0.2324
   19CHTO    N8 7865   2.834   7.705  -0.322 -0.2290  0.2373  0.3764
   19CHTO   H75 7866   2.823   7.598  -0.337  3.6255 -0.1289 -0.4734
   19CHTO   H76 7867   2.794   7.764  -0.403 -2.9570 -0.3960  1.2143
   19CHTO   C43 7868   3.075   7.752  -0.405 -0.6545  0.0418  0.6647
   19CHTO   H85 7869   3.175   7.727  -0.371 -0.4142  0.0223 -0.0426
   19CHTO   O29 7870   3.070   7.889  -0.445 -0.1274  0.1031 -0.4480
   19CHTO   C50 7871   3.119   7.988  -0.342  0.2625  0.4597  0.8513
   19CHTO   H92 7872   3.228   7.994  -0.356  0.5782 -1.9861  1.9588
   19CHTO   C54 7873   3.064   8.125  -0.369 -0.9182  0.4682  0.3001
   19CHTO   O36 7874   2.926   8.115  -0.390 -0.0661 -0.3546  0.0423
   19CHTO   H72 7875   2.889   8.042  -0.435  1.8137 -0.1692 -1.8995
   19CHTO   O27 7876   3.048   7.670  -0.515  0.4180 -0.2305 -0.2182
   19CHTO   C37 7877   3.082   7.619  -0.643  0.7148 -0.0267 -0.6536
   19CHTO   H79 7878   3.016   7.534  -0.664  0.6554  0.1436 -1.1619
   19CHTO   C38 7879   3.049   7.732  -0.742 -0.4749  0.3554 -0.0108
   19CHTO   H80 7880   3.110   7.817  -0.708  1.3538 -1.8107  2.3478
   19CHTO   O31 7881   2.910   7.777  -0.734 -0.0389  0.1835  0.1173
   19CHTO   H68 7882   2.859   7.703  -0.761 -1.1357  0.0211  2.4841
   19CHTO   C39 7883   3.100   7.703  -0.887 -0.1578  0.1327  0.7547
   19CHTO   H81 7884   3.039   7.624  -0.931 -0.7668  1.2819 -0.5127
   19CHTO    N7 7885   3.084   7.819  -0.983 -0.3900  0.0628  0.1015
   19CHTO   H73 7886   2.982   7.854  -0.977 -0.9775 -1.8296  1.7305
   19CHTO   H74 7887   3.138   7.906  -0.948 -1.1381  0.6709 -0.2548
   19CHTO   C40 7888   3.257   7.660  -0.885 -0.0483 -0.0190 -0.8599
   19CHTO   H82 7889   3.320   7.745  -0.861  0.8428 -0.9172  0.0401
   19CHTO   O26 7890   3.269   7.550  -0.787  0.0007 -0.0784  0.2703
   19CHTO   C41 7891   3.229   7.575  -0.649  0.3863  0.0111 -0.3643
   19CHTO   H83 7892   3.284   7.665  -0.617  0.4786 -0.1048 -0.1969
   19CHTO   C52 7893   3.261   7.452  -0.565  0.2283  0.1277 -1.2387
   19CHTO   O35 7894   3.190   7.341  -0.603 -0.2475 -1.0183  0.0209
   19CHTO   H71 7895   3.186   7.290  -0.524  1.3628 -0.2696  0.6120
   19CHTO   O28 7896   3.305   7.616  -1.011  0.0272 -0.4123  0.8328
   19CHTO   C42 7897   3.441   7.634  -1.063  0.2828 -0.8910  0.0915
   19CHTO   H84 7898   3.509   7.628  -0.978  0.8696 -0.1020 -0.3193
   19CHTO   C44 7899   3.472   7.772  -1.125 -0.9913 -0.6118  0.1562
   19CHTO   H86 7900   3.384   7.794  -1.186 -0.8284 -2.2754 -0.6925
   19CHTO   O32 7901   3.480   7.872  -1.024  0.5894 -0.6682  0.6123
   19CHTO   H69 7902   3.508   7.956  -1.058  1.9071 -0.9573  0.9529
   19CHTO   C48 7903   3.603   7.777  -1.215 -0.1049  0.1079  0.3230
   19CHTO   H90 7904   3.696   7.777  -1.158 -0.1448 -1.3452  0.3966
   19CHTO    N9 7905   3.609   7.907  -1.298 -0.1957 -0.0389  0.5616
   19CHTO   H77 7906   3.709   7.946  -1.301 -1.1687  2.7391  2.3714
   19CHTO   H78 7907   3.541   7.985  -1.267 -1.6951 -1.1610  0.1628
   19CHTO   C51 7908   3.616   7.650  -1.298 -0.0040  0.3237 -0.9440
   19CHTO   H93 7909   3.538   7.649  -1.374  1.4733 -0.2069 -2.4799
   19CHTO   O30 7910   3.611   7.532  -1.213 -0.2893  0.1016  0.2802
   19CHTO   C46 7911   3.476   7.515  -1.156 -0.5979  0.2719  0.6934
   19CHTO   H88 7912   3.409   7.519  -1.242 -0.9583  2.2202  1.0239
   19CHTO   C53 7913   3.467   7.381  -1.080  0.6655  0.6269  0.3512
   19CHTO   O72 7914   3.401   7.286  -1.171 -0.2805 -0.4404  0.6796
   19CHTO  H199 7915   3.464   7.274  -1.239 -0.7905  2.1464 -0.2882
   19CHTO   O22 7916   3.746   7.638  -1.360 -0.3538  0.4340 -0.1036
   19CHTO   C31 7917   3.752   7.551  -1.479 -0.3375  0.4256 -0.1511
   19CHTO   H59 7918   3.664   7.485  -1.465 -1.6603  1.8734 -1.3960
   19CHTO   C29 7919   3.738   7.618  -1.621  0.2218  0.2756  0.0192
   19CHTO   H57 7920   3.830   7.678  -1.630  0.6957 -0.2104  1.4929
   19CHTO   O21 7921   3.627   7.711  -1.615  0.3902 -0.6674  0.1726
   19CHTO   H37 7922   3.549   7.666  -1.590 -0.9397  1.5071  0.0748
   19CHTO   C27 7923   3.734   7.508  -1.730 -0.7714  0.1307 -0.3220
   19CHTO   H55 7924   3.642   7.449  -1.722  0.7413 -1.9550  2.2036
   19CHTO    N5 7925   3.742   7.569  -1.864  0.2085 -0.0368 -0.4864
   19CHTO   H43 7926   3.639   7.581  -1.897  0.1164  0.3298 -0.0634
   19CHTO   H44 7927   3.797   7.511  -1.936  1.5992  0.0400  0.4988
   19CHTO   C25 7928   3.847   7.401  -1.709 -0.0818 -0.0285  0.8033
   19CHTO   H53 7929   3.942   7.443  -1.742 -0.9237  0.5931 -0.8882
   19CHTO   O17 7930   3.858   7.352  -1.576 -0.2592  0.3658  0.2094
   19CHTO   C32 7931   3.882   7.460  -1.491 -0.5559 -0.7655 -0.5131
   19CHTO   H60 7932   3.963   7.526  -1.523 -1.7444  0.4546 -1.0579
   19CHTO   C36 7933   3.928   7.412  -1.353 -0.1993 -0.4811  0.7401
   19CHTO   O25 7934   3.842   7.328  -1.283 -0.3819  0.0446  0.3522
   19CHTO   H40 7935   3.870   7.239  -1.290 -0.1392  0.2601 -1.8316
   19CHTO   O15 7936   3.800   7.282  -1.792  0.0919  0.5029  0.3530
   19CHTO   C19 7937   3.842   7.153  -1.828  0.1846 -0.1344 -0.1311
   19CHTO   H47 7938   3.764   7.110  -1.891 -2.0217  2.8088  0.4970
   19CHTO   C20 7939   3.980   7.138  -1.914  0.1464 -0.2743 -0.1211
   19CHTO   H48 7940   4.066   7.184  -1.863  0.6181 -2.0660  0.7720
   19CHTO   O19 7941   3.957   7.210  -2.036 -0.1738 -0.0602 -0.4939
   19CHTO   H35 7942   3.981   7.301  -2.031 -0.3332 -0.0481  0.0516
   19CHTO   C21 7943   4.022   6.985  -1.940  0.3781  0.0138  0.0126
   19CHTO   H49 7944   3.953   6.948  -2.016  0.7769  0.7427 -0.7152
   19CHTO    N4 7945   4.151   6.965  -2.008 -0.0571 -0.3837 -0.1905
   19CHTO   H41 7946   4.161   7.054  -2.069 -3.7191 -0.7369 -1.4545
   19CHTO   H42 7947   4.136   6.881  -2.073 -1.0500 -1.1265  0.9653
   19CHTO   C22 7948   4.009   6.907  -1.809 -0.2521 -0.4145  0.3199
   19CHTO   H50 7949   4.091   6.931  -1.741  0.1242  0.7308 -0.5209
   19CHTO   O14 7950   3.886   6.925  -1.739  0.4609 -0.4631  0.2109
   19CHTO   C23 7951   3.849   7.060  -1.699 -0.0237 -0.4981  0.8575
   19CHTO   H51 7952   3.913   7.101  -1.620  1.4671 -2.3655  0.6697
   19CHTO   C34 7953   3.719   7.041  -1.625 -0.1610 -0.0987  0.3320
   19CHTO   O23 7954   3.743   6.976  -1.495 -0.4865 -0.0481 -0.2025
   19CHTO   H38 7955   3.768   6.885  -1.495 -1.1585 -0.2378 -1.2493
   19CHTO   O16 7956   4.032   6.763  -1.834  0.6312  0.1880  0.5381
   19CHTO   C24 7957   4.074   6.675  -1.707 -0.2096 -0.0918 -0.1681
   19CHTO   H52 7958   4.051   6.724  -1.613 -0.1298 -0.1480 -0.1188
   19CHTO   C26 7959   4.223   6.653  -1.721 -0.0644  0.4622  0.0607
   19CHTO   H54 7960   4.242   6.621  -1.825  1.1411  0.9782  0.1073
   19CHTO   O20 7961   4.296   6.771  -1.702 -0.1389 -0.3246  0.2088
   19CHTO   H36 7962   4.388   6.758  -1.705 -0.4392 -2.3145 -1.3802
   19CHTO   C30 7963   4.274   6.534  -1.629 -0.1346 -0.7479  0.4326
   19CHTO   H58 7964   4.282   6.564  -1.523  2.6320 -2.2980  0.7192
   19CHTO    N6 7965   4.412   6.504  -1.676 -0.3307 -0.4084 -0.1946
   19CHTO   H45 7966   4.443   6.403  -1.655 -0.2647 -0.3777 -0.1470
   19CHTO   H46 7967   4.436   6.533  -1.777 -0.0887  1.2527  0.3198
   19CHTO   C33 7968   4.174   6.410  -1.638 -0.0409  1.0955  0.4928
   19CHTO   H61 7969   4.177   6.368  -1.739 -0.5786  1.3380  0.3764
   19CHTO   O18 7970   4.038   6.448  -1.607  0.1725 -0.3282 -0.2843
   19CHTO   C28 7971   3.994   6.540  -1.711 -0.2764 -0.8783 -0.3695
   19CHTO   H56 7972   4.009   6.492  -1.808 -0.5673 -1.3099 -0.2031
   19CHTO   C35 7973   3.842   6.566  -1.689  0.0143 -0.2384  0.1629
   19CHTO   O24 7974   3.755   6.452  -1.694 -0.1181  0.2249  0.2973
   19CHTO   H39 7975   3.774   6.376  -1.644 -0.5561  1.1085  1.8518
   19CHTO    O9 7976   4.223   6.300  -1.554 -0.2332  0.0946 -0.1601
   19CHTO   C13 7977   4.177   6.146  -1.629 -0.2030 -0.6509 -0.0098
   19CHTO   H26 7978   4.187   6.164  -1.738 -2.6520  0.8460 -0.0333
   19CHTO   C11 7979   4.030   6.122  -1.597  0.0467  0.6091 -0.7259
   19CHTO   H24 7980   3.970   6.209  -1.625 -0.2392  0.0478 -1.8541
   19CHTO    O8 7981   4.009   6.110  -1.457  0.2788 -0.4361 -0.1458
   19CHTO    H3 7982   4.014   6.197  -1.422 -1.1696 -0.6045  0.5399
   19CHTO    C9 7983   3.993   5.991  -1.675  0.8422  0.1299 -0.3498
   19CHTO   H22 7984   4.032   6.007  -1.776  1.1329 -0.5115 -0.3397
   19CHTO    N2 7985   3.844   5.976  -1.701 -0.0039  0.8763 -0.6409
   19CHTO   H10 7986   3.833   5.968  -1.808  1.0515  1.7454 -0.8236
   19CHTO   H11 7987   3.803   5.888  -1.653 -1.0901  1.3154 -0.7552
   19CHTO    C7 7988   4.060   5.863  -1.606  0.2430 -1.0417  0.2151
   19CHTO   H20 7989   4.052   5.780  -1.680 -1.3519 -0.0453 -0.7566
   19CHTO    O4 7990   4.201   5.893  -1.594 -0.0747  0.8419 -0.1091
   19CHTO   C14 7991   4.260   6.026  -1.569  0.3428  0.0159  0.1424
   19CHTO   H27 7992   4.348   6.030  -1.637 -0.9286  1.7793 -1.4571
   19CHTO   C18 7993   4.315   6.054  -1.426 -0.1575  0.2633 -0.0158
   19CHTO   O13 7994   4.406   5.947  -1.394  0.4575  0.6254 -0.3075
   19CHTO    H7 7995   4.489   5.964  -1.433  0.7967  1.5615  0.7983
   19CHTO    O2 7996   4.010   5.824  -1.465 -0.1802 -0.0493 -0.7015
   19CHTO    C1 7997   3.976   5.686  -1.439  0.3639 -0.2326  0.4139
   19CHTO   H14 7998   4.049   5.628  -1.500 -0.0045  0.8732 -1.0953
   19CHTO    C2 7999   3.833   5.647  -1.486  0.7213  0.6086  0.1805
   19CHTO   H15 8000   3.765   5.725  -1.447 -2.2150 -1.3493 -0.8359
   19CHTO    O6 8001   3.830   5.642  -1.631  0.1669  0.6323  0.5374
   19CHTO    H1 8002   3.746   5.621  -1.668  1.1951 -1.0837 -0.9059
   19CHTO    C3 8003   3.783   5.506  -1.432 -0.2977 -0.0672 -0.0390
   19CHTO   H16 8004   3.848   5.433  -1.481  0.6732  0.4529  0.4478
   19CHTO    N1 8005   3.640   5.476  -1.473 -0.3333  0.2432  0.2053
   19CHTO    H8 8006   3.569   5.481  -1.392 -0.0846  0.5327  0.4087
   19CHTO    H9 8007   3.642   5.379  -1.520 -0.6840 -0.2302  1.1637
   19CHTO    C4 8008   3.821   5.500  -1.276  0.5016 -0.0884  0.9471
   19CHTO   H17 8009   3.763   5.575  -1.222  0.6319  0.4422  0.3535
   19CHTO    O1 8010   3.963   5.522  -1.256  0.2934 -0.0389  0.0458
   19CHTO    C5 8011   3.990   5.662  -1.288 -0.3216  0.0181  0.4144
   19CHTO   H18 8012   3.923   5.736  -1.244  0.3069  0.1616  1.1345
   19CHTO   C16 8013   4.139   5.683  -1.239  0.4688  0.5128  0.9663
   19CHTO   O11 8014   4.163   5.666  -1.103  0.8811 -0.4237 -0.1208
   19CHTO    H5 8015   4.247   5.626  -1.092  1.4267  0.4491 -0.9751
   19CHTO    O3 8016   3.800   5.365  -1.220  0.3977  0.1521  0.3507
   19CHTO    C6 8017   3.733   5.369  -1.090 -0.2813 -0.3218 -0.5026
   19CHTO   H19 8018   3.757   5.450  -1.021  0.5389 -1.0291  0.0479
   19CHTO    C8 8019   3.576   5.380  -1.102  0.6650  0.1078 -0.2107
   19CHTO   H21 8020   3.543   5.309  -1.178 -0.9240  0.2730  0.2877
   19CHTO    O7 8021   3.546   5.508  -1.156 -0.0014 -0.0047 -0.2013
   19CHTO    H2 8022   3.580   5.517  -1.242  1.5972 -0.5364  0.3543
   19CHTO   C12 8023   3.509   5.353  -0.960  0.2843 -0.7250  0.0355
   19CHTO   H25 8024   3.539   5.442  -0.901  0.8179  0.4212 -1.9296
   19CHTO    N3 8025   3.357   5.360  -0.961  0.3361 -0.6381  0.4864
   19CHTO   H12 8026   3.324   5.427  -1.039 -0.5212 -1.3299  0.2511
   19CHTO   H13 8027   3.320   5.391  -0.864 -1.2466  1.9490 -0.8631
   19CHTO   C15 8028   3.565   5.226  -0.884 -0.5530 -0.4405  0.6974
   19CHTO   H28 8029   3.531   5.134  -0.931 -0.5522  1.2280 -2.7103
   19CHTO   O10 8030   3.515   5.223  -0.723  0.5583  0.0010 -0.7941
   19CHTO    H4 8031   3.581   5.179  -0.672 -0.5022  1.2452  1.7629
   19CHTO    O5 8032   3.709   5.239  -0.885 -0.2347  0.6196  0.5165
   19CHTO   C10 8033   3.770   5.237  -1.016  0.4894 -0.5201 -0.6542
   19CHTO   H23 8034   3.732   5.151  -1.069  2.2231 -1.0401 -1.0833
   19CHTO   C17 8035   3.921   5.227  -1.002 -0.5397 -0.2401  0.6887
   19CHTO   O12 8036   3.966   5.132  -0.904 -0.2341 -0.1675 -0.8805
   19CHTO    H6 8037   4.043   5.163  -0.860 -0.7368 -0.8839  0.5347
   20CHTO  H203 8038   5.059   0.174   1.939  1.5142 -3.6666  1.1117
   20CHTO   O82 8039   5.129   0.222   1.980  0.0460 -0.4272 -0.0513
   20CHTO  C123 8040   5.075   0.356   1.989 -0.1576 -0.1095 -0.3244
   20CHTO  H227 8041   5.028   0.359   2.088 -1.9531 -2.3618 -1.0571
   20CHTO   O77 8042   5.187   0.455   1.990  0.4323  0.4835 -0.0303
   20CHTO  C118 8043   5.153   0.593   2.013  0.0526  0.0993  0.4611
   20CHTO  H222 8044   5.091   0.603   2.103 -0.9967  1.3579 -0.3791
   20CHTO  C125 8045   5.295   0.679   2.029 -0.0497 -0.3227  0.2277
   20CHTO   O84 8046   5.403   0.657   1.935  0.2339  0.4414  0.9945
   20CHTO  H205 8047   5.487   0.636   1.973 -0.7983 -1.3332  2.3580
   20CHTO  C114 8048   5.076   0.645   1.899  0.0426 -0.4116  0.7311
   20CHTO  H218 8049   5.139   0.632   1.812  2.1066  0.6936  2.0163
   20CHTO  C116 8050   4.944   0.553   1.885 -0.8599  0.3530  0.0924
   20CHTO  H220 8051   4.872   0.575   1.966 -0.5458  1.3049  0.1212
   20CHTO   O79 8052   4.883   0.607   1.759  0.0972 -0.1954  0.2600
   20CHTO  H201 8053   4.822   0.675   1.781  1.8948  0.8515  2.2385
   20CHTO  C120 8054   4.973   0.401   1.869  0.5139 -0.0368  0.3734
   20CHTO  H224 8055   5.024   0.389   1.771 -1.4652  0.2827 -0.7316
   20CHTO   N21 8056   4.854   0.313   1.862  0.3229 -0.4714 -0.4241
   20CHTO  H211 8057   4.812   0.278   1.955  3.5037  2.5026  2.2801
   20CHTO  H212 8058   4.786   0.360   1.791 -0.8903 -1.8062 -0.1623
   20CHTO   O75 8059   5.046   0.785   1.920 -0.5275 -0.0346  0.5225
   20CHTO  C112 8060   5.060   0.864   1.793  0.1022  0.2726  0.5741
   20CHTO  H216 8061   5.024   0.801   1.711 -1.4278  1.4762  0.2997
   20CHTO   O73 8062   5.195   0.898   1.776 -0.4578  0.3849  0.4534
   20CHTO  C113 8063   5.227   0.941   1.643 -0.4326 -0.2699 -0.5614
   20CHTO  H217 8064   5.195   0.861   1.574  0.5181  0.3120 -1.6989
   20CHTO  C124 8065   5.379   0.956   1.623  0.3547  0.6273 -0.3153
   20CHTO   O83 8066   5.452   0.832   1.625  0.1232  0.1062  0.4059
   20CHTO  H204 8067   5.541   0.834   1.656 -0.7679 -0.9638  3.1453
   20CHTO  C109 8068   5.148   1.070   1.616 -0.8037  0.2021  0.5561
   20CHTO  H213 8069   5.198   1.149   1.674  0.5356  0.7637 -1.3417
   20CHTO  C110 8070   4.989   1.058   1.650 -0.9121  0.6569 -0.4306
   20CHTO  H214 8071   4.949   1.001   1.567 -2.3940  0.7297  0.2147
   20CHTO   O78 8072   4.916   1.183   1.634 -0.1587 -0.2323  0.2220
   20CHTO  H200 8073   4.955   1.242   1.573  2.4623  2.2428  4.0616
   20CHTO  C111 8074   4.980   0.995   1.785  0.0944  0.3046 -0.8047
   20CHTO  H215 8075   5.021   1.069   1.855 -0.2959  0.4671 -0.7457
   20CHTO   N19 8076   4.844   0.963   1.827  0.3128  0.3778 -0.3695
   20CHTO  H207 8077   4.772   0.990   1.752 -1.4511 -0.4858  0.9631
   20CHTO  H208 8078   4.805   1.004   1.920 -1.3063  0.2418 -0.9744
   20CHTO   O74 8079   5.153   1.108   1.477 -0.3927  0.6651 -0.5348
   20CHTO  C115 8080   5.237   1.240   1.451 -0.3810 -0.3097  0.6379
   20CHTO  H219 8081   5.301   1.268   1.534 -1.4026  2.3227  0.5987
   20CHTO   O76 8082   5.337   1.220   1.315 -0.1318  0.6365 -0.0141
   20CHTO  C122 8083   5.265   1.191   1.187 -0.1579 -0.2861 -0.1693
   20CHTO  H226 8084   5.235   1.086   1.201  0.5670 -0.3905  0.6732
   20CHTO  C126 8085   5.364   1.190   1.076 -0.6621 -0.0433  0.3485
   20CHTO   O85 8086   5.443   1.068   1.064  0.4490  0.2678  0.3845
   20CHTO  H206 8087   5.511   1.077   1.000 -1.6694 -0.7510 -2.0732
   20CHTO  C121 8088   5.143   1.283   1.173  0.1672 -0.3706 -0.8829
   20CHTO  H225 8089   5.135   1.323   1.070 -4.1368  0.0354 -0.4808
   20CHTO   O81 8090   5.022   1.221   1.190 -0.5161  0.3180 -0.2389
   20CHTO  H202 8091   4.962   1.294   1.191 -0.5359  0.2989  0.1694
   20CHTO  C119 8092   5.158   1.402   1.271  0.3925  0.2307 -0.0285
   20CHTO  H223 8093   5.260   1.433   1.250  0.1800  0.4637 -0.7384
   20CHTO  C117 8094   5.138   1.351   1.425  0.5141  0.2277 -1.4294
   20CHTO  H221 8095   5.040   1.309   1.444 -0.3190  2.1619 -1.2978
   20CHTO   N20 8096   5.152   1.474   1.515 -0.5376  0.6528  0.0597
   20CHTO  H209 8097   5.243   1.519   1.478 -0.7770  0.6829 -0.4990
   20CHTO  H210 8098   5.150   1.441   1.618  1.8574  2.1759  0.6282
   20CHTO   O80 8099   5.077   1.538   1.233  0.2118 -0.1087  0.4271
   20CHTO  C103 8100   4.948   1.532   1.151 -0.1632  0.3403 -0.1407
   20CHTO  H190 8101   4.945   1.438   1.096 -1.2037 -1.0242  2.1723
   20CHTO  C101 8102   4.813   1.547   1.240  0.4257  0.0598 -0.5186
   20CHTO  H188 8103   4.835   1.636   1.300  2.6988 -0.4492 -0.5472
   20CHTO   O68 8104   4.795   1.417   1.342 -0.1688  0.0304 -0.3608
   20CHTO  H168 8105   4.881   1.393   1.371 -1.2384 -2.2931  1.1475
   20CHTO   C99 8106   4.684   1.578   1.153 -0.3448  0.6771  0.9025
   20CHTO  H186 8107   4.657   1.488   1.094  0.4259  0.2330  1.2181
   20CHTO   N17 8108   4.558   1.618   1.223  0.1785  1.1799 -0.0130
   20CHTO  H174 8109   4.552   1.575   1.322 -2.2361  0.5505 -0.3972
   20CHTO  H175 8110   4.543   1.725   1.228 -1.1774  1.0213 -0.6822
   20CHTO   C97 8111   4.720   1.683   1.045  0.5870 -0.3609 -0.7597
   20CHTO  H184 8112   4.740   1.781   1.091  1.9469 -1.3141  0.6900
   20CHTO   O64 8113   4.839   1.642   0.965 -0.0352  0.1837 -0.0375
   20CHTO  C104 8114   4.961   1.645   1.045  0.4962  0.1782  0.0021
   20CHTO  H191 8115   4.966   1.740   1.098  0.6232  0.1777 -0.0074
   20CHTO  C108 8116   5.084   1.643   0.953 -0.2823  0.4918 -0.7338
   20CHTO   O71 8117   5.115   1.752   0.871 -0.4408 -0.1664  0.2019
   20CHTO  H171 8118   5.204   1.765   0.842  0.7647 -3.2604  2.2313
   20CHTO   O62 8119   4.624   1.693   0.937 -0.0560 -0.0121  0.1650
   20CHTO   C91 8120   4.621   1.827   0.877  0.1659 -0.4279  0.3853
   20CHTO  H178 8121   4.722   1.867   0.871  0.8404 -1.8845  1.7109
   20CHTO   C92 8122   4.526   1.920   0.959 -0.7340 -0.0534  0.4360
   20CHTO  H179 8123   4.434   1.866   0.985 -0.6257  0.0404  1.0093
   20CHTO   O66 8124   4.581   1.948   1.085 -0.5954 -1.0277  0.0899
   20CHTO  H166 8125   4.526   2.008   1.132 -1.3325 -1.0605 -0.7077
   20CHTO   C93 8126   4.486   2.053   0.886 -0.4860  0.4814 -0.9526
   20CHTO  H180 8127   4.573   2.118   0.905 -0.7697 -0.0378  2.5155
   20CHTO   N16 8128   4.371   2.132   0.943 -0.3700  0.1077 -0.2751
   20CHTO  H172 8129   4.379   2.240   0.938 -1.7253  0.4680  3.5582
   20CHTO  H173 8130   4.357   2.106   1.047  0.7550 -2.8677 -0.8433
   20CHTO   C94 8131   4.456   2.026   0.734  0.3557 -0.7144  0.2329
   20CHTO  H181 8132   4.375   1.955   0.716  0.9769 -0.9312 -1.7297
   20CHTO   O61 8133   4.563   1.957   0.664 -0.1518  0.2511 -0.2023
   20CHTO   C95 8134   4.589   1.829   0.719  0.0460 -0.0596 -0.0236
   20CHTO  H182 8135   4.499   1.768   0.713  0.5685 -0.8248 -0.0290
   20CHTO  C106 8136   4.710   1.769   0.635  0.8299  0.5631  0.2110
   20CHTO   O69 8137   4.677   1.765   0.492  0.0687 -0.0068 -0.4367
   20CHTO  H169 8138   4.737   1.822   0.448  3.3049 -2.1777  0.9304
   20CHTO   O63 8139   4.412   2.172   0.659  0.0405 -0.5476 -0.5714
   20CHTO   C96 8140   4.442   2.185   0.518  0.2048  0.1446  0.4110
   20CHTO  H183 8141   4.470   2.092   0.467  1.0215 -0.9074  2.7027
   20CHTO   C98 8142   4.561   2.280   0.498 -0.3019  0.4962 -0.5263
   20CHTO  H185 8143   4.545   2.373   0.555 -2.0283 -0.6492  0.8832
   20CHTO   O67 8144   4.683   2.228   0.549 -0.2140 -0.4708  0.1710
   20CHTO  H167 8145   4.704   2.152   0.499  1.4653  0.5442 -0.6993
   20CHTO  C102 8146   4.572   2.305   0.339  0.4416  0.5879  0.7340
   20CHTO  H189 8147   4.609   2.214   0.289  0.1399  1.6222 -1.4631
   20CHTO   N18 8148   4.679   2.408   0.309  0.3025  0.5947  0.1500
   20CHTO  H176 8149   4.766   2.359   0.267  0.3429 -0.6797  1.6865
   20CHTO  H177 8150   4.653   2.478   0.230 -0.7737 -0.4426 -0.4242
   20CHTO  C105 8151   4.433   2.339   0.268 -0.0496 -0.2706  0.0553
   20CHTO  H192 8152   4.403   2.440   0.296  0.2810  0.0545 -0.7295
   20CHTO   O65 8153   4.331   2.250   0.308  0.3704  0.1456 -0.1485
   20CHTO  C100 8154   4.315   2.234   0.446 -0.7065  0.2912  0.2931
   20CHTO  H187 8155   4.288   2.326   0.499  3.9842  1.5231  0.7977
   20CHTO  C107 8156   4.209   2.132   0.465 -0.3277  0.2125  0.3492
   20CHTO   O70 8157   4.082   2.161   0.395 -0.5699  0.0192 -0.9350
   20CHTO  H170 8158   4.039   2.236   0.429 -0.9173  0.2946 -1.9529
   20CHTO   O57 8159   4.469   2.329   0.106 -0.1137 -0.2118  0.1547
   20CHTO   C85 8160   4.480   2.198   0.039 -0.6010  0.0361  0.2537
   20CHTO  H157 8161   4.482   2.117   0.115  1.6862  0.3957  0.6161
   20CHTO   C83 8162   4.621   2.190  -0.032  1.0258 -0.3859 -0.6998
   20CHTO  H155 8163   4.698   2.218   0.041  2.0417 -2.1744 -1.0608
   20CHTO   O56 8164   4.616   2.288  -0.139  0.5408  0.4632 -0.0645
   20CHTO  H135 8165   4.578   2.240  -0.211  2.2559 -2.6632  1.0291
   20CHTO   C81 8166   4.637   2.040  -0.063 -0.4956  0.6814 -0.0308
   20CHTO  H153 8167   4.660   1.990   0.031 -2.2493 -1.1957 -0.5785
   20CHTO   N14 8168   4.758   2.002  -0.141 -0.1694  0.5625  0.1345
   20CHTO  H141 8169   4.732   1.950  -0.230  1.2129 -1.4721  0.8810
   20CHTO  H142 8170   4.828   1.942  -0.087 -2.6515 -2.0940  0.5189
   20CHTO   C79 8171   4.501   1.980  -0.128 -0.0360  0.1608  0.1374
   20CHTO  H151 8172   4.451   1.918  -0.054 -0.9219 -0.8418 -1.2676
   20CHTO   O52 8173   4.414   2.080  -0.174  0.4281  0.1740  0.0346
   20CHTO   C86 8174   4.370   2.175  -0.074  0.3936 -0.5830  0.4777
   20CHTO  H158 8175   4.340   2.272  -0.120  0.5560 -0.9119 -0.3376
   20CHTO   C90 8176   4.237   2.125  -0.009 -0.5929 -0.1883 -0.5124
   20CHTO   O60 8177   4.248   2.009   0.083 -0.0920  0.1175 -0.3138
   20CHTO  H138 8178   4.172   1.957   0.072 -0.9165  0.6537  2.4220
   20CHTO   O50 8179   4.517   1.893  -0.236 -0.1773  0.0452 -0.4075
   20CHTO   C73 8180   4.548   1.863  -0.374  0.3637  0.0603 -0.7579
   20CHTO  H145 8181   4.640   1.909  -0.413  0.8837 -0.6106 -0.3294
   20CHTO   C74 8182   4.437   1.922  -0.467 -0.2805  0.0864 -0.1560
   20CHTO  H146 8183   4.433   2.031  -0.452 -0.2250  0.4384 -2.5926
   20CHTO   O54 8184   4.486   1.903  -0.601 -0.0903 -0.0824 -0.3181
   20CHTO  H133 8185   4.484   1.983  -0.650  0.4299  0.7744  1.0444
   20CHTO   C75 8186   4.299   1.849  -0.434 -0.3670  0.4430 -0.1833
   20CHTO  H147 8187   4.269   1.879  -0.332 -1.3880  3.5345 -1.3259
   20CHTO   N13 8188   4.188   1.880  -0.516  0.6507  0.0452 -0.6118
   20CHTO  H139 8189   4.190   1.968  -0.578 -1.2013 -0.7334 -1.8334
   20CHTO  H140 8190   4.145   1.797  -0.571 -2.1849  1.7175 -1.0179
   20CHTO   C76 8191   4.327   1.687  -0.428  0.1544  0.0321  0.0777
   20CHTO  H148 8192   4.342   1.656  -0.532 -2.0122 -0.5016 -0.0944
   20CHTO   O49 8193   4.446   1.646  -0.348  0.7866  0.6345  0.7241
   20CHTO   C77 8194   4.566   1.708  -0.386  0.5233 -0.0583  0.3723
   20CHTO  H149 8195   4.597   1.691  -0.489 -1.3697  1.8609 -0.5627
   20CHTO   C88 8196   4.684   1.672  -0.296 -0.3048  0.5436  0.4381
   20CHTO   O58 8197   4.697   1.547  -0.280  0.0949 -0.1666  0.3770
   20CHTO  H136 8198   4.771   1.532  -0.224  0.6631  0.3451 -0.2281
   20CHTO   O51 8199   4.196   1.602  -0.358 -0.0923 -0.1571 -0.7704
   20CHTO   C78 8200   4.205   1.598  -0.187 -0.1168 -0.3618  0.0268
   20CHTO  H150 8201   4.279   1.673  -0.154 -2.0310  0.9310  1.5114
   20CHTO   C80 8202   4.252   1.460  -0.140 -0.0290  0.4713  0.1399
   20CHTO  H152 8203   4.206   1.386  -0.208  0.7423  2.4537 -2.6244
   20CHTO   O55 8204   4.395   1.449  -0.167 -0.1468 -0.0059 -0.1725
   20CHTO  H134 8205   4.406   1.460  -0.260 -3.7939 -3.1198 -1.1011
   20CHTO   C84 8206   4.230   1.439   0.011  0.3580 -0.1861  0.4849
   20CHTO  H156 8207   4.306   1.496   0.064  1.6001 -1.2989 -0.0869
   20CHTO   N15 8208   4.245   1.296   0.054  0.5663 -0.3051 -0.1098
   20CHTO  H143 8209   4.323   1.288   0.126  0.0170 -0.1208  0.5063
   20CHTO  H144 8210   4.268   1.230  -0.028  0.6170  0.5471 -0.7862
   20CHTO   C87 8211   4.082   1.482   0.053  0.4848 -1.0127 -0.1419
   20CHTO  H159 8212   4.008   1.413   0.013 -1.9743  2.0478 -1.0405
   20CHTO   O53 8213   4.056   1.618   0.000 -0.2565  0.2983 -0.4830
   20CHTO   C82 8214   4.063   1.629  -0.142 -0.4383 -0.7906  0.4470
   20CHTO  H154 8215   3.994   1.562  -0.193  1.2891 -0.2993 -2.6004
   20CHTO   C89 8216   4.025   1.776  -0.169  0.9961  0.1594  0.0571
   20CHTO   O59 8217   3.897   1.819  -0.121 -0.0749 -0.1465 -0.0869
   20CHTO  H137 8218   3.858   1.749  -0.072 -0.3006  0.5359  0.7010
   20CHTO   O45 8219   4.058   1.470   0.220  0.2787 -0.1017  0.3536
   20CHTO   C67 8220   4.129   1.575   0.292  0.0856  0.4020 -0.3365
   20CHTO  H124 8221   4.196   1.622   0.219 -0.7190 -0.6970 -1.8203
   20CHTO   C65 8222   4.023   1.676   0.356 -0.0263  1.2961  0.2967
   20CHTO  H122 8223   3.960   1.684   0.268  0.1895 -0.8093 -0.0703
   20CHTO   O44 8224   4.094   1.794   0.404 -0.8952  0.6657  0.5006
   20CHTO  H102 8225   4.036   1.868   0.405 -1.9377 -0.1411  1.1618
   20CHTO   C63 8226   3.938   1.610   0.463 -0.5060  0.1874 -0.2314
   20CHTO  H120 8227   3.885   1.524   0.421 -1.0468 -0.5509  1.8702
   20CHTO   N11 8228   3.823   1.692   0.516 -0.0348  0.1398  0.5661
   20CHTO  H108 8229   3.859   1.793   0.509  0.4699 -0.0112  0.9657
   20CHTO  H109 8230   3.736   1.684   0.454 -0.5132 -0.5567  1.3284
   20CHTO   C61 8231   4.042   1.565   0.578  0.0199 -0.3587  0.3961
   20CHTO  H118 8232   3.978   1.504   0.643 -0.0622  0.6457  1.2719
   20CHTO   O40 8233   4.150   1.480   0.530  0.0200 -0.2579 -0.3293
   20CHTO   C68 8234   4.224   1.510   0.409 -0.0031  0.3535  0.0051
   20CHTO  H125 8235   4.265   1.411   0.378  1.9999  1.4124 -0.8448
   20CHTO   C72 8236   4.352   1.591   0.448  0.3686  0.0541 -0.2640
   20CHTO   O48 8237   4.442   1.507   0.524 -0.0106  0.1865 -0.4170
   20CHTO  H105 8238   4.493   1.448   0.473  2.2136  0.5584  1.2808
   20CHTO   O38 8239   4.101   1.674   0.652 -0.0252  0.6407  0.0194
   20CHTO   C55 8240   4.063   1.695   0.789 -0.2750 -0.1559  0.5187
   20CHTO  H112 8241   3.967   1.642   0.803  0.5300 -1.2817  1.8796
   20CHTO   C56 8242   4.049   1.850   0.802 -0.0464  0.0465 -0.0925
   20CHTO  H113 8243   4.147   1.883   0.765 -1.0270  0.8708 -2.0364
   20CHTO   O42 8244   3.946   1.894   0.712  1.1394 -0.2947  0.3330
   20CHTO  H100 8245   3.923   1.830   0.648 -1.5560  0.0912  0.8590
   20CHTO   C57 8246   4.018   1.892   0.948  0.1194  0.5149 -0.1959
   20CHTO  H114 8247   3.914   1.872   0.976 -0.2245 -0.0510 -1.8664
   20CHTO   N10 8248   4.009   2.038   0.963 -0.6705  0.0061  0.8020
   20CHTO  H106 8249   4.108   2.077   0.941 -0.8393  0.0543  0.1236
   20CHTO  H107 8250   3.940   2.078   0.891 -0.1444 -0.0019  0.2876
   20CHTO   C58 8251   4.123   1.821   1.040  0.1888 -0.2415  0.3232
   20CHTO  H115 8252   4.219   1.870   1.016 -0.7041  0.8492 -1.0410
   20CHTO   O37 8253   4.134   1.676   1.016  0.0684 -0.1856 -0.2180
   20CHTO   C59 8254   4.167   1.641   0.882  0.0268 -0.3299 -0.3120
   20CHTO  H116 8255   4.270   1.675   0.868  0.0227 -0.1025  0.1840
   20CHTO   C70 8256   4.176   1.494   0.862  0.0092  0.0989 -0.1007
   20CHTO   O46 8257   4.254   1.418   0.954 -0.7921  0.0907 -1.0060
   20CHTO  H103 8258   4.333   1.387   0.916 -0.7318 -1.2290  0.1669
   20CHTO   O39 8259   4.085   1.843   1.178 -0.3553  0.5922 -0.3695
   20CHTO   C60 8260   4.184   1.854   1.281  0.5081 -0.1083 -0.2452
   20CHTO  H117 8261   4.254   1.771   1.276  0.6592  0.1518 -2.7961
   20CHTO   C62 8262   4.277   1.982   1.271 -0.0449  0.7934  0.6712
   20CHTO  H119 8263   4.329   1.965   1.173 -2.1001 -0.0801 -0.2892
   20CHTO   O43 8264   4.189   2.091   1.270 -0.0520  0.0209  0.2550
   20CHTO  H101 8265   4.216   2.168   1.222  0.3167  0.5541  1.3090
   20CHTO   C66 8266   4.387   1.963   1.374  0.2052 -0.2213 -0.2096
   20CHTO  H123 8267   4.445   1.875   1.345 -2.1319 -1.9658  0.2967
   20CHTO   N12 8268   4.483   2.075   1.361  0.0255  0.3218 -0.2335
   20CHTO  H110 8269   4.540   2.054   1.272 -3.0023 -2.4927 -1.6274
   20CHTO  H111 8270   4.556   2.080   1.441  1.0633  0.7355 -1.1958
   20CHTO   C69 8271   4.326   1.959   1.518 -1.0515  0.0125  0.1724
   20CHTO  H126 8272   4.284   2.055   1.555  1.3546  0.6662  1.3066
   20CHTO   O41 8273   4.218   1.871   1.528  0.3780  0.3243  0.3168
   20CHTO   C64 8274   4.124   1.853   1.424  0.0958  0.0436  0.0291
   20CHTO  H121 8275   4.047   1.933   1.434 -1.2694 -1.3076  0.4084
   20CHTO   C71 8276   4.052   1.717   1.454  0.3241 -0.5724 -0.2081
   20CHTO   O47 8277   3.987   1.721   1.583  0.7868  0.1535  0.6114
   20CHTO  H104 8278   3.894   1.722   1.578  0.8426 -0.9533 -1.0292
   20CHTO   O34 8279   4.406   1.939   1.623  0.1346  0.2330  0.2377
   20CHTO   C49 8280   4.434   1.829   1.727 -0.1552  0.7907 -0.0657
   20CHTO   H91 8281   4.455   1.740   1.668 -2.2275  0.2153  0.0210
   20CHTO   C47 8282   4.321   1.797   1.832 -0.2384  0.6238 -0.2214
   20CHTO   H89 8283   4.262   1.730   1.766  2.5700 -0.1688 -2.0271
   20CHTO   O33 8284   4.252   1.918   1.865 -0.3601 -0.1323  0.4719
   20CHTO   H70 8285   4.195   1.901   1.937  1.8482 -3.1663  1.6064
   20CHTO   C45 8286   4.374   1.713   1.960 -0.6557 -0.4098 -0.4650
   20CHTO   H87 8287   4.391   1.791   2.036 -0.7781 -0.3788 -0.4691
   20CHTO    N8 8288   4.279   1.614   2.016  0.3978 -0.3193  0.1957
   20CHTO   H75 8289   4.322   1.515   2.015  2.4309  0.5347 -0.3508
   20CHTO   H76 8290   4.249   1.640   2.117 -2.6380 -1.5712 -0.3316
   20CHTO   C43 8291   4.516   1.655   1.930  0.7145 -0.3100 -0.0103
   20CHTO   H85 8292   4.553   1.592   2.010 -0.2907 -0.0254  0.6772
   20CHTO   O29 8293   4.603   1.773   1.909  0.2611 -0.6102 -0.0539
   20CHTO   C50 8294   4.569   1.861   1.799  0.2709 -1.0689 -0.8836
   20CHTO   H92 8295   4.572   1.969   1.818  1.5252 -1.0391 -1.2535
   20CHTO   C54 8296   4.681   1.853   1.693 -0.1720  0.3750  0.0905
   20CHTO   O36 8297   4.724   1.720   1.672 -0.1702  0.4137 -0.0263
   20CHTO   H72 8298   4.764   1.682   1.748 -0.8275 -2.9005 -1.2105
   20CHTO   O27 8299   4.516   1.561   1.818 -0.1724 -0.3643 -0.5054
   20CHTO   C37 8300   4.486   1.428   1.765 -0.1875 -0.4987 -0.2047
   20CHTO   H79 8301   4.451   1.371   1.852  0.6228 -1.4606 -0.4979
   20CHTO   C38 8302   4.374   1.428   1.645 -0.3888  0.0932  0.7853
   20CHTO   H80 8303   4.414   1.492   1.565 -1.4572  0.9060  0.8889
   20CHTO   O31 8304   4.255   1.487   1.704 -0.0926  0.0812 -0.0321
   20CHTO   H68 8305   4.229   1.436   1.778 -0.2185 -1.1201 -0.8865
   20CHTO   C39 8306   4.349   1.288   1.581  0.2459 -0.2516  0.4138
   20CHTO   H81 8307   4.314   1.216   1.655 -2.8162  1.8202  1.1187
   20CHTO    N7 8308   4.243   1.285   1.463 -0.2131  0.2898  0.2230
   20CHTO   H73 8309   4.260   1.356   1.384  1.6143 -1.1974 -0.7707
   20CHTO   H74 8310   4.144   1.297   1.504 -0.0826  0.4308  0.4999
   20CHTO   C40 8311   4.495   1.233   1.539  0.1888  0.3473 -0.1791
   20CHTO   H82 8312   4.532   1.309   1.470 -1.7379  2.4479  1.0143
   20CHTO   O26 8313   4.580   1.226   1.658  0.3209  0.6915  0.0632
   20CHTO   C41 8314   4.609   1.357   1.704 -0.5987 -0.0298  1.1295
   20CHTO   H83 8315   4.656   1.413   1.622 -0.3606 -1.0171  0.5830
   20CHTO   C52 8316   4.718   1.338   1.810  0.0824  0.7861 -0.3817
   20CHTO   O35 8317   4.775   1.478   1.846 -0.1388 -0.6887  0.2454
   20CHTO   H71 8318   4.825   1.507   1.772 -1.7511  1.3017 -0.1045
   20CHTO   O28 8319   4.483   1.099   1.484 -0.6215  0.0661  0.2814
   20CHTO   C42 8320   4.568   1.026   1.380  0.8905 -0.0046  0.1126
   20CHTO   H84 8321   4.499   0.945   1.357 -3.0976  2.4780  2.7301
   20CHTO   C44 8322   4.712   0.962   1.425 -0.4064 -0.0157  0.2772
   20CHTO   H86 8323   4.782   1.036   1.463  1.8503 -1.3154 -1.2647
   20CHTO   O32 8324   4.692   0.878   1.542  0.6485 -0.1176  0.1097
   20CHTO   H69 8325   4.661   0.927   1.617 -1.5246 -1.8218  0.3854
   20CHTO   C48 8326   4.789   0.882   1.309  0.8567  0.3539  0.4552
   20CHTO   H90 8327   4.718   0.804   1.280 -1.2224  3.1643 -2.3795
   20CHTO    N9 8328   4.920   0.820   1.333 -0.4573  0.4729  0.4290
   20CHTO   H77 8329   4.903   0.754   1.417 -0.0504  0.1128  0.2288
   20CHTO   H78 8330   4.958   0.782   1.240 -2.5740  1.1806 -0.7609
   20CHTO   C51 8331   4.794   0.976   1.180 -1.0898 -0.4266  0.2415
   20CHTO   H93 8332   4.866   1.056   1.198 -1.9016  0.5756 -0.8613
   20CHTO   O30 8333   4.658   1.020   1.140 -0.9077  0.2188  0.1829
   20CHTO   C46 8334   4.586   1.119   1.253  0.3794  0.3331 -0.0233
   20CHTO   H88 8335   4.645   1.204   1.285  2.0061 -1.0117  0.6487
   20CHTO   C53 8336   4.459   1.168   1.185 -0.1893 -0.0281 -0.7202
   20CHTO   O72 8337   4.489   1.229   1.059  0.1043 -0.0977 -0.0386
   20CHTO  H199 8338   4.467   1.319   1.075 -1.2236 -0.8528  2.7207
   20CHTO   O22 8339   4.836   0.888   1.069  0.4114  0.2720 -0.6932
   20CHTO   C31 8340   4.899   0.941   0.946  0.2624 -0.7232 -0.5997
   20CHTO   H59 8341   4.869   0.876   0.861 -2.5913 -1.6865  1.0450
   20CHTO   C29 8342   4.856   1.080   0.903  0.0890  0.5141 -0.6081
   20CHTO   H57 8343   4.878   1.146   0.988  0.6261 -1.4926  0.8585
   20CHTO   O21 8344   4.713   1.081   0.879  0.7626 -0.2604  0.5031
   20CHTO   H37 8345   4.698   1.030   0.801  0.2676 -1.7417  1.5342
   20CHTO   C27 8346   4.936   1.137   0.769  0.6798 -0.7125 -0.2593
   20CHTO   H55 8347   4.922   1.069   0.684  0.5979 -0.5076 -0.4109
   20CHTO    N5 8348   4.902   1.279   0.732 -0.5555  0.3805 -0.4253
   20CHTO   H43 8349   4.798   1.291   0.705 -0.6575  1.2833  0.3435
   20CHTO   H44 8350   4.929   1.350   0.808 -0.4233 -0.1144 -0.0128
   20CHTO   C25 8351   5.090   1.118   0.794 -0.1546 -0.2691  0.2237
   20CHTO   H53 8352   5.115   1.181   0.881  1.6865 -1.2277  0.4359
   20CHTO   O17 8353   5.113   0.980   0.831 -0.8705 -0.1579  0.3403
   20CHTO   C32 8354   5.055   0.932   0.952  0.0461 -0.0538 -0.4664
   20CHTO   H60 8355   5.092   0.986   1.039  1.1940 -0.4589 -0.6923
   20CHTO   C36 8356   5.111   0.787   0.961  0.1314 -0.1906 -0.1975
   20CHTO   O25 8357   5.255   0.794   0.976  0.1251  0.2243 -0.1079
   20CHTO   H40 8358   5.290   0.824   0.894 -1.7428 -0.6890 -1.2677
   20CHTO   O15 8359   5.178   1.159   0.706  0.6774  0.2029  0.0014
   20CHTO   C19 8360   5.296   1.240   0.686 -0.2821 -0.1965  0.6951
   20CHTO   H47 8361   5.300   1.259   0.577  1.5233 -0.9856  0.6075
   20CHTO   C20 8362   5.304   1.377   0.758 -0.1258 -0.0021  0.1929
   20CHTO   H48 8363   5.314   1.363   0.866  2.2016  0.2111  0.0361
   20CHTO   O19 8364   5.182   1.446   0.716 -0.2536 -0.5739  0.7857
   20CHTO   H35 8365   5.107   1.395   0.740 -2.3405  1.0049 -2.0973
   20CHTO   C21 8366   5.431   1.452   0.705  0.1487  0.5694  0.0145
   20CHTO   H49 8367   5.412   1.476   0.601 -2.2858 -1.5580 -0.0972
   20CHTO    N4 8368   5.458   1.582   0.767 -0.2761 -0.5674  0.1226
   20CHTO   H41 8369   5.377   1.616   0.830  0.6901  0.6497  0.7388
   20CHTO   H42 8370   5.549   1.618   0.812  1.4127  0.3656 -3.8725
   20CHTO   C22 8371   5.555   1.360   0.714  0.9535  0.2052  0.3797
   20CHTO   H50 8372   5.584   1.352   0.818 -1.1006  2.4254  1.1571
   20CHTO   O14 8373   5.532   1.227   0.662  0.0700  0.0538  0.3227
   20CHTO   C23 8374   5.426   1.155   0.713 -0.0711 -0.1978 -0.4825
   20CHTO   H51 8375   5.443   1.144   0.822  1.9688 -1.6529 -0.9261
   20CHTO   C34 8376   5.435   1.010   0.662  0.4737 -0.1337 -0.0894
   20CHTO   O23 8377   5.551   0.936   0.718  0.6860  0.6664 -0.3276
   20CHTO   H38 8378   5.588   0.869   0.664  1.5939  0.2903  0.7367
   20CHTO   O16 8379   5.660   1.417   0.641 -0.2542 -0.0541 -0.0088
   20CHTO   C24 8380   5.811   1.349   0.691 -0.0688  0.2394  0.4176
   20CHTO   H52 8381   5.801   1.250   0.735  0.3230 -0.5213 -1.1554
   20CHTO   C26 8382   5.879   1.443   0.799  0.4617 -0.0524 -0.4902
   20CHTO   H54 8383   5.871   1.550   0.771  3.3793  0.2484 -0.4008
   20CHTO   O20 8384   5.817   1.431   0.931 -0.5615  0.0518 -0.0208
   20CHTO   H36 8385   5.845   1.504   0.983  1.0086  1.3755 -2.6373
   20CHTO   C30 8386   6.029   1.404   0.826  0.2800  0.1173  0.4443
   20CHTO   H58 8387   6.045   1.351   0.921  0.9079 -1.1713 -0.3699
   20CHTO    N6 8388   6.117   1.523   0.847 -0.1868 -0.0959  0.2031
   20CHTO   H45 8389   6.129   1.582   0.758 -1.2505  0.2128  0.2472
   20CHTO   H46 8390   6.211   1.501   0.894  0.2533 -0.2522 -0.7427
   20CHTO   C33 8391   6.086   1.304   0.718 -0.0115  0.0266 -0.2800
   20CHTO   H61 8392   6.195   1.318   0.714  0.5550 -3.9342  0.1300
   20CHTO   O18 8393   6.036   1.325   0.583  0.3645 -0.2770 -0.1451
   20CHTO   C28 8394   5.894   1.329   0.561 -0.4842 -0.3313 -0.5597
   20CHTO   H56 8395   5.875   1.412   0.493  0.1088  0.3096  0.0513
   20CHTO   C35 8396   5.852   1.201   0.475 -0.3052  0.1546 -0.0349
   20CHTO   O24 8397   5.877   1.205   0.332  0.0368  0.2216 -0.5604
   20CHTO   H39 8398   5.829   1.272   0.287  0.2945 -0.3581 -1.7130
   20CHTO    O9 8399   6.062   1.171   0.768  0.0065  0.7310  0.1159
   20CHTO   C13 8400   6.200   1.054   0.761  0.1253 -0.1868  0.0337
   20CHTO   H26 8401   6.278   1.097   0.828 -0.1724 -1.6290  1.3543
   20CHTO   C11 8402   6.254   1.031   0.616  0.2146 -0.5860 -0.0159
   20CHTO   H24 8403   6.321   1.115   0.591 -1.0784  0.6392  0.5976
   20CHTO    O8 8404   6.139   1.017   0.530  0.1494 -0.1989 -0.6429
   20CHTO    H3 8405   6.130   1.082   0.463 -0.1508  0.6492  0.2225
   20CHTO    C9 8406   6.344   0.904   0.620  0.1299  0.5971 -0.0626
   20CHTO   H22 8407   6.413   0.910   0.706  0.3359 -2.3234  0.0102
   20CHTO    N2 8408   6.443   0.903   0.508  0.2468  0.3637  0.2541
   20CHTO   H10 8409   6.525   0.970   0.530  0.8686 -0.2195 -0.2241
   20CHTO   H11 8410   6.457   0.802   0.472 -1.8572  0.1914 -0.1007
   20CHTO    C7 8411   6.259   0.777   0.650  0.3145  0.4303 -0.7875
   20CHTO   H20 8412   6.322   0.718   0.719  0.6043  4.0862  2.2113
   20CHTO    O4 8413   6.142   0.806   0.731  0.2235  0.1123 -0.1064
   20CHTO   C14 8414   6.151   0.911   0.830 -0.2938  0.1304  0.1949
   20CHTO   H27 8415   6.229   0.877   0.900  0.7228 -1.0909 -1.4921
   20CHTO   C18 8416   6.017   0.904   0.902 -0.5061 -0.4725  0.2590
   20CHTO   O13 8417   6.018   0.978   1.021 -0.5965 -0.2032 -0.5112
   20CHTO    H7 8418   6.005   0.917   1.091 -0.7961  0.7490  0.2931
   20CHTO    O2 8419   6.213   0.700   0.534  0.1242 -0.2602 -0.4566
   20CHTO    C1 8420   6.193   0.564   0.575  0.7076  0.5263 -0.1135
   20CHTO   H14 8421   6.185   0.558   0.686  0.1573 -0.7269 -0.2095
   20CHTO    C2 8422   6.309   0.461   0.532 -0.8182 -0.0088 -0.1021
   20CHTO   H15 8423   6.307   0.471   0.422 -0.1724  0.3323 -0.0816
   20CHTO    O6 8424   6.442   0.508   0.581  0.5113 -0.3853  0.0133
   20CHTO    H1 8425   6.456   0.596   0.550 -0.9561 -0.2858 -0.3641
   20CHTO    C3 8426   6.267   0.319   0.593 -0.0085  0.3687  0.3995
   20CHTO   H16 8427   6.274   0.302   0.702  1.2595  0.3756  0.3337
   20CHTO    N1 8428   6.365   0.224   0.527 -0.3099  0.5920 -0.0800
   20CHTO    H8 8429   6.463   0.270   0.532 -1.0173  2.0053  1.2781
   20CHTO    H9 8430   6.347   0.132   0.580 -0.7518  0.5340 -0.3285
   20CHTO    C4 8431   6.122   0.281   0.556  0.2905 -0.0513  0.3924
   20CHTO   H17 8432   6.110   0.257   0.450 -2.3002  1.6197  0.2466
   20CHTO    O1 8433   6.031   0.385   0.596  0.8908 -0.2546  0.4990
   20CHTO    C5 8434   6.051   0.514   0.527  0.3354  0.1817  0.2619
   20CHTO   H18 8435   6.035   0.495   0.421 -0.3527  0.5052  0.3024
   20CHTO   C16 8436   5.930   0.605   0.570  0.2292 -0.2303  0.0232
   20CHTO   O11 8437   5.938   0.724   0.499 -0.1139  0.6282  1.0229
   20CHTO    H5 8438   6.017   0.773   0.512 -0.1511  1.9498 -2.8531
   20CHTO    O3 8439   6.078   0.170   0.634  0.3610 -0.5902 -0.2785
   20CHTO    C6 8440   5.958   0.104   0.592  0.2325  0.2111  0.1475
   20CHTO   H19 8441   5.899   0.167   0.526  0.8539 -0.4926 -1.0942
   20CHTO    C8 8442   5.998  -0.021   0.506  0.0304  1.2754  0.1100
   20CHTO   H21 8443   6.079  -0.075   0.555  0.4322  0.3951 -1.4881
   20CHTO    O7 8444   6.053   0.025   0.378  0.3178 -0.0269  0.4962
   20CHTO    H2 8445   6.078  -0.043   0.318 -0.0649  1.5943 -1.5541
   20CHTO   C12 8446   5.868  -0.113   0.491 -0.0423 -0.6147 -0.6213
   20CHTO   H25 8447   5.797  -0.060   0.423  0.0785  0.1252 -0.1805
   20CHTO    N3 8448   5.910  -0.234   0.412  0.6236 -0.1572 -0.3630
   20CHTO   H12 8449   5.879  -0.329   0.453 -1.3748  0.3845 -0.5718
   20CHTO   H13 8450   6.013  -0.229   0.381  0.7975 -0.9893  0.0800
   20CHTO   C15 8451   5.792  -0.135   0.624 -0.0103  0.7752 -0.0055
   20CHTO   H28 8452   5.834  -0.198   0.702  0.3394  0.3376 -0.5387
   20CHTO   O10 8453   5.654  -0.185   0.600 -0.4401 -0.0661  0.5172
   20CHTO    H4 8454   5.618  -0.216   0.681  1.8353 -0.4773  1.4342
   20CHTO    O5 8455   5.762  -0.005   0.671  0.4697 -0.5588 -1.0386
   20CHTO   C10 8456   5.876   0.072   0.720  0.6520  0.4733 -0.0453
   20CHTO   H23 8457   5.955   0.029   0.782 -0.0155 -1.9022 -0.7986
   20CHTO   C17 8458   5.824   0.200   0.792  0.3011  0.3879  0.0429
   20CHTO   O12 8459   5.777   0.161   0.922  0.2772  0.6075 -0.6450
   20CHTO    H6 8460   5.719   0.089   0.906  0.3208  0.5813 -0.6827
   21GLOH   H03 8461   4.059   8.969   0.742  1.3102  1.0665 -1.0378
   21GLOH    O1 8462   4.064   9.048   0.799  0.3722  0.4954 -0.1364
   21GLOH    C1 8463   4.091   9.003   0.929  0.0946  0.3917  0.0101
   21GLOH   H02 8464   4.131   9.083   0.992 -1.2946  1.2814 -0.2281
   21GLOH   H08 8465   4.173   8.931   0.935  0.5372  0.8692 -0.3319
   21GLOH    C2 8466   3.974   8.941   1.001  0.4331  0.6465 -0.1133
   21GLOH   H04 8467   3.924   8.879   0.924 -1.9484  5.1690 -2.3855
   21GLOH    O2 8468   4.026   8.888   1.122  0.6057  0.1377  0.0692
   21GLOH   H05 8469   3.981   8.804   1.144  0.0184  0.1780 -0.9254
   21GLOH    C3 8470   3.866   9.047   1.031 -0.2302 -0.1949  0.4274
   21GLOH   H06 8471   3.922   9.136   1.062 -0.9496 -0.2358  1.8822
   21GLOH   H07 8472   3.801   9.017   1.113 -1.0717  0.8773  0.1740
   21GLOH    O3 8473   3.783   9.072   0.917 -0.4202  0.0332  0.0687
   21GLOH   H01 8474   3.760   9.167   0.922  0.4868  0.2976 -0.6022
   22GLOH   H03 8475   3.714   8.427   2.531 -1.0032  0.5965 -0.6648
   22GLOH    O1 8476   3.768   8.490   2.582  0.4024 -0.2452 -1.0796
   22GLOH    C1 8477   3.900   8.486   2.519  1.1587 -0.2044  0.5807
   22GLOH   H02 8478   3.878   8.501   2.413  1.7215 -0.0649  0.4870
   22GLOH   H08 8479   3.944   8.389   2.544  0.6240 -1.2397 -2.2512
   22GLOH    C2 8480   3.995   8.599   2.559  0.3275 -0.0518 -0.5208
   22GLOH   H04 8481   4.023   8.581   2.663  1.0543 -0.8044 -0.8430
   22GLOH    O2 8482   4.111   8.589   2.482 -0.0943 -0.0688 -0.1659
   22GLOH   H05 8483   4.142   8.497   2.474 -0.0256 -0.0081 -0.5786
   22GLOH    C3 8484   3.922   8.734   2.535 -0.1910  0.2537 -0.3623
   22GLOH   H06 8485   3.888   8.753   2.433 -3.1749 -1.0338  0.3277
   22GLOH   H07 8486   3.991   8.810   2.572  1.8365 -0.5561 -2.3871
   22GLOH    O3 8487   3.800   8.741   2.604  1.0882 -0.4890 -0.0760
   22GLOH   H01 8488   3.776   8.647   2.619  2.0399 -0.9793 -1.5541
   23GLOH   H03 8489   3.383   8.657   1.050 -0.1137 -0.3009 -0.1290
   23GLOH    O1 8490   3.335   8.621   0.973 -0.1082 -0.2259 -0.1675
   23GLOH    C1 8491   3.369   8.694   0.857  0.6908  0.4420 -0.4886
   23GLOH   H02 8492   3.444   8.641   0.798  0.2317  2.0386 -2.5941
   23GLOH   H08 8493   3.410   8.792   0.882  1.9043  0.0405 -0.8546
   23GLOH    C2 8494   3.250   8.703   0.764  0.5223  0.1735 -0.3079
   23GLOH   H04 8495   3.166   8.746   0.822  1.7722  1.6394  0.4505
   23GLOH    O2 8496   3.269   8.790   0.653 -0.3167  0.0515 -0.3945
   23GLOH   H05 8497   3.286   8.741   0.571  0.1621  1.3044 -1.0574
   23GLOH    C3 8498   3.224   8.561   0.711  0.0158  0.6360  0.5131
   23GLOH   H06 8499   3.308   8.522   0.653 -1.1024 -2.4060  0.8257
   23GLOH   H07 8500   3.133   8.561   0.650  0.6937  1.6598 -0.5038
   23GLOH    O3 8501   3.202   8.465   0.820  0.4840 -0.0952  0.1493
   23GLOH   H01 8502   3.248   8.502   0.897 -1.3170  0.8588  0.8002
   24GLOH   H03 8503   2.746   0.094   0.854 -3.6907  1.6421 -0.2202
   24GLOH    O1 8504   2.751   0.140   0.940  0.4028  0.1987  0.3750
   24GLOH    C1 8505   2.826   0.048   1.026 -0.0364  0.4969  0.6933
   24GLOH   H02 8506   2.865   0.105   1.110 -0.3863  0.3456  0.9573
   24GLOH   H08 8507   2.914   0.003   0.979  0.6658  3.2724 -0.7496
   24GLOH    C2 8508   2.753  -0.078   1.073 -0.0376  0.5706  0.7966
   24GLOH   H04 8509   2.743  -0.139   0.982 -0.4046  2.1012 -0.2017
   24GLOH    O2 8510   2.833  -0.154   1.177 -0.3266 -0.4158 -0.0449
   24GLOH   H05 8511   2.771  -0.192   1.241  0.3990  0.3386  1.1328
   24GLOH    C3 8512   2.604  -0.047   1.123  0.5399  0.1564  0.0046
   24GLOH   H06 8513   2.541  -0.019   1.039 -1.6683 -1.7027  0.9650
   24GLOH   H07 8514   2.600   0.039   1.190 -0.6751 -0.6882  1.0511
   24GLOH    O3 8515   2.542  -0.168   1.178 -0.1122  0.0427 -0.0962
   24GLOH   H01 8516   2.456  -0.142   1.216  0.1898 -1.6257  1.8150
   25GLOH   H03 8517   3.997   9.224   2.222  1.3507  0.1905 -2.0797
   25GLOH    O1 8518   4.057   9.274   2.280  0.1064 -0.3275 -0.2952
   25GLOH    C1 8519   4.145   9.185   2.350 -0.1268 -0.2245 -0.2926
   25GLOH   H02 8520   4.236   9.232   2.385  0.3036  0.1682 -1.9137
   25GLOH   H08 8521   4.173   9.106   2.281 -0.7164 -1.5419  0.9352
   25GLOH    C2 8522   4.084   9.110   2.476  0.4230 -0.5596 -0.0454
   25GLOH   H04 8523   4.056   9.189   2.548  2.2447  0.3184 -0.2502
   25GLOH    O2 8524   3.966   9.032   2.440  0.2594 -0.0394 -0.1714
   25GLOH   H05 8525   3.887   9.088   2.439 -0.1234 -0.4914  2.7540
   25GLOH    C3 8526   4.193   9.035   2.550 -0.6448 -0.7996  0.2080
   25GLOH   H06 8527   4.283   9.096   2.567 -1.3950  0.1469  0.8441
   25GLOH   H07 8528   4.228   8.945   2.499  1.8165  0.8278 -1.1035
   25GLOH    O3 8529   4.149   8.994   2.678  0.2204 -0.3762  0.3740
   25GLOH   H01 8530   4.053   8.995   2.661  0.1829 -1.4454  0.4744
   26GLOH   H03 8531   4.746   9.921   0.417 -1.8054 -0.6149  0.1101
   26GLOH    O1 8532   4.761   9.934   0.513 -0.3785 -0.2446 -0.1499
   26GLOH    C1 8533   4.864   9.856   0.571  0.0516  0.1455 -0.9890
   26GLOH   H02 8534   4.956   9.887   0.520  0.9957 -0.9928 -0.0007
   26GLOH   H08 8535   4.851   9.749   0.552 -2.0680  0.2252 -0.1233
   26GLOH    C2 8536   4.877   9.878   0.720 -0.0827 -0.4973  0.1625
   26GLOH   H04 8537   4.784   9.896   0.776 -0.1791  1.4466 -0.6007
   26GLOH    O2 8538   4.946   9.763   0.777 -0.0473  0.3408 -0.0953
   26GLOH   H05 8539   4.921   9.754   0.871 -2.0059  1.4384 -0.4885
   26GLOH    C3 8540   4.967  10.008   0.741  0.2744  0.5498 -0.4462
   26GLOH   H06 8541   5.059   9.996   0.684 -1.0397 -0.8590 -2.3432
   26GLOH   H07 8542   5.003  10.023   0.843  0.3433  1.4357 -0.5949
   26GLOH    O3 8543   4.902  10.134   0.707  0.3305  0.2201 -0.1264
   26GLOH   H01 8544   4.805  10.129   0.718  0.2065  1.3749 -0.5689
   27GLOH   H03 8545   3.248   8.944   0.685  0.9353  0.3529 -0.9340
   27GLOH    O1 8546   3.262   9.035   0.716  0.5523  0.0861  0.0532
   27GLOH    C1 8547   3.383   9.090   0.678 -0.5432  0.4515  0.2969
   27GLOH   H02 8548   3.401   9.068   0.573 -0.5196 -0.7435  0.5467
   27GLOH   H08 8549   3.460   9.049   0.742 -2.7427 -0.3519  2.5088
   27GLOH    C2 8550   3.374   9.244   0.695 -0.2103  0.8624  0.2551
   27GLOH   H04 8551   3.369   9.261   0.803  1.1433 -0.3393  0.5169
   27GLOH    O2 8552   3.505   9.299   0.660 -1.2601 -0.1101 -0.4819
   27GLOH   H05 8553   3.554   9.232   0.608 -0.8509  1.1333 -1.7251
   27GLOH    C3 8554   3.256   9.296   0.613  0.6791  0.8349  0.2266
   27GLOH   H06 8555   3.269   9.265   0.509 -3.3553 -3.9757  0.9716
   27GLOH   H07 8556   3.233   9.402   0.606 -1.1166  0.4697  0.3190
   27GLOH    O3 8557   3.135   9.234   0.653 -0.5710  0.3508 -0.2739
   27GLOH   H01 8558   3.169   9.147   0.683  0.8712  1.6144  1.8634
   28GLOH   H03 8559   4.909   0.083   1.598 -1.8674  2.9919  1.4531
   28GLOH    O1 8560   4.848   0.034   1.656 -0.4403 -0.3678  0.2939
   28GLOH    C1 8561   4.719   0.019   1.601  0.2422  0.0783  0.3831
   28GLOH   H02 8562   4.666   0.112   1.578 -0.9092 -0.7001 -0.1398
   28GLOH   H08 8563   4.653  -0.029   1.673  0.8513 -2.7908 -0.9336
   28GLOH    C2 8564   4.731  -0.070   1.474  0.4247  0.7442  0.2719
   28GLOH   H04 8565   4.802  -0.151   1.499 -1.3366 -1.3045 -1.2829
   28GLOH    O2 8566   4.599  -0.122   1.431  0.5059 -0.9343 -0.4813
   28GLOH   H05 8567   4.614  -0.179   1.353  0.3851 -2.2312  0.4290
   28GLOH    C3 8568   4.793   0.019   1.365  0.5152 -0.0833  0.0352
   28GLOH   H06 8569   4.729   0.102   1.337  1.4017  1.0394  1.3195
   28GLOH   H07 8570   4.798  -0.050   1.280  0.6848  0.7486 -0.6352
   28GLOH    O3 8571   4.923   0.062   1.403  0.6926 -0.1212  0.1172
   28GLOH   H01 8572   4.924   0.159   1.410 -0.3368 -0.1258  0.4497
   29GLOH   H03 8573   3.941   0.848   1.226 -0.6257  0.7246 -0.9253
   29GLOH    O1 8574   4.012   0.908   1.197 -0.1176  0.2443 -0.6705
   29GLOH    C1 8575   4.061   0.949   1.324  0.5672 -0.5209  0.4166
   29GLOH   H02 8576   3.989   1.023   1.361  1.9273  0.4021  1.2854
   29GLOH   H08 8577   4.153   1.004   1.306 -0.7269  2.2019  1.7403
   29GLOH    C2 8578   4.089   0.843   1.427  0.9201 -0.4363 -0.5453
   29GLOH   H04 8579   3.991   0.802   1.454  1.9068 -1.8578  0.9440
   29GLOH    O2 8580   4.181   0.740   1.386  0.2147 -0.1850  0.0094
   29GLOH   H05 8581   4.164   0.728   1.291  1.9562 -0.4510 -0.2737
   29GLOH    C3 8582   4.141   0.912   1.558  0.6330 -0.0989  1.1023
   29GLOH   H06 8583   4.242   0.949   1.546 -0.0878  1.0488 -1.8615
   29GLOH   H07 8584   4.138   0.835   1.635  2.6668 -1.5602 -0.2374
   29GLOH    O3 8585   4.064   1.028   1.615 -0.4117  0.2419 -0.3774
   29GLOH   H01 8586   4.109   1.075   1.687  3.7379 -2.1632 -1.2281
   30GLOH   H03 8587   3.400   9.119   2.362 -0.4414 -0.1605 -1.4832
   30GLOH    O1 8588   3.329   9.186   2.354 -0.5305 -0.0328  0.3046
   30GLOH    C1 8589   3.340   9.276   2.465 -0.2794 -0.0175  0.0051
   30GLOH   H02 8590   3.287   9.369   2.444  0.6787  1.5499  3.9830
   30GLOH   H08 8591   3.440   9.307   2.496  0.0630 -0.1541 -0.9609
   30GLOH    C2 8592   3.267   9.233   2.598  1.0048 -0.1954  0.9382
   30GLOH   H04 8593   3.163   9.211   2.570  0.9513 -1.3189  1.9994
   30GLOH    O2 8594   3.328   9.116   2.665 -0.5247  0.3211  0.2902
   30GLOH   H05 8595   3.279   9.085   2.743 -2.3904 -0.7757 -1.2871
   30GLOH    C3 8596   3.260   9.351   2.694 -0.4581 -0.0795  1.3896
   30GLOH   H06 8597   3.226   9.437   2.637  1.6693  0.4514  0.8721
   30GLOH   H07 8598   3.365   9.376   2.712 -0.7632  1.6878  0.7388
   30GLOH    O3 8599   3.198   9.338   2.821  0.9054  0.4215 -0.6777
   30GLOH   H01 8600   3.265   9.299   2.879 -0.0600  0.2335  0.3419
   31GLOH   H03 8601   3.343   0.727   1.083  1.0225  0.5399 -0.1522
   31GLOH    O1 8602   3.410   0.686   1.025  0.5686 -0.1533 -0.1980
   31GLOH    C1 8603   3.533   0.765   1.033 -0.3871 -0.4442 -0.0614
   31GLOH   H02 8604   3.509   0.860   1.080 -1.3243 -0.6761 -0.0514
   31GLOH   H08 8605   3.576   0.784   0.935 -1.6932  0.8883 -0.3934
   31GLOH    C2 8606   3.633   0.701   1.126  0.4215 -0.0592  0.0475
   31GLOH   H04 8607   3.572   0.697   1.217 -0.7760  0.4647 -0.7227
   31GLOH    O2 8608   3.671   0.571   1.081 -0.7381 -0.4895 -0.2553
   31GLOH   H05 8609   3.592   0.528   1.045  0.0731 -0.4520 -2.1455
   31GLOH    C3 8610   3.750   0.794   1.152  0.2125  0.0533 -0.1736
   31GLOH   H06 8611   3.726   0.895   1.184 -2.0791 -0.3221 -0.6460
   31GLOH   H07 8612   3.799   0.805   1.055 -3.1186 -0.3208 -1.9830
   31GLOH    O3 8613   3.850   0.740   1.242 -0.3124 -0.5007 -0.2029
   31GLOH   H01 8614   3.863   0.649   1.211  3.2608  0.0040 -0.4153
   32GLOH   H03 8615   3.368   0.696   2.630 -1.3409 -2.4721 -0.2651
   32GLOH    O1 8616   3.338   0.705   2.722 -0.3775 -0.0490 -0.1501
   32GLOH    C1 8617   3.204   0.657   2.734  0.4973 -0.0228  0.5898
   32GLOH   H02 8618   3.182   0.642   2.840  1.8402  1.8976  1.1664
   32GLOH   H08 8619   3.205   0.568   2.671 -0.0086 -0.7463  1.5929
   32GLOH    C2 8620   3.117   0.768   2.680 -0.1854 -0.6494 -0.3952
   32GLOH   H04 8621   3.151   0.797   2.579  2.8868  1.0344  1.0641
   32GLOH    O2 8622   2.984   0.715   2.666 -0.2347 -0.0409 -0.1549
   32GLOH   H05 8623   2.942   0.738   2.750 -0.8154  1.7804 -0.9290
   32GLOH    C3 8624   3.111   0.900   2.758 -0.1940 -0.2504  0.2620
   32GLOH   H06 8625   3.040   0.963   2.704  0.0293 -0.7136 -0.5883
   32GLOH   H07 8626   3.208   0.948   2.748 -0.3026 -0.0656  0.0986
   32GLOH    O3 8627   3.057   0.884   2.892 -0.0123 -0.3546  0.7039
   32GLOH   H01 8628   3.125   0.912   2.956  0.4901 -1.5612  0.6975
   33GLOH   H03 8629   3.532   9.042   2.199  0.0305 -0.3809 -0.9134
   33GLOH    O1 8630   3.536   9.126   2.150  0.1807  0.0382 -0.1873
   33GLOH    C1 8631   3.665   9.123   2.086  0.1767 -0.8235  1.0860
   33GLOH   H02 8632   3.655   9.142   1.979  3.2482 -1.1577  0.6973
   33GLOH   H08 8633   3.716   9.027   2.091  3.0698  0.4955 -1.7575
   33GLOH    C2 8634   3.764   9.233   2.141 -0.9601  0.2519  0.7788
   33GLOH   H04 8635   3.758   9.214   2.250 -3.5245 -1.1435  0.4335
   33GLOH    O2 8636   3.894   9.219   2.092 -0.2430 -0.6992 -0.1006
   33GLOH   H05 8637   3.909   9.279   2.017  0.6181 -0.5227  0.2162
   33GLOH    C3 8638   3.710   9.377   2.136  0.6756  0.3510  0.4972
   33GLOH   H06 8639   3.788   9.440   2.179  3.3352 -1.9841 -0.7790
   33GLOH   H07 8640   3.622   9.386   2.201 -1.6820  1.3681 -2.6857
   33GLOH    O3 8641   3.678   9.414   2.000 -0.5976  0.1687 -0.4089
   33GLOH   H01 8642   3.686   9.510   1.987  2.3435 -0.0184 -0.2546
   34GLOH   H03 8643   3.363   9.819   0.479  0.5115  0.8410  0.3172
   34GLOH    O1 8644   3.389   9.844   0.388 -0.7131  0.1651 -0.2286
   34GLOH    C1 8645   3.382   9.990   0.392 -0.4137 -0.1292 -0.4872
   34GLOH   H02 8646   3.415  10.025   0.294  3.1225 -1.6816  0.0654
   34GLOH   H08 8647   3.450  10.026   0.469 -0.6720  1.6512 -1.0636
   34GLOH    C2 8648   3.236  10.041   0.421 -0.2685 -0.3262  0.1550
   34GLOH   H04 8649   3.175   9.997   0.341  0.3399  0.9725 -1.0435
   34GLOH    O2 8650   3.194   9.999   0.553 -0.3351  0.0008  0.6830
   34GLOH   H05 8651   3.267  10.016   0.615 -0.8307  0.6681  1.1005
   34GLOH    C3 8652   3.229  10.194   0.394  0.4194 -0.0134  0.1424
   34GLOH   H06 8653   3.291  10.240   0.471 -0.0018 -0.4205  0.7287
   34GLOH   H07 8654   3.125  10.225   0.401  0.0956 -0.7976 -1.0238
   34GLOH    O3 8655   3.284  10.227   0.264 -0.1390 -0.4469  0.3547
   34GLOH   H01 8656   3.266  10.148   0.209 -2.3535 -0.6384  1.2914
   35GLOH   H03 8657   4.106   0.574   1.160 -0.5341  0.2530  4.3136
   35GLOH    O1 8658   4.174   0.644   1.156  0.2991 -0.6744 -0.9449
   35GLOH    C1 8659   4.239   0.623   1.029 -0.4536 -0.2421  0.0282
   35GLOH   H02 8660   4.172   0.654   0.949  1.6374  1.0353 -1.2850
   35GLOH   H08 8661   4.258   0.517   1.014 -1.3991 -0.7072  1.9121
   35GLOH    C2 8662   4.365   0.714   1.029 -0.6331 -0.0836  0.7087
   35GLOH   H04 8663   4.429   0.672   1.108  1.7904  0.9294 -0.6744
   35GLOH    O2 8664   4.433   0.697   0.899  0.6013  0.1201  0.1260
   35GLOH   H05 8665   4.457   0.787   0.870  1.5214 -0.0088  0.4784
   35GLOH    C3 8666   4.350   0.859   1.082 -0.9307  0.1633  0.2409
   35GLOH   H06 8667   4.441   0.919   1.081 -0.8701  0.2334  3.3654
   35GLOH   H07 8668   4.325   0.835   1.186 -2.3895  2.2643  0.3902
   35GLOH    O3 8669   4.233   0.923   1.037  0.7059  0.1499  0.4057
   35GLOH   H01 8670   4.168   0.918   1.110 -0.6050  2.6505 -0.5308
   36GLOH   H03 8671   4.068   0.184   2.112 -0.6984 -0.4457  1.9687
   36GLOH    O1 8672   3.976   0.205   2.089 -0.0858  0.3990  0.2540
   36GLOH    C1 8673   3.948   0.326   2.165  0.1987  0.4930 -0.5993
   36GLOH   H02 8674   3.991   0.415   2.117 -0.1858 -0.2984 -2.4473
   36GLOH   H08 8675   3.980   0.307   2.267 -0.4628  0.2163 -0.4475
   36GLOH    C2 8676   3.793   0.344   2.175  0.9961 -0.1155  0.6633
   36GLOH   H04 8677   3.749   0.255   2.223 -2.9268 -0.3435 -3.1180
   36GLOH    O2 8678   3.769   0.462   2.250  0.1218 -0.7203 -0.3872
   36GLOH   H05 8679   3.676   0.484   2.230  0.3911 -1.0029 -2.0326
   36GLOH    C3 8680   3.724   0.343   2.039  0.0770 -1.1392 -0.1676
   36GLOH   H06 8681   3.767   0.429   1.988  0.8901 -1.8340 -0.6593
   36GLOH   H07 8682   3.620   0.374   2.053  0.5283  1.4686 -2.1352
   36GLOH    O3 8683   3.744   0.226   1.959  0.4798  0.6644  0.1065
   36GLOH   H01 8684   3.828   0.192   1.996  0.1046 -0.9800 -0.4922
   37GLOH   H03 8685   3.869   0.681   1.762 -1.3713 -0.6951 -1.1324
   37GLOH    O1 8686   3.905   0.627   1.690  0.5373 -0.2165 -0.5821
   37GLOH    C1 8687   3.930   0.496   1.731 -0.8474 -0.0213 -0.5996
   37GLOH   H02 8688   3.912   0.428   1.647  0.5445 -0.1693 -0.8040
   37GLOH   H08 8689   3.867   0.468   1.815 -3.6037  3.0140 -1.5439
   37GLOH    C2 8690   4.076   0.476   1.777 -0.2095  0.0202  0.8281
   37GLOH   H04 8691   4.081   0.542   1.865 -1.5939  1.0401  0.1636
   37GLOH    O2 8692   4.090   0.346   1.825  0.9136  0.5011  0.5021
   37GLOH   H05 8693   4.182   0.341   1.857  0.3480 -0.2814  2.0518
   37GLOH    C3 8694   4.197   0.503   1.686 -0.6061  0.1449 -0.0469
   37GLOH   H06 8695   4.289   0.535   1.734 -0.2458  0.3684 -0.8798
   37GLOH   H07 8696   4.169   0.596   1.637 -0.1017 -0.2275 -1.0306
   37GLOH    O3 8697   4.225   0.399   1.590  0.0708  0.1614  0.2575
   37GLOH   H01 8698   4.314   0.362   1.602 -0.1372 -0.2698  0.4919
   38GLOH   H03 8699   3.205   8.999   0.986 -0.8297  2.8087  1.2179
   38GLOH    O1 8700   3.298   9.009   1.012 -0.2739  0.4331  0.2333
   38GLOH    C1 8701   3.321   8.916   1.116 -0.1045 -0.4505 -0.5059
   38GLOH   H02 8702   3.427   8.907   1.139 -0.7019  0.3277  2.8285
   38GLOH   H08 8703   3.289   8.820   1.076  1.4866 -0.5863 -1.4856
   38GLOH    C2 8704   3.244   8.927   1.245 -0.5595  0.2988 -0.0806
   38GLOH   H04 8705   3.139   8.945   1.217 -0.7977 -0.3149  0.3911
   38GLOH    O2 8706   3.252   8.800   1.313  0.2581  0.3173 -0.4215
   38GLOH   H05 8707   3.226   8.803   1.406 -0.2519  0.5791 -0.5759
   38GLOH    C3 8708   3.301   9.048   1.325  0.2099 -0.2906  0.4040
   38GLOH   H06 8709   3.326   9.126   1.252 -0.3958 -1.0179 -0.6099
   38GLOH   H07 8710   3.394   9.017   1.371  1.7595  2.2794 -0.8254
   38GLOH    O3 8711   3.202   9.096   1.416  0.3484 -0.4918  0.6356
   38GLOH   H01 8712   3.163   9.018   1.459 -1.5672 -1.5706 -2.8895
   39GLOH   H03 8713   4.523   8.630   1.906 -0.1327 -0.5088  0.7166
   39GLOH    O1 8714   4.607   8.584   1.926  0.2908 -0.3115 -0.6160
   39GLOH    C1 8715   4.698   8.676   1.997  0.4199  0.1961 -0.0005
   39GLOH   H02 8716   4.674   8.782   1.995 -0.2336  0.0644  0.8004
   39GLOH   H08 8717   4.796   8.686   1.950 -1.1636  1.4828 -3.1317
   39GLOH    C2 8718   4.710   8.639   2.142  0.2447  0.0050 -0.6715
   39GLOH   H04 8719   4.791   8.708   2.167 -2.9811  4.0401 -0.8787
   39GLOH    O2 8720   4.583   8.671   2.205 -0.4268 -0.2695  0.2337
   39GLOH   H05 8721   4.507   8.639   2.153 -1.4209  0.9807  0.8974
   39GLOH    C3 8722   4.751   8.488   2.146  0.1732 -0.1988  0.4969
   39GLOH   H06 8723   4.778   8.465   2.249  3.6526 -3.8570 -1.1019
   39GLOH   H07 8724   4.841   8.465   2.088 -0.2523  2.2480 -1.2227
   39GLOH    O3 8725   4.652   8.395   2.098  0.0362  0.0024  0.3864
   39GLOH   H01 8726   4.619   8.445   2.021 -0.9988  0.0656  0.8698
   40GLOH   H03 8727   3.755   8.614   0.560 -0.4389  0.3397 -0.4679
   40GLOH    O1 8728   3.765   8.569   0.474 -0.6195  0.3923 -0.5166
   40GLOH    C1 8729   3.651   8.618   0.396  0.9415 -0.8382  0.9143
   40GLOH   H02 8730   3.564   8.553   0.395  0.4822 -0.2368 -0.7711
   40GLOH   H08 8731   3.683   8.616   0.291  1.5558 -0.8412  1.0975
   40GLOH    C2 8732   3.599   8.757   0.435 -0.3736 -0.7647  0.1412
   40GLOH   H04 8733   3.691   8.816   0.423 -1.0046 -0.0103 -1.0854
   40GLOH    O2 8734   3.506   8.816   0.343  0.1360 -0.0576  0.2764
   40GLOH   H05 8735   3.572   8.857   0.285  0.4823  0.0598  0.7566
   40GLOH    C3 8736   3.549   8.754   0.575  0.4263  0.1491  0.0428
   40GLOH   H06 8737   3.462   8.689   0.576  0.2286  0.4128  0.0238
   40GLOH   H07 8738   3.515   8.852   0.608 -2.6823 -0.9437  0.2326
   40GLOH    O3 8739   3.658   8.714   0.655  0.2432 -0.3086 -0.3510
   40GLOH   H01 8740   3.649   8.775   0.730 -0.4380 -1.4250  0.4934
   41GLOH   H03 8741   3.134   0.315   2.517 -0.6169 -1.3783 -0.9253
   41GLOH    O1 8742   3.139   0.386   2.450  0.6298  0.0703  0.6401
   41GLOH    C1 8743   3.281   0.405   2.414 -0.6914  0.8576  0.5359
   41GLOH   H02 8744   3.336   0.438   2.503  1.0361 -0.0588 -0.1723
   41GLOH   H08 8745   3.293   0.488   2.344  1.0682 -0.0061 -0.2018
   41GLOH    C2 8746   3.342   0.285   2.343  0.3353 -0.5224 -0.3842
   41GLOH   H04 8747   3.343   0.201   2.414  2.1822 -0.8645 -0.7820
   41GLOH    O2 8748   3.268   0.235   2.223  0.5692 -0.5633  0.1804
   41GLOH   H05 8749   3.207   0.167   2.257 -1.6015  2.5867  3.0124
   41GLOH    C3 8750   3.487   0.322   2.306 -0.1157  0.2601 -0.1816
   41GLOH   H06 8751   3.527   0.246   2.239  1.1911  1.1151 -0.3848
   41GLOH   H07 8752   3.550   0.325   2.395  0.9443  1.4527 -0.9668
   41GLOH    O3 8753   3.504   0.453   2.235  0.4860 -0.6391  0.0081
   41GLOH   H01 8754   3.429   0.475   2.176  1.6766 -0.2724 -1.4203
   42GLOH   H03 8755   3.354   0.218   1.911  0.2176  0.6031  0.2839
   42GLOH    O1 8756   3.276   0.233   1.853 -0.1585 -0.0746  0.6030
   42GLOH    C1 8757   3.267   0.379   1.838  0.6392  0.2857  0.0017
   42GLOH   H02 8758   3.232   0.397   1.736 -0.7643 -1.2819  0.1958
   42GLOH   H08 8759   3.366   0.423   1.846  0.7519  0.0913 -0.3220
   42GLOH    C2 8760   3.170   0.439   1.946 -0.7388  0.6799  0.6534
   42GLOH   H04 8761   3.079   0.380   1.965  0.6504 -1.5801  0.5567
   42GLOH    O2 8762   3.238   0.445   2.070 -0.3695 -0.1617  0.0991
   42GLOH   H05 8763   3.230   0.360   2.117 -2.3154 -0.8644 -1.4393
   42GLOH    C3 8764   3.109   0.571   1.888 -0.0511  0.4967 -0.4361
   42GLOH   H06 8765   3.188   0.631   1.845  0.6121 -1.0813 -1.4784
   42GLOH   H07 8766   3.073   0.638   1.966 -0.9066 -1.7164  1.1196
   42GLOH    O3 8767   3.017   0.545   1.785  0.3766  0.7326 -0.0348
   42GLOH   H01 8768   2.947   0.489   1.824  3.1427 -1.6682  1.7480
   43GLOH   H03 8769   3.452   0.734   0.268  0.0076 -0.7850  1.7430
   43GLOH    O1 8770   3.418   0.653   0.226  0.0711  0.0770 -0.0258
   43GLOH    C1 8771   3.500   0.616   0.117  0.1500  0.2010 -0.6330
   43GLOH   H02 8772   3.548   0.699   0.066  0.6172  0.2729 -0.0767
   43GLOH   H08 8773   3.425   0.576   0.048 -0.8006 -0.7565  0.9228
   43GLOH    C2 8774   3.599   0.501   0.139 -0.6127 -0.3959 -0.0055
   43GLOH   H04 8775   3.670   0.542   0.212 -0.2101  0.0184 -0.6187
   43GLOH    O2 8776   3.525   0.385   0.172  0.5091 -0.4564 -0.1280
   43GLOH   H05 8777   3.451   0.408   0.231  0.6088 -0.1589 -0.1175
   43GLOH    C3 8778   3.684   0.471   0.018 -0.2893 -0.3410  0.6248
   43GLOH   H06 8779   3.614   0.440  -0.059  0.7524 -0.0618 -0.4579
   43GLOH   H07 8780   3.738   0.380   0.044  1.8758  1.0229  1.0197
   43GLOH    O3 8781   3.779   0.569  -0.025  0.7703 -0.1956  0.4262
   43GLOH   H01 8782   3.843   0.535  -0.090 -0.5276 -0.9952 -0.4364
   44GLOH   H03 8783   3.736   0.026   1.219 -0.0736  1.2751 -0.2031
   44GLOH    O1 8784   3.790  -0.022   1.154  0.0962  0.3696  0.5911
   44GLOH    C1 8785   3.793   0.041   1.019 -0.4849  0.1089 -0.7099
   44GLOH   H02 8786   3.802   0.148   1.034 -2.4517  0.1793  0.1425
   44GLOH   H08 8787   3.693   0.027   0.978 -0.8286  2.5434 -0.7696
   44GLOH    C2 8788   3.898  -0.013   0.919 -1.0181  0.7486 -0.5849
   44GLOH   H04 8789   3.884  -0.120   0.895 -2.3459  0.5843  0.8415
   44GLOH    O2 8790   3.904   0.060   0.796 -0.2990  0.3184  0.1447
   44GLOH   H05 8791   3.851   0.021   0.725 -0.5189  2.1500 -0.7338
   44GLOH    C3 8792   4.033  -0.015   0.987 -0.0231 -0.4145  0.6213
   44GLOH   H06 8793   4.073   0.086   0.992  0.5430 -0.6748  1.4817
   44GLOH   H07 8794   4.094  -0.078   0.922 -0.8573  1.2931 -1.8911
   44GLOH    O3 8795   4.034  -0.080   1.115  0.3446  0.5575  0.3300
   44GLOH   H01 8796   3.950  -0.047   1.152  0.1951  0.3371  0.1912
   45GLOH   H03 8797   4.262   9.539   1.933  0.0297 -0.0457 -0.5714
   45GLOH    O1 8798   4.242   9.590   2.013 -0.0009 -0.8377 -0.0635
   45GLOH    C1 8799   4.180   9.516   2.119  0.2505 -0.1422  0.0554
   45GLOH   H02 8800   4.186   9.407   2.112  1.9094  0.0117 -1.1840
   45GLOH   H08 8801   4.073   9.538   2.122  0.4728  0.9550  0.2041
   45GLOH    C2 8802   4.239   9.551   2.258  0.1764 -0.6136  0.5657
   45GLOH   H04 8803   4.223   9.658   2.273  0.0216  0.0337 -3.6066
   45GLOH    O2 8804   4.166   9.491   2.365  0.1017 -0.2906  0.1295
   45GLOH   H05 8805   4.105   9.430   2.321  0.5399  0.2781 -1.2840
   45GLOH    C3 8806   4.392   9.520   2.268 -0.0708  0.1070 -0.4726
   45GLOH   H06 8807   4.435   9.589   2.341 -0.6052 -0.4290  0.3617
   45GLOH   H07 8808   4.431   9.549   2.171 -1.4777 -3.6231 -2.2376
   45GLOH    O3 8809   4.412   9.385   2.315  0.6462 -0.0050 -0.1859
   45GLOH   H01 8810   4.371   9.387   2.403  0.8252  2.1496 -0.1341
   46GLOH   H03 8811   3.260   8.356   2.131 -2.8596  1.0652  2.5500
   46GLOH    O1 8812   3.189   8.298   2.097 -0.6639 -0.1941 -0.0101
   46GLOH    C1 8813   3.211   8.269   1.955 -0.0480  0.3667 -0.6353
   46GLOH   H02 8814   3.115   8.230   1.919 -0.2348  0.1599  0.0702
   46GLOH   H08 8815   3.276   8.185   1.932  0.3153  0.7730 -1.0897
   46GLOH    C2 8816   3.262   8.384   1.866 -0.0337  0.3380 -0.2751
   46GLOH   H04 8817   3.371   8.395   1.872 -0.0834  0.1405  1.0498
   46GLOH    O2 8818   3.225   8.360   1.726 -0.5803  0.5158  0.3738
   46GLOH   H05 8819   3.132   8.388   1.718  0.0153  2.6139  0.6016
   46GLOH    C3 8820   3.203   8.518   1.915 -0.2700 -0.2366 -0.5143
   46GLOH   H06 8821   3.095   8.514   1.927 -0.5130  1.3233 -1.8495
   46GLOH   H07 8822   3.214   8.584   1.828  3.3542  1.8153  1.3811
   46GLOH    O3 8823   3.270   8.583   2.024  0.4582  0.3800  0.2805
   46GLOH   H01 8824   3.367   8.589   2.016  0.7713 -2.4068  1.5885
   47GLOH   H03 8825   3.215   9.933   0.087  0.0509 -1.0089 -2.4731
   47GLOH    O1 8826   3.209  10.030   0.074  0.6320 -0.5368  0.4096
   47GLOH    C1 8827   3.130  10.059  -0.048 -0.8087 -0.7554 -0.2274
   47GLOH   H02 8828   3.028  10.083  -0.018 -0.9141 -2.6242  0.9806
   47GLOH   H08 8829   3.124   9.973  -0.115 -0.3679 -1.7357  0.9806
   47GLOH    C2 8830   3.175  10.187  -0.128  0.0801  0.2582  0.3846
   47GLOH   H04 8831   3.284  10.191  -0.135  0.0873 -1.8025 -0.9638
   47GLOH    O2 8832   3.115  10.206  -0.256 -0.1546 -0.2443 -0.6718
   47GLOH   H05 8833   3.072  10.123  -0.284 -0.8311  0.2288 -1.0256
   47GLOH    C3 8834   3.140  10.308  -0.035  0.8260 -0.3174 -0.7902
   47GLOH   H06 8835   3.168  10.398  -0.091 -1.0492 -0.0305 -1.2917
   47GLOH   H07 8836   3.206  10.307   0.052 -0.0294 -0.5813 -0.1452
   47GLOH    O3 8837   2.998  10.310   0.001 -0.4671 -0.2139  0.2071
   47GLOH   H01 8838   2.950  10.288  -0.081  0.2228  0.4646 -0.3784
   48GLOH   H03 8839   3.403   8.945   1.848  1.1632  1.7943  1.1327
   48GLOH    O1 8840   3.336   8.946   1.919 -0.3288  0.5405 -0.2146
   48GLOH    C1 8841   3.289   9.070   1.962 -0.0837 -0.3359 -0.0468
   48GLOH   H02 8842   3.235   9.106   1.874 -0.1470 -0.8559 -0.2245
   48GLOH   H08 8843   3.370   9.140   1.981 -0.7899  1.5040 -3.3337
   48GLOH    C2 8844   3.209   9.045   2.089  0.3441 -0.5744 -0.0098
   48GLOH   H04 8845   3.268   8.986   2.160  0.5950  0.4159  0.6086
   48GLOH    O2 8846   3.186   9.170   2.155 -0.0506 -0.4197 -0.1663
   48GLOH   H05 8847   3.250   9.171   2.229  2.4351 -0.9299 -2.2509
   48GLOH    C3 8848   3.079   8.971   2.056  0.0175  0.6346 -0.4524
   48GLOH   H06 8849   3.036   9.040   1.984  0.1400  1.6066  0.3908
   48GLOH   H07 8850   3.020   8.977   2.147  1.4754  1.3111  0.4702
   48GLOH    O3 8851   3.103   8.845   2.003 -0.5212  0.0624  0.0851
   48GLOH   H01 8852   3.192   8.861   1.966 -0.9001  2.1077 -0.0141
   49GLOH   H03 8853   3.728   0.536   0.463  0.8443 -0.8183 -1.8049
   49GLOH    O1 8854   3.699   0.445   0.485  0.1987 -0.3358 -0.6001
   49GLOH    C1 8855   3.783   0.339   0.444  0.0715 -0.1013  0.5955
   49GLOH   H02 8856   3.866   0.342   0.515  1.3665  0.2993 -0.9173
   49GLOH   H08 8857   3.828   0.363   0.348 -1.8848 -1.0848 -0.5771
   49GLOH    C2 8858   3.711   0.201   0.454 -0.1314 -0.3857  1.0039
   49GLOH   H04 8859   3.618   0.206   0.396  0.6575 -0.4169 -0.2704
   49GLOH    O2 8860   3.791   0.098   0.387  0.0151 -0.6174 -0.0077
   49GLOH   H05 8861   3.768   0.093   0.292  1.1343  1.8448 -0.4481
   49GLOH    C3 8862   3.671   0.158   0.599 -0.3946 -0.1251  0.9299
   49GLOH   H06 8863   3.580   0.215   0.621 -0.8632  0.2436 -1.7176
   49GLOH   H07 8864   3.747   0.194   0.667 -1.5609  0.6871  1.8326
   49GLOH    O3 8865   3.643   0.023   0.589  0.1127 -0.3767 -0.3725
   49GLOH   H01 8866   3.717  -0.029   0.552  2.5864 -0.2092  3.9322
   50GLOH   H03 8867   4.321   9.640   1.089  0.5298  1.6442 -1.5541
   50GLOH    O1 8868   4.418   9.640   1.105  0.3192 -0.1768 -0.0797
   50GLOH    C1 8869   4.491   9.662   0.977 -1.0704 -0.4495 -0.0075
   50GLOH   H02 8870   4.488   9.769   0.955  0.8871 -0.4891 -0.5928
   50GLOH   H08 8871   4.439   9.606   0.900 -0.7752 -0.0759 -0.4790
   50GLOH    C2 8872   4.637   9.629   1.000  0.3971 -0.0669 -0.5850
   50GLOH   H04 8873   4.654   9.529   1.042  1.0197  0.1208 -0.3823
   50GLOH    O2 8874   4.718   9.646   0.889 -0.3520  0.6832  0.0039
   50GLOH   H05 8875   4.672   9.625   0.805 -0.5948 -0.9982  0.5406
   50GLOH    C3 8876   4.685   9.726   1.119  0.2083 -0.1876  0.3051
   50GLOH   H06 8877   4.685   9.830   1.084  2.3009 -0.3591 -0.2870
   50GLOH   H07 8878   4.792   9.713   1.134  1.1061  4.5400 -0.9813
   50GLOH    O3 8879   4.607   9.714   1.237  0.0745 -0.4657 -0.0537
   50GLOH   H01 8880   4.517   9.694   1.205  0.1526  0.4571 -0.8405
   51GLOH   H03 8881   2.749   9.597   1.413  0.1873  0.3686 -0.0131
   51GLOH    O1 8882   2.800   9.603   1.496  0.0450  0.0964  0.0947
   51GLOH    C1 8883   2.934   9.580   1.461  0.0871 -0.0488 -0.0958
   51GLOH   H02 8884   2.995   9.543   1.544  1.4547  0.0843 -1.0140
   51GLOH   H08 8885   2.983   9.675   1.437  0.8820  0.4824  3.3855
   51GLOH    C2 8886   2.956   9.458   1.360 -0.3041  0.1066  0.1864
   51GLOH   H04 8887   2.886   9.379   1.394 -2.4370  0.1570 -3.7752
   51GLOH    O2 8888   2.925   9.492   1.217 -0.2709 -0.2410 -0.1441
   51GLOH   H05 8889   2.862   9.565   1.208 -0.7246 -0.4423  1.3091
   51GLOH    C3 8890   3.105   9.418   1.365  0.2379  0.5986  0.6073
   51GLOH   H06 8891   3.163   9.510   1.372 -1.1687  1.6415 -1.0345
   51GLOH   H07 8892   3.122   9.357   1.277 -4.2816  1.2128 -0.8148
   51GLOH    O3 8893   3.126   9.332   1.478 -0.5314 -0.9175  0.3900
   51GLOH   H01 8894   3.152   9.247   1.439 -2.3218 -2.0280  1.5851
   52GLOH   H03 8895   2.915   8.957   1.347 -1.3967  0.4908  0.3858
   52GLOH    O1 8896   2.938   8.939   1.440  0.9916 -0.1723 -0.2941
   52GLOH    C1 8897   2.880   9.051   1.504 -0.4421 -0.3914 -0.2688
   52GLOH   H02 8898   2.776   9.063   1.473 -0.0908 -1.5553 -1.9232
   52GLOH   H08 8899   2.931   9.139   1.465  0.4145 -0.2122  1.2112
   52GLOH    C2 8900   2.876   9.030   1.660  0.3529  0.4725  0.2006
   52GLOH   H04 8901   2.831   8.934   1.686  1.0619 -0.4106 -1.6840
   52GLOH    O2 8902   3.000   9.039   1.726 -0.5308 -0.0836  0.0552
   52GLOH   H05 8903   3.027   9.132   1.716  1.3793 -0.7396 -1.3069
   52GLOH    C3 8904   2.789   9.135   1.711  0.2811 -0.4006  0.0704
   52GLOH   H06 8905   2.788   9.127   1.819 -0.0256  1.7309  0.2555
   52GLOH   H07 8906   2.682   9.118   1.694  0.2818 -1.1130  0.7968
   52GLOH    O3 8907   2.819   9.268   1.667 -0.5417  0.0227 -0.5777
   52GLOH   H01 8908   2.903   9.295   1.709 -1.5795 -0.3201  1.8312
   53GLOH   H03 8909   3.528   8.927   1.686 -0.2183 -0.1447 -0.0862
   53GLOH    O1 8910   3.533   8.905   1.781 -0.4678 -0.4868 -0.1498
   53GLOH    C1 8911   3.669   8.876   1.801  0.9903 -0.4247 -0.6114
   53GLOH   H02 8912   3.678   8.814   1.891  1.4546 -1.3416 -1.2759
   53GLOH   H08 8913   3.728   8.964   1.825  2.0120 -1.5909  1.3107
   53GLOH    C2 8914   3.743   8.791   1.693 -0.8506 -0.7284 -0.1267
   53GLOH   H04 8915   3.851   8.793   1.716 -0.9384  1.0163  0.2444
   53GLOH    O2 8916   3.687   8.659   1.701 -0.6853  0.4980  0.4016
   53GLOH   H05 8917   3.742   8.589   1.661  0.1983  0.8751  0.9518
   53GLOH    C3 8918   3.750   8.848   1.548 -0.1167 -0.7703 -0.3004
   53GLOH   H06 8919   3.772   8.768   1.476  0.8351  0.4682 -1.4305
   53GLOH   H07 8920   3.836   8.915   1.542 -1.7088  1.0932 -3.1300
   53GLOH    O3 8921   3.621   8.900   1.520  1.0581  0.2377 -0.1618
   53GLOH   H01 8922   3.633   8.954   1.439  1.6691 -1.2767 -1.1062
   54GLOH   H03 8923   4.147   8.599   1.544  0.4115 -0.2443 -0.9163
   54GLOH    O1 8924   4.090   8.547   1.484 -0.5245 -0.3913  0.1001
   54GLOH    C1 8925   4.040   8.645   1.389  0.6451 -0.2115  0.0714
   54GLOH   H02 8926   4.113   8.682   1.317  1.6989  1.3177  1.8876
   54GLOH   H08 8927   4.002   8.728   1.450  1.1918  0.3820 -0.3907
   54GLOH    C2 8928   3.921   8.586   1.309  0.8515  0.1383  0.5803
   54GLOH   H04 8929   3.845   8.567   1.387  0.4133  2.0788  0.6537
   54GLOH    O2 8930   3.871   8.684   1.214 -0.1844  0.1501  0.4171
   54GLOH   H05 8931   3.798   8.631   1.178  0.3238 -1.7544  2.0677
   54GLOH    C3 8932   3.947   8.452   1.249 -0.8525 -0.1416 -0.2104
   54GLOH   H06 8933   4.022   8.464   1.171 -1.5123  1.4777 -0.6240
   54GLOH   H07 8934   3.855   8.418   1.201 -1.1252  0.0380  0.1782
   54GLOH    O3 8935   3.982   8.345   1.344  0.0106 -0.5424 -0.0848
   54GLOH   H01 8936   4.055   8.390   1.391  0.0404 -1.1841  0.4826
   55GLOH   H03 8937   4.707   0.553   1.199 -0.2571 -3.2248 -1.9371
   55GLOH    O1 8938   4.715   0.495   1.277 -0.2638 -0.5157  0.1790
   55GLOH    C1 8939   4.587   0.452   1.319 -0.7505 -0.3524 -0.2305
   55GLOH   H02 8940   4.601   0.386   1.405 -1.0679 -1.9040 -1.3596
   55GLOH   H08 8941   4.536   0.390   1.246 -1.2636 -0.9567  0.6224
   55GLOH    C2 8942   4.486   0.565   1.364 -0.7727  0.0030  0.9928
   55GLOH   H04 8943   4.517   0.651   1.302 -2.0916 -1.1493 -1.3446
   55GLOH    O2 8944   4.356   0.522   1.317 -0.5824  0.6547  0.5158
   55GLOH   H05 8945   4.298   0.592   1.284 -1.7556 -0.6774 -0.3191
   55GLOH    C3 8946   4.495   0.619   1.505 -0.0481  1.0937 -0.0273
   55GLOH   H06 8947   4.600   0.643   1.520  0.7478 -1.4609 -1.2428
   55GLOH   H07 8948   4.462   0.541   1.574  0.1978  2.6540  1.9217
   55GLOH    O3 8949   4.407   0.729   1.523 -0.1095 -0.6390 -0.2863
   55GLOH   H01 8950   4.320   0.700   1.489 -1.1527  0.7301  1.1675
   56GLOH   H03 8951   2.701   8.411   1.891  1.0137 -2.7533 -0.7374
   56GLOH    O1 8952   2.723   8.449   1.804 -0.3019  0.2202  0.1701
   56GLOH    C1 8953   2.772   8.340   1.725  0.2696  0.0382 -0.0102
   56GLOH   H02 8954   2.693   8.325   1.651 -0.2167 -2.4611  0.9715
   56GLOH   H08 8955   2.785   8.250   1.784 -0.6878 -0.1306 -0.0520
   56GLOH    C2 8956   2.896   8.375   1.641  1.1689 -0.1876  0.0116
   56GLOH   H04 8957   2.849   8.424   1.555 -1.4479 -0.1643  1.4088
   56GLOH    O2 8958   2.982   8.467   1.704 -0.1170 -0.1673 -0.3482
   56GLOH   H05 8959   2.945   8.549   1.741 -1.1631 -1.6757  2.1414
   56GLOH    C3 8960   2.965   8.257   1.576  0.7372 -0.7077 -0.0730
   56GLOH   H06 8961   3.063   8.296   1.549  1.1751 -0.3421  1.9305
   56GLOH   H07 8962   2.912   8.243   1.482  0.1293 -0.4121  0.2236
   56GLOH    O3 8963   2.980   8.136   1.650 -0.1279  0.3194  0.1170
   56GLOH   H01 8964   2.992   8.064   1.586  1.2087  0.8783 -0.2955
   57GLOH   H03 8965   2.760   8.591   1.798 -1.5763  1.5987  0.5618
   57GLOH    O1 8966   2.809   8.672   1.779  0.7745  0.0535 -0.1843
   57GLOH    C1 8967   2.831   8.751   1.899 -0.3604  0.3257  0.5647
   57GLOH   H02 8968   2.873   8.850   1.882  0.4461  0.0386  0.8464
   57GLOH   H08 8969   2.896   8.699   1.969  2.7797  2.3074 -0.7773
   57GLOH    C2 8970   2.696   8.776   1.973  0.2039 -0.2176 -0.3278
   57GLOH   H04 8971   2.645   8.679   1.986 -1.7448  0.7751 -0.3775
   57GLOH    O2 8972   2.711   8.833   2.106  0.0328 -0.0234  0.3098
   57GLOH   H05 8973   2.765   8.912   2.089 -2.0553  1.4681  0.4635
   57GLOH    C3 8974   2.598   8.859   1.890  0.6700  0.6434 -0.5772
   57GLOH   H06 8975   2.635   8.962   1.883  1.3635  0.5167  0.9735
   57GLOH   H07 8976   2.505   8.865   1.947  0.7686 -1.4668 -0.1836
   57GLOH    O3 8977   2.591   8.805   1.758  0.1859 -0.3449  0.3545
   57GLOH   H01 8978   2.677   8.769   1.731 -0.1109  0.4140 -1.6880
   58GLOH   H03 8979   4.025   9.189   0.726  0.2564  0.0634  0.9564
   58GLOH    O1 8980   3.981   9.260   0.675  0.3963 -0.2415  0.4098
   58GLOH    C1 8981   3.996   9.220   0.537 -0.4776 -0.2149 -0.9206
   58GLOH   H02 8982   4.017   9.114   0.520 -2.0713 -0.8377  0.8842
   58GLOH   H08 8983   4.071   9.283   0.489 -1.0194  0.3477 -1.0311
   58GLOH    C2 8984   3.856   9.246   0.468  0.1544 -0.3022  0.6265
   58GLOH   H04 8985   3.830   9.350   0.489  2.0950  0.7718 -2.0088
   58GLOH    O2 8986   3.874   9.227   0.329 -0.0084  0.6894 -0.0110
   58GLOH   H05 8987   3.893   9.312   0.285 -3.6475  1.0018 -1.1515
   58GLOH    C3 8988   3.760   9.142   0.525 -0.3357 -0.5285  0.5518
   58GLOH   H06 8989   3.773   9.141   0.634  0.1414 -2.4268  0.4885
   58GLOH   H07 8990   3.803   9.049   0.489 -0.6632  0.4213 -2.3906
   58GLOH    O3 8991   3.621   9.166   0.474 -0.0764 -0.1656  0.1059
   58GLOH   H01 8992   3.627   9.182   0.378 -0.0562 -1.2153 -0.0761
   59GLOH   H03 8993   3.609   0.086   0.120 -0.0540 -2.0934 -0.7116
   59GLOH    O1 8994   3.687   0.051   0.167  0.3324 -0.3497 -0.0345
   59GLOH    C1 8995   3.665  -0.096   0.185  0.7682  0.4728 -0.0794
   59GLOH   H02 8996   3.582  -0.110   0.254  0.8526  1.6456  0.2866
   59GLOH   H08 8997   3.760  -0.138   0.217 -0.0562  0.0917  1.9406
   59GLOH    C2 8998   3.618  -0.169   0.054  0.2551  0.2505  0.4217
   59GLOH   H04 8999   3.524  -0.123   0.020 -0.4918 -1.5547 -0.0165
   59GLOH    O2 9000   3.712  -0.168  -0.055  0.2139  0.1270 -0.3981
   59GLOH   H05 9001   3.804  -0.197  -0.039  0.1607  0.3864  0.3770
   59GLOH    C3 9002   3.578  -0.312   0.099 -0.1109  0.7796 -0.3631
   59GLOH   H06 9003   3.538  -0.312   0.200  1.4710 -1.7978  0.3319
   59GLOH   H07 9004   3.665  -0.377   0.106  1.4935  2.9841  0.6631
   59GLOH    O3 9005   3.487  -0.384   0.012 -0.0392 -0.0933 -0.0185
   59GLOH   H01 9006   3.447  -0.308  -0.035  1.1922  0.2466 -0.5278
   60GLOH   H03 9007   2.839   9.848   1.820 -0.2655 -1.3382  1.6635
   60GLOH    O1 9008   2.864   9.927   1.872 -0.0104 -0.5397  0.3290
   60GLOH    C1 9009   2.949  10.030   1.824 -0.5350 -0.2147 -0.1655
   60GLOH   H02 9010   3.050   9.993   1.834 -0.1547  0.9829  0.6264
   60GLOH   H08 9011   2.935  10.110   1.897 -0.5683  2.8162 -3.3586
   60GLOH    C2 9012   2.924  10.083   1.684  0.6005 -0.4825 -0.0522
   60GLOH   H04 9013   2.928   9.994   1.621 -2.1870 -1.4535  1.0825
   60GLOH    O2 9014   2.795  10.155   1.672  0.3571  0.6448  0.0094
   60GLOH   H05 9015   2.780  10.182   1.579  0.9551  1.3717  0.1188
   60GLOH    C3 9016   3.036  10.187   1.645 -0.2913 -0.0928 -0.3401
   60GLOH   H06 9017   3.034  10.268   1.718 -1.2141 -1.1542  0.8202
   60GLOH   H07 9018   3.025  10.244   1.552 -2.0767 -0.2201 -0.2243
   60GLOH    O3 9019   3.174  10.134   1.645  0.3054  0.3506 -0.2045
   60GLOH   H01 9020   3.219  10.155   1.729 -1.2237 -0.9465  0.9910
   61GLOH   H03 9021   3.455   9.804   1.135 -0.0794  0.1412  0.4729
   61GLOH    O1 9022   3.477   9.713   1.106 -0.1890  0.2361  0.0901
   61GLOH    C1 9023   3.423   9.620   1.200 -0.3489  0.4484  0.0181
   61GLOH   H02 9024   3.330   9.654   1.246 -1.0926  1.0260 -1.8846
   61GLOH   H08 9025   3.490   9.613   1.286  1.7868  0.6352 -1.6021
   61GLOH    C2 9026   3.397   9.485   1.135 -0.7823 -0.5355  0.0431
   61GLOH   H04 9027   3.474   9.448   1.067 -2.0459 -1.5603 -0.8526
   61GLOH    O2 9028   3.388   9.382   1.232  0.3963 -0.5434  0.5195
   61GLOH   H05 9029   3.466   9.324   1.237  0.2633 -0.7914 -0.2660
   61GLOH    C3 9030   3.265   9.483   1.054 -0.0170 -0.2312 -0.1595
   61GLOH   H06 9031   3.180   9.492   1.122  0.5478 -0.8816  0.6493
   61GLOH   H07 9032   3.263   9.380   1.017 -0.4289  0.2836 -1.6102
   61GLOH    O3 9033   3.267   9.572   0.942  0.0834  0.0259 -0.3244
   61GLOH   H01 9034   3.335   9.541   0.879 -0.7544  2.6280 -2.5485
   62GLOH   H03 9035   3.521   9.365   1.426 -0.0825 -0.0572 -0.0725
   62GLOH    O1 9036   3.532   9.269   1.441  0.2710 -0.0091 -0.0118
   62GLOH    C1 9037   3.480   9.247   1.574 -0.3863 -0.6153  0.1701
   62GLOH   H02 9038   3.453   9.143   1.593 -2.8017  0.2579  1.6861
   62GLOH   H08 9039   3.386   9.302   1.575 -0.7038 -1.0821 -1.7841
   62GLOH    C2 9040   3.570   9.298   1.684 -0.6362  0.2319 -0.2094
   62GLOH   H04 9041   3.576   9.408   1.675 -0.1697  0.3212  1.0125
   62GLOH    O2 9042   3.502   9.273   1.805  0.6483 -0.0340  0.4937
   62GLOH   H05 9043   3.544   9.331   1.871 -1.2393  3.7081 -1.4117
   62GLOH    C3 9044   3.710   9.243   1.677  0.4219 -0.3219 -0.0561
   62GLOH   H06 9045   3.705   9.146   1.626 -0.5481 -0.7872  0.8914
   62GLOH   H07 9046   3.750   9.214   1.774 -1.3721  0.8552  1.0731
   62GLOH    O3 9047   3.800   9.327   1.605 -0.4593 -0.4466  0.0713
   62GLOH   H01 9048   3.780   9.419   1.630 -0.2991 -0.8190  1.5779
   63GLOH   H03 9049   5.109   0.684   0.543 -2.5850 -2.5528  1.5851
   63GLOH    O1 9050   5.040   0.703   0.478  0.2062 -0.1588 -0.7906
   63GLOH    C1 9051   5.050   0.587   0.396 -0.4000 -0.4347 -0.0529
   63GLOH   H02 9052   5.135   0.603   0.330  1.0058 -0.3601  1.7283
   63GLOH   H08 9053   4.968   0.575   0.325 -0.0528  1.5924 -0.8309
   63GLOH    C2 9054   5.040   0.451   0.471  0.3343 -0.3565 -0.2237
   63GLOH   H04 9055   4.933   0.435   0.490 -0.1823  0.0517 -2.6382
   63GLOH    O2 9056   5.095   0.337   0.401  0.2930 -0.0809  0.5179
   63GLOH   H05 9057   5.034   0.261   0.408 -0.2978  0.4719  1.5558
   63GLOH    C3 9058   5.115   0.439   0.608 -0.4199  0.8973 -0.4768
   63GLOH   H06 9059   5.216   0.405   0.584 -0.3220  0.6627  0.2471
   63GLOH   H07 9060   5.066   0.359   0.664  1.6801  1.1568  1.8328
   63GLOH    O3 9061   5.113   0.559   0.679  0.0174 -0.2550 -0.1939
   63GLOH   H01 9062   5.030   0.566   0.729  0.4822  1.5214  0.3816
   64GLOH   H03 9063   4.222   0.128   2.054  1.5514  0.1282 -1.1094
   64GLOH    O1 9064   4.228   0.195   2.125  0.0941 -0.8622 -0.0037
   64GLOH    C1 9065   4.293   0.152   2.245 -0.8340  0.3245 -0.2160
   64GLOH   H02 9066   4.327   0.233   2.310  1.4141  0.6733 -1.7588
   64GLOH   H08 9067   4.384   0.098   2.218  0.0406  1.5935  0.1197
   64GLOH    C2 9068   4.203   0.053   2.313  0.9846  0.2436 -0.3748
   64GLOH   H04 9069   4.110   0.108   2.334 -0.2080 -1.5870 -0.7265
   64GLOH    O2 9070   4.162  -0.063   2.242 -0.0815  0.5125  0.1250
   64GLOH   H05 9071   4.218  -0.086   2.165  0.7355 -0.4013  0.9598
   64GLOH    C3 9072   4.280  -0.002   2.440 -0.2701 -0.4219 -0.7248
   64GLOH   H06 9073   4.363  -0.068   2.413  0.0778 -0.2972  0.0085
   64GLOH   H07 9074   4.209  -0.060   2.499  0.0110 -1.0937 -1.0319
   64GLOH    O3 9075   4.333   0.096   2.525 -0.6060 -0.7043 -0.5638
   64GLOH   H01 9076   4.266   0.168   2.520  0.8804  0.6282 -1.9331
   65GLOH   H03 9077   3.917   8.521   0.493 -0.0143 -1.8701 -1.9808
   65GLOH    O1 9078   4.010   8.531   0.519 -0.8872  0.2236  0.5738
   65GLOH    C1 9079   4.021   8.495   0.659 -0.2839  0.0628 -0.6969
   65GLOH   H02 9080   4.123   8.463   0.679 -1.1488 -1.0413  2.1208
   65GLOH   H08 9081   3.956   8.413   0.688 -0.4401  0.6001  0.4720
   65GLOH    C2 9082   4.004   8.612   0.762  0.7077 -0.5383  0.2306
   65GLOH   H04 9083   3.899   8.644   0.765  0.0149 -2.7675  0.5203
   65GLOH    O2 9084   4.034   8.565   0.900 -0.2921 -0.4405 -0.0377
   65GLOH   H05 9085   3.965   8.500   0.920 -0.9015  0.1788 -0.1239
   65GLOH    C3 9086   4.092   8.741   0.727 -0.2615 -0.0166  0.5641
   65GLOH   H06 9087   4.178   8.698   0.677  0.1937  2.0623 -0.4887
   65GLOH   H07 9088   4.126   8.774   0.825 -1.2364 -0.8966  1.2190
   65GLOH    O3 9089   4.043   8.837   0.634 -0.4862 -0.3864 -0.5943
   65GLOH   H01 9090   4.059   8.804   0.544  1.8530 -1.2549  0.1080
   66GLOH   H03 9091   3.719   8.842   0.073 -0.1855 -1.5687  0.2761
   66GLOH    O1 9092   3.732   8.890   0.157 -0.2674  0.0217 -0.6014
   66GLOH    C1 9093   3.866   8.887   0.214  0.3727  0.7581  0.8825
   66GLOH   H02 9094   3.856   8.917   0.318 -0.2246  0.1433  1.0001
   66GLOH   H08 9095   3.918   8.962   0.154 -1.5525 -1.2055 -3.4682
   66GLOH    C2 9096   3.922   8.749   0.197  0.0265  0.1847  0.9612
   66GLOH   H04 9097   3.863   8.677   0.256  0.3696 -0.1568  0.8942
   66GLOH    O2 9098   3.914   8.716   0.054  0.5350  0.2618 -0.1596
   66GLOH   H05 9099   3.999   8.739   0.013  1.7470 -1.8013  1.1057
   66GLOH    C3 9100   4.059   8.733   0.254 -0.1056  0.1274  0.3504
   66GLOH   H06 9101   4.124   8.815   0.224  0.9516 -0.4638  1.0134
   66GLOH   H07 9102   4.102   8.641   0.217  3.0827  1.7395 -0.1242
   66GLOH    O3 9103   4.064   8.741   0.392 -0.1963  0.4731  0.0875
   66GLOH   H01 9104   4.060   8.648   0.418 -0.6446  0.0900 -1.3032
   67GLOH   H03 9105   3.937   0.146   1.522 -0.1584 -0.6000  1.0832
   67GLOH    O1 9106   3.875   0.072   1.507 -0.5389 -0.0557 -0.0993
   67GLOH    C1 9107   3.952  -0.044   1.546 -0.1475  0.1473  0.4330
   67GLOH   H02 9108   4.047  -0.060   1.495 -0.8263  0.4199 -0.9425
   67GLOH   H08 9109   3.896  -0.135   1.528 -0.6780  1.0363 -2.6137
   67GLOH    C2 9110   3.977  -0.035   1.697  0.2156  0.0360  0.1631
   67GLOH   H04 9111   4.049  -0.115   1.719  1.4374  1.6114  2.1289
   67GLOH    O2 9112   4.053   0.084   1.729  0.1771 -0.2762  0.0477
   67GLOH   H05 9113   4.002   0.166   1.736  0.7202 -0.1023  2.4700
   67GLOH    C3 9114   3.849  -0.048   1.787 -0.1815 -1.0901 -0.9281
   67GLOH   H06 9115   3.771   0.016   1.745 -1.2173 -1.8031 -0.1138
   67GLOH   H07 9116   3.867  -0.020   1.891  0.2634  0.5152 -1.4231
   67GLOH    O3 9117   3.789  -0.178   1.775 -0.2820 -0.1284  0.1928
   67GLOH   H01 9118   3.809  -0.240   1.847 -0.6360  0.4268  0.7747
   68GLOH   H03 9119   2.612   9.928   1.545  1.1763  1.7673  1.5584
   68GLOH    O1 9120   2.520   9.930   1.578  0.6119 -0.2690  0.2141
   68GLOH    C1 9121   2.462   9.807   1.616  0.0091  0.1848 -0.7585
   68GLOH   H02 9122   2.381   9.818   1.687  0.4825  0.3266 -0.2400
   68GLOH   H08 9123   2.541   9.751   1.665 -1.7913 -1.0494  0.8211
   68GLOH    C2 9124   2.410   9.716   1.504  1.2140 -0.0571  0.2496
   68GLOH   H04 9125   2.497   9.694   1.439  1.0951 -0.0005  0.0710
   68GLOH    O2 9126   2.349   9.596   1.557  0.0106 -0.2928 -0.5861
   68GLOH   H05 9127   2.409   9.573   1.629  0.1907 -1.5460 -1.1224
   68GLOH    C3 9128   2.312   9.798   1.413 -0.2001  0.3230 -0.2112
   68GLOH   H06 9129   2.219   9.817   1.467 -0.4277 -0.0743 -0.4647
   68GLOH   H07 9130   2.279   9.739   1.328 -2.2441  0.1595  0.6720
   68GLOH    O3 9131   2.369   9.920   1.363  0.0158 -0.4133  1.4685
   68GLOH   H01 9132   2.424   9.957   1.435 -0.2828  0.5980  1.1834
   69GLOH   H03 9133   4.390   0.961   2.097  1.3839  0.3264  0.1739
   69GLOH    O1 9134   4.363   1.005   2.014  0.5157 -0.8863 -0.1977
   69GLOH    C1 9135   4.443   0.953   1.906 -0.3488  0.3634 -0.9089
   69GLOH   H02 9136   4.541   1.001   1.913 -0.1074 -0.4540  1.6151
   69GLOH   H08 9137   4.404   0.969   1.805 -1.9688  0.6364 -0.2554
   69GLOH    C2 9138   4.475   0.804   1.908  0.0223  0.1461 -0.4912
   69GLOH   H04 9139   4.378   0.753   1.901  1.1758 -2.3646  1.2834
   69GLOH    O2 9140   4.563   0.762   1.803 -0.6800 -0.2072 -0.4526
   69GLOH   H05 9141   4.526   0.761   1.713 -0.9680 -0.5625 -0.3297
   69GLOH    C3 9142   4.552   0.781   2.038 -0.7449 -0.1504  0.0060
   69GLOH   H06 9143   4.650   0.830   2.040  0.8575 -3.2441  0.8294
   69GLOH   H07 9144   4.576   0.675   2.037  0.1883  0.0588 -1.3709
   69GLOH    O3 9145   4.484   0.810   2.161  0.4771  0.4069 -0.0194
   69GLOH   H01 9146   4.452   0.727   2.201 -0.0768  0.8962  0.5590
   70GLOH   H03 9147   3.149   8.618   2.127 -0.8034 -1.0526 -0.1062
   70GLOH    O1 9148   3.092   8.625   2.207 -0.4740  0.4536 -0.0020
   70GLOH    C1 9149   3.156   8.576   2.323 -0.1420 -0.3287  0.4086
   70GLOH   H02 9150   3.265   8.573   2.318 -0.1812 -2.0011  0.3016
   70GLOH   H08 9151   3.134   8.472   2.347  3.1740 -1.2231 -0.1761
   70GLOH    C2 9152   3.109   8.673   2.431 -0.0479 -0.7086  1.1041
   70GLOH   H04 9153   2.999   8.675   2.423 -0.0020 -0.4344  0.4465
   70GLOH    O2 9154   3.144   8.641   2.565 -0.1254  0.2677  0.2782
   70GLOH   H05 9155   3.161   8.725   2.611  2.6691  1.0454 -2.0420
   70GLOH    C3 9156   3.156   8.823   2.402 -0.2173 -0.5499  0.1307
   70GLOH   H06 9157   3.091   8.880   2.467 -0.1538  0.8833 -1.0218
   70GLOH   H07 9158   3.126   8.835   2.298  0.6170 -1.2972 -0.2075
   70GLOH    O3 9159   3.292   8.843   2.425 -0.3360  0.7852 -0.2356
   70GLOH   H01 9160   3.300   8.858   2.521  1.5594 -0.0759 -0.2392
   71GLOH   H03 9161   3.983   9.397   1.273  0.4716  0.3192 -0.4801
   71GLOH    O1 9162   4.038   9.446   1.338  0.5978 -0.8075  0.2711
   71GLOH    C1 9163   4.126   9.538   1.260  0.1482 -0.1571 -0.5292
   71GLOH   H02 9164   4.212   9.489   1.215 -0.4913 -3.6840  1.8647
   71GLOH   H08 9165   4.162   9.615   1.329 -2.6335 -0.6404  1.5082
   71GLOH    C2 9166   4.050   9.609   1.150 -0.2377 -0.2928 -0.4531
   71GLOH   H04 9167   3.975   9.673   1.198 -3.4569 -4.2039 -0.0229
   71GLOH    O2 9168   4.137   9.695   1.073 -0.3273  0.2137 -0.4905
   71GLOH   H05 9169   4.093   9.782   1.062 -0.7315 -0.1402 -1.6890
   71GLOH    C3 9170   3.973   9.513   1.055 -0.1314  0.3958  0.0095
   71GLOH   H06 9171   4.044   9.482   0.978  1.4433  1.8103  0.8734
   71GLOH   H07 9172   3.902   9.576   1.002  0.6040 -0.1015 -1.5964
   71GLOH    O3 9173   3.915   9.393   1.108 -0.1994 -0.2604 -0.6547
   71GLOH   H01 9174   3.841   9.363   1.052  0.1338 -1.2314 -0.5784
   72GLOH   H03 9175   3.327   8.263   1.641 -1.7642 -0.4013 -0.7533
   72GLOH    O1 9176   3.381   8.203   1.585 -0.3824  0.5271 -0.4381
   72GLOH    C1 9177   3.298   8.088   1.560  0.7809  0.0033  0.7582
   72GLOH   H02 9178   3.203   8.103   1.612  0.6515  1.4487  0.1409
   72GLOH   H08 9179   3.337   7.990   1.586 -0.6657 -0.1232  2.5704
   72GLOH    C2 9180   3.268   8.072   1.409 -0.2981  0.2467 -0.3444
   72GLOH   H04 9181   3.234   8.172   1.380  2.1092  1.0446 -0.4869
   72GLOH    O2 9182   3.386   8.043   1.335 -0.0377  0.3058 -0.0181
   72GLOH   H05 9183   3.469   8.072   1.377 -1.1462  2.7514  0.6062
   72GLOH    C3 9184   3.165   7.964   1.366 -0.2343  0.1924  0.7623
   72GLOH   H06 9185   3.172   7.874   1.428  2.1191 -0.4262 -0.3036
   72GLOH   H07 9186   3.194   7.933   1.265  0.9884  2.3488  0.4155
   72GLOH    O3 9187   3.036   8.015   1.383 -0.1615  0.2515 -0.2178
   72GLOH   H01 9188   3.027   8.091   1.322 -1.8202  1.4156  1.4129
   73GLOH   H03 9189   3.528   0.871   2.338  0.6502 -0.9387  0.1554
   73GLOH    O1 9190   3.579   0.897   2.417  0.1475  0.5055  0.0148
   73GLOH    C1 9191   3.708   0.958   2.368  0.0110 -0.0051 -0.9210
   73GLOH   H02 9192   3.749   1.013   2.452 -1.1991  1.2689 -1.1581
   73GLOH   H08 9193   3.690   1.018   2.279  0.4271  1.7603  0.1768
   73GLOH    C2 9194   3.806   0.845   2.330 -0.5476 -0.1307 -0.4612
   73GLOH   H04 9195   3.774   0.790   2.240  2.5682  0.0519 -1.7563
   73GLOH    O2 9196   3.937   0.886   2.286  0.3056  0.1544  0.1543
   73GLOH   H05 9197   3.971   0.970   2.321 -2.4919  1.2042  0.5470
   73GLOH    C3 9198   3.810   0.738   2.440 -0.4010 -0.6162  0.0460
   73GLOH   H06 9199   3.708   0.702   2.451 -1.4463  2.1343 -0.0565
   73GLOH   H07 9200   3.845   0.793   2.527 -1.2251 -0.9581  0.5995
   73GLOH    O3 9201   3.888   0.626   2.407  0.0076 -0.2808 -0.3912
   73GLOH   H01 9202   3.848   0.580   2.331  0.6141  0.3823 -1.1234
   74GLOH   H03 9203   3.747   8.345   0.953  2.6331  0.0903  0.6108
   74GLOH    O1 9204   3.769   8.416   0.890  0.2727  0.3412  0.0512
   74GLOH    C1 9205   3.706   8.392   0.754 -0.5859 -0.7583 -0.3497
   74GLOH   H02 9206   3.739   8.298   0.711  0.7263 -2.1981  3.5122
   74GLOH   H08 9207   3.736   8.474   0.689 -1.0832 -0.5568 -0.3311
   74GLOH    C2 9208   3.550   8.378   0.750 -0.2784  0.0759 -0.3496
   74GLOH   H04 9209   3.507   8.458   0.812  1.3546 -0.9187  2.1357
   74GLOH    O2 9210   3.487   8.379   0.618  0.0645 -0.1746 -0.1561
   74GLOH   H05 9211   3.536   8.438   0.559  0.9823  0.0405  0.8048
   74GLOH    C3 9212   3.532   8.250   0.825 -0.4539 -0.1506  0.2178
   74GLOH   H06 9213   3.603   8.177   0.786 -0.3210 -0.7174  1.5232
   74GLOH   H07 9214   3.429   8.216   0.809 -0.1874 -0.5889 -0.6099
   74GLOH    O3 9215   3.554   8.250   0.971 -0.1218 -0.2113 -0.4854
   74GLOH   H01 9216   3.488   8.193   1.014  0.7329 -0.2354  0.8256
   75GLOH   H03 9217   4.123   0.299   1.527 -0.1922  1.5603 -0.5605
   75GLOH    O1 9218   4.058   0.259   1.466  0.2748 -0.0649 -0.0023
   75GLOH    C1 9219   4.060   0.315   1.330 -0.4679 -0.4221  0.5727
   75GLOH   H02 9220   4.036   0.240   1.255 -0.3709  0.7932 -0.6769
   75GLOH   H08 9221   4.160   0.347   1.300 -0.8736  1.0716  0.7811
   75GLOH    C2 9222   3.964   0.436   1.322  0.9713  0.6083  0.6237
   75GLOH   H04 9223   4.001   0.511   1.393  0.3504  1.5218 -0.0158
   75GLOH    O2 9224   3.965   0.502   1.190 -0.2131 -0.8899 -0.0013
   75GLOH   H05 9225   3.912   0.458   1.122 -0.7735  0.9009 -0.7534
   75GLOH    C3 9226   3.824   0.385   1.366  0.3124 -0.4544  0.3395
   75GLOH   H06 9227   3.769   0.477   1.384  0.5564 -0.1045 -0.6519
   75GLOH   H07 9228   3.825   0.336   1.463  1.4143 -1.0872  0.0257
   75GLOH    O3 9229   3.763   0.308   1.258 -0.4318 -0.6157  0.2782
   75GLOH   H01 9230   3.720   0.230   1.295  0.2904 -0.8859  0.5642
   76GLOH   H03 9231   3.873   1.205   2.060 -0.2229  0.1543  0.0439
   76GLOH    O1 9232   3.932   1.172   2.130  0.2897  0.4912 -0.2244
   76GLOH    C1 9233   4.058   1.133   2.070 -0.3128 -0.0580 -0.2283
   76GLOH   H02 9234   4.057   1.026   2.049 -0.8599 -0.0241 -0.3668
   76GLOH   H08 9235   4.135   1.143   2.146 -1.6319 -0.7890  1.2138
   76GLOH    C2 9236   4.091   1.208   1.938 -0.3466 -0.9480 -0.4648
   76GLOH   H04 9237   4.115   1.313   1.962  0.7430 -1.8541  2.6618
   76GLOH    O2 9238   4.198   1.142   1.871 -0.2425 -0.4327  0.3764
   76GLOH   H05 9239   4.273   1.117   1.927 -0.4405  1.4173  1.4847
   76GLOH    C3 9240   3.976   1.215   1.841  0.9928  0.4256  0.8651
   76GLOH   H06 9241   3.967   1.115   1.799  0.9043 -0.0537  2.0097
   76GLOH   H07 9242   3.993   1.286   1.760 -0.4063  1.5557  1.5552
   76GLOH    O3 9243   3.854   1.255   1.901 -0.3897 -0.6598 -0.3299
   76GLOH   H01 9244   3.774   1.212   1.865 -2.2604  2.2336  0.2263
   77GLOH   H03 9245   4.191   0.085   1.821  2.5247 -0.0206 -1.9715
   77GLOH    O1 9246   4.257   0.114   1.887  0.9071  0.0930 -0.3609
   77GLOH    C1 9247   4.391   0.082   1.846  0.2561 -0.1507 -0.4125
   77GLOH   H02 9248   4.392  -0.004   1.779  0.3621 -0.4796  0.0127
   77GLOH   H08 9249   4.451   0.056   1.933 -0.8541  0.5069  0.5587
   77GLOH    C2 9250   4.474   0.199   1.788  1.1395 -0.4759 -0.4399
   77GLOH   H04 9251   4.578   0.163   1.787  1.3310 -0.0979  2.0784
   77GLOH    O2 9252   4.423   0.238   1.661  0.8888 -0.4982 -0.7028
   77GLOH   H05 9253   4.422   0.171   1.590 -1.5241  0.5090 -1.6565
   77GLOH    C3 9254   4.479   0.325   1.878 -0.4536  0.0032  0.5546
   77GLOH   H06 9255   4.510   0.409   1.815 -1.9037 -0.4562 -0.8218
   77GLOH   H07 9256   4.556   0.317   1.955 -1.3107  1.4399  1.5990
   77GLOH    O3 9257   4.361   0.370   1.950  0.9688 -0.2853  0.9523
   77GLOH   H01 9258   4.306   0.297   1.985 -1.1945  0.6877 -0.3067
   78GLOH   H03 9259   2.726   0.185   0.014  0.9449 -0.0601 -0.7374
   78GLOH    O1 9260   2.732   0.143   0.102 -0.9470 -0.1513 -0.6433
   78GLOH    C1 9261   2.778   0.003   0.100  0.1634  0.0370  0.6193
   78GLOH   H02 9262   2.870  -0.012   0.044 -0.0383 -2.3114  0.8682
   78GLOH   H08 9263   2.703  -0.060   0.052 -0.2797  0.3686  0.8629
   78GLOH    C2 9264   2.807  -0.035   0.243 -0.4031  0.2094  1.1453
   78GLOH   H04 9265   2.713  -0.031   0.300 -0.7227  0.8333  0.5736
   78GLOH    O2 9266   2.854  -0.168   0.259  0.5901  0.2203  0.1630
   78GLOH   H05 9267   2.805  -0.209   0.332 -0.6827 -1.8411 -1.7566
   78GLOH    C3 9268   2.899   0.053   0.314  0.3383  0.0606  0.1842
   78GLOH   H06 9269   2.995   0.045   0.263  0.0646 -1.4538 -0.1194
   78GLOH   H07 9270   2.924   0.013   0.412  1.0432  1.7096  0.6988
   78GLOH    O3 9271   2.839   0.189   0.327 -0.0190 -0.0330 -0.1036
   78GLOH   H01 9272   2.768   0.188   0.260  1.3279  0.4348 -1.5304
   79GLOH   H03 9273   4.386   9.249   1.519  1.9771 -2.7816  1.1858
   79GLOH    O1 9274   4.452   9.310   1.557  0.2622 -0.0404 -0.0234
   79GLOH    C1 9275   4.523   9.232   1.657  0.5963  0.4474 -0.4557
   79GLOH   H02 9276   4.623   9.211   1.619  0.7168 -1.2665  0.7607
   79GLOH   H08 9277   4.466   9.140   1.671  1.7064 -0.5033 -2.0803
   79GLOH    C2 9278   4.521   9.298   1.798  0.7226  0.3121  0.4296
   79GLOH   H04 9279   4.416   9.288   1.829  0.5742  0.1956 -0.1001
   79GLOH    O2 9280   4.613   9.236   1.893  0.4950 -0.5891  0.0741
   79GLOH   H05 9281   4.564   9.225   1.977 -2.1148 -2.1740 -1.5871
   79GLOH    C3 9282   4.554   9.449   1.789  0.5298 -0.1450  0.1481
   79GLOH   H06 9283   4.649   9.457   1.737  1.9902  0.8358  2.9209
   79GLOH   H07 9284   4.586   9.493   1.883  0.5562 -1.5127  0.7894
   79GLOH    O3 9285   4.452   9.522   1.717 -0.1109  0.2799  0.1548
   79GLOH   H01 9286   4.444   9.478   1.630  0.3176  1.1610 -0.3398
   80GLOH   H03 9287   3.727   8.655   0.013 -0.6535 -2.7328 -1.7906
   80GLOH    O1 9288   3.638   8.688  -0.009 -0.0739  0.3588  0.2086
   80GLOH    C1 9289   3.547   8.601  -0.078  0.1657  0.4361  0.0183
   80GLOH   H02 9290   3.490   8.546  -0.004  1.6339 -0.7210  0.3024
   80GLOH   H08 9291   3.589   8.512  -0.124  0.4478  0.1522  0.8368
   80GLOH    C2 9292   3.448   8.671  -0.176  0.6649 -0.0324  0.1175
   80GLOH   H04 9293   3.507   8.746  -0.232  1.6682 -0.2014  0.9426
   80GLOH    O2 9294   3.398   8.568  -0.271  0.3194  0.4147 -0.6851
   80GLOH   H05 9295   3.307   8.594  -0.293  0.5445  2.7501  0.9438
   80GLOH    C3 9296   3.340   8.744  -0.097  0.1860 -0.1299 -0.0723
   80GLOH   H06 9297   3.387   8.803  -0.018 -2.7518  0.5930  1.2176
   80GLOH   H07 9298   3.281   8.676  -0.036 -1.4080  0.0914 -1.3469
   80GLOH    O3 9299   3.254   8.824  -0.178 -0.2484 -0.3227 -0.0592
   80GLOH   H01 9300   3.218   8.895  -0.122 -0.5360 -0.4328 -0.1001
   81GLOH   H03 9301   2.960   9.794   2.804 -2.2582  3.3384  0.8788
   81GLOH    O1 9302   2.963   9.803   2.707 -0.5629  0.7192  0.6309
   81GLOH    C1 9303   3.047   9.694   2.661 -0.4374  0.4770 -0.7083
   81GLOH   H02 9304   3.016   9.604   2.713  5.0463 -1.6511 -0.7893
   81GLOH   H08 9305   3.151   9.721   2.680 -0.7063  1.1333 -0.1235
   81GLOH    C2 9306   3.043   9.673   2.509 -0.1200  0.2348 -0.3695
   81GLOH   H04 9307   3.054   9.768   2.455  3.4745 -0.4050 -0.9326
   81GLOH    O2 9308   3.156   9.598   2.470  0.1733  0.7402  0.2028
   81GLOH   H05 9309   3.190   9.616   2.381 -0.8015  3.6755  0.3423
   81GLOH    C3 9310   2.913   9.610   2.471 -0.0445  0.6174  1.0430
   81GLOH   H06 9311   2.831   9.676   2.501 -2.1733  0.4063 -3.8585
   81GLOH   H07 9312   2.897   9.508   2.507  2.8829 -0.0747  0.4775
   81GLOH    O3 9313   2.910   9.594   2.322 -0.1237 -0.9334  0.3818
   81GLOH   H01 9314   2.931   9.679   2.280 -0.5102  0.3549  2.7386
   82GLOH   H03 9315   3.515   8.286   1.535  0.0759  1.0000  0.7595
   82GLOH    O1 9316   3.589   8.311   1.476 -0.4268 -0.3573 -0.4962
   82GLOH    C1 9317   3.547   8.412   1.382 -0.5735  0.3738  0.1061
   82GLOH   H02 9318   3.615   8.413   1.297 -0.1555 -1.7038  0.3602
   82GLOH   H08 9319   3.565   8.508   1.430  0.7401  1.0380 -1.6763
   82GLOH    C2 9320   3.408   8.402   1.331  0.5811  1.2715 -0.1851
   82GLOH   H04 9321   3.389   8.304   1.286  0.1007  1.6741 -0.8665
   82GLOH    O2 9322   3.313   8.434   1.435  0.1346 -0.7130 -0.3004
   82GLOH   H05 9323   3.337   8.514   1.485 -0.6527  0.8108 -2.2890
   82GLOH    C3 9324   3.381   8.493   1.211  0.2468  0.6409 -0.4995
   82GLOH   H06 9325   3.273   8.489   1.195  0.1538 -0.3068  0.2998
   82GLOH   H07 9326   3.431   8.447   1.126 -2.8201 -0.1880 -1.9415
   82GLOH    O3 9327   3.421   8.626   1.235  0.1227 -0.2763  0.2706
   82GLOH   H01 9328   3.352   8.678   1.280 -1.4485 -2.1692  0.0976
   83GLOH   H03 9329   4.290   9.843   1.552 -0.9215 -0.9647  1.2484
   83GLOH    O1 9330   4.241   9.801   1.479 -0.6508 -0.0516  0.5423
   83GLOH    C1 9331   4.261   9.886   1.365  0.1242 -0.0168 -0.9515
   83GLOH   H02 9332   4.173   9.870   1.303  0.6583 -2.5811 -1.1010
   83GLOH   H08 9333   4.340   9.838   1.307 -0.1807 -0.7529 -0.7606
   83GLOH    C2 9334   4.294  10.033   1.389 -0.2644  0.1384 -0.1157
   83GLOH   H04 9335   4.210  10.078   1.443 -0.5832  0.1313 -0.6051
   83GLOH    O2 9336   4.414  10.047   1.469  0.0271 -0.3718  0.0987
   83GLOH   H05 9337   4.472   9.972   1.449 -1.3933 -2.0069  1.9810
   83GLOH    C3 9338   4.308  10.107   1.257 -0.7123  0.0674 -0.1596
   83GLOH   H06 9339   4.314  10.214   1.274 -2.4527  0.3633 -1.2979
   83GLOH   H07 9340   4.209  10.091   1.214  0.0435 -0.8351 -1.6212
   83GLOH    O3 9341   4.405  10.053   1.164 -0.1672  0.4869  0.0048
   83GLOH   H01 9342   4.412  10.125   1.099  2.1903  0.9229  0.6953
   84GLOH   H03 9343   4.090   0.497   0.419 -0.3469  0.5695  0.5688
   84GLOH    O1 9344   4.115   0.563   0.351 -0.2890  0.3563  0.3818
   84GLOH    C1 9345   4.058   0.518   0.234  0.3497  0.1530  0.4451
   84GLOH   H02 9346   3.949   0.516   0.246  0.4945 -0.5918  1.7107
   84GLOH   H08 9347   4.091   0.415   0.217 -1.6326 -0.7661  1.9548
   84GLOH    C2 9348   4.094   0.606   0.109  0.7354  0.1618  0.8891
   84GLOH   H04 9349   4.203   0.621   0.102  0.8218 -0.3666  1.0801
   84GLOH    O2 9350   4.043   0.544  -0.014  0.0986 -0.2911  0.0233
   84GLOH   H05 9351   4.060   0.600  -0.092 -0.2510 -1.4135 -0.8697
   84GLOH    C3 9352   4.024   0.744   0.114 -0.0606  0.3752  0.0663
   84GLOH   H06 9353   4.044   0.799   0.022  2.8124  1.1560  1.1016
   84GLOH   H07 9354   4.074   0.810   0.185 -0.1828 -0.2847  0.7723
   84GLOH    O3 9355   3.882   0.741   0.134  0.2800  0.3083 -0.3119
   84GLOH   H01 9356   3.847   0.671   0.075  0.1053 -1.1395  1.4482
   85GLOH   H03 9357   4.464   9.900   0.102 -0.5777  0.7861  2.3933
   85GLOH    O1 9358   4.461   9.803   0.106 -0.2527  0.6454 -0.1458
   85GLOH    C1 9359   4.579   9.741   0.158 -0.1292 -0.0875  0.1475
   85GLOH   H02 9360   4.664   9.747   0.090 -0.9926 -1.0584 -1.0494
   85GLOH   H08 9361   4.571   9.633   0.169 -0.1316  0.1252  2.2905
   85GLOH    C2 9362   4.620   9.796   0.292  0.1092  0.1055 -0.3101
   85GLOH   H04 9363   4.689   9.726   0.341 -2.1583 -1.3287  0.9091
   85GLOH    O2 9364   4.694   9.925   0.278 -0.2294 -0.0546 -0.4520
   85GLOH   H05 9365   4.648   9.985   0.218 -1.5018 -0.8858 -0.3521
   85GLOH    C3 9366   4.500   9.807   0.390 -0.5838 -0.4336  0.1200
   85GLOH   H06 9367   4.434   9.721   0.379 -2.2101  0.6553  1.1283
   85GLOH   H07 9368   4.435   9.884   0.347  0.6100  1.1662  1.1012
   85GLOH    O3 9369   4.526   9.834   0.530 -0.1547  0.4487  0.3973
   85GLOH   H01 9370   4.601   9.895   0.537  2.2796 -2.4436  0.7689
   86GLOH   H03 9371   4.428   9.298   2.190  0.2554  0.0779 -0.2044
   86GLOH    O1 9372   4.451   9.220   2.136  0.1989 -0.2679  0.2614
   86GLOH    C1 9373   4.477   9.122   2.237  0.2326 -0.0234 -0.4132
   86GLOH   H02 9374   4.411   9.130   2.323 -1.2504 -1.8526 -1.3468
   86GLOH   H08 9375   4.576   9.125   2.283  0.1040  2.7499 -0.2317
   86GLOH    C2 9376   4.453   8.979   2.179  0.6229  0.7650 -0.2792
   86GLOH   H04 9377   4.544   8.953   2.123  0.7522 -0.5572  0.5060
   86GLOH    O2 9378   4.439   8.868   2.273  0.0146 -0.3290 -0.2559
   86GLOH   H05 9379   4.514   8.806   2.267 -0.4221 -0.7985 -0.9855
   86GLOH    C3 9380   4.339   8.981   2.070 -0.3182  0.4855 -0.1064
   86GLOH   H06 9381   4.268   9.055   2.107 -1.5500  0.3110 -2.0788
   86GLOH   H07 9382   4.287   8.885   2.061  2.1864 -0.7775 -1.4185
   86GLOH    O3 9383   4.393   9.021   1.944  0.6068 -0.4089 -0.2266
   86GLOH   H01 9384   4.423   9.113   1.954 -3.4446  0.9422  0.8825
   87GLOH   H03 9385   2.722   9.839   0.585 -1.0139  0.0851 -0.1072
   87GLOH    O1 9386   2.752   9.785   0.510 -0.5215 -0.7510  0.6854
   87GLOH    C1 9387   2.851   9.703   0.566  0.9278 -0.2891 -0.0517
   87GLOH   H02 9388   2.854   9.607   0.515  1.5950 -0.0258 -0.5191
   87GLOH   H08 9389   2.827   9.679   0.670  1.4166  2.3924  0.7293
   87GLOH    C2 9390   2.984   9.784   0.573 -0.1366 -0.0613  0.2962
   87GLOH   H04 9391   3.023   9.805   0.472  0.5365 -0.5379  0.4515
   87GLOH    O2 9392   2.965   9.914   0.644 -0.0286 -0.8071 -0.3169
   87GLOH   H05 9393   3.050   9.960   0.640 -1.1362  1.2983 -0.5652
   87GLOH    C3 9394   3.090   9.699   0.646  0.2263  0.6693 -0.6962
   87GLOH   H06 9395   3.063   9.652   0.740  0.8447  0.0129 -0.8418
   87GLOH   H07 9396   3.185   9.749   0.667 -0.0305  0.5117  0.9087
   87GLOH    O3 9397   3.123   9.592   0.554 -0.1662 -0.2210 -0.3555
   87GLOH   H01 9398   3.063   9.515   0.564  0.7604 -0.8237  0.6366
   88GLOH   H03 9399   3.613   9.993   2.095  0.9924  0.3490 -1.1753
   88GLOH    O1 9400   3.661   9.909   2.105  0.3279  0.0910  0.0731
   88GLOH    C1 9401   3.735   9.916   2.232  0.0515  0.0252 -0.7216
   88GLOH   H02 9402   3.663   9.932   2.312 -1.1307 -3.7754 -0.9646
   88GLOH   H08 9403   3.810   9.994   2.243  0.2389 -0.4049  1.2017
   88GLOH    C2 9404   3.812   9.782   2.257  0.0495  0.1271  0.1334
   88GLOH   H04 9405   3.747   9.694   2.247  0.0384  0.2427 -0.8189
   88GLOH    O2 9406   3.940   9.768   2.186 -0.1827  0.0467  0.0750
   88GLOH   H05 9407   4.017   9.818   2.219 -0.0087 -0.7585  0.8786
   88GLOH    C3 9408   3.839   9.768   2.410 -0.0397  0.2861 -0.1902
   88GLOH   H06 9409   3.888   9.672   2.425  1.6347  1.1681  0.1559
   88GLOH   H07 9410   3.743   9.764   2.461  0.8725 -0.7566  1.5150
   88GLOH    O3 9411   3.933   9.873   2.459  0.6977  0.6211 -0.1494
   88GLOH   H01 9412   4.014   9.827   2.485  0.9906  0.5357 -1.1858
   89GLOH   H03 9413   3.737   8.369   1.747 -2.4323 -1.4299 -1.2677
   89GLOH    O1 9414   3.752   8.300   1.815  0.6520  0.3073 -0.0388
   89GLOH    C1 9415   3.891   8.299   1.862 -0.8535  0.4779 -0.5641
   89GLOH   H02 9416   3.919   8.385   1.922 -1.0080  0.1865 -0.0720
   89GLOH   H08 9417   3.958   8.302   1.776  0.0020  0.1674  0.0836
   89GLOH    C2 9418   3.930   8.171   1.940 -0.1936 -0.1694  0.5111
   89GLOH   H04 9419   4.035   8.150   1.914  0.0521  1.1376  0.3936
   89GLOH    O2 9420   3.938   8.208   2.079  0.2907 -0.2761  0.3067
   89GLOH   H05 9421   3.855   8.253   2.101  0.1802 -1.6473  2.8931
   89GLOH    C3 9422   3.838   8.046   1.925 -0.1318  0.4347  0.8590
   89GLOH   H06 9423   3.864   7.972   2.001 -1.4685 -0.4027  0.5297
   89GLOH   H07 9424   3.869   7.997   1.833 -0.1004  3.8808 -1.0536
   89GLOH    O3 9425   3.699   8.067   1.911  0.3446  0.1794 -0.1455
   89GLOH   H01 9426   3.694   8.144   1.851  2.0305 -0.3693 -1.0157
   90GLOH   H03 9427   3.915   0.695   1.987  1.1073  0.6099 -0.1727
   90GLOH    O1 9428   3.840   0.700   1.925  0.0866 -0.0335  0.9750
   90GLOH    C1 9429   3.801   0.834   1.939 -0.3326  0.3634  0.4514
   90GLOH   H02 9430   3.867   0.901   1.885 -1.1822  1.2648  0.5118
   90GLOH   H08 9431   3.810   0.864   2.044 -0.0221 -3.5920  1.6376
   90GLOH    C2 9432   3.656   0.865   1.904  0.8400  0.1535 -0.2249
   90GLOH   H04 9433   3.642   0.826   1.802  3.8638 -1.5544 -0.0331
   90GLOH    O2 9434   3.567   0.795   1.981 -0.5123  0.1524  0.1292
   90GLOH   H05 9435   3.555   0.703   1.951  0.4024  0.7364 -2.0908
   90GLOH    C3 9436   3.618   1.014   1.915 -0.0427  0.5687 -0.3802
   90GLOH   H06 9437   3.640   1.054   2.013 -0.8712 -0.0099  0.0520
   90GLOH   H07 9438   3.510   1.023   1.903 -0.3771 -1.0853  1.1996
   90GLOH    O3 9439   3.680   1.087   1.815 -0.7214 -0.1520 -0.6332
   90GLOH   H01 9440   3.645   1.051   1.732  0.4107 -1.0332 -0.7477
   91GLOH   H03 9441   4.365   0.384   0.543  0.0981  0.8271 -0.2090
   91GLOH    O1 9442   4.354   0.412   0.636  0.0392 -0.2621  0.1169
   91GLOH    C1 9443   4.246   0.509   0.654  0.3484  0.2201  0.5311
   91GLOH   H02 9444   4.250   0.599   0.593 -2.0378 -0.1152 -0.1740
   91GLOH   H08 9445   4.247   0.555   0.753  3.5051  1.9087 -0.2265
   91GLOH    C2 9446   4.103   0.439   0.652  0.1586  0.1637  0.5396
   91GLOH   H04 9447   4.023   0.513   0.665  0.2088  0.2242  0.5004
   91GLOH    O2 9448   4.096   0.375   0.519  0.1151 -0.2316  0.2408
   91GLOH   H05 9449   4.142   0.289   0.517  0.1150 -0.2046 -2.3675
   91GLOH    C3 9450   4.091   0.327   0.757 -0.6172  0.2033 -0.0657
   91GLOH   H06 9451   4.185   0.274   0.740 -0.8492 -0.6513  1.2326
   91GLOH   H07 9452   4.002   0.270   0.732 -0.0408 -1.7795  2.2059
   91GLOH    O3 9453   4.084   0.369   0.886 -0.3203 -0.1619 -0.5929
   91GLOH   H01 9454   4.003   0.424   0.892 -0.0189  0.3856 -1.3335
   92GLOH   H03 9455   3.681   8.360   2.334 -0.2320  0.0594 -0.3577
   92GLOH    O1 9456   3.637   8.345   2.419  0.0271  0.7538 -0.1026
   92GLOH    C1 9457   3.513   8.274   2.388 -0.1246  0.5524  0.2474
   92GLOH   H02 9458   3.431   8.306   2.452  1.5863 -1.5636  3.6048
   92GLOH   H08 9459   3.521   8.168   2.413 -1.4351  0.5112  0.5185
   92GLOH    C2 9460   3.474   8.278   2.236  0.2378  0.1953  0.0903
   92GLOH   H04 9461   3.392   8.208   2.218  0.5751 -0.3188  0.5368
   92GLOH    O2 9462   3.423   8.406   2.188  0.3528 -0.5259 -0.1602
   92GLOH   H05 9463   3.457   8.473   2.250  0.2841  0.1298 -0.8268
   92GLOH    C3 9464   3.590   8.247   2.143 -0.2343 -0.2734  0.1714
   92GLOH   H06 9465   3.571   8.267   2.038 -1.7754  0.0086  0.4808
   92GLOH   H07 9466   3.622   8.144   2.151  0.3212 -0.2215 -1.3663
   92GLOH    O3 9467   3.702   8.337   2.176  0.3372 -0.3473  0.9916
   92GLOH   H01 9468   3.674   8.424   2.142  0.1689  0.1046  2.2720
   93GLOH   H03 9469   2.500   8.907   1.647 -0.7653  0.7809  0.5889
   93GLOH    O1 9470   2.474   8.968   1.576 -0.2501 -0.1823 -0.4318
   93GLOH    C1 9471   2.443   8.890   1.456 -0.2174 -0.1848 -0.3778
   93GLOH   H02 9472   2.335   8.881   1.442 -0.3346 -0.5107  0.6700
   93GLOH   H08 9473   2.490   8.792   1.468  3.4878  1.4813 -0.5650
   93GLOH    C2 9474   2.499   8.956   1.327 -0.5169 -0.6151 -1.0204
   93GLOH   H04 9475   2.605   8.986   1.325 -0.0758 -1.7655  2.2514
   93GLOH    O2 9476   2.468   8.863   1.224  0.2050  0.2267  0.9849
   93GLOH   H05 9477   2.497   8.878   1.132 -1.2558 -1.6051  0.1853
   93GLOH    C3 9478   2.422   9.089   1.313  1.0694  0.0194  0.2045
   93GLOH   H06 9479   2.318   9.062   1.329  1.0511 -1.4944 -2.1648
   93GLOH   H07 9480   2.424   9.120   1.208 -0.5032 -1.4776 -0.2862
   93GLOH    O3 9481   2.451   9.191   1.409  0.2944 -0.5594  0.2891
   93GLOH   H01 9482   2.465   9.148   1.496 -0.0791  1.9673  1.6640
   94GLOH   H03 9483   3.047   0.603   0.879  3.7126 -1.0171  1.0601
   94GLOH    O1 9484   3.011   0.532   0.935  0.2472 -0.0883  0.1418
   94GLOH    C1 9485   3.120   0.430   0.943  0.1219  0.3128 -0.7666
   94GLOH   H02 9486   3.211   0.478   0.977  0.8626 -1.8434  0.3580
   94GLOH   H08 9487   3.141   0.384   0.847 -0.1205 -2.4292  0.4701
   94GLOH    C2 9488   3.089   0.308   1.035 -0.8918 -0.7494  0.5101
   94GLOH   H04 9489   3.014   0.246   0.983 -0.3503 -0.3427 -0.7564
   94GLOH    O2 9490   3.204   0.227   1.051 -0.1730  0.1560  0.3871
   94GLOH   H05 9491   3.184   0.159   1.117  1.2407 -2.6734 -1.9537
   94GLOH    C3 9492   3.039   0.356   1.167  0.5034 -0.5884 -0.3231
   94GLOH   H06 9493   2.966   0.437   1.164 -0.3294 -1.2655  1.3816
   94GLOH   H07 9494   3.126   0.405   1.212  1.7386 -1.2633 -1.9134
   94GLOH    O3 9495   2.975   0.252   1.243  0.3308 -0.4317  0.5691
   94GLOH   H01 9496   3.017   0.167   1.222  2.2463  0.9894 -1.6709
   95GLOH   H03 9497   2.875   9.495   2.179  0.8380 -1.1816  0.2917
   95GLOH    O1 9498   2.846   9.455   2.095 -0.3394 -0.1543  0.1906
   95GLOH    C1 9499   2.959   9.446   2.002  0.3251 -0.0124  0.4782
   95GLOH   H02 9500   2.948   9.351   1.950 -0.8296  0.6931 -0.5887
   95GLOH   H08 9501   3.051   9.437   2.060  0.7713 -1.7169 -0.4556
   95GLOH    C2 9502   2.962   9.570   1.913 -0.0236  0.4503 -0.8453
   95GLOH   H04 9503   2.964   9.662   1.974  0.9105  0.3918 -0.7844
   95GLOH    O2 9504   3.083   9.570   1.839  0.1685 -0.1528  0.2468
   95GLOH   H05 9505   3.156   9.512   1.866 -1.3134 -3.0140 -1.6849
   95GLOH    C3 9506   2.844   9.570   1.816  0.9188  0.4202 -0.3768
   95GLOH   H06 9507   2.750   9.568   1.870  0.1703  3.2278 -1.4596
   95GLOH   H07 9508   2.856   9.479   1.758  1.6982  0.2787  0.0015
   95GLOH    O3 9509   2.844   9.678   1.723  0.3239  1.3344 -0.6035
   95GLOH   H01 9510   2.817   9.637   1.639  0.6995 -0.1660 -0.0165
   96GLOH   H03 9511   3.235   9.569   0.448 -0.3777  2.0867 -1.6185
   96GLOH    O1 9512   3.314   9.546   0.397  0.0216  0.1264 -0.1750
   96GLOH    C1 9513   3.277   9.551   0.255 -0.1571  0.3982 -0.1186
   96GLOH   H02 9514   3.218   9.466   0.220  2.6546 -1.7053  0.0604
   96GLOH   H08 9515   3.370   9.551   0.199  0.0735  0.3469  0.2578
   96GLOH    C2 9516   3.190   9.675   0.213 -0.2494 -0.4060 -0.1204
   96GLOH   H04 9517   3.134   9.702   0.304  0.7842 -0.5902  0.5711
   96GLOH    O2 9518   3.267   9.789   0.181 -0.0948  0.0752  0.3255
   96GLOH   H05 9519   3.321   9.814   0.258 -0.0823 -1.9051  1.0009
   96GLOH    C3 9520   3.084   9.644   0.102  1.0342 -0.4579  0.1068
   96GLOH   H06 9521   3.018   9.564   0.137 -0.4134 -1.0173 -3.7318
   96GLOH   H07 9522   3.140   9.607   0.016 -0.4701 -0.8963 -0.7015
   96GLOH    O3 9523   3.003   9.759   0.062  0.5396  0.0765  0.6201
   96GLOH   H01 9524   2.954   9.786   0.142  1.1491 -0.1902  1.0978
   97GLOH   H03 9525   2.810   0.402   2.435  0.6653 -0.1687  0.4034
   97GLOH    O1 9526   2.734   0.342   2.434  1.0164 -0.6049 -0.1549
   97GLOH    C1 9527   2.713   0.303   2.295 -0.4021 -0.1327 -0.1711
   97GLOH   H02 9528   2.802   0.259   2.251  0.0974  1.5666 -0.9005
   97GLOH   H08 9529   2.674   0.386   2.235 -2.3603 -1.1571 -0.3485
   97GLOH    C2 9530   2.592   0.207   2.293  0.1424  0.5604  0.2842
   97GLOH   H04 9531   2.504   0.267   2.317  1.3784  2.9519 -0.9176
   97GLOH    O2 9532   2.570   0.141   2.165 -0.3019 -0.0560  0.1101
   97GLOH   H05 9533   2.578   0.196   2.086 -0.5994 -1.1219 -0.6785
   97GLOH    C3 9534   2.611   0.095   2.400 -0.4314  0.0446 -0.2075
   97GLOH   H06 9535   2.531   0.021   2.398  1.8613 -2.5125 -2.7515
   97GLOH   H07 9536   2.603   0.137   2.500  0.8737 -0.5175  0.1437
   97GLOH    O3 9537   2.737   0.023   2.399  0.7519  0.3143  0.3541
   97GLOH   H01 9538   2.766  -0.004   2.310  0.1998  0.2140  0.2049
   98GLOH   H03 9539   3.967   0.760   2.186  0.8172  1.1578 -0.6015
   98GLOH    O1 9540   3.997   0.690   2.125 -0.1296  0.3613 -0.1663
   98GLOH    C1 9541   4.143   0.697   2.138  0.5957 -0.6092 -0.0286
   98GLOH   H02 9542   4.164   0.779   2.207  2.7936 -1.9231  0.9157
   98GLOH   H08 9543   4.182   0.732   2.043 -0.5937  2.1545  0.4503
   98GLOH    C2 9544   4.214   0.571   2.183 -0.3110  0.0125 -1.0090
   98GLOH   H04 9545   4.177   0.493   2.115 -1.0567 -0.8622  0.3696
   98GLOH    O2 9546   4.355   0.584   2.177 -0.3821 -0.3896  0.0555
   98GLOH   H05 9547   4.390   0.520   2.112  1.1167  0.9440 -0.4895
   98GLOH    C3 9548   4.181   0.526   2.332 -0.3612  0.2190 -0.1411
   98GLOH   H06 9549   4.251   0.459   2.384  0.0008 -0.0581 -0.9685
   98GLOH   H07 9550   4.086   0.473   2.337 -0.0996 -0.3508 -1.0390
   98GLOH    O3 9551   4.156   0.644   2.414 -0.2733 -0.0390 -0.0209
   98GLOH   H01 9552   4.059   0.650   2.425 -0.3619 -2.6157  0.9703
   99GLOH   H03 9553   3.937   0.526   2.593  2.5123 -1.0439 -1.1611
   99GLOH    O1 9554   3.924   0.436   2.630  0.1099 -0.2173  0.1583
   99GLOH    C1 9555   3.798   0.382   2.582 -0.2075 -0.1571 -0.5126
   99GLOH   H02 9556   3.791   0.369   2.474 -0.3412  1.2272 -0.6771
   99GLOH   H08 9557   3.716   0.443   2.619 -1.1095 -1.5249 -0.1784
   99GLOH    C2 9558   3.764   0.248   2.651 -0.1436  0.2726  0.2322
   99GLOH   H04 9559   3.780   0.262   2.759 -0.5527  2.6584  0.0195
   99GLOH    O2 9560   3.624   0.213   2.630  0.0915  0.1088  0.2089
   99GLOH   H05 9561   3.612   0.120   2.606  1.7645  0.2576 -1.3331
   99GLOH    C3 9562   3.855   0.134   2.614  0.3033  0.3305  0.5911
   99GLOH   H06 9563   3.809   0.040   2.644 -0.3530  1.3834  3.0027
   99GLOH   H07 9564   3.958   0.150   2.647  0.7876  0.8739 -1.1063
   99GLOH    O3 9565   3.869   0.116   2.465  0.3221  0.0327  0.0013
   99GLOH   H01 9566   3.894   0.022   2.454 -1.4389 -0.4900  0.2295
  100GLOH   H03 9567   3.075   9.059   2.801 -0.2623 -0.7184 -0.8457
  100GLOH    O1 9568   3.152   9.014   2.843 -0.3477 -0.5617 -0.5218
  100GLOH    C1 9569   3.162   9.048   2.985  0.2520 -0.4428 -0.4615
  100GLOH   H02 9570   3.113   8.965   3.036  1.1041 -0.9288 -0.4198
  100GLOH   H08 9571   3.104   9.130   3.026 -0.7969  0.0100 -2.7310
  100GLOH    C2 9572   3.309   9.058   3.036 -0.8778 -0.2308 -0.2708
  100GLOH   H04 9573   3.355   8.965   3.000 -0.8187  0.4570 -2.0415
  100GLOH    O2 9574   3.375   9.180   2.986 -0.5807  0.8392 -0.3337
  100GLOH   H05 9575   3.464   9.180   3.025 -0.0161  0.8281 -1.5824
  100GLOH    C3 9576   3.305   9.065   3.190 -1.3736 -0.3281 -0.1721
  100GLOH   H06 9577   3.258   9.159   3.219  0.4791 -0.1744  2.6099
  100GLOH   H07 9578   3.406   9.063   3.233 -0.6643  1.1572 -1.7192
  100GLOH    O3 9579   3.235   8.946   3.245 -0.5033 -0.0266 -0.0744
  100GLOH   H01 9580   3.141   8.970   3.246 -0.9526 -1.7446  0.3430
  101GLOH   H03 9581   3.813   9.516   2.842  0.7266 -0.6538  1.2361
  101GLOH    O1 9582   3.891   9.572   2.826 -0.2126  0.2029 -0.4777
  101GLOH    C1 9583   3.927   9.601   2.687 -0.5689  0.4780  0.3855
  101GLOH   H02 9584   3.842   9.641   2.631 -0.1559 -1.6308 -1.8570
  101GLOH   H08 9585   3.957   9.505   2.646  0.5520  0.0611  2.1268
  101GLOH    C2 9586   4.053   9.692   2.681  0.3521 -0.5216  0.1757
  101GLOH   H04 9587   4.135   9.650   2.741  2.4615  1.8171 -0.9670
  101GLOH    O2 9588   4.101   9.714   2.547 -0.4627  0.1838  0.2498
  101GLOH   H05 9589   4.113   9.626   2.506  0.4529  0.0689  0.7357
  101GLOH    C3 9590   4.026   9.831   2.742  0.4616  0.5903 -0.9625
  101GLOH   H06 9591   3.927   9.858   2.705  0.1083  0.8871  0.1964
  101GLOH   H07 9592   4.099   9.903   2.707  0.8152  1.1757  0.9160
  101GLOH    O3 9593   4.015   9.841   2.888  0.4493 -0.3575  0.5465
  101GLOH   H01 9594   4.074   9.779   2.935  0.5013 -2.6513 -2.4162
  102GLOH   H03 9595   2.969   8.887   0.992 -0.5868  0.7429  1.5792
  102GLOH    O1 9596   3.040   8.954   0.988 -0.7239  0.8265  0.5747
  102GLOH    C1 9597   2.994   9.082   0.954 -0.2010 -0.5122 -0.4629
  102GLOH   H02 9598   2.892   9.078   0.916 -0.1670 -0.7734 -0.5258
  102GLOH   H08 9599   3.056   9.135   0.881  1.0512  0.1260  1.0223
  102GLOH    C2 9600   2.978   9.169   1.079  0.3043  0.3435 -0.3628
  102GLOH   H04 9601   3.060   9.149   1.149  0.3298  2.8328  0.3860
  102GLOH    O2 9602   2.978   9.313   1.039  0.4841 -0.5429 -0.2972
  102GLOH   H05 9603   2.954   9.361   1.120 -1.4258 -0.5313 -0.8500
  102GLOH    C3 9604   2.844   9.120   1.145  0.3999  0.6841  0.7477
  102GLOH   H06 9605   2.765   9.133   1.071 -0.5309  1.3796  1.8446
  102GLOH   H07 9606   2.820   9.195   1.220  1.0769 -0.3262  2.0041
  102GLOH    O3 9607   2.844   8.984   1.199  0.3623  0.2519  0.0843
  102GLOH   H01 9608   2.829   8.923   1.125 -0.7238 -0.5776  0.9617
  103GLOH   H03 9609   4.123   8.962   1.227  2.4285 -2.3327 -0.7427
  103GLOH    O1 9610   4.153   8.997   1.313 -0.4475  0.4922 -0.8003
  103GLOH    C1 9611   4.039   9.009   1.405  0.0108 -0.6701  0.1378
  103GLOH   H02 9612   4.020   8.914   1.454 -0.4639  0.7291  2.7576
  103GLOH   H08 9613   3.947   9.023   1.348 -0.2273  1.5210  1.0092
  103GLOH    C2 9614   4.072   9.115   1.518 -0.5718 -0.0047  0.3857
  103GLOH   H04 9615   4.073   9.211   1.465  0.3013  0.3299  0.9871
  103GLOH    O2 9616   3.961   9.129   1.611  0.4005  0.4530 -0.1142
  103GLOH   H05 9617   3.901   9.203   1.593 -1.8261 -0.7189  2.0770
  103GLOH    C3 9618   4.198   9.085   1.592  0.2478 -0.0965 -0.8353
  103GLOH   H06 9619   4.198   8.979   1.618 -0.9846  0.5251  1.8691
  103GLOH   H07 9620   4.197   9.141   1.685  0.8230 -2.1273  0.4340
  103GLOH    O3 9621   4.308   9.112   1.506  0.1609  0.1252 -0.3226
  103GLOH   H01 9622   4.272   9.062   1.431  0.2166  0.7628 -0.7823
  104GLOH   H03 9623   3.946   1.048   2.533  2.0820  0.8450  1.0942
  104GLOH    O1 9624   3.935   1.009   2.621 -0.3074 -0.1574  0.3943
  104GLOH    C1 9625   3.920   1.116   2.711  0.5289  0.5930  0.0847
  104GLOH   H02 9626   3.835   1.174   2.674 -1.3751 -0.7578  2.1678
  104GLOH   H08 9627   4.015   1.169   2.717  0.1007  1.2661  1.1083
  104GLOH    C2 9628   3.878   1.075   2.855 -0.1500 -0.1157  0.6966
  104GLOH   H04 9629   3.958   1.024   2.910  0.5316 -1.1456 -1.1955
  104GLOH    O2 9630   3.826   1.195   2.916 -0.4048  0.7592  0.4834
  104GLOH   H05 9631   3.746   1.168   2.964 -0.5335  1.0476  0.4333
  104GLOH    C3 9632   3.764   0.975   2.853  0.2401 -0.1550 -0.3907
  104GLOH   H06 9633   3.791   0.898   2.781  1.6431 -0.0193 -0.0202
  104GLOH   H07 9634   3.675   1.020   2.810  0.3153  0.6051  0.2272
  104GLOH    O3 9635   3.739   0.934   2.992  0.1876 -0.2352  0.8139
  104GLOH   H01 9636   3.796   0.854   2.994  1.8795  0.8919 -1.5120
  105GLOH   H03 9637   2.803   8.725   0.635 -0.9875  0.4460  0.2976
  105GLOH    O1 9638   2.819   8.821   0.629 -0.2752  0.3239  0.2180
  105GLOH    C1 9639   2.903   8.856   0.517  0.6080  0.7723  1.2391
  105GLOH   H02 9640   2.872   8.796   0.432 -0.9607  0.0954  2.2668
  105GLOH   H08 9641   3.008   8.837   0.540  1.1154  3.0470  0.9250
  105GLOH    C2 9642   2.893   9.001   0.485  0.3204 -0.2036 -0.0488
  105GLOH   H04 9643   2.908   9.069   0.569 -1.2990 -0.2801  0.3144
  105GLOH    O2 9644   2.966   9.041   0.366 -0.4967  0.1956  0.0530
  105GLOH   H05 9645   2.949   9.135   0.347 -1.4133 -0.2539 -1.5162
  105GLOH    C3 9646   2.736   9.031   0.459  0.3139  0.2018 -0.1594
  105GLOH   H06 9647   2.697   8.977   0.373  1.2454 -1.4622  0.4350
  105GLOH   H07 9648   2.731   9.135   0.427 -0.5707  0.9874  2.3983
  105GLOH    O3 9649   2.645   9.010   0.570  0.3779 -0.4708  0.2499
  105GLOH   H01 9650   2.658   8.927   0.618 -1.5212  0.4718  2.4686
  106GLOH   H03 9651   3.842   9.785   0.537  2.3450  1.6886 -2.4686
  106GLOH    O1 9652   3.846   9.871   0.583 -0.0320  0.8017 -0.4768
  106GLOH    C1 9653   3.986   9.899   0.586  0.4867 -0.0937 -0.0583
  106GLOH   H02 9654   4.038   9.841   0.661 -1.3326  2.0750  2.9873
  106GLOH   H08 9655   3.998  10.007   0.591  0.8100 -0.0695 -1.2289
  106GLOH    C2 9656   4.051   9.850   0.458 -0.9820  0.8987  1.1739
  106GLOH   H04 9657   4.006   9.898   0.370  1.8695 -0.1699 -0.9475
  106GLOH    O2 9658   4.191   9.890   0.451  0.1946  0.6746  0.0167
  106GLOH   H05 9659   4.191   9.986   0.469 -0.7827  0.4126  1.5550
  106GLOH    C3 9660   4.049   9.699   0.436  0.7179 -0.3736  0.1289
  106GLOH   H06 9661   4.112   9.662   0.516  1.8252 -1.6014 -1.2769
  106GLOH   H07 9662   4.095   9.676   0.340  2.0779  0.8014  0.4996
  106GLOH    O3 9663   3.911   9.652   0.446  0.2439  0.7005 -0.1304
  106GLOH   H01 9664   3.916   9.586   0.517 -1.2828  0.7776  0.0556
  107GLOH   H03 9665   3.458   8.567   2.460  0.1904  0.6600  0.3627
  107GLOH    O1 9666   3.485   8.576   2.367 -0.1779 -0.3834  0.1512
  107GLOH    C1 9667   3.612   8.647   2.361 -0.4214  0.6742 -0.0264
  107GLOH   H02 9668   3.695   8.577   2.376 -0.7434  0.2353 -0.2889
  107GLOH   H08 9669   3.621   8.716   2.445  2.5540 -0.3114  0.5248
  107GLOH    C2 9670   3.635   8.712   2.219 -0.1429 -0.2749  0.1680
  107GLOH   H04 9671   3.718   8.780   2.241 -0.5965 -0.0786  1.3402
  107GLOH    O2 9672   3.657   8.614   2.117  0.0929  0.2529  0.7316
  107GLOH   H05 9673   3.594   8.640   2.048  1.7365  2.3267 -0.0297
  107GLOH    C3 9674   3.516   8.810   2.191 -1.0504 -0.3001  0.5538
  107GLOH   H06 9675   3.421   8.758   2.178 -2.3891  2.4974 -1.1968
  107GLOH   H07 9676   3.541   8.861   2.098  3.6593 -1.1408  1.1985
  107GLOH    O3 9677   3.513   8.899   2.298 -0.1985  0.1024  0.5166
  107GLOH   H01 9678   3.434   8.890   2.354 -2.2590  1.0354 -2.1480
  108GLOH   H03 9679   3.853   8.885   2.682  1.3964 -0.7442 -1.1610
  108GLOH    O1 9680   3.903   8.965   2.707  0.0170 -0.3790  0.4985
  108GLOH    C1 9681   3.811   9.072   2.726 -0.3067 -0.6956  0.4763
  108GLOH   H02 9682   3.856   9.167   2.698 -0.9093  0.4064  3.1568
  108GLOH   H08 9683   3.803   9.085   2.833 -0.1217  0.8228  0.3061
  108GLOH    C2 9684   3.669   9.067   2.658  0.1242 -0.0614 -0.1596
  108GLOH   H04 9685   3.619   8.971   2.677 -1.2314  0.3904 -1.2779
  108GLOH    O2 9686   3.589   9.168   2.728 -0.3374 -0.1170 -0.0580
  108GLOH   H05 9687   3.502   9.184   2.688 -0.1598 -1.9196 -1.2512
  108GLOH    C3 9688   3.677   9.085   2.504 -0.4298 -0.4517  0.1172
  108GLOH   H06 9689   3.571   9.095   2.480 -0.1562  4.0903  0.3262
  108GLOH   H07 9690   3.716   8.991   2.463  0.3589  0.1865 -0.6220
  108GLOH    O3 9691   3.760   9.191   2.470 -0.0289  0.3145 -0.4375
  108GLOH   H01 9692   3.729   9.270   2.518  0.4823  1.2603 -1.6308
  109GLOH   H03 9693   4.616   0.228   0.813 -1.1540 -1.8337  2.1288
  109GLOH    O1 9694   4.661   0.148   0.778 -0.1900 -0.2225 -0.4894
  109GLOH    C1 9695   4.567   0.039   0.801  0.5832 -0.0307 -0.0305
  109GLOH   H02 9696   4.544   0.026   0.907  2.0636  0.3088  0.3464
  109GLOH   H08 9697   4.598  -0.061   0.772 -1.4023 -0.1196 -1.9638
  109GLOH    C2 9698   4.430   0.068   0.745  0.7464 -0.1947 -0.1106
  109GLOH   H04 9699   4.385   0.153   0.798  1.3138  0.1719 -0.2203
  109GLOH    O2 9700   4.439   0.092   0.607  0.5072  0.2503  0.7575
  109GLOH   H05 9701   4.511   0.157   0.597 -2.3090  3.2364 -1.1545
  109GLOH    C3 9702   4.333  -0.037   0.784 -0.3102 -0.0738 -0.1548
  109GLOH   H06 9703   4.237  -0.004   0.743  0.0273  0.6767 -0.3339
  109GLOH   H07 9704   4.329  -0.038   0.893  0.8767  1.4182 -0.0930
  109GLOH    O3 9705   4.359  -0.163   0.722 -0.1926 -0.3128 -0.0086
  109GLOH   H01 9706   4.400  -0.141   0.637 -0.1301  0.3970  0.1993
  110GLOH   H03 9707   3.510   9.854   1.747  1.7321  3.0955 -0.0960
  110GLOH    O1 9708   3.461   9.860   1.831  0.5927  0.2308 -0.4940
  110GLOH    C1 9709   3.326   9.856   1.775  0.0688  0.6564 -0.6893
  110GLOH   H02 9710   3.313   9.945   1.714  0.3019  0.4265 -1.0762
  110GLOH   H08 9711   3.244   9.857   1.847  1.2322  0.9562  0.6528
  110GLOH    C2 9712   3.303   9.744   1.673  0.6267  0.0602  1.0433
  110GLOH   H04 9713   3.353   9.658   1.719  0.3866  0.5419  2.2390
  110GLOH    O2 9714   3.165   9.733   1.636 -0.4207  0.9159 -0.3425
  110GLOH   H05 9715   3.129   9.666   1.697  2.6982  0.5226  1.1276
  110GLOH    C3 9716   3.378   9.775   1.545  0.2910 -0.5043 -0.3768
  110GLOH   H06 9717   3.349   9.874   1.510 -0.1844 -0.0911  1.1504
  110GLOH   H07 9718   3.354   9.712   1.459 -0.3390 -1.0667  0.2094
  110GLOH    O3 9719   3.521   9.771   1.554  0.4911 -0.0663  0.3927
  110GLOH   H01 9720   3.563   9.769   1.466  0.0781  0.1107  0.1909
  111GLOH   H03 9721   3.781   1.249   0.634  1.0277 -0.9152 -0.5840
  111GLOH    O1 9722   3.709   1.199   0.591 -0.0608  0.6269 -0.5761
  111GLOH    C1 9723   3.764   1.116   0.489  0.0296  0.5415 -0.4238
  111GLOH   H02 9724   3.678   1.079   0.433  0.3529  1.6161 -1.6478
  111GLOH   H08 9725   3.811   1.032   0.540  0.5736  0.6583 -0.7300
  111GLOH    C2 9726   3.857   1.180   0.387  0.4883 -0.3961 -0.4277
  111GLOH   H04 9727   3.935   1.230   0.445 -2.5197  0.5810  2.9803
  111GLOH    O2 9728   3.914   1.081   0.294  0.4427  0.1537  0.4585
  111GLOH   H05 9729   3.845   1.042   0.237 -2.2027  2.3687  2.0465
  111GLOH    C3 9730   3.769   1.279   0.308 -0.0523 -0.4140 -0.0118
  111GLOH   H06 9731   3.836   1.327   0.237  1.5602 -1.2717  0.9065
  111GLOH   H07 9732   3.730   1.345   0.385  0.6710 -0.7296  0.6321
  111GLOH    O3 9733   3.664   1.231   0.221  0.2724 -0.4672 -0.1593
  111GLOH   H01 9734   3.628   1.312   0.182 -0.2448  0.6901  2.5745
  112GLOH   H03 9735   2.942   9.104   2.648  1.8402 -1.7197  0.4364
  112GLOH    O1 9736   2.967   9.115   2.741  0.4066  0.4431  0.6004
  112GLOH    C1 9737   2.839   9.143   2.809  0.0525  0.2021 -0.8357
  112GLOH   H02 9738   2.847   9.087   2.902 -0.8362  0.7743 -0.4143
  112GLOH   H08 9739   2.747   9.108   2.762 -1.1267  1.5788  0.4031
  112GLOH    C2 9740   2.828   9.295   2.839 -0.0793 -1.3927 -0.3197
  112GLOH   H04 9741   2.738   9.322   2.896  0.8511  1.4097 -0.1125
  112GLOH    O2 9742   2.927   9.335   2.932 -0.8379 -0.0487 -0.1332
  112GLOH   H05 9743   3.005   9.363   2.881 -0.2791  1.9985  1.7714
  112GLOH    C3 9744   2.842   9.378   2.715 -0.3693 -0.1421 -0.3260
  112GLOH   H06 9745   2.947   9.367   2.688 -0.5591 -0.8256 -0.8135
  112GLOH   H07 9746   2.817   9.480   2.741  2.4943  0.3873  0.5132
  112GLOH    O3 9747   2.749   9.328   2.616  1.0735  0.6391 -0.3716
  112GLOH   H01 9748   2.784   9.241   2.587  1.5250 -0.1187  2.3325
  113GLOH   H03 9749   2.549   8.605   0.975  0.0414 -0.9541  1.4760
  113GLOH    O1 9750   2.628   8.588   0.921 -0.2919  0.4008  0.5401
  113GLOH    C1 9751   2.740   8.555   1.003  0.0961  0.2344 -0.2498
  113GLOH   H02 9752   2.785   8.464   0.962  0.6826  0.4447 -0.0774
  113GLOH   H08 9753   2.718   8.539   1.109  2.3454  0.5698  0.2882
  113GLOH    C2 9754   2.847   8.670   1.008  0.6681  0.4301  0.1074
  113GLOH   H04 9755   2.909   8.664   0.918  2.5480 -1.9129  1.4900
  113GLOH    O2 9756   2.801   8.809   1.023  0.0358 -0.5735 -0.3032
  113GLOH   H05 9757   2.732   8.816   0.954  1.6293  2.0523 -1.6995
  113GLOH    C3 9758   2.953   8.648   1.119 -0.5375  0.0159 -0.4447
  113GLOH   H06 9759   2.912   8.658   1.219  0.4261  0.5086 -0.0910
  113GLOH   H07 9760   3.033   8.722   1.122 -0.4452 -0.0019 -2.0959
  113GLOH    O3 9761   3.006   8.524   1.097 -0.3035  0.2883 -0.0376
  113GLOH   H01 9762   3.035   8.499   1.187  1.4229 -2.3113 -1.2302
  114GLOH   H03 9763   2.907   0.829   0.047  1.2341  0.6194 -3.0012
  114GLOH    O1 9764   2.831   0.778   0.014  0.4814 -0.3338  0.0093
  114GLOH    C1 9765   2.754   0.709   0.122  0.5307 -0.5911 -0.0510
  114GLOH   H02 9766   2.652   0.695   0.086 -0.7722 -0.7833  3.5406
  114GLOH   H08 9767   2.747   0.772   0.210 -0.8103  0.9668 -1.2480
  114GLOH    C2 9768   2.795   0.556   0.154  0.4509 -0.8861 -0.1693
  114GLOH   H04 9769   2.737   0.513   0.236  2.3671 -1.0707  1.1226
  114GLOH    O2 9770   2.781   0.478   0.036  0.3955  0.2099 -0.4016
  114GLOH   H05 9771   2.849   0.410   0.049  1.2489  1.1952  0.4114
  114GLOH    C3 9772   2.947   0.558   0.191  0.6163 -0.3368  0.3701
  114GLOH   H06 9773   2.963   0.640   0.262 -0.7842  1.5066 -1.3898
  114GLOH   H07 9774   2.998   0.599   0.104  4.0661 -0.5342  2.1795
  114GLOH    O3 9775   3.006   0.431   0.228  0.5124 -0.1820 -0.9105
  114GLOH   H01 9776   3.015   0.379   0.147 -0.4878  0.7714 -1.6446
  115GLOH   H03 9777   3.593   9.699   1.006 -0.3623 -0.3129 -0.6151
  115GLOH    O1 9778   3.649   9.678   0.929  0.5969  0.2613 -0.0935
  115GLOH    C1 9779   3.622   9.769   0.821 -0.3327 -0.1360  0.2996
  115GLOH   H02 9780   3.697   9.748   0.745  0.8695 -2.5346  2.0424
  115GLOH   H08 9781   3.637   9.874   0.847  2.0700  0.2914 -2.5402
  115GLOH    C2 9782   3.481   9.753   0.758  0.0273 -0.5321  0.2732
  115GLOH   H04 9783   3.402   9.758   0.834 -2.4501 -1.9431 -2.1332
  115GLOH    O2 9784   3.450   9.859   0.661 -0.6060 -0.1967 -0.0139
  115GLOH   H05 9785   3.513   9.933   0.657 -0.0500 -0.7230 -1.2389
  115GLOH    C3 9786   3.470   9.614   0.685  0.3455 -0.0212 -0.0438
  115GLOH   H06 9787   3.563   9.596   0.630  1.6939 -0.6582  2.3564
  115GLOH   H07 9788   3.388   9.626   0.614  1.0763  0.4817 -0.8132
  115GLOH    O3 9789   3.442   9.512   0.776  0.1987  0.0025 -0.2755
  115GLOH   H01 9790   3.462   9.432   0.723 -1.1182 -0.3660 -0.2400
  116GLOH   H03 9791   2.932   0.455   0.380  1.4870  0.8177 -0.3596
  116GLOH    O1 9792   2.910   0.497   0.465  0.6618  0.2232 -0.2781
  116GLOH    C1 9793   2.954   0.419   0.579  0.2004 -0.7101  1.0356
  116GLOH   H02 9794   3.016   0.479   0.646  1.5120 -0.2786 -0.5582
  116GLOH   H08 9795   3.018   0.336   0.548 -0.1517 -1.1266  1.4105
  116GLOH    C2 9796   2.837   0.365   0.672  0.1136 -0.3268  0.2514
  116GLOH   H04 9797   2.872   0.269   0.712 -1.8629 -0.6363  1.3606
  116GLOH    O2 9798   2.814   0.455   0.788  0.0192  0.0254  0.4422
  116GLOH   H05 9799   2.895   0.478   0.837  1.5116 -2.8572 -0.5239
  116GLOH    C3 9800   2.702   0.332   0.605 -0.1925  0.4565  0.6962
  116GLOH   H06 9801   2.667   0.410   0.538 -0.2830 -1.4632 -1.5450
  116GLOH   H07 9802   2.631   0.313   0.686  0.5003  0.0369  1.2137
  116GLOH    O3 9803   2.700   0.214   0.523 -0.0305  0.2277 -0.0070
  116GLOH   H01 9804   2.762   0.217   0.449 -0.8666  1.7354 -0.6512
  117GLOH   H03 9805   3.430   9.872   2.003 -0.2976 -1.9888 -1.6657
  117GLOH    O1 9806   3.366   9.848   2.072  1.2870  0.5018  0.7904
  117GLOH    C1 9807   3.311   9.958   2.144 -0.0344 -0.4290  0.0883
  117GLOH   H02 9808   3.280  10.030   2.068  0.0666 -1.2941 -0.7863
  117GLOH   H08 9809   3.389  10.003   2.205  0.8816 -1.8200 -0.0177
  117GLOH    C2 9810   3.188   9.919   2.229 -0.1370 -0.7136  0.6791
  117GLOH   H04 9811   3.212   9.843   2.304 -1.0363 -2.4748 -0.7819
  117GLOH    O2 9812   3.131  10.033   2.294 -0.1051 -0.3818 -0.2810
  117GLOH   H05 9813   3.061   9.993   2.348  0.0574 -1.6869 -1.0329
  117GLOH    C3 9814   3.085   9.855   2.146  0.4220 -0.2728 -0.3019
  117GLOH   H06 9815   3.128   9.774   2.088  1.0895 -2.0782  2.5772
  117GLOH   H07 9816   3.054   9.927   2.071  1.3381  0.1675 -0.2594
  117GLOH    O3 9817   2.960   9.803   2.206  0.0310 -0.0970 -0.9886
  117GLOH   H01 9818   2.895   9.874   2.190 -0.9019 -0.7278 -0.0787
  118GLOH   H03 9819   4.414   0.106   2.651  0.4413 -0.5624  0.3086
  118GLOH    O1 9820   4.453   0.135   2.736  0.0792  0.3302  0.1680
  118GLOH    C1 9821   4.354   0.222   2.794 -0.6155  0.0347 -0.4097
  118GLOH   H02 9822   4.266   0.159   2.786 -1.4298  1.2519 -1.2646
  118GLOH   H08 9823   4.327   0.309   2.734 -0.8963  0.5925  0.5084
  118GLOH    C2 9824   4.382   0.260   2.938  0.0946  0.2550  0.3569
  118GLOH   H04 9825   4.476   0.314   2.956  0.4220 -0.6754  1.5199
  118GLOH    O2 9826   4.267   0.336   2.990  0.6123 -0.7941 -0.2653
  118GLOH   H05 9827   4.184   0.305   2.949  0.4742  1.5388 -1.8285
  118GLOH    C3 9828   4.388   0.129   3.022 -0.7052  0.2637 -0.6926
  118GLOH   H06 9829   4.299   0.070   3.002 -1.1610  0.2941  1.1786
  118GLOH   H07 9830   4.398   0.157   3.127 -1.0693 -1.6883 -0.1176
  118GLOH    O3 9831   4.501   0.050   2.985  0.3063  0.2378  0.7965
  118GLOH   H01 9832   4.529   0.082   2.897  1.2893  1.9454  1.6948
  119GLOH   H03 9833   3.904   1.280   1.054 -0.7418  2.8512  0.0074
  119GLOH    O1 9834   3.954   1.274   0.970 -0.4424  0.8552  0.3056
  119GLOH    C1 9835   4.049   1.163   0.971  0.3982  0.6138  0.6483
  119GLOH   H02 9836   4.004   1.073   1.012  0.2613 -0.5178 -1.9258
  119GLOH   H08 9837   4.143   1.188   1.022 -0.0087  2.8289  0.3699
  119GLOH    C2 9838   4.093   1.131   0.823 -0.5971  0.3703 -0.2008
  119GLOH   H04 9839   4.165   1.212   0.802 -0.7797  0.9023  1.2008
  119GLOH    O2 9840   4.154   0.999   0.808 -0.1813 -0.1547  0.2874
  119GLOH   H05 9841   4.195   0.976   0.893  0.9505  0.3084 -0.1275
  119GLOH    C3 9842   3.980   1.148   0.723  0.1978 -0.1704 -0.6609
  119GLOH   H06 9843   3.907   1.070   0.742  1.0253 -0.4838  1.3468
  119GLOH   H07 9844   4.016   1.120   0.624  0.7486  1.8837 -1.0603
  119GLOH    O3 9845   3.911   1.276   0.733 -0.1593  0.3751 -0.3375
  119GLOH   H01 9846   3.904   1.312   0.823 -0.7550 -0.7500  0.0845
  120GLOH   H03 9847   4.707   0.747   0.665 -1.3331  0.2427 -0.0346
  120GLOH    O1 9848   4.673   0.659   0.690  0.0036 -0.4166 -0.4921
  120GLOH    C1 9849   4.601   0.608   0.576  1.0795 -0.0537 -0.3994
  120GLOH   H02 9850   4.508   0.663   0.585  1.7855  1.2630 -0.9671
  120GLOH   H08 9851   4.586   0.501   0.591 -0.6758  0.1511 -0.6560
  120GLOH    C2 9852   4.668   0.633   0.440  0.0571  0.0009 -0.3028
  120GLOH   H04 9853   4.743   0.555   0.421  0.7805  0.0491  2.1806
  120GLOH    O2 9854   4.567   0.621   0.344  0.1439  0.1692 -0.2737
  120GLOH   H05 9855   4.483   0.667   0.361 -0.5842 -0.6913 -1.4541
  120GLOH    C3 9856   4.732   0.777   0.428  0.5956 -0.2247  0.3897
  120GLOH   H06 9857   4.651   0.845   0.402 -0.6240 -1.6733  0.3258
  120GLOH   H07 9858   4.791   0.777   0.337  1.3848 -1.7433  0.8794
  120GLOH    O3 9859   4.813   0.838   0.537  0.4222  0.3193 -0.0700
  120GLOH   H01 9860   4.902   0.807   0.511  0.7254 -1.5638  2.9976
  121ACOH    H4 9861   3.436   0.432   1.522 -2.2238  0.0168 -0.8394
  121ACOH    O2 9862   3.427   0.375   1.601  0.3542 -0.0661 -0.5483
  121ACOH    C2 9863   3.424   0.250   1.554  0.0726  0.5190 -0.1936
  121ACOH    O1 9864   3.502   0.167   1.589 -0.3118 -0.7933 -0.4870
  121ACOH    C1 9865   3.355   0.238   1.423  0.0486 -0.1616 -0.3690
  121ACOH    H1 9866   3.277   0.314   1.416 -1.2172 -1.3321  0.8086
  121ACOH    H2 9867   3.320   0.135   1.417 -0.3290 -0.1411  1.1416
  121ACOH    H3 9868   3.429   0.250   1.344  2.5313  0.7387  2.0270
  122ACOH    H4 9869   4.810   0.593   0.744 -0.3073 -0.7591  0.1786
  122ACOH    O2 9870   4.880   0.533   0.775  1.1192  0.7023 -0.1645
  122ACOH    C2 9871   4.847   0.505   0.900 -1.0053 -0.2648 -0.6103
  122ACOH    O1 9872   4.780   0.571   0.973 -0.5123  0.2486 -0.3231
  122ACOH    C1 9873   4.950   0.415   0.959 -0.2940 -0.1640  0.3544
  122ACOH    H1 9874   4.948   0.323   0.902  0.4357 -2.2296  3.5111
  122ACOH    H2 9875   4.919   0.384   1.059 -2.8920 -0.4845 -0.5110
  122ACOH    H3 9876   5.051   0.454   0.976  0.1730 -0.5425 -1.5159
  123ACOH    H4 9877   2.642   8.794   2.275  0.0173  0.7256 -0.5621
  123ACOH    O2 9878   2.590   8.810   2.355 -0.3115  0.1370 -0.6588
  123ACOH    C2 9879   2.678   8.826   2.453 -0.3504 -0.3849  0.1786
  123ACOH    O1 9880   2.798   8.840   2.440 -0.3307  0.0367 -0.2373
  123ACOH    C1 9881   2.603   8.797   2.579 -0.3072  0.6555 -0.7631
  123ACOH    H1 9882   2.556   8.883   2.628 -0.1560  1.2432 -1.6505
  123ACOH    H2 9883   2.669   8.753   2.653 -2.1039  0.0912  0.5489
  123ACOH    H3 9884   2.525   8.723   2.558 -1.9076  1.2966  2.5511
  124ACOH    H4 9885   3.106   8.368   0.761  0.8625 -0.3658 -0.8614
  124ACOH    O2 9886   3.032   8.310   0.738 -0.0762  0.4101  0.1285
  124ACOH    C2 9887   3.024   8.215   0.830  1.2248 -0.2963  0.2713
  124ACOH    O1 9888   3.107   8.195   0.914  0.3263  0.1027  0.1195
  124ACOH    C1 9889   2.901   8.134   0.812 -0.0232 -0.6678  0.1224
  124ACOH    H1 9890   2.899   8.076   0.719 -0.4746  0.1432 -0.3785
  124ACOH    H2 9891   2.813   8.198   0.816 -0.0509 -0.6156 -1.0681
  124ACOH    H3 9892   2.891   8.065   0.896 -0.9339 -0.2580  0.3592
  125ACOH    H4 9893   3.928   8.211   1.300 -2.2370  1.1038  1.4622
  125ACOH    O2 9894   3.884   8.128   1.278  0.3469 -0.0737  0.4545
  125ACOH    C2 9895   3.858   8.115   1.148 -0.1748  0.4145 -0.3674
  125ACOH    O1 9896   3.846   8.213   1.076 -0.4778  0.3489  0.0298
  125ACOH    C1 9897   3.781   7.995   1.109  0.2812 -0.6143  0.2870
  125ACOH    H1 9898   3.857   7.935   1.059  0.4710 -0.5047  0.4417
  125ACOH    H2 9899   3.699   8.021   1.041  0.0525  0.0680  0.8164
  125ACOH    H3 9900   3.749   7.949   1.202  1.9480  1.9469  2.1831
  126ACOH    H4 9901   5.295   0.570   0.708  0.1689 -0.7667  1.4506
  126ACOH    O2 9902   5.389   0.544   0.705  0.3353 -0.0776  0.4553
  126ACOH    C2 9903   5.430   0.620   0.600  0.1671  0.0689  0.9691
  126ACOH    O1 9904   5.351   0.654   0.512 -0.2066 -0.4196  0.3951
  126ACOH    C1 9905   5.579   0.609   0.595 -1.1151  0.4619  0.0100
  126ACOH    H1 9906   5.625   0.660   0.510 -0.4794 -0.7762 -0.3877
  126ACOH    H2 9907   5.598   0.502   0.593 -1.5102  0.4050 -2.3468
  126ACOH    H3 9908   5.617   0.648   0.690 -0.4018 -0.7238  0.2122
  127ACOH    H4 9909   2.218   9.541   1.197 -0.8560  1.1515  0.6488
  127ACOH    O2 9910   2.207   9.587   1.112 -0.0308  0.3153  0.0874
  127ACOH    C2 9911   2.293   9.522   1.033  1.0155 -0.6801 -0.2402
  127ACOH    O1 9912   2.383   9.447   1.073 -0.1917 -0.1984  0.2255
  127ACOH    C1 9913   2.275   9.554   0.889  0.7849  0.1924  0.1362
  127ACOH    H1 9914   2.323   9.490   0.815 -0.0137  1.9883 -2.0070
  127ACOH    H2 9915   2.296   9.661   0.883 -2.3507  0.9430  1.5099
  127ACOH    H3 9916   2.167   9.541   0.880  0.6307  2.5440 -2.0519
  128ACOH    H4 9917   3.380   8.739   0.276 -1.6966  1.3613 -0.4561
  128ACOH    O2 9918   3.332   8.674   0.223  0.2793 -0.4081 -0.1644
  128ACOH    C2 9919   3.228   8.632   0.297 -0.0022  0.4041  0.4224
  128ACOH    O1 9920   3.247   8.620   0.415  0.0493 -0.3349 -0.1009
  128ACOH    C1 9921   3.128   8.545   0.231 -0.3238 -0.1935 -0.0267
  128ACOH    H1 9922   3.172   8.468   0.169  0.0401  0.2403 -0.3150
  128ACOH    H2 9923   3.068   8.609   0.165  0.3440  1.6157  1.0956
  128ACOH    H3 9924   3.057   8.494   0.296 -2.1428 -0.5242 -2.1856
  129ACOH    H4 9925   4.250   1.076   0.684 -0.5228 -1.3423 -1.0797
  129ACOH    O2 9926   4.324   1.107   0.629 -0.7584  0.1309 -0.5831
  129ACOH    C2 9927   4.440   1.058   0.679 -0.1090  0.2370  1.1950
  129ACOH    O1 9928   4.444   0.991   0.777 -0.1189 -0.1837  0.0424
  129ACOH    C1 9929   4.567   1.087   0.605 -0.4002 -0.5160  0.2032
  129ACOH    H1 9930   4.647   1.013   0.605 -0.6107 -0.8229 -3.1722
  129ACOH    H2 9931   4.607   1.183   0.638 -2.0716 -0.6549  2.7912
  129ACOH    H3 9932   4.553   1.099   0.498 -0.0102 -2.4825 -0.0921
  130ACOH    H4 9933   2.322   9.996   1.241 -0.8304  2.3732  0.8687
  130ACOH    O2 9934   2.301  10.026   1.151 -0.2648 -0.1222 -0.1597
  130ACOH    C2 9935   2.350  10.149   1.150  0.4832 -0.1293 -0.6112
  130ACOH    O1 9936   2.417  10.207   1.232 -0.0939  0.0539 -0.3925
  130ACOH    C1 9937   2.352  10.193   1.008  1.1222  0.3999 -0.2149
  130ACOH    H1 9938   2.253  10.213   0.966  1.1770  0.8139 -0.1507
  130ACOH    H2 9939   2.399  10.118   0.944  0.8397 -0.9203  1.1121
  130ACOH    H3 9940   2.418  10.278   0.995 -0.7986  1.7055 -1.9741
  131ACOH    H4 9941   2.689   9.455   2.544  0.5658 -1.1540 -1.5089
  131ACOH    O2 9942   2.638   9.524   2.500 -0.0119 -0.4389  0.2220
  131ACOH    C2 9943   2.595   9.487   2.381 -0.1517  0.1338  0.2097
  131ACOH    O1 9944   2.627   9.386   2.323 -0.1287  0.2638  0.4889
  131ACOH    C1 9945   2.533   9.603   2.301  0.0854 -0.2919  0.0423
  131ACOH    H1 9946   2.513   9.689   2.364 -0.9994 -2.6423  3.0442
  131ACOH    H2 9947   2.442   9.562   2.257 -0.1894 -0.1730  0.5024
  131ACOH    H3 9948   2.599   9.617   2.216  0.0144 -2.8717 -0.4830
  132ACOH    H4 9949   4.877   0.160   0.556 -0.6509 -3.0280 -0.5478
  132ACOH    O2 9950   4.880   0.191   0.464 -0.2008 -0.1913  0.3893
  132ACOH    C2 9951   4.766   0.251   0.432 -0.8609 -0.3431  0.1145
  132ACOH    O1 9952   4.672   0.289   0.502  0.1230  0.5890 -0.2231
  132ACOH    C1 9953   4.752   0.269   0.285 -0.1682 -0.0739  0.7222
  132ACOH    H1 9954   4.774   0.180   0.225 -0.5148 -1.0032  1.9562
  132ACOH    H2 9955   4.833   0.335   0.254 -0.3770 -0.8357 -1.5499
  132ACOH    H3 9956   4.662   0.326   0.259  1.0020  0.7201 -1.7705
  133ACOH    H4 9957   3.658   9.913   2.671 -0.3745 -0.5350 -0.6227
  133ACOH    O2 9958   3.606   9.951   2.598  0.4416  0.6386 -0.6139
  133ACOH    C2 9959   3.497   9.863   2.583  0.1989 -0.5520 -0.2094
  133ACOH    O1 9960   3.452   9.772   2.655 -0.0742 -0.3442 -0.0452
  133ACOH    C1 9961   3.402   9.933   2.487  0.2858 -0.3686 -0.3926
  133ACOH    H1 9962   3.308   9.967   2.530  0.6345 -2.3680  2.0299
  133ACOH    H2 9963   3.377   9.862   2.408 -0.7080 -1.4946  0.9268
  133ACOH    H3 9964   3.452  10.018   2.439 -1.2615  0.5347 -0.4238
  134ACOH    H4 9965   4.516   9.680   0.622  1.8740  2.3773  1.1658
  134ACOH    O2 9966   4.578   9.621   0.667 -0.2168 -0.0815  0.9519
  134ACOH    C2 9967   4.628   9.544   0.570  0.3755 -0.1511  0.3754
  134ACOH    O1 9968   4.593   9.525   0.457  0.0318 -0.1718 -0.3930
  134ACOH    C1 9969   4.744   9.468   0.633  0.6819 -0.3818 -0.3772
  134ACOH    H1 9970   4.831   9.533   0.645 -0.2886  0.7250  0.8236
  134ACOH    H2 9971   4.774   9.386   0.568 -2.1938 -0.5225 -1.5747
  134ACOH    H3 9972   4.710   9.417   0.723  0.1704  0.3548 -0.1427
  135SOL     OW 9973   3.115   0.675   0.512  0.2973 -0.2717  0.2361
  135SOL    HW1 9974   3.187   0.635   0.455 -1.1747 -1.5060 -0.8037
  135SOL    HW2 9975   3.028   0.629   0.492 -0.7923  1.2551  1.4061
  136SOL     OW 9976   4.083   0.702   2.666 -0.6817  0.3492  0.0820
  136SOL    HW1 9977   4.142   0.679   2.589 -1.5768  1.3112 -0.9025
  136SOL    HW2 9978   4.059   0.799   2.662 -3.1270 -0.2314 -0.0889
  137SOL     OW 9979   2.828   0.572   1.387 -0.1649  0.1047 -0.6335
  137SOL    HW1 9980   2.806   0.629   1.307 -0.8453 -0.8353 -1.1338
  137SOL    HW2 9981   2.754   0.506   1.401 -0.4951  0.8816  1.3450
  138SOL     OW 9982   4.199   8.743   2.248  0.5361  0.2943  0.7152
  138SOL    HW1 9983   4.291   8.780   2.255  0.4877  0.4517  0.5196
  138SOL    HW2 9984   4.177   8.692   2.331  1.1853 -0.6422  0.3138
  139SOL     OW 9985   4.130   8.777   2.816 -1.0638 -0.1612 -0.1420
  139SOL    HW1 9986   4.163   8.710   2.750 -0.6306  0.1306 -0.2227
  139SOL    HW2 9987   4.140   8.869   2.778 -0.4140  0.0369  0.4967
  140SOL     OW 9988   3.214   0.771   1.154  0.0983 -0.8064 -0.6248
  140SOL    HW1 9989   3.131   0.770   1.098 -0.8624  0.2996  0.7419
  140SOL    HW2 9990   3.193   0.738   1.246  1.3559 -1.2950 -0.5068
  141SOL     OW 9991   3.993   9.379   1.924 -0.2735  0.0040  0.3781
  141SOL    HW1 9992   4.047   9.379   1.839  0.7688 -2.4284  0.9851
  141SOL    HW2 9993   3.967   9.472   1.947  1.6225  0.9841 -1.2631
  142SOL     OW 9994   3.957   9.693   1.931  0.3259  0.0106  0.4344
  142SOL    HW1 9995   3.958   9.724   2.026 -0.2087  0.1674  0.3893
  142SOL    HW2 9996   4.051   9.680   1.899  0.5138  0.2782  0.8796
  143SOL     OW 9997   4.135   0.279   2.554 -0.1825 -0.1127 -0.0630
  143SOL    HW1 9998   4.100   0.312   2.642  2.0332 -3.5928  2.2550
  143SOL    HW2 9999   4.062   0.235   2.502 -1.1370  0.4127  0.8247
  144SOL     OW10000   3.166   8.875   1.574  0.5373  0.1856 -0.0790
  144SOL    HW110001   3.119   8.931   1.642  0.0272 -2.3942  1.7455
  144SOL    HW210002   3.103   8.807   1.537  1.7761 -0.7702 -0.4817
  145SOL     OW10003   2.970   8.668   1.486  0.0215 -0.1104 -0.3409
  145SOL    HW110004   2.941   8.764   1.492  1.2565  0.2581 -0.0653
  145SOL    HW210005   2.921   8.614   1.555  0.0927  0.5191  0.2076
  146SOL     OW10006   4.207   9.468   1.776 -0.1356  0.3607 -0.0731
  146SOL    HW110007   4.301   9.477   1.742  0.8291  2.0429  2.8620
  146SOL    HW210008   4.143   9.508   1.710  1.3829  1.0214 -1.1603
  147SOL     OW10009   4.317   0.711   0.348  0.0458  0.3636 -0.0604
  147SOL    HW110010   4.237   0.655   0.327 -0.7558  1.8317 -0.9313
  147SOL    HW210011   4.288   0.799   0.385  1.3226 -0.3919  2.9789
  148SOL     OW10012   3.648   8.859   0.866  0.2602  0.7629 -0.4967
  148SOL    HW110013   3.669   8.788   0.933 -0.8896  0.5949 -0.2994
  148SOL    HW210014   3.711   8.936   0.878  1.6484 -0.3076 -0.8566
  149SOL     OW10015   3.527   0.092   1.972  0.5189  0.0720  0.8351
  149SOL    HW110016   3.601   0.159   1.965 -0.4803  1.1356  0.1621
  149SOL    HW210017   3.525   0.036   1.889  0.0161  0.6571  0.4396
  150SOL     OW10018   4.726   3.019   1.785  0.6477 -0.3378  0.1733
  150SOL    HW110019   4.715   3.027   1.884  0.4545 -1.7094  0.2756
  150SOL    HW210020   4.776   3.098   1.750  0.0965  0.4984  1.2628
  151SOL     OW10021   2.980   9.294   2.340  0.3719  0.0643 -0.3323
  151SOL    HW110022   3.044   9.249   2.278 -0.1528  0.7029 -1.3539
  151SOL    HW210023   2.960   9.386   2.307 -2.1764 -0.6187 -0.8446
  152SOL     OW10024   3.141   0.016   1.213  0.8255 -0.3405  0.0080
  152SOL    HW110025   3.104  -0.016   1.301  2.0407 -0.7511  0.3869
  152SOL    HW210026   3.145  -0.060   1.149  0.5679 -0.1900 -0.1856
  153SOL     OW10027   4.863   0.336   1.421  0.2902 -0.1537 -0.2245
  153SOL    HW110028   4.887   0.400   1.495  0.1775  0.5010 -0.7440
  153SOL    HW210029   4.807   0.384   1.353  1.0576 -0.5232 -1.1327
  154SOL     OW10030   4.247   8.733   1.608 -0.4036  0.3572  0.2539
  154SOL    HW110031   4.332   8.784   1.623 -0.8572  1.1969  0.0315
  154SOL    HW210032   4.187   8.746   1.687 -0.6552  0.4430  0.0494
  155SOL     OW10033   2.789   9.963   2.126 -0.6390  0.1709 -0.2601
  155SOL    HW110034   2.818   9.931   2.036 -1.4739 -0.5159 -0.2955
  155SOL    HW210035   2.701  10.010   2.118 -1.0730 -0.5404  0.3031
  156SOL     OW10036   2.943   0.596   2.431 -0.0438 -0.6228  0.2104
  156SOL    HW110037   2.948   0.643   2.520  2.6163 -0.1064 -0.1684
  156SOL    HW210038   2.980   0.504   2.441 -0.1308 -0.7090 -0.2874
  157SOL     OW10039   4.109   0.801   0.606 -0.1057  0.5268 -0.5241
  157SOL    HW110040   4.144   0.854   0.683  3.0894 -2.0652 -0.0845
  157SOL    HW210041   4.096   0.861   0.527  2.7089  2.1210  0.1519
  158SOL     OW10042   9.506   2.229   0.014 -0.2493 -0.1154  0.3479
  158SOL    HW110043   9.557   2.159  -0.036  0.9088  0.1494  1.1400
  158SOL    HW210044   9.465   2.293  -0.051  2.2889  0.9548 -0.2648
  159SOL     OW10045   3.473   0.824   2.214 -0.1606 -0.3824 -0.1976
  159SOL    HW110046   3.523   0.832   2.128 -1.2845 -0.1670 -0.8400
  159SOL    HW210047   3.374   0.821   2.195 -0.4350  0.1125  1.1099
  160SOL     OW10048   4.173   8.291   2.165 -0.0921 -0.3110  0.2437
  160SOL    HW110049   4.104   8.224   2.138 -0.6049 -0.5987  2.1445
  160SOL    HW210050   4.164   8.374   2.109  0.4607 -1.7520 -2.0355
  161SOL     OW10051   8.579   8.224   0.392  0.2187  0.4915  0.3458
  161SOL    HW110052   8.489   8.267   0.403 -0.1116 -0.7649  2.8909
  161SOL    HW210053   8.631   8.234   0.476  0.4350 -3.3481  0.7292
  162SOL     OW10054   3.971   1.136   2.390  0.2725 -0.0497  0.7991
  162SOL    HW110055   3.925   1.151   2.302  2.5161 -1.9283 -0.7922
  162SOL    HW210056   4.056   1.190   2.392  0.9216 -1.0608  1.1925
  163SOL     OW10057   3.252   0.500   0.353 -0.4809  0.2079  0.7165
  163SOL    HW110058   3.187   0.457   0.290  0.1888 -0.2662  0.3422
  163SOL    HW210059   3.310   0.565   0.303 -0.7955  0.7839  1.0874
  164SOL     OW10060   3.303   9.628   2.251 -0.3551  0.2867 -0.4756
  164SOL    HW110061   3.339   9.694   2.185  0.3115 -0.5262 -0.9334
  164SOL    HW210062   3.313   9.535   2.214  0.4158 -0.2145  0.9417
  165SOL     OW10063   3.534   9.108   1.049 -0.0741 -0.3431 -0.3801
  165SOL    HW110064   3.601   9.078   0.980  1.2339  0.4903  0.5060
  165SOL    HW210065   3.444   9.071   1.026  0.1875  0.5557 -2.9461
  166SOL     OW10066   9.365   1.684   2.775  0.0188  0.0867 -0.1578
  166SOL    HW110067   9.427   1.759   2.801  0.9237 -0.6156 -0.2617
  166SOL    HW210068   9.394   1.600   2.821  0.5329 -0.7698 -2.0216
  167SOL     OW10069   4.535   0.397   0.831 -0.5338  0.2932 -0.1073
  167SOL    HW110070   4.476   0.413   0.752  0.0322 -0.2505 -0.6395
  167SOL    HW210071   4.600   0.473   0.840  0.2788 -0.3035 -0.9506
  168SOL     OW10072   4.453   9.785   1.670 -0.3971 -0.9124  0.7512
  168SOL    HW110073   4.520   9.808   1.599 -0.3954  0.8757  1.2977
  168SOL    HW210074   4.461   9.689   1.694  1.6482 -0.8300  0.4694
  169SOL     OW10075   4.162   9.665   0.801  0.4620  0.5798 -0.4222
  169SOL    HW110076   4.169   9.667   0.901  0.9061 -0.8980 -0.4104
  169SOL    HW210077   4.248   9.698   0.761 -0.0868  2.1697 -0.3362
  170SOL     OW10078   2.517   8.949   0.970 -0.6326 -0.7661 -0.4727
  170SOL    HW110079   2.451   8.911   0.906 -1.9088  1.5107 -0.5633
  170SOL    HW210080   2.575   9.015   0.923 -1.1979  0.4871  0.5544
  171SOL     OW10081   3.940   0.776   0.838  0.4479  0.2762  0.1014
  171SOL    HW110082   3.990   0.774   0.752  1.9662  0.0787  0.9792
  171SOL    HW210083   4.002   0.797   0.913 -0.8189  0.2552  1.1850
  172SOL     OW10084   2.935   8.396   2.156  0.2208  0.2119  0.0201
  172SOL    HW110085   2.983   8.468   2.206  1.2263  0.7650 -1.6678
  172SOL    HW210086   3.002   8.336   2.112 -0.6208 -0.5463 -0.2327
  173SOL     OW10087   3.086   0.507   1.525 -0.0394  0.3968  0.0493
  173SOL    HW110088   3.004   0.524   1.471  1.1078  0.7856 -1.5987
  173SOL    HW210089   3.062   0.507   1.623 -1.8584  1.2484 -0.3759
  174SOL     OW10090   3.674   0.078   1.351  1.4498  0.1977 -0.5352
  174SOL    HW110091   3.591   0.030   1.382 -0.3899  3.1272 -0.7914
  174SOL    HW210092   3.743   0.073   1.423 -0.2508  0.8311  1.1727
  175SOL     OW10093   4.059   0.287   2.842 -0.4518  0.1667  0.3038
  175SOL    HW110094   3.981   0.228   2.862 -0.9786  0.9437  0.5576
  175SOL    HW210095   4.026   0.378   2.815  0.2817 -0.2962 -2.2789
  176SOL     OW10096   3.383   9.396   2.156 -0.6270  0.3774  0.2992
  176SOL    HW110097   3.327   9.319   2.187 -0.8808  0.6139  0.4352
  176SOL    HW210098   3.477   9.385   2.188 -0.2267 -0.7957 -1.1979
  177SOL     OW10099   4.140   8.351   2.436  0.3503  0.0124 -0.3437
  177SOL    HW110100   4.086   8.275   2.398  0.0184  0.6602 -1.2020
  177SOL    HW210101   4.224   8.362   2.383  1.6132 -1.3585  1.3489
  178SOL     OW10102   2.910   0.792   2.234  0.0312  0.0309 -0.2270
  178SOL    HW110103   2.898   0.720   2.303  0.2006 -0.4149 -0.6579
  178SOL    HW210104   2.838   0.861   2.245  0.4392  0.2949  0.8010
  179SOL     OW10105   3.582   0.908   1.575 -0.2728  0.3194  0.1742
  179SOL    HW110106   3.635   0.834   1.534 -1.7291 -1.0557  0.7424
  179SOL    HW210107   3.492   0.913   1.532 -0.4013  1.3854  0.5452
  180SOL     OW10108   3.644   9.157   0.200 -0.1677  0.2465  0.0108
  180SOL    HW110109   3.734   9.196   0.221  0.3688  0.8481 -3.0933
  180SOL    HW210110   3.653   9.058   0.187 -0.0374  0.2377  0.1660
  181SOL     OW10111   8.129   2.025   1.029  0.6175  0.0292  0.1703
  181SOL    HW110112   8.068   2.010   1.107 -0.7761 -2.4981 -1.3239
  181SOL    HW210113   8.171   1.938   1.003  1.3706  0.9275 -1.6571
  182SOL     OW10114   4.356   8.704   1.911  0.2888  0.9209  0.3581
  182SOL    HW110115   4.340   8.801   1.924  0.1079  0.9955 -0.3812
  182SOL    HW210116   4.269   8.657   1.893  0.4712  0.7549 -0.0990
  183SOL     OW10117   3.100   9.914   1.472 -0.5566 -0.3202 -0.8383
  183SOL    HW110118   3.147   9.989   1.517 -0.0753  0.0463 -1.9260
  183SOL    HW210119   3.117   9.829   1.521 -1.9832  0.4457  1.0154
  184SOL     OW10120   3.774   0.727   1.491  0.0464 -0.2759  0.0341
  184SOL    HW110121   3.817   0.735   1.401  0.0787 -3.2501 -0.2628
  184SOL    HW210122   3.836   0.680   1.553 -1.4496 -1.6303  0.5311
  185SOL     OW10123   3.662   8.638   1.031  0.2610 -0.0589  0.1579
  185SOL    HW110124   3.678   8.558   0.972  0.0355 -1.0579  1.4180
  185SOL    HW210125   3.618   8.608   1.115 -1.6281  1.6778 -0.1757
  186SOL     OW10126   8.682   9.581   1.942  0.7019  0.3840 -0.9911
  186SOL    HW110127   8.642   9.491   1.959  0.0633  0.7367 -0.6006
  186SOL    HW210128   8.653   9.615   1.853 -0.5938  1.0245 -0.3364
  187SOL     OW10129   2.321   8.806   0.841  0.8108  0.1402 -0.0986
  187SOL    HW110130   2.225   8.791   0.864  0.8371  1.8375  1.2084
  187SOL    HW210131   2.350   8.739   0.773 -1.2740 -0.4434 -0.4392
  188SOL     OW10132   3.074   8.453   1.349 -0.6524  0.4399  0.5219
  188SOL    HW110133   3.044   8.529   1.407  0.1592  1.0667  0.1214
  188SOL    HW210134   3.169   8.432   1.368 -0.8311 -0.3793  0.5190
  189SOL     OW10135   3.631   9.669   1.994  0.0902 -0.3809  0.6035
  189SOL    HW110136   3.555   9.708   1.943  1.1421  0.9287  0.0010
  189SOL    HW210137   3.690   9.743   2.028  2.3315 -1.4441 -0.8692
  190SOL     OW10138   3.905   0.091   0.011 -0.8928  0.9655 -0.8453
  190SOL    HW110139   3.952   0.009  -0.022 -0.0096  0.4868  1.5236
  190SOL    HW210140   3.843   0.066   0.085 -0.3618  2.4698  0.1336
  191SOL     OW10141   2.250   9.447   1.344  0.1937  0.2086  0.1505
  191SOL    HW110142   2.272   9.350   1.333 -1.3405 -0.3300  1.5922
  191SOL    HW210143   2.279   9.478   1.434 -1.9512  0.3133  0.8204
  192SOL     OW10144   4.348   0.278   1.009 -0.3518 -0.8063  0.6041
  192SOL    HW110145   4.427   0.325   0.969 -0.8281 -0.4563  0.0694
  192SOL    HW210146   4.264   0.326   0.983 -0.6695 -0.5421  2.0853
  193SOL     OW10147   3.938   9.471   0.221  0.0528  0.4277 -0.0152
  193SOL    HW110148   3.954   9.535   0.296  0.2798  0.5451 -0.1636
  193SOL    HW210149   3.999   9.493   0.145  1.0693 -0.7888  0.4303
  194SOL     OW10150   3.032   8.213   1.203 -0.3502 -0.2002  0.0971
  194SOL    HW110151   3.032   8.302   1.250  0.1582  0.4068 -1.0346
  194SOL    HW210152   3.024   8.227   1.105  0.7784 -1.3585 -0.1805
  195SOL     OW10153   2.809   9.319   0.828 -0.4968 -0.3109 -0.3773
  195SOL    HW110154   2.754   9.361   0.901  1.3590  1.2065  0.1811
  195SOL    HW210155   2.898   9.294   0.864  0.9715  1.7540 -2.4464
  196SOL     OW10156   2.563   9.454   1.699  0.0629 -0.0205 -0.4135
  196SOL    HW110157   2.618   9.386   1.652  1.5482  0.6597  0.3172
  196SOL    HW210158   2.575   9.445   1.798 -1.3605 -0.0545 -0.2300
  197SOL     OW10159   4.000   9.047   1.884  0.1790 -0.7566 -0.8193
  197SOL    HW110160   4.006   9.108   1.963  1.9996 -0.4419 -1.1720
  197SOL    HW210161   3.973   9.099   1.803  0.7058 -0.6061 -0.9015
  198SOL     OW10162   3.373   0.860   0.784 -0.0933 -0.5622 -0.1034
  198SOL    HW110163   3.374   0.807   0.870  1.8944 -0.3709  0.0208
  198SOL    HW210164   3.448   0.926   0.785 -0.7447  0.2176 -1.5295
  199SOL     OW10165   3.837   0.666   0.449  0.1157  0.0513 -0.3364
  199SOL    HW110166   3.931   0.683   0.418 -1.1197  1.5931 -3.4737
  199SOL    HW210167   3.796   0.752   0.480 -0.1703 -0.6798  1.3607
  200SOL     OW10168   2.815   0.398   1.863  0.5667  0.0603 -0.2135
  200SOL    HW110169   2.727   0.445   1.874  0.0188 -0.7601 -0.9858
  200SOL    HW210170   2.800   0.311   1.816  1.6620 -0.5611  0.5785
  201SOL     OW10171   3.019   0.742   0.791  0.0403  0.6737  0.1695
  201SOL    HW110172   2.967   0.828   0.795 -1.3254 -0.1930  1.3490
  201SOL    HW210173   3.071   0.740   0.706  0.8629  3.1046  0.5606
  202SOL     OW10174   3.654   9.794   1.322  0.6442  0.0050 -0.2888
  202SOL    HW110175   3.701   9.839   1.246  2.4093  0.1240  0.8409
  202SOL    HW210176   3.689   9.700   1.331  0.1602 -0.1355  0.1254
  203SOL     OW10177   3.743   0.279   1.707  0.0473 -0.4334 -0.2539
  203SOL    HW110178   3.704   0.204   1.653  0.3058 -1.0035  0.3323
  203SOL    HW210179   3.759   0.247   1.800  0.3071  0.3122 -0.0420
  204SOL     OW10180   2.625   0.408   1.261 -0.1499  0.2215  0.2012
  204SOL    HW110181   2.645   0.387   1.165  1.8125 -3.3565  1.3104
  204SOL    HW210182   2.527   0.394   1.278 -0.5793  1.1619 -1.2771
  205SOL     OW10183   3.918   8.676   2.040  0.4599  0.0405 -0.0204
  205SOL    HW110184   3.927   8.741   2.116 -0.3186 -1.3197  1.2644
  205SOL    HW210185   3.828   8.633   2.043  0.3237  0.1645 -1.8972
  206SOL     OW10186   3.714   9.535   1.323 -0.3835  0.4946 -0.1250
  206SOL    HW110187   3.733   9.446   1.281  0.6263  0.1333  1.0812
  206SOL    HW210188   3.760   9.541   1.411 -1.2789  1.8321  0.2609
  207SOL     OW10189   3.499   0.516   1.398 -0.2700 -0.6834 -0.3513
  207SOL    HW110190   3.528   0.502   1.304 -1.0405 -2.2339 -0.3720
  207SOL    HW210191   3.571   0.564   1.448  1.4162 -2.4810 -0.9704
  208SOL     OW10192   3.862   0.515   0.927  0.3363  0.1184  0.2766
  208SOL    HW110193   3.862   0.594   0.865  0.3799  0.4253  0.6663
  208SOL    HW210194   3.778   0.515   0.981  1.2844  1.0633  1.7563
  209SOL     OW10195   4.373   8.412   2.278 -0.3281 -0.2443  0.0957
  209SOL    HW110196   4.461   8.386   2.239 -0.3046 -0.2199  0.1325
  209SOL    HW210197   4.301   8.354   2.241 -0.9659  2.6439 -3.4139
  210SOL     OW10198   3.145   9.790   1.037  0.2998  0.4573  0.4520
  210SOL    HW110199   3.085   9.754   1.108  0.6736  0.6682  0.8769
  210SOL    HW210200   3.194   9.715   0.993  1.2264  0.4578  1.4723
  211SOL     OW10201   2.596   9.351   1.263 -0.4985  0.3657  0.5269
  211SOL    HW110202   2.531   9.359   1.188 -0.6032 -0.6345  0.5026
  211SOL    HW210203   2.557   9.294   1.335 -0.3282  1.1761  1.2743
  212SOL     OW10204   2.437   8.607   1.103  0.2360  0.4199 -1.0133
  212SOL    HW110205   2.446   8.689   1.160 -2.3081  1.3571 -1.9027
  212SOL    HW210206   2.350   8.562   1.122  1.3059 -1.7488 -1.0144
  213SOL     OW10207   2.545   0.314   1.958 -0.6692  0.3218 -0.5504
  213SOL    HW110208   2.528   0.231   1.905  2.2878 -0.0224 -1.0932
  213SOL    HW210209   2.473   0.381   1.942 -1.1522 -0.7690 -3.0087
  214SOL     OW10210   2.769   0.195   1.405 -0.6098 -0.2802  0.2281
  214SOL    HW110211   2.862   0.213   1.373 -0.7800  0.4227  0.1331
  214SOL    HW210212   2.705   0.253   1.356 -0.9550  0.2259  1.2809
  215SOL     OW10213   3.799   1.081   1.564 -0.0927 -0.1522 -0.3161
  215SOL    HW110214   3.882   1.052   1.611  0.0348 -0.8621 -0.9617
  215SOL    HW210215   3.732   1.006   1.564 -0.6095  0.3046 -0.0789
  216SOL     OW10216   3.371   8.641   1.584  0.2006  0.2163 -0.2588
  216SOL    HW110217   3.324   8.688   1.659 -0.7813 -1.4942  0.2028
  216SOL    HW210218   3.465   8.676   1.577  0.1505  0.7356  1.4340
  217SOL     OW10219   3.820   9.597   1.586 -0.4975  0.4528  0.3241
  217SOL    HW110220   3.917   9.610   1.565 -0.5970  0.5673 -0.0769
  217SOL    HW210221   3.787   9.676   1.638 -0.8868  1.4420 -1.3693
  218SOL     OW10222   3.234   0.698   1.437 -0.2260  0.5369 -0.5867
  218SOL    HW110223   3.164   0.634   1.469  1.1274  0.9057  3.3715
  218SOL    HW210224   3.319   0.648   1.419 -0.8720  0.3896 -3.4120
  219SOL     OW10225   3.456   0.217   0.973 -0.0526  0.3625 -0.0417
  219SOL    HW110226   3.480   0.309   0.942 -1.7328  1.0346  0.5464
  219SOL    HW210227   3.357   0.213   0.989  0.1436 -1.2716  0.8466
  220SOL     OW10228   3.416   0.014   1.182 -0.4878 -0.4032 -0.8257
  220SOL    HW110229   3.467   0.092   1.145 -0.2051  0.0840  0.5759
  220SOL    HW210230   3.320   0.022   1.155 -0.3770  0.1857 -1.0680
  221SOL     OW10231   3.545   0.866   0.311 -0.5757 -0.5736  0.3767
  221SOL    HW110232   3.492   0.948   0.332  0.7852  0.4242  0.0262
  221SOL    HW210233   3.628   0.892   0.261  0.9224 -1.9216  2.0523
  222SOL     OW10234   2.597   9.368   1.967 -0.1689 -0.3703  0.3042
  222SOL    HW110235   2.557   9.412   2.047  0.0627  0.4461 -0.0206
  222SOL    HW210236   2.696   9.377   1.970 -0.2276  0.9799 -0.7988
  223SOL     OW10237   4.215   9.721   0.142  0.4618 -0.2055 -0.0219
  223SOL    HW110238   4.312   9.707   0.121  0.0245 -0.2120 -2.0539
  223SOL    HW210239   4.208   9.785   0.219  2.0585  1.7574 -1.4301
  224SOL     OW10240   3.963   8.871   2.231 -0.2019  0.5451  0.0170
  224SOL    HW110241   3.932   8.942   2.295  0.2241  0.1424  0.6748
  224SOL    HW210242   4.054   8.840   2.258  0.6514  1.4967 -1.7070
  225SOL     OW10243   2.931   9.300   0.317 -0.2943  0.2848 -0.6837
  225SOL    HW110244   2.916   9.371   0.386  0.2889  1.2539 -1.5384
  225SOL    HW210245   2.925   9.341   0.226  1.6132 -0.4522 -1.1549
  226SOL     OW10246   3.186   0.870   2.252  0.1962  0.7727 -0.3877
  226SOL    HW110247   3.177   0.934   2.329 -0.2288  1.2242 -0.8141
  226SOL    HW210248   3.102   0.817   2.242  0.3466  0.5278 -0.3859
  227SOL     OW10249   3.497   8.653   1.914  0.0789  0.1872 -0.7627
  227SOL    HW110250   3.452   8.742   1.916  0.9376  0.6103  1.6413
  227SOL    HW210251   3.548   8.643   1.829  0.6581  2.3636 -0.7008
  228SOL     OW10252   3.893   1.264   1.214  0.2891  0.2073 -0.0416
  228SOL    HW110253   3.869   1.195   1.283  0.8085 -0.3788 -0.4511
  228SOL    HW210254   3.836   1.345   1.229 -0.9332 -0.6153 -0.0793
  229SOL     OW10255   3.639   0.807   0.563  0.5655 -0.3359  0.0849
  229SOL    HW110256   3.580   0.735   0.600 -2.4507  2.1314  0.2403
  229SOL    HW210257   3.608   0.833   0.472  1.6956  0.6818 -0.0209
  230SOL     OW10258   4.806   9.916   1.898 -0.5095 -0.6801 -0.9123
  230SOL    HW110259   4.866   9.849   1.940 -1.3826 -1.2059 -0.4847
  230SOL    HW210260   4.849   9.954   1.816  0.8743 -0.2117  0.0150
  231SOL     OW10261   3.509   0.476   0.869  0.8123 -0.3485  0.3594
  231SOL    HW110262   3.511   0.462   0.770 -1.0839  1.7196 -0.0079
  231SOL    HW210263   3.447   0.551   0.891 -1.4535 -2.9451  3.3934
  232SOL     OW10264   3.640   9.051   1.295 -0.0614  0.4322  0.0028
  232SOL    HW110265   3.596   9.064   1.206 -2.7645  0.5667  1.2970
  232SOL    HW210266   3.618   9.129   1.354  0.2176 -0.5006  1.3560
  233SOL     OW10267   2.749   0.273   2.722  0.4496  0.6018 -0.4175
  233SOL    HW110268   2.730   0.254   2.626  1.5646  1.4942 -0.8269
  233SOL    HW210269   2.735   0.370   2.741 -3.3773 -0.1832  1.2237
  234SOL     OW10270   3.281   0.944   0.146  0.0697 -0.2176  0.0526
  234SOL    HW110271   3.353   1.008   0.173 -0.9923  0.7794  0.5362
  234SOL    HW210272   3.303   0.853   0.182  1.4007 -0.0666 -0.3342
  235SOL     OW10273   3.494   9.580   2.457 -0.5192 -0.1577 -0.0950
  235SOL    HW110274   3.453   9.620   2.539  0.5439 -1.1983  0.9631
  235SOL    HW210275   3.440   9.607   2.376 -2.7286 -0.7286  1.1346
  236SOL     OW10276   4.575   9.837   1.959  0.1886  0.0593 -0.7579
  236SOL    HW110277   4.664   9.878   1.941  0.5716 -0.7514 -0.7721
  236SOL    HW210278   4.520   9.839   1.876  0.0789  0.8309 -0.6694
  237SOL     OW10279   3.777   8.445   1.599  0.2416  0.2937  0.3189
  237SOL    HW110280   3.713   8.396   1.540 -0.8572  0.5824  1.2480
  237SOL    HW210281   3.870   8.433   1.565 -0.4566  1.2869 -2.0619
  238SOL     OW10282   3.351   0.958   1.451 -0.0462 -0.5653 -0.0872
  238SOL    HW110283   3.300   0.873   1.438  1.0142 -1.7015  2.8203
  238SOL    HW210284   3.287   1.035   1.455 -1.7850 -2.0879  4.6839
  239SOL     OW10285   2.707   8.360   2.045  0.8068 -0.6359  0.7907
  239SOL    HW110286   2.640   8.338   2.116  0.7873  0.3399  1.0797
  239SOL    HW210287   2.795   8.382   2.088  0.8662 -0.2999  0.4934
  240SOL     OW10288   3.597   0.553   1.847  0.3765 -0.6872  0.6368
  240SOL    HW110289   3.688   0.573   1.811 -0.3398  1.6855  0.0425
  240SOL    HW210290   3.561   0.470   1.803  1.0159  0.0990 -1.4512
  241SOL     OW10291   2.754   9.923   1.458  0.1049 -0.4039  0.4148
  241SOL    HW110292   2.850   9.911   1.482  0.2944 -0.3031 -0.2631
  241SOL    HW210293   2.740  10.015   1.421  0.1321 -1.0617 -1.2769
  242SOL     OW10294   3.271   9.428   1.895 -0.0062 -0.9059 -0.2095
  242SOL    HW110295   3.347   9.404   1.834  1.0158  3.8138 -1.0247
  242SOL    HW210296   3.304   9.438   1.988 -0.4019 -2.4838  0.1062
  243SOL     OW10297   2.648   0.411   0.984 -0.6606 -0.2605 -0.4613
  243SOL    HW110298   2.690   0.471   0.916 -0.3111  0.2283  0.1812
  243SOL    HW210299   2.668   0.315   0.961 -0.1995 -0.0826 -0.8108
  244SOL     OW10300   4.326   9.845   2.070 -0.6559  0.4590 -0.2630
  244SOL    HW110301   4.422   9.852   2.043 -0.6909 -0.6180 -0.6753
  244SOL    HW210302   4.293   9.752   2.053 -1.5393  0.5960  0.6509
  245SOL     OW10303   2.744   9.149   2.170 -0.2805  0.1453  0.2707
  245SOL    HW110304   2.692   9.224   2.129 -2.5922 -2.4536 -1.8195
  245SOL    HW210305   2.768   9.172   2.264 -2.7941  2.6281  0.3666
  246SOL     OW10306   2.629   9.123   0.797 -0.5369  0.0481  0.5996
  246SOL    HW110307   2.621   9.088   0.704  0.0909 -2.3295  1.3934
  246SOL    HW210308   2.679   9.210   0.796 -2.7276  1.3552 -1.5128
  247SOL     OW10309   3.954   9.515   0.662 -0.2135  0.1524 -0.0412
  247SOL    HW110310   4.019   9.562   0.722  0.4310  1.1809 -1.5252
  247SOL    HW210311   3.964   9.416   0.675  1.4323  0.3062 -0.0270
  248SOL     OW10312   2.971   9.995   2.529 -0.0044 -0.9951  0.5802
  248SOL    HW110313   2.964   9.913   2.587  0.7269 -0.5367  1.3184
  248SOL    HW210314   2.880  10.018   2.495 -0.5636 -0.8973  2.0621
  249SOL     OW10315   3.058   9.300   1.731  0.1455 -0.0387 -0.4081
  249SOL    HW110316   3.091   9.317   1.637  1.1680 -0.1297 -0.0752
  249SOL    HW210317   3.121   9.343   1.796  0.6625 -1.8776  0.3231
  250SOL     OW10318   2.893   9.100   2.497 -0.0235 -0.2432  0.0938
  250SOL    HW110319   2.867   9.011   2.458  2.6381 -0.8154 -0.4362
  250SOL    HW210320   2.918   9.163   2.424  0.1166  0.2845  0.5904
  251SOL     OW10321   4.247   0.181   0.438 -0.0817 -0.4115  0.4066
  251SOL    HW110322   4.280   0.256   0.381 -1.4821 -0.0867  0.0066
  251SOL    HW210323   4.323   0.145   0.492  0.6543  1.1518  0.4534
  252SOL     OW10324   3.444   1.014   0.564 -0.3056  0.0229  0.3318
  252SOL    HW110325   3.532   0.995   0.607  1.7835 -1.5960 -4.3378
  252SOL    HW210326   3.372   0.963   0.611  1.6972 -0.9369  2.4243
  253SOL     OW10327   2.516   0.148   1.743  0.0822  0.1825  0.5034
  253SOL    HW110328   2.613   0.167   1.726 -0.4517  0.5872 -2.2315
  253SOL    HW210329   2.489   0.066   1.692 -0.9183 -0.2452  1.6900
  254SOL     OW10330   3.458   0.448   0.576  0.0073  0.1028  0.3103
  254SOL    HW110331   3.554   0.435   0.549  0.0471  1.6039 -0.2714
  254SOL    HW210332   3.399   0.413   0.504  0.1107 -0.8746  0.6924
  255SOL     OW10333   3.350   8.106   1.027 -0.0091  0.0472 -0.7168
  255SOL    HW110334   3.263   8.135   0.987 -0.2788  1.3403  0.7525
  255SOL    HW210335   3.339   8.092   1.125  1.2006 -0.7856 -0.6934
  256SOL     OW10336   4.097   9.588   1.563  0.1051 -0.1655  0.4354
  256SOL    HW110337   4.092   9.523   1.487  0.2458 -0.6889  0.8708
  256SOL    HW210338   4.120   9.679   1.528 -2.0937  0.0859 -0.4108
  257SOL     OW10339   3.434   1.109   0.305  1.0275  0.0486 -0.1931
  257SOL    HW110340   3.514   1.163   0.279  0.6560  2.4190  3.2172
  257SOL    HW210341   3.411   1.128   0.400 -2.7265 -1.7177 -0.6727
  258SOL     OW10342   2.689   9.596   1.193 -0.6918  0.0094  0.2394
  258SOL    HW110343   2.630   9.675   1.176 -0.2181 -0.3399 -3.2909
  258SOL    HW210344   2.632   9.515   1.208 -1.1337  0.0279 -1.3180
  259SOL     OW10345   3.726   9.318   0.939 -0.0084 -0.2504 -0.1120
  259SOL    HW110346   3.630   9.290   0.928 -0.9881  1.1214  4.1056
  259SOL    HW210347   3.740   9.404   0.890 -2.0513  1.5592  2.3096
  260SOL     OW10348   3.635   1.024   0.781  0.2746  0.1922  0.2393
  260SOL    HW110349   3.710   0.959   0.782  0.1789  0.0740 -0.3464
  260SOL    HW210350   3.657   1.101   0.721  0.3340  0.6380  0.8268
  261SOL     OW10351   4.362   0.412   0.338 -0.5747  0.1471 -0.1162
  261SOL    HW110352   4.402   0.504   0.337 -3.4190  1.4814  2.2727
  261SOL    HW210353   4.322   0.392   0.249 -0.8469  1.6388 -0.3403
  262SOL     OW10354   3.692   9.414   2.570  0.4070 -0.1171 -0.1213
  262SOL    HW110355   3.641   9.494   2.536 -1.2166 -0.8333  0.5653
  262SOL    HW210356   3.697   9.419   2.670  0.7213 -0.6130 -0.1132
  263SOL     OW10357   4.101   8.797   1.838 -0.0305 -0.4552 -0.1753
  263SOL    HW110358   4.041   8.744   1.896  1.8890 -0.6414  1.7048
  263SOL    HW210359   4.079   8.894   1.847 -1.0278 -0.6317 -0.6644
  264SOL     OW10360   3.596   1.466   0.098 -0.1199  0.3350 -0.4443
  264SOL    HW110361   3.561   1.551   0.138 -0.0939  1.3185 -2.4977
  264SOL    HW210362   3.667   1.487   0.031  1.2945 -1.4289  0.4368
  265SOL     OW10363   2.719   9.965   0.701  0.5143  0.3367 -0.3700
  265SOL    HW110364   2.816   9.942   0.709  0.8721  1.5128 -1.1311
  265SOL    HW210365   2.704  10.016   0.616 -0.4277  1.9142  0.7137
  266SOL     OW10366   2.965   9.397   0.596  0.0768 -0.0706  0.0216
  266SOL    HW110367   2.893   9.379   0.663 -1.4020 -1.0022 -1.7486
  266SOL    HW210368   3.041   9.334   0.610 -0.2527 -0.3156  0.7434
  267SOL     OW10369   4.156   0.966   0.390 -0.0313  0.1374 -1.8065
  267SOL    HW110370   4.071   0.995   0.344 -0.7109  0.5987 -0.2760
  267SOL    HW210371   4.203   1.046   0.426  0.8309 -0.1670 -2.2414
  268SOL     OW10372   3.475   0.632   2.470  0.2672  0.6011 -0.5534
  268SOL    HW110373   3.480   0.567   2.394 -0.2700 -0.2269  0.1116
  268SOL    HW210374   3.500   0.723   2.437  0.5392  0.1570 -1.6073
  269SOL     OW10375   4.140   8.533   2.032 -0.1914  0.7363 -0.5199
  269SOL    HW110376   4.048   8.570   2.041  0.3245  2.5609 -2.2987
  269SOL    HW210377   4.204   8.587   2.086  0.0563  0.3526 -0.4211
  270SOL     OW10378   3.656   9.401   2.838  0.1555 -0.6448 -0.4180
  270SOL    HW110379   3.622   9.308   2.853 -0.9535 -0.3044 -0.7575
  270SOL    HW210380   3.582   9.466   2.853  0.9809  0.2083  0.0365
  271SOL     OW10381   3.515   0.188   0.011 -0.1175  0.0569 -0.3755
  271SOL    HW110382   3.552   0.215  -0.078  0.7903 -0.8188 -0.2756
  271SOL    HW210383   3.520   0.265   0.074  0.8639  0.1793 -0.5843
  272SOL     OW10384   2.792   8.544   0.715 -0.9146 -0.2998 -0.5701
  272SOL    HW110385   2.860   8.477   0.745 -0.8194  0.1533  0.2191
  272SOL    HW210386   2.722   8.555   0.785 -0.3396  1.2303 -0.2185
  10.00000  10.00000   2.88200
