chitosan Film  in water:acetic acid 2%
64905
    1CHTO  H203    1   5.234   6.667   4.720 -1.2908 -0.1664 -0.0020
    1CHTO   O82    2   5.268   6.701   4.801 -0.1942  0.0885 -0.5475
    1CHTO  C123    3   5.401   6.731   4.791 -0.2018  0.6392  0.4255
    1CHTO  H227    4   5.439   6.759   4.891  1.0523  1.7115 -0.3389
    1CHTO   O77    5   5.460   6.601   4.751 -0.6875 -0.4020 -0.1255
    1CHTO  C118    6   5.585   6.575   4.695 -0.1365  0.3431 -0.0624
    1CHTO  H222    7   5.669   6.586   4.765  1.5673 -1.0609 -1.7970
    1CHTO  C125    8   5.586   6.427   4.644 -0.0625 -0.2794  0.8042
    1CHTO   O84    9   5.583   6.336   4.755 -0.0360 -1.0584  0.1139
    1CHTO  H205   10   5.633   6.259   4.738  0.6336 -1.2431  2.8264
    1CHTO  C114   11   5.611   6.673   4.578  0.0939  0.0285 -0.8657
    1CHTO  H218   12   5.550   6.643   4.493 -0.8033  0.3959 -0.3640
    1CHTO  C116   13   5.585   6.819   4.629  0.5567  0.2510 -0.0854
    1CHTO  H220   14   5.658   6.834   4.712  1.1717  1.1020 -0.7704
    1CHTO   O79   15   5.613   6.910   4.519 -0.2868  0.0567 -0.1491
    1CHTO  H201   16   5.634   6.992   4.560 -2.4025 -0.3646  1.8785
    1CHTO  C120   17   5.440   6.837   4.688  0.1869  0.3588  0.2415
    1CHTO  H224   18   5.371   6.827   4.601 -1.5265  0.8790  1.5012
    1CHTO   N21   19   5.420   6.971   4.742 -0.0534 -0.1806  0.1164
    1CHTO  H211   20   5.317   6.995   4.720 -0.5959 -2.9900 -0.5584
    1CHTO  H212   21   5.435   6.969   4.849  0.6828 -0.7259  0.0039
    1CHTO   O75   22   5.752   6.648   4.539  0.2404  0.2378 -0.6924
    1CHTO  C112   23   5.765   6.642   4.372 -0.5619  0.1557  0.4280
    1CHTO  H216   24   5.721   6.735   4.332  1.1026  0.4581 -0.7384
    1CHTO   O73   25   5.696   6.523   4.328 -0.6550  0.2244  0.3242
    1CHTO  C113   26   5.689   6.521   4.188 -0.4591 -0.1373  0.6412
    1CHTO  H217   27   5.651   6.619   4.151  0.0176  0.4435  1.6440
    1CHTO  C124   28   5.590   6.409   4.152 -0.7296 -0.0993 -0.4795
    1CHTO   O83   29   5.632   6.282   4.196 -0.1659  0.2155 -0.2666
    1CHTO  H204   30   5.554   6.230   4.201  0.8000 -1.1166  1.1661
    1CHTO  C109   31   5.835   6.498   4.130 -0.3162  0.2521  0.6975
    1CHTO  H213   32   5.875   6.404   4.173 -1.4752  0.0372  1.3103
    1CHTO  C110   33   5.924   6.617   4.170 -0.0009  0.0086  0.7840
    1CHTO  H214   34   5.895   6.708   4.119 -0.6832 -0.3925  0.4475
    1CHTO   O78   35   6.059   6.609   4.128 -0.5534  0.2943  0.1480
    1CHTO  H200   36   6.096   6.525   4.146 -3.4435 -0.7240  1.7308
    1CHTO  C111   37   5.915   6.637   4.327  0.0086  0.1416  0.1618
    1CHTO  H215   38   5.972   6.553   4.370  0.2490  0.1146 -0.2032
    1CHTO   N19   39   5.982   6.767   4.363  0.2425 -0.0498 -0.2069
    1CHTO  H207   40   5.937   6.847   4.306  0.6304 -1.0909 -2.0020
    1CHTO  H208   41   6.089   6.762   4.372 -0.0560 -3.1398  2.6232
    1CHTO   O74   42   5.845   6.488   3.985  0.3825 -0.0011  0.1115
    1CHTO  C115   43   5.848   6.349   3.895  0.8989  0.1412  0.0209
    1CHTO  H219   44   5.826   6.264   3.959  0.6023  1.6073  1.9403
    1CHTO   O76   45   5.725   6.352   3.783  0.4960  0.0270 -0.0328
    1CHTO  C122   46   5.732   6.240   3.693 -0.3829  0.1567  0.3392
    1CHTO  H226   47   5.662   6.266   3.613 -0.6705 -1.8535 -0.0823
    1CHTO  C126   48   5.670   6.109   3.761 -0.6680  0.0446 -0.4107
    1CHTO   O85   49   5.660   5.997   3.673  0.1518  0.5142 -0.3069
    1CHTO  H206   50   5.573   5.989   3.639  1.1839 -0.6708 -2.7230
    1CHTO  C121   51   5.875   6.211   3.638  0.4871  0.2424  0.7343
    1CHTO  H225   52   5.874   6.125   3.567 -1.9858 -0.6128  1.7768
    1CHTO   O81   53   5.905   6.330   3.564  0.2532  0.2814  0.3523
    1CHTO  H202   54   5.871   6.324   3.477  1.3926  0.7452 -0.1382
    1CHTO  C119   55   5.973   6.179   3.755 -0.0691 -0.5141  0.8642
    1CHTO  H223   56   5.929   6.096   3.811  1.2872 -2.0934 -0.3773
    1CHTO  C117   57   5.981   6.316   3.833  0.3163  0.6727  0.3791
    1CHTO  H221   58   6.002   6.408   3.779  1.4910  0.6702  0.8152
    1CHTO   N20   59   6.086   6.307   3.942 -0.1854 -0.5099  0.6080
    1CHTO  H209   60   6.059   6.240   4.022 -1.7967 -2.9501 -1.8939
    1CHTO  H210   61   6.184   6.277   3.909 -0.1204 -3.0701  2.9429
    1CHTO   O80   62   6.117   6.106   3.705  0.7641  0.7001 -0.6351
    1CHTO  C103   63   6.136   5.966   3.735 -1.1422 -0.5917 -0.0831
    1CHTO  H190   64   6.110   5.932   3.836  1.5914 -1.2833  0.4316
    1CHTO  C101   65   6.074   5.854   3.639  0.3433  0.0659  0.3238
    1CHTO  H188   66   6.055   5.903   3.544 -0.2750  0.6720  0.7540
    1CHTO   O68   67   5.940   5.815   3.703  0.0070 -0.0214 -0.0576
    1CHTO  H168   68   5.891   5.891   3.725 -0.5366 -0.2452 -0.4795
    1CHTO   C99   69   6.166   5.722   3.615  0.5211  0.4198  0.5670
    1CHTO  H186   70   6.147   5.653   3.700  1.7860 -0.9544 -0.2253
    1CHTO   N17   71   6.132   5.642   3.500  0.2893  0.1001  0.4768
    1CHTO  H174   72   6.211   5.599   3.440  1.4255  3.0986 -0.2724
    1CHTO  H175   73   6.049   5.682   3.443 -0.3725 -0.7988  0.8040
    1CHTO   C97   74   6.317   5.763   3.626  0.3338  0.3432 -0.5471
    1CHTO  H184   75   6.345   5.822   3.538  0.5375 -0.2237 -0.8638
    1CHTO   O64   76   6.340   5.834   3.743  0.6389 -0.0893 -0.0220
    1CHTO  C104   77   6.292   5.971   3.731  0.1098  0.3650  0.4413
    1CHTO  H191   78   6.327   6.023   3.642 -1.8002 -0.8319 -1.0487
    1CHTO  C108   79   6.349   6.050   3.850  0.5627 -0.3107  1.0665
    1CHTO   O71   80   6.494   6.058   3.842  0.2665 -0.0809 -0.1028
    1CHTO  H171   81   6.514   6.150   3.841  0.7844 -0.1966 -0.7299
    1CHTO   O62   82   6.402   5.643   3.634 -0.7765  0.1563 -0.1227
    1CHTO   C91   83   6.550   5.661   3.628  0.2477 -0.0813  0.3769
    1CHTO  H178   84   6.573   5.763   3.658  0.4159 -0.6133  2.1455
    1CHTO   C92   85   6.598   5.646   3.477  0.1002 -0.4137 -0.5962
    1CHTO  H179   86   6.516   5.682   3.413  0.6618  1.1180 -0.4773
    1CHTO   O66   87   6.716   5.728   3.447 -0.1139  0.0598 -0.9146
    1CHTO  H166   88   6.741   5.795   3.508  0.0081  0.3379 -1.2684
    1CHTO   C93   89   6.637   5.496   3.440 -0.1974 -0.4842  0.3696
    1CHTO  H180   90   6.690   5.504   3.344 -0.9393 -1.1525 -0.1023
    1CHTO   N16   91   6.522   5.409   3.412  0.3757 -0.8193 -0.7453
    1CHTO  H172   92   6.511   5.388   3.307  0.7859 -0.3364 -0.8885
    1CHTO  H173   93   6.432   5.451   3.455 -0.5460 -0.9112 -2.5718
    1CHTO   C94   94   6.736   5.438   3.550 -0.4630 -0.0257 -0.3623
    1CHTO  H181   95   6.699   5.344   3.592  0.9016 -0.6767 -0.5772
    1CHTO   O61   96   6.765   5.531   3.663 -0.4496 -0.0984  0.3424
    1CHTO   C95   97   6.642   5.568   3.723  0.1670 -0.1051  0.3898
    1CHTO  H182   98   6.593   5.475   3.753 -0.4944  0.1283  0.0306
    1CHTO  C106   99   6.676   5.640   3.858 -0.0012  0.7049 -0.2098
    1CHTO   O69  100   6.728   5.552   3.956  0.0818  0.2090 -0.1577
    1CHTO  H169  101   6.712   5.595   4.038 -1.1580 -0.9589  0.2410
    1CHTO   O63  102   6.860   5.402   3.483 -0.2723 -0.5761 -0.0846
    1CHTO   C96  103   6.910   5.246   3.504  0.2429  0.0462  0.1981
    1CHTO  H183  104   6.820   5.185   3.513 -0.0707  0.6064  0.8913
    1CHTO   C98  105   7.024   5.226   3.618 -0.3784 -0.0368 -0.0037
    1CHTO  H185  106   7.002   5.253   3.723 -0.9171 -0.1329 -0.0913
    1CHTO   O67  107   7.057   5.086   3.630  0.2340 -0.1195  0.4791
    1CHTO  H167  108   6.989   5.025   3.655 -0.4013  0.9093  1.2995
    1CHTO  C102  109   7.153   5.303   3.589  0.5197 -0.1769 -0.4289
    1CHTO  H189  110   7.228   5.266   3.660  1.1303  1.7173 -0.0616
    1CHTO   N18  111   7.147   5.455   3.616 -0.2399  0.2786 -0.3829
    1CHTO  H176  112   7.139   5.478   3.721  0.0040 -1.3037  0.0049
    1CHTO  H177  113   7.054   5.491   3.574 -1.2331 -0.5291  1.0494
    1CHTO  C105  114   7.191   5.280   3.438 -0.1150  0.0112  0.4994
    1CHTO  H192  115   7.188   5.370   3.377  1.3275  0.5464  1.1805
    1CHTO   O65  116   7.122   5.176   3.363 -0.1258 -0.4773 -0.6084
    1CHTO  C100  117   6.980   5.199   3.364  0.2782  0.0826 -0.4334
    1CHTO  H187  118   6.958   5.283   3.296 -1.2418  1.8940  2.1847
    1CHTO  C107  119   6.911   5.089   3.302  0.1194 -0.4066  0.2946
    1CHTO   O70  120   6.902   5.095   3.156 -0.2247  0.0071  0.2796
    1CHTO  H170  121   6.849   5.165   3.124 -1.5556 -0.8418  0.5933
    1CHTO   O57  122   7.360   5.243   3.466  0.1339 -0.5620  0.3340
    1CHTO   C85  123   7.421   5.117   3.418 -0.2384 -0.0272  0.6182
    1CHTO  H157  124   7.376   5.099   3.318 -0.0531  0.0355  0.5224
    1CHTO   C83  125   7.373   5.000   3.509 -0.3467 -0.2429  0.0458
    1CHTO  H155  126   7.265   4.985   3.497 -0.5071  0.8918  0.0353
    1CHTO   O56  127   7.381   5.046   3.647  0.5724  0.2368 -0.0466
    1CHTO  H135  128   7.386   5.140   3.655  0.6249  0.3575 -1.4646
    1CHTO   C81  129   7.455   4.868   3.487 -0.1858 -1.0583  0.4243
    1CHTO  H153  130   7.439   4.832   3.385 -0.2585 -1.9693  0.7488
    1CHTO   N14  131   7.404   4.756   3.566  0.3206 -0.2641 -0.1369
    1CHTO  H141  132   7.456   4.713   3.649  1.2377  1.0629 -0.0085
    1CHTO  H142  133   7.368   4.682   3.498  1.0482 -1.9146  1.2346
    1CHTO   C79  134   7.608   4.896   3.499 -0.2045 -0.6808 -0.1694
    1CHTO  H151  135   7.658   4.800   3.488  0.2242 -0.6921  1.6905
    1CHTO   O52  136   7.647   4.986   3.387 -0.2857 -0.0052  0.4278
    1CHTO   C86  137   7.579   5.116   3.411 -0.0556  0.1969  0.3459
    1CHTO  H158  138   7.625   5.162   3.501  0.7148  2.3191 -1.0842
    1CHTO   C90  139   7.625   5.197   3.286  0.1169 -0.3941  0.3011
    1CHTO   O60  140   7.575   5.134   3.158  0.0917  0.1916  0.2809
    1CHTO  H138  141   7.607   5.181   3.084  4.1971 -2.1706  0.3924
    1CHTO   O50  142   7.645   4.947   3.628  0.0007 -0.0268  0.6177
    1CHTO   C73  143   7.758   4.940   3.718 -0.3945 -0.7553  0.5694
    1CHTO  H145  144   7.847   4.949   3.653 -0.8596  0.1290  0.0524
    1CHTO   C74  145   7.764   4.806   3.799  0.2697 -0.0163  0.5899
    1CHTO  H146  146   7.771   4.723   3.727 -3.7686  0.0801 -0.0780
    1CHTO   O54  147   7.897   4.815   3.867 -0.0232 -0.1795 -0.5085
    1CHTO  H133  148   7.910   4.743   3.926  0.7989 -0.5944 -1.1883
    1CHTO   C75  149   7.644   4.795   3.886 -0.4421 -0.0256  0.6659
    1CHTO  H147  150   7.561   4.773   3.817 -0.6172 -1.8880  1.4515
    1CHTO   N13  151   7.645   4.669   3.959 -0.5810  0.1586  0.0333
    1CHTO  H139  152   7.695   4.597   3.896 -0.3113  0.1414  0.2669
    1CHTO  H140  153   7.541   4.643   3.975  0.0196 -1.9516  0.7702
    1CHTO   C76  154   7.626   4.919   3.979  0.0970 -0.8781  0.5785
    1CHTO  H148  155   7.701   4.925   4.058 -0.6139 -0.3165  1.2227
    1CHTO   O49  156   7.631   5.040   3.897 -0.4720 -0.0776  0.7242
    1CHTO   C77  157   7.748   5.056   3.821 -0.0401  0.9961 -0.2731
    1CHTO  H149  158   7.825   5.045   3.897 -0.8798  0.4851  0.5065
    1CHTO   C88  159   7.743   5.198   3.757  0.4577 -0.1209 -0.2727
    1CHTO   O58  160   7.838   5.225   3.683 -0.0057 -0.1950 -0.2626
    1CHTO  H136  161   7.806   5.270   3.608 -2.5548  0.3961  1.1069
    1CHTO   O51  162   7.469   4.916   4.050  0.1231  0.5469 -0.4355
    1CHTO   C78  163   7.414   5.052   4.103  0.0016  0.4612  0.9700
    1CHTO  H150  164   7.440   5.130   4.028 -1.5987 -0.6689 -0.8201
    1CHTO   C80  165   7.470   5.087   4.241  0.1729 -0.0242  0.0073
    1CHTO  H152  166   7.443   5.008   4.314  0.8521  0.2528  0.5682
    1CHTO   O55  167   7.611   5.067   4.234  0.2078 -0.6270 -0.1979
    1CHTO  H134  168   7.650   5.150   4.217 -0.7017  0.2317  1.7153
    1CHTO   C84  169   7.421   5.230   4.296  0.3491  0.0568  0.7623
    1CHTO  H156  170   7.455   5.304   4.224  2.9020  0.6345  2.4698
    1CHTO   N15  171   7.481   5.266   4.433  0.0352  0.0540  0.4416
    1CHTO  H143  172   7.461   5.184   4.499  1.9078 -0.3414  0.5349
    1CHTO  H144  173   7.586   5.276   4.418 -0.3455  2.7869 -0.6176
    1CHTO   C87  174   7.268   5.226   4.293 -0.3888 -0.2867  0.1219
    1CHTO  H159  175   7.218   5.162   4.366 -1.1728 -0.3452 -0.4626
    1CHTO   O53  176   7.207   5.173   4.154 -0.4408 -0.1040  0.1179
    1CHTO   C82  177   7.260   5.046   4.106  0.1972  0.2281  0.3938
    1CHTO  H154  178   7.220   4.962   4.162  1.3261 -1.2413 -0.9430
    1CHTO   C89  179   7.208   5.031   3.955  0.4179 -0.4055 -0.3535
    1CHTO   O59  180   7.263   4.928   3.877  0.1349 -0.1242 -0.1674
    1CHTO  H137  181   7.324   4.966   3.816  0.3287  0.4096  0.3442
    1CHTO   O45  182   7.221   5.407   4.315  0.3913 -0.2204  0.3094
    1CHTO   C67  183   7.105   5.443   4.247 -0.1634 -0.4346  0.6554
    1CHTO  H124  184   7.046   5.354   4.229  0.5270 -0.5840 -1.0049
    1CHTO   C65  185   7.015   5.553   4.316  0.2879  0.7134  0.5770
    1CHTO  H122  186   6.990   5.513   4.414  1.6459 -1.2751  0.1586
    1CHTO   O44  187   6.892   5.565   4.237 -0.1939  0.4475  0.0458
    1CHTO  H102  188   6.852   5.650   4.231  0.9529  0.8986 -1.7313
    1CHTO   C63  189   7.097   5.688   4.334 -0.2236 -0.0475 -0.1455
    1CHTO  H120  190   7.177   5.664   4.405 -0.7583 -0.9532  0.1650
    1CHTO   N11  191   7.030   5.798   4.416  0.2122  0.5198 -0.1971
    1CHTO  H108  192   6.972   5.861   4.352  1.3993  0.5975 -1.2207
    1CHTO  H109  193   7.096   5.844   4.486  3.2481 -3.2122 -0.4005
    1CHTO   C61  194   7.158   5.734   4.194  0.2411  0.5427 -0.0692
    1CHTO  H118  195   7.240   5.798   4.231  0.5249 -0.0169  0.2856
    1CHTO   O40  196   7.223   5.632   4.116 -0.0086 -0.1345  0.2877
    1CHTO   C68  197   7.163   5.500   4.109 -0.5795  0.4096  0.1192
    1CHTO  H125  198   7.240   5.423   4.087 -0.4463  0.9666 -1.4393
    1CHTO   C72  199   7.061   5.496   3.991  0.2134  0.1929 -0.5290
    1CHTO   O48  200   6.984   5.378   3.981 -0.0658  0.1106 -0.1116
    1CHTO  H105  201   6.930   5.374   3.904 -0.5692  1.2897  0.1745
    1CHTO   O38  202   7.070   5.812   4.112  0.0236 -0.4282  0.1370
    1CHTO   C55  203   7.137   5.908   4.015  1.4218  0.1136  0.2589
    1CHTO  H112  204   7.222   5.857   3.967  1.0239  0.2490 -0.5970
    1CHTO   C56  205   7.178   6.042   4.084 -0.6251 -0.4851  0.0692
    1CHTO  H113  206   7.108   6.071   4.164 -1.1105 -1.0260 -0.1614
    1CHTO   O42  207   7.296   6.011   4.162 -0.5100 -0.7636 -0.1582
    1CHTO  H100  208   7.291   5.937   4.219 -1.8298 -0.9328 -0.4697
    1CHTO   C57  209   7.217   6.161   3.985 -0.2831 -0.0491  0.3455
    1CHTO  H114  210   7.315   6.136   3.944  0.1524 -0.0238  1.3613
    1CHTO   N10  211   7.227   6.294   4.057  0.0258 -0.1712 -0.3998
    1CHTO  H106  212   7.201   6.376   3.993  0.6548  0.5871  0.3058
    1CHTO  H107  213   7.170   6.297   4.149 -0.1890  0.8694 -0.5707
    1CHTO   C58  214   7.116   6.163   3.865  0.1858  0.5339 -0.6981
    1CHTO  H115  215   7.016   6.192   3.904 -0.6151 -3.3246  0.3302
    1CHTO   O37  216   7.107   6.037   3.801 -0.1588 -0.1180  0.0081
    1CHTO   C59  217   7.047   5.941   3.894 -0.0260 -0.2072 -0.7589
    1CHTO  H116  218   6.946   5.968   3.924 -0.4075 -0.9634 -1.3373
    1CHTO   C70  219   7.026   5.813   3.819  0.9612  0.2969 -0.3008
    1CHTO   O46  220   6.934   5.830   3.707 -0.0233 -0.0163  0.4959
    1CHTO  H103  221   6.880   5.752   3.707  0.7672 -0.5842 -1.2425
    1CHTO   O39  222   7.173   6.273   3.752 -0.3389  0.2233 -0.4119
    1CHTO   C60  223   7.076   6.353   3.688  1.1747 -0.8274 -0.4857
    1CHTO  H117  224   6.988   6.295   3.660  0.8518 -0.8939  0.6599
    1CHTO   C62  225   7.033   6.472   3.786 -0.3994  0.3094  0.5757
    1CHTO  H119  226   6.985   6.411   3.865 -1.3516 -2.3731 -2.0129
    1CHTO   O43  227   7.153   6.535   3.829 -0.3499 -0.0856 -0.3953
    1CHTO  H101  228   7.147   6.561   3.919 -1.5945 -0.6071 -0.3147
    1CHTO   C66  229   6.918   6.557   3.728  0.2279  0.6875  0.1229
    1CHTO  H123  230   6.836   6.487   3.713  0.1429  1.0166 -1.0685
    1CHTO   N12  231   6.869   6.659   3.824  0.9153 -0.0093  0.2983
    1CHTO  H110  232   6.779   6.696   3.776  0.3731 -2.3712 -0.5696
    1CHTO  H111  233   6.942   6.737   3.841  0.4062  0.8585 -1.3943
    1CHTO   C69  234   6.966   6.605   3.585  1.2289  0.1732 -0.5197
    1CHTO  H126  235   7.044   6.682   3.603  0.4631  1.1604 -1.3480
    1CHTO   O41  236   7.031   6.478   3.493 -0.1301  0.3676  0.0677
    1CHTO   C64  237   7.133   6.409   3.559  0.2704 -0.7355 -0.0190
    1CHTO  H121  238   7.214   6.482   3.579  0.2416 -0.4943 -0.7664
    1CHTO   C71  239   7.190   6.297   3.460  0.2690 -0.6068 -0.0379
    1CHTO   O47  240   7.263   6.358   3.351  0.5637  0.3783 -0.6806
    1CHTO  H104  241   7.205   6.394   3.286 -1.0163  0.7838  0.9078
    1CHTO   O34  242   6.846   6.671   3.504 -0.5586 -0.0006  0.2786
    1CHTO   C49  243   6.764   6.714   3.394 -0.4677  0.8149  0.2049
    1CHTO   H91  244   6.836   6.767   3.331 -1.6756  2.7598  0.4252
    1CHTO   C47  245   6.649   6.797   3.445 -0.3623 -0.0984  0.1804
    1CHTO   H89  246   6.692   6.899   3.438 -1.1285  0.1751 -0.7124
    1CHTO   O33  247   6.619   6.778   3.583  0.8026  0.4370  0.7311
    1CHTO   H70  248   6.613   6.859   3.629  1.0392  0.6173  0.4420
    1CHTO   C45  249   6.516   6.805   3.358 -0.1432  0.5818  0.3367
    1CHTO   H87  250   6.455   6.722   3.397  1.1067  0.8064  2.8736
    1CHTO    N8  251   6.449   6.937   3.371  0.3049 -0.1147  0.3135
    1CHTO   H75  252   6.505   7.007   3.432  1.0106  0.0082 -0.4611
    1CHTO   H76  253   6.346   6.933   3.404  1.1314  2.5176  3.4985
    1CHTO   C43  254   6.556   6.763   3.202 -0.0213  0.2238 -0.7434
    1CHTO   H85  255   6.458   6.769   3.155  0.5307  2.9396 -1.6215
    1CHTO   O29  256   6.610   6.624   3.211  0.1198  0.2222  0.8651
    1CHTO   C50  257   6.708   6.594   3.312 -0.0483  0.1178 -0.6555
    1CHTO   H92  258   6.666   6.514   3.375 -0.5439  0.9699  0.1082
    1CHTO   C54  259   6.820   6.521   3.239  0.3566 -0.2533 -0.1680
    1CHTO   O36  260   6.885   6.600   3.134  0.2920  0.1179  0.0606
    1CHTO   H72  261   6.941   6.668   3.166  0.0824  0.7359 -0.8541
    1CHTO   O27  262   6.633   6.867   3.136  0.1053  0.2821  0.0499
    1CHTO   C37  263   6.705   6.884   3.016  0.1403 -0.1861  0.7360
    1CHTO   H79  264   6.806   6.838   3.021  0.4478  0.1760 -1.4139
    1CHTO   C38  265   6.636   6.809   2.895  0.0551  0.6253  0.2995
    1CHTO   H80  266   6.531   6.845   2.894 -0.7269 -1.5354  1.9076
    1CHTO   O31  267   6.635   6.665   2.918  0.0617  0.2717  0.4364
    1CHTO   H68  268   6.572   6.647   2.986  0.2135 -1.7919  0.0483
    1CHTO   C39  269   6.703   6.851   2.758  0.4680 -0.5635  0.4229
    1CHTO   H81  270   6.800   6.802   2.754 -0.1443 -1.7589 -0.2575
    1CHTO    N7  271   6.622   6.808   2.633 -0.0330 -0.1386 -0.3543
    1CHTO   H73  272   6.629   6.706   2.599 -0.2747 -0.1499 -0.3694
    1CHTO   H74  273   6.518   6.826   2.655 -0.2108 -1.0887 -0.3826
    1CHTO   C40  274   6.721   7.007   2.751  0.4649 -0.2606 -0.6715
    1CHTO   H82  275   6.625   7.058   2.743  2.4655  4.0670  0.9247
    1CHTO   O26  276   6.799   7.057   2.868 -0.0653  0.2402  0.3507
    1CHTO   C41  277   6.720   7.035   2.988 -0.6694 -0.4155  0.2957
    1CHTO   H83  278   6.620   7.078   2.972 -0.2495  0.8880  1.1246
    1CHTO   C52  279   6.789   7.119   3.102 -0.0568 -0.3865 -0.0557
    1CHTO   O35  280   6.830   7.250   3.058 -0.5351  0.1896  0.3397
    1CHTO   H71  281   6.923   7.241   3.052 -0.4861  0.1739  1.0582
    1CHTO   O28  282   6.800   7.053   2.640  0.3909  0.2977 -0.0325
    1CHTO   C42  283   6.836   7.196   2.618  0.5184  0.0812  0.1801
    1CHTO   H84  284   6.911   7.212   2.696 -0.0985 -0.0486  0.8117
    1CHTO   C44  285   6.723   7.299   2.641  0.0387 -0.6534  0.0670
    1CHTO   H86  286   6.635   7.262   2.588  0.8545 -1.6374 -0.6170
    1CHTO   O32  287   6.698   7.306   2.782 -0.2033  0.8435  0.5029
    1CHTO   H69  288   6.631   7.246   2.809  0.7338 -0.8458 -0.8027
    1CHTO   C48  289   6.757   7.444   2.587  0.1919 -0.0629 -0.5386
    1CHTO   H90  290   6.840   7.481   2.648 -1.8907  2.3428  0.9515
    1CHTO    N9  291   6.635   7.538   2.606 -0.5913  0.4971  0.4369
    1CHTO   H77  292   6.547   7.499   2.558  0.9676 -4.0275  0.9505
    1CHTO   H78  293   6.649   7.642   2.581 -3.4781  1.0015  0.7831
    1CHTO   C51  294   6.804   7.440   2.441 -0.1262 -0.7048 -0.1358
    1CHTO   H93  295   6.721   7.391   2.390 -0.5494 -0.9583  0.7982
    1CHTO   O30  296   6.925   7.364   2.433  0.0425 -0.5705  0.0039
    1CHTO   C46  297   6.905   7.203   2.479  0.3259 -0.2458  0.0164
    1CHTO   H88  298   6.843   7.154   2.404 -0.9892  2.0074 -0.4143
    1CHTO   C53  299   7.048   7.146   2.471  0.2303  1.0975 -0.1155
    1CHTO   O72  300   7.129   7.203   2.575 -0.3541 -0.2753  0.5387
    1CHTO  H199  301   7.181   7.130   2.602 -0.6732 -1.7444 -2.5542
    1CHTO   O22  302   6.834   7.571   2.381  0.4435 -0.4632 -0.1288
    1CHTO   C31  303   6.758   7.625   2.264  0.2585 -0.0889 -0.2768
    1CHTO   H59  304   6.655   7.586   2.271 -0.0759  0.3701 -2.2334
    1CHTO   C29  305   6.733   7.778   2.263 -0.0580 -0.4162 -0.5947
    1CHTO   H57  306   6.827   7.835   2.259 -0.1754 -0.2109 -0.4250
    1CHTO   O21  307   6.674   7.808   2.395 -0.5042  0.2811  0.3382
    1CHTO   H37  308   6.731   7.777   2.463 -0.0329 -0.4407 -0.3736
    1CHTO   C27  309   6.636   7.827   2.146  0.1312  0.9964 -0.5171
    1CHTO   H55  310   6.546   7.765   2.149  0.5199  0.4524  0.2950
    1CHTO    N5  311   6.597   7.969   2.145 -0.0734 -0.0158  0.5246
    1CHTO   H43  312   6.584   8.009   2.244 -1.7580 -1.0860  0.7564
    1CHTO   H44  313   6.508   7.972   2.084  0.5317  2.5163 -0.3014
    1CHTO   C25  314   6.710   7.785   2.011 -0.4212  0.0966 -0.6892
    1CHTO   H53  315   6.806   7.839   2.004  0.2537 -1.1207 -1.0564
    1CHTO   O17  316   6.735   7.641   2.017 -0.3420  0.2556  0.3404
    1CHTO   C32  317   6.814   7.583   2.125 -0.5979  0.2955  0.1011
    1CHTO   H60  318   6.908   7.638   2.112 -0.4463  0.2302  0.8893
    1CHTO   C36  319   6.808   7.436   2.102 -0.6147  0.1772 -0.4330
    1CHTO   O25  320   6.674   7.391   2.068  0.3541  0.1263  0.3077
    1CHTO   H40  321   6.662   7.382   1.976  1.2864  1.0731  0.0777
    1CHTO   O15  322   6.622   7.797   1.894 -0.3719  0.5579  0.2041
    1CHTO   C19  323   6.598   7.777   1.755 -0.7526 -0.0475 -0.1025
    1CHTO   H47  324   6.497   7.814   1.736 -1.1498 -0.2667  1.4450
    1CHTO   C20  325   6.711   7.851   1.674 -0.0548 -0.7155  0.1527
    1CHTO   H48  326   6.812   7.824   1.706 -0.5589 -2.6787  0.1528
    1CHTO   O19  327   6.689   7.991   1.700  0.5388  0.1451 -0.3519
    1CHTO   H35  328   6.756   8.035   1.652  1.8412 -1.8415 -0.3737
    1CHTO   C21  329   6.688   7.822   1.519  0.6954 -0.3177 -0.4968
    1CHTO   H49  330   6.586   7.855   1.502  0.5482  1.0130  2.6102
    1CHTO    N4  331   6.778   7.895   1.422  0.0469 -0.3423 -0.2774
    1CHTO   H41  332   6.824   7.832   1.347  0.7243 -2.4420  1.8449
    1CHTO   H42  333   6.854   7.946   1.479 -0.0751 -0.6276  0.1381
    1CHTO   C22  334   6.685   7.667   1.498  0.2490 -0.8315  0.1940
    1CHTO   H50  335   6.787   7.631   1.507  0.3473 -0.8043 -0.7896
    1CHTO   O14  336   6.592   7.593   1.586 -0.4331  0.0238  0.1982
    1CHTO   C23  337   6.605   7.624   1.726 -0.2926 -0.1276 -0.3332
    1CHTO   H51  338   6.705   7.585   1.752  1.2716  4.1527  0.3794
    1CHTO   C34  339   6.504   7.546   1.814  0.8022  0.3834  0.2321
    1CHTO   O23  340   6.525   7.409   1.781  0.1402  0.1603 -0.6367
    1CHTO   H38  341   6.485   7.347   1.839  2.4480  0.0158  0.8885
    1CHTO   O16  342   6.624   7.661   1.369 -0.3856 -0.1431 -0.0844
    1CHTO   C24  343   6.620   7.523   1.288  0.6929 -0.0905 -0.1470
    1CHTO   H52  344   6.655   7.439   1.348  3.4017  1.8396  1.0853
    1CHTO   C26  345   6.718   7.533   1.167  0.6227 -0.2649 -0.6502
    1CHTO   H54  346   6.713   7.632   1.116 -1.1601  0.0738  0.1546
    1CHTO   O20  347   6.850   7.539   1.224  0.3557 -0.1453 -0.4807
    1CHTO   H36  348   6.923   7.489   1.193  0.7715 -0.2719  0.6845
    1CHTO   C30  349   6.697   7.421   1.058 -0.3207 -0.5420  0.2938
    1CHTO   H58  350   6.723   7.323   1.101  0.3492 -0.1824  0.7144
    1CHTO    N6  351   6.781   7.445   0.940 -0.5241 -0.6485  0.7457
    1CHTO   H45  352   6.748   7.533   0.886  1.1697 -0.4595 -0.0175
    1CHTO   H46  353   6.882   7.461   0.975  0.2684  1.7817 -2.4091
    1CHTO   C33  354   6.547   7.408   1.033  0.9596  0.1210 -0.5350
    1CHTO   H61  355   6.511   7.507   1.001 -0.0996  0.5028  1.7298
    1CHTO   O18  356   6.482   7.378   1.161 -0.0833 -0.3605  0.2517
    1CHTO   C28  357   6.478   7.496   1.239  0.1929 -0.2332 -0.0299
    1CHTO   H56  358   6.438   7.576   1.176  0.9388 -1.6614 -2.3893
    1CHTO   C35  359   6.380   7.469   1.355  0.3280 -0.0919 -0.1260
    1CHTO   O24  360   6.243   7.457   1.306 -0.7514  0.6210  0.1457
    1CHTO   H39  361   6.198   7.534   1.278 -1.5455  1.0674  2.5054
    1CHTO    O9  362   6.502   7.312   0.929  0.0866 -0.4603 -0.5707
    1CHTO   C13  363   6.371   7.381   0.855 -0.1331 -0.5353  0.0409
    1CHTO   H26  364   6.399   7.480   0.813  1.3558 -1.0828 -0.2870
    1CHTO   C11  365   6.254   7.392   0.954  0.2325 -0.0163  0.0514
    1CHTO   H24  366   6.282   7.470   1.026 -1.2211  0.8249 -0.2665
    1CHTO    O8  367   6.233   7.264   1.024 -0.8264 -0.1004  0.4800
    1CHTO    H3  368   6.149   7.235   0.993 -0.4747  1.5658 -2.1853
    1CHTO    C9  369   6.131   7.447   0.884  0.1136  0.0952  0.1234
    1CHTO   H22  370   6.160   7.543   0.840  1.4315 -0.2796  0.1673
    1CHTO    N2  371   6.021   7.493   0.974 -0.5203  0.2425 -0.4168
    1CHTO   H10  372   6.020   7.601   0.976 -0.8856  0.2903 -2.2593
    1CHTO   H11  373   5.927   7.461   0.931 -0.6086  0.8261 -0.6621
    1CHTO    C7  374   6.088   7.348   0.766  0.5188 -0.0934  0.6249
    1CHTO   H20  375   6.003   7.407   0.725 -0.1165 -0.6551  1.1270
    1CHTO    O4  376   6.198   7.330   0.669  0.0077  0.7465  0.0687
    1CHTO   C14  377   6.326   7.300   0.726 -0.1257 -0.6070  1.0076
    1CHTO   H27  378   6.403   7.327   0.649 -1.1336 -1.9649 -0.5043
    1CHTO   C18  379   6.327   7.142   0.742 -0.4007 -0.8771  0.0277
    1CHTO   O13  380   6.309   7.070   0.618 -0.4574 -0.1597 -0.0856
    1CHTO    H7  381   6.230   7.021   0.632  0.0438 -1.3609 -1.3852
    1CHTO    O2  382   6.042   7.219   0.825 -0.6924 -0.6827  0.2238
    1CHTO    C1  383   5.985   7.111   0.746 -0.5100 -0.5573  0.3580
    1CHTO   H14  384   6.069   7.068   0.688 -0.1874 -2.7835  2.3749
    1CHTO    C2  385   5.861   7.149   0.647 -0.2014  0.0840 -0.5182
    1CHTO   H15  386   5.793   7.212   0.708 -0.2867  0.3589 -0.8957
    1CHTO    O6  387   5.912   7.226   0.534  0.3231  0.3257 -0.3838
    1CHTO    H1  388   5.875   7.203   0.452 -0.8670  1.0601 -0.0734
    1CHTO    C3  389   5.778   7.023   0.596 -0.2421 -0.0347  0.3352
    1CHTO   H16  390   5.845   6.966   0.530  0.3767  1.1519 -0.0906
    1CHTO    N1  391   5.652   7.052   0.519  0.9691  0.2154 -0.2183
    1CHTO    H8  392   5.601   7.129   0.576 -0.3932 -3.0494  3.1800
    1CHTO    H9  393   5.665   7.083   0.416 -1.7644  3.4775  0.3171
    1CHTO    C4  394   5.743   6.934   0.725 -0.1229 -0.5306 -0.0439
    1CHTO   H17  395   5.677   6.989   0.792  0.2238  0.5338 -0.5688
    1CHTO    O1  396   5.867   6.894   0.788  0.4583  0.1018  0.3637
    1CHTO    C5  397   5.945   7.000   0.844  0.0736 -0.6409  0.4740
    1CHTO   H18  398   5.893   7.046   0.928  2.3760  1.2123  0.9441
    1CHTO   C16  399   6.069   6.929   0.898 -0.7137  0.0592  0.5753
    1CHTO   O11  400   6.121   6.992   1.015 -0.1334  0.5328  0.1277
    1CHTO    H5  401   6.061   6.984   1.087  0.1151 -2.0376  0.1297
    1CHTO    O3  402   5.699   6.800   0.684 -0.4841  1.0083 -0.1200
    1CHTO    C6  403   5.606   6.742   0.776  0.5281  0.1570  0.8852
    1CHTO   H19  404   5.578   6.816   0.851  1.7196  2.3834 -0.8041
    1CHTO    C8  405   5.472   6.704   0.704 -0.0965  0.1040  0.1837
    1CHTO   H21  406   5.499   6.638   0.622  0.9058  0.1537  0.4679
    1CHTO    O7  407   5.412   6.826   0.660  0.3913  0.3941  0.6259
    1CHTO    H2  408   5.386   6.878   0.733 -0.1011 -2.1239  2.3236
    1CHTO   C12  409   5.371   6.625   0.803 -0.7110  0.2525 -0.0665
    1CHTO   H25  410   5.337   6.705   0.872 -0.1255  1.2336 -0.9027
    1CHTO    N3  411   5.243   6.569   0.734 -0.1057  0.1167  0.1191
    1CHTO   H12  412   5.249   6.575   0.626 -1.0828 -0.7466 -0.0003
    1CHTO   H13  413   5.160   6.627   0.772 -1.7175 -1.1952 -1.2630
    1CHTO   C15  414   5.449   6.515   0.882 -0.2768  0.2780 -0.1754
    1CHTO   H28  415   5.473   6.429   0.819 -0.1216  1.0126 -1.1271
    1CHTO   O10  416   5.362   6.457   0.995  0.0470 -0.3788 -0.1522
    1CHTO    H4  417   5.320   6.521   1.049 -2.1721 -2.2212  0.3894
    1CHTO    O5  418   5.569   6.563   0.944  0.6098  0.1446  0.1544
    1CHTO   C10  419   5.667   6.619   0.851  0.8353  0.0330  0.1348
    1CHTO   H23  420   5.687   6.538   0.780  0.5994  0.1137 -0.0224
    1CHTO   C17  421   5.792   6.644   0.939  0.5085 -0.9854 -0.4611
    1CHTO   O12  422   5.773   6.755   1.033  0.4183  0.1190  0.4179
    1CHTO    H6  423   5.816   6.830   0.997  0.9158 -0.9011 -1.2078
    2CHTO  H203  424   5.324   5.083   6.275 -2.2084 -1.4961 -3.6788
    2CHTO   O82  425   5.400   5.118   6.233 -0.4414 -0.1436  0.3931
    2CHTO  C123  426   5.368   5.137   6.092 -0.4480 -0.4568 -0.5481
    2CHTO  H227  427   5.289   5.213   6.086 -1.3726 -0.8650  4.2096
    2CHTO   O77  428   5.500   5.181   6.043 -0.3019  0.0981  0.1622
    2CHTO  C118  429   5.489   5.214   5.906  0.0438 -0.1689  1.4562
    2CHTO  H222  430   5.415   5.292   5.887  1.0149  0.6935  1.1563
    2CHTO  C125  431   5.633   5.266   5.864  0.6477 -0.6156  0.0058
    2CHTO   O84  432   5.643   5.336   5.744 -0.1125 -0.0860 -0.3387
    2CHTO  H205  433   5.619   5.425   5.764 -1.1403  0.4130 -3.4641
    2CHTO  C114  434   5.465   5.085   5.827 -0.0804  0.1690  0.6195
    2CHTO  H218  435   5.542   5.013   5.852 -1.3935 -2.4060 -2.3496
    2CHTO  C116  436   5.330   5.012   5.869  0.1390 -0.2259 -0.3218
    2CHTO  H220  437   5.247   5.083   5.849 -0.2001  0.0226  1.8681
    2CHTO   O79  438   5.314   4.890   5.796  0.0045 -0.2578  0.0635
    2CHTO  H201  439   5.225   4.888   5.766 -0.7457  0.6049  2.0897
    2CHTO  C120  440   5.332   4.998   6.033 -0.4676  0.1365  0.0092
    2CHTO  H224  441   5.410   4.925   6.062 -1.1905 -0.0183  1.6085
    2CHTO   N21  442   5.213   4.939   6.092  0.4877  0.0634 -0.4348
    2CHTO  H211  443   5.123   4.980   6.049  0.6997 -0.4092 -1.3419
    2CHTO  H212  444   5.213   4.960   6.198  1.9511  1.5737 -0.7226
    2CHTO   O75  445   5.464   5.106   5.684 -0.3864  0.0845  0.7300
    2CHTO  C112  446   5.365   5.235   5.622 -0.2319  0.7855  0.2571
    2CHTO  H216  447   5.389   5.327   5.677  0.5984 -0.2539  1.6702
    2CHTO   O73  448   5.230   5.200   5.634 -0.0382 -0.1478 -0.6127
    2CHTO  C113  449   5.136   5.302   5.606  0.2206 -0.0685 -0.1219
    2CHTO  H217  450   5.144   5.390   5.673  1.6718  1.7703 -2.6183
    2CHTO  C124  451   4.995   5.241   5.636 -0.2641 -0.0511  0.2107
    2CHTO   O83  452   4.973   5.219   5.777 -0.2856  0.4064  0.6484
    2CHTO  H204  453   4.885   5.214   5.810  0.7912 -3.0325  3.2126
    2CHTO  C109  454   5.138   5.346   5.455 -0.3688  0.3191 -0.6188
    2CHTO  H213  455   5.109   5.257   5.398 -1.3071 -1.3647  2.3464
    2CHTO  C110  456   5.289   5.386   5.418  0.1574 -0.7022  0.5138
    2CHTO  H214  457   5.309   5.486   5.457  1.3118 -1.5400  2.0833
    2CHTO   O78  458   5.290   5.393   5.270  0.4689 -0.3340  0.2300
    2CHTO  H200  459   5.254   5.315   5.233  1.9633 -0.8011 -0.3105
    2CHTO  C111  460   5.394   5.278   5.467 -0.4006  0.0388 -0.0720
    2CHTO  H215  461   5.370   5.187   5.409 -2.1046  0.1100  0.4888
    2CHTO   N19  462   5.528   5.315   5.429  0.1238  0.2053 -0.0214
    2CHTO  H207  463   5.609   5.247   5.449 -0.2823  0.0053  0.9331
    2CHTO  H208  464   5.562   5.408   5.474 -2.6185  1.4457 -0.4470
    2CHTO   O74  465   5.039   5.458   5.440  0.1366 -0.1208  0.2441
    2CHTO  C115  466   4.911   5.420   5.334  0.5704 -0.3909  0.0907
    2CHTO  H219  467   4.945   5.351   5.257 -0.5181  1.3795 -2.0293
    2CHTO   O76  468   4.793   5.337   5.409  0.9474  0.1481  0.0027
    2CHTO  C122  469   4.714   5.433   5.484  0.0105 -0.5568  0.0933
    2CHTO  H226  470   4.787   5.498   5.533  0.3103 -1.2145  0.5297
    2CHTO  C126  471   4.620   5.369   5.595  0.1277 -0.9044  0.0580
    2CHTO   O85  472   4.536   5.257   5.553 -0.5415  0.7366 -0.4285
    2CHTO  H206  473   4.466   5.240   5.612 -0.9720  1.5296 -0.6979
    2CHTO  C121  474   4.624   5.521   5.383 -0.1310  0.2474 -0.5592
    2CHTO  H225  475   4.529   5.469   5.358 -0.5580  0.9845 -0.4932
    2CHTO   O81  476   4.612   5.652   5.442 -0.1148  0.3989  0.5232
    2CHTO  H202  477   4.546   5.652   5.509  1.3404  1.7572  2.0278
    2CHTO  C119  478   4.708   5.537   5.248  0.0398 -0.1730  0.2684
    2CHTO  H223  479   4.692   5.444   5.195  0.5958 -1.0469  1.6060
    2CHTO  C117  480   4.857   5.555   5.279 -0.0324 -0.0843  0.0516
    2CHTO  H221  481   4.887   5.621   5.361 -0.1680  2.1097 -1.6259
    2CHTO   N20  482   4.931   5.601   5.160 -0.1347 -0.4355 -0.4179
    2CHTO  H209  483   5.036   5.613   5.181 -0.0921 -1.7610  0.2156
    2CHTO  H210  484   4.888   5.685   5.108  1.5472  0.1203 -0.9534
    2CHTO   O80  485   4.628   5.633   5.163  0.0246 -0.1539  0.5091
    2CHTO  C103  486   4.558   5.580   5.033  0.2610 -0.0712 -0.1680
    2CHTO  H190  487   4.632   5.533   4.968  0.9544  0.6894  0.0738
    2CHTO  C101  488   4.437   5.482   5.054  0.5356 -0.2942 -0.2994
    2CHTO  H188  489   4.367   5.526   5.126  0.3757  1.2317 -1.3520
    2CHTO   O68  490   4.489   5.347   5.113 -0.2879 -0.1934  0.3576
    2CHTO  H168  491   4.519   5.294   5.042 -0.7974  1.3792 -1.0570
    2CHTO   C99  492   4.356   5.464   4.916 -0.5045  0.8690 -0.3470
    2CHTO  H186  493   4.420   5.406   4.847 -0.7171 -1.1554  1.0906
    2CHTO   N17  494   4.226   5.389   4.933  0.2017 -0.1864  0.1597
    2CHTO  H174  495   4.214   5.355   5.034 -0.6164  1.4246  0.6236
    2CHTO  H175  496   4.234   5.309   4.861  0.4855 -0.7334  0.7925
    2CHTO   C97  497   4.322   5.602   4.852 -0.4399  0.1869 -0.8170
    2CHTO  H184  498   4.252   5.653   4.920  1.1157 -0.7227  1.5383
    2CHTO   O64  499   4.444   5.677   4.836 -0.1070 -0.1787  0.0847
    2CHTO  C104  500   4.509   5.708   4.961  0.5712  0.0667  0.0786
    2CHTO  H191  501   4.436   5.762   5.023 -0.1111  1.7545 -2.0975
    2CHTO  C108  502   4.623   5.805   4.938  0.5875  0.1537 -0.5729
    2CHTO   O71  503   4.576   5.938   4.912 -0.1269  0.7789 -0.6521
    2CHTO  H171  504   4.642   5.999   4.938 -0.4628  1.1672 -0.7093
    2CHTO   O62  505   4.276   5.586   4.713 -0.7887  0.3849 -0.3955
    2CHTO   C91  506   4.204   5.705   4.658  0.1980 -0.3517  1.4120
    2CHTO  H178  507   4.214   5.789   4.726  0.3424  1.4890 -0.8015
    2CHTO   C92  508   4.052   5.683   4.654 -0.1750 -0.3818 -0.7814
    2CHTO  H179  509   4.023   5.625   4.742 -0.5153  0.4329 -0.3504
    2CHTO   O66  510   3.985   5.810   4.664 -0.0335 -0.1519 -0.3131
    2CHTO  H166  511   4.034   5.859   4.727 -1.5458 -1.4703  2.0005
    2CHTO   C93  512   4.006   5.606   4.519  0.7197  0.3619 -1.4320
    2CHTO  H180  513   3.896   5.611   4.519  0.6774  0.1001  0.9118
    2CHTO   N16  514   4.039   5.458   4.516 -0.6754  0.0127 -0.6956
    2CHTO  H172  515   4.134   5.441   4.564 -1.1007  0.0566  0.1856
    2CHTO  H173  516   3.967   5.400   4.572  1.1132  0.2310  1.9550
    2CHTO   C94  517   4.066   5.680   4.396 -0.6244 -0.2021 -0.0128
    2CHTO  H181  518   4.125   5.612   4.334 -1.9359 -1.8558  0.4925
    2CHTO   O61  519   4.157   5.792   4.420  0.0577 -0.0843  0.0260
    2CHTO   C95  520   4.260   5.759   4.515 -0.2755  0.1170  1.0199
    2CHTO  H182  521   4.317   5.679   4.468  1.1008  1.2724  0.6789
    2CHTO  C106  522   4.348   5.884   4.543  0.2103 -0.2318 -0.6062
    2CHTO   O69  523   4.473   5.848   4.599 -0.0677  0.3048  0.1995
    2CHTO  H169  524   4.536   5.918   4.601  0.4014  0.0060 -2.3951
    2CHTO   O63  525   3.943   5.734   4.298  0.3437  0.2774  0.1025
    2CHTO   C96  526   3.904   5.882   4.318  0.3978 -0.0112  0.4379
    2CHTO  H183  527   3.913   5.898   4.425  0.4451  0.9899  0.2866
    2CHTO   C98  528   3.746   5.911   4.285 -0.2269  0.0957  0.7100
    2CHTO  H185  529   3.720   5.851   4.197  1.4813  0.6084 -0.1574
    2CHTO   O67  530   3.674   5.853   4.386 -0.3398  0.3865 -0.5317
    2CHTO  H167  531   3.660   5.762   4.367 -0.5194  0.7115 -2.0126
    2CHTO  C102  532   3.716   6.071   4.266 -0.2660 -0.1401  0.1353
    2CHTO  H189  533   3.736   6.118   4.363  2.3801 -0.4352 -0.2487
    2CHTO   N18  534   3.575   6.107   4.237  0.1221 -0.4418 -0.7501
    2CHTO  H176  535   3.573   6.214   4.255  1.7801 -0.3163 -1.2946
    2CHTO  H177  536   3.558   6.082   4.133  1.0443 -0.5478 -0.8777
    2CHTO  C105  537   3.816   6.120   4.155  0.0307  0.3471 -0.2037
    2CHTO  H192  538   3.764   6.114   4.060  0.2071  0.1086 -0.2862
    2CHTO   O65  539   3.937   6.052   4.138  0.0649  0.1339  0.0645
    2CHTO  C100  540   3.998   5.982   4.247  0.1646 -0.4598 -0.4703
    2CHTO  H187  541   4.088   5.929   4.211  2.8591  2.9177  0.9705
    2CHTO  C107  542   4.047   6.092   4.352 -0.2728  0.3747 -0.5312
    2CHTO   O70  543   4.180   6.135   4.322  0.2439 -0.4159 -0.3439
    2CHTO  H170  544   4.217   6.186   4.391  1.2084 -0.9658 -0.4438
    2CHTO   O57  545   3.842   6.298   4.192 -0.5983 -0.6171  0.0729
    2CHTO   C85  546   3.874   6.374   4.075 -0.6535  0.2346  0.5788
    2CHTO  H157  547   3.823   6.327   3.988  0.7241 -1.0628  0.4484
    2CHTO   C83  548   4.022   6.363   4.031  0.3242  0.2376  0.5491
    2CHTO  H155  549   4.042   6.258   4.008 -0.4480  0.2107 -0.0145
    2CHTO   O56  550   4.096   6.385   4.155 -0.6070  0.4223  0.2712
    2CHTO  H135  551   4.051   6.348   4.228 -1.2859  0.9440  0.1200
    2CHTO   C81  552   4.056   6.454   3.908 -0.0116  0.0382  0.6945
    2CHTO  H153  553   4.001   6.422   3.820  2.0201  0.0928 -0.6476
    2CHTO   N14  554   4.200   6.434   3.861  0.5202 -0.2829 -0.4838
    2CHTO  H141  555   4.254   6.389   3.941  0.4265 -0.1833 -0.3651
    2CHTO  H142  556   4.246   6.525   3.830 -0.9313  1.4346  2.1845
    2CHTO   C79  557   4.020   6.605   3.935  0.9059  0.2111  0.6463
    2CHTO  H151  558   4.028   6.659   3.841  0.0706 -0.9282 -0.0952
    2CHTO   O52  559   3.876   6.600   3.967 -0.1640  0.4378  0.2424
    2CHTO   C86  560   3.835   6.521   4.088  0.2871 -0.2187 -0.4716
    2CHTO  H158  561   3.885   6.570   4.174  2.8015  1.6533 -2.8803
    2CHTO   C90  562   3.682   6.524   4.115 -0.2305  0.3419  0.3791
    2CHTO   O60  563   3.608   6.452   4.023  1.2103 -0.2726 -0.0720
    2CHTO  H138  564   3.562   6.382   4.064  0.2603  0.9735  1.0552
    2CHTO   O50  565   4.109   6.663   4.033 -0.5392  0.2792  0.0572
    2CHTO   C73  566   4.165   6.795   4.016 -0.0188 -0.0632  0.9364
    2CHTO  H145  567   4.108   6.871   3.961  1.2133 -0.3027 -0.6929
    2CHTO   C74  568   4.294   6.784   3.929  1.0050 -0.8436  0.3462
    2CHTO  H146  569   4.263   6.735   3.836  0.0645 -0.5475  0.4991
    2CHTO   O54  570   4.331   6.910   3.895 -0.1372  0.9154 -0.4269
    2CHTO  H133  571   4.423   6.922   3.881  0.3988 -1.0985  1.0755
    2CHTO   C75  572   4.407   6.705   4.004  0.3044  0.2115  0.2174
    2CHTO  H147  573   4.371   6.603   4.025  0.1690  0.8129  3.0859
    2CHTO   N13  574   4.535   6.686   3.923  0.1402  0.6951 -0.2276
    2CHTO  H139  575   4.583   6.778   3.894  1.4538 -0.3804 -1.5602
    2CHTO  H140  576   4.521   6.633   3.830  0.0642  0.7097 -0.2248
    2CHTO   C76  577   4.437   6.767   4.150 -0.5930 -0.2203 -0.7650
    2CHTO  H148  578   4.497   6.857   4.135 -1.9274  0.4040 -2.5053
    2CHTO   O49  579   4.313   6.799   4.218  0.2744  0.3721  0.2384
    2CHTO   C77  580   4.201   6.855   4.159  0.1043 -0.6643  0.2522
    2CHTO  H149  581   4.215   6.963   4.152  1.2361 -0.8017  0.3376
    2CHTO   C88  582   4.079   6.838   4.259  0.6164 -0.0824 -0.2479
    2CHTO   O58  583   3.962   6.891   4.214 -0.2320 -0.4331 -0.5450
    2CHTO  H136  584   3.938   6.968   4.261  2.4990 -0.4075  0.8910
    2CHTO   O51  585   4.497   6.669   4.240 -0.8218  0.0883 -0.3144
    2CHTO   C78  586   4.557   6.716   4.379  0.0846  0.0705 -0.5299
    2CHTO  H150  587   4.494   6.798   4.420  1.6737  1.2951 -0.4641
    2CHTO   C80  588   4.700   6.772   4.369 -0.0040  0.6052  1.1713
    2CHTO  H152  589   4.768   6.694   4.327  1.6009  2.1257  0.8797
    2CHTO   O55  590   4.687   6.884   4.282 -0.0343  0.1257  0.4461
    2CHTO  H134  591   4.765   6.935   4.290 -0.6555  1.8078 -3.2342
    2CHTO   C84  592   4.756   6.816   4.506 -0.0278  1.0677  0.4502
    2CHTO  H156  593   4.696   6.904   4.531  0.8881  1.5961  0.8237
    2CHTO   N15  594   4.896   6.863   4.508 -0.2018 -0.4695  0.2581
    2CHTO  H143  595   4.913   6.948   4.446  0.5937 -0.2603  0.7541
    2CHTO  H144  596   4.924   6.886   4.608  0.8371 -0.1075 -0.1125
    2CHTO   C87  597   4.741   6.714   4.622 -0.4601  0.8697 -0.1570
    2CHTO  H159  598   4.810   6.633   4.597 -0.1378  1.8676 -2.6031
    2CHTO   O53  599   4.582   6.651   4.619 -0.0011 -0.4055 -0.1446
    2CHTO   C82  600   4.547   6.599   4.484  0.2077  0.5114  0.4044
    2CHTO  H154  601   4.612   6.516   4.457  1.1472  0.7745  1.8320
    2CHTO   C89  602   4.398   6.545   4.497  1.1681 -0.9949 -0.2227
    2CHTO   O59  603   4.388   6.427   4.577  0.3121 -0.6259 -0.1225
    2CHTO  H137  604   4.299   6.397   4.569  0.2941 -0.5816 -0.0901
    2CHTO   O45  605   4.793   6.763   4.764 -0.2216 -0.3261 -0.2227
    2CHTO   C67  606   4.781   6.658   4.860  0.6037 -0.6265  0.1178
    2CHTO  H124  607   4.710   6.581   4.829  0.1532  0.7022 -2.2090
    2CHTO   C65  608   4.927   6.597   4.886  0.6774 -0.8091  0.1387
    2CHTO  H122  609   5.002   6.665   4.845 -0.8697  1.2736  0.6106
    2CHTO   O44  610   4.934   6.476   4.815  0.2256  0.3548  0.6794
    2CHTO  H102  611   4.900   6.402   4.863  0.9166 -0.4235 -0.0138
    2CHTO   C63  612   4.952   6.587   5.040 -0.3531  0.1022 -0.1536
    2CHTO  H120  613   4.964   6.688   5.079 -1.0739  0.6999 -1.4713
    2CHTO   N11  614   5.090   6.527   5.075 -0.3768 -0.4165  0.0293
    2CHTO  H108  615   5.081   6.450   5.149  1.5437 -1.8216 -1.1533
    2CHTO  H109  616   5.162   6.597   5.111 -1.6938  0.4497  1.0034
    2CHTO   C61  617   4.828   6.528   5.113  0.2759  0.3971  0.2415
    2CHTO  H118  618   4.852   6.522   5.220  1.1228 -1.8462 -0.0490
    2CHTO   O40  619   4.717   6.619   5.093 -0.2660 -0.0297 -0.3292
    2CHTO   C68  620   4.716   6.721   4.988  0.5374 -0.5454 -0.1123
    2CHTO  H125  621   4.773   6.812   5.016 -0.9895  0.5865 -0.5897
    2CHTO   C72  622   4.572   6.765   4.966  0.3098 -0.2240  0.2593
    2CHTO   O48  623   4.520   6.832   5.081  0.0986 -0.3237 -0.0599
    2CHTO  H105  624   4.471   6.906   5.053  2.6681  1.1466 -0.8605
    2CHTO   O38  625   4.792   6.394   5.077  0.1459 -0.4985 -0.1027
    2CHTO   C55  626   4.710   6.322   5.173  0.7943 -0.3064 -0.4393
    2CHTO  H112  627   4.653   6.387   5.240 -1.3571 -1.7362 -0.8306
    2CHTO   C56  628   4.788   6.216   5.250  0.5311 -0.4941 -0.5285
    2CHTO  H113  629   4.828   6.155   5.167 -0.3841  1.6663 -2.6044
    2CHTO   O42  630   4.898   6.282   5.323 -0.7641 -0.4994  0.4285
    2CHTO  H100  631   4.977   6.233   5.313 -0.3170  0.5388 -1.3775
    2CHTO   C57  632   4.702   6.137   5.351 -0.1428 -0.0620  0.1839
    2CHTO  H114  633   4.681   6.206   5.433 -1.6015  0.7093 -0.8117
    2CHTO   N10  634   4.780   6.025   5.409 -0.4577  0.1236 -0.3209
    2CHTO  H106  635   4.886   6.039   5.417 -0.8777  3.4277  0.2620
    2CHTO  H107  636   4.759   5.935   5.354 -1.1752 -0.3046  0.6342
    2CHTO   C58  637   4.564   6.090   5.295 -0.2533 -0.2959  0.0529
    2CHTO  H115  638   4.580   5.989   5.251 -0.6872 -0.9679  1.3974
    2CHTO   O37  639   4.511   6.184   5.201  0.3576  0.4215 -0.0483
    2CHTO   C59  640   4.595   6.245   5.101  0.5564 -0.7924 -0.3257
    2CHTO  H116  641   4.638   6.175   5.029 -2.1509  1.6147 -4.4974
    2CHTO   C70  642   4.510   6.335   5.009  0.5446  0.7591  0.0670
    2CHTO   O46  643   4.411   6.427   5.066  0.0958 -0.3072 -0.0208
    2CHTO  H103  644   4.358   6.379   5.126  0.0592 -0.7098 -0.3756
    2CHTO   O39  645   4.462   6.076   5.421  0.8169 -0.2752  0.1739
    2CHTO   C60  646   4.344   6.009   5.381 -0.3320 -0.8066  0.2655
    2CHTO  H117  647   4.337   6.015   5.273  1.8960 -2.2038  0.0337
    2CHTO   C62  648   4.336   5.855   5.415 -0.0621  0.7735  0.6287
    2CHTO  H119  649   4.429   5.818   5.367  0.7418  1.8414  1.3411
    2CHTO   O43  650   4.329   5.836   5.557 -0.1480  0.8481 -0.7854
    2CHTO  H101  651   4.384   5.901   5.597  1.0689 -1.6893  1.7935
    2CHTO   C66  652   4.209   5.787   5.347  1.3500 -0.1529  0.0674
    2CHTO  H123  653   4.213   5.799   5.239 -1.8862  1.1125  0.0351
    2CHTO   N12  654   4.210   5.639   5.369  0.0744 -0.4432  0.3572
    2CHTO  H110  655   4.285   5.591   5.308 -0.6909 -1.2451  0.0255
    2CHTO  H111  656   4.231   5.613   5.472  3.3015  0.9099  0.0949
    2CHTO   C69  657   4.078   5.854   5.400  0.3988 -0.1957 -0.2179
    2CHTO  H126  658   4.049   5.822   5.502  2.5703  0.7235  0.7179
    2CHTO   O41  659   4.088   6.001   5.388 -0.0014 -0.6930  0.3464
    2CHTO   C64  660   4.211   6.078   5.438 -0.3641 -0.6799 -0.1746
    2CHTO  H121  661   4.210   6.081   5.549  0.9537  0.6376 -0.1709
    2CHTO   C71  662   4.195   6.228   5.394  0.1636  0.4845 -0.0119
    2CHTO   O47  663   4.075   6.287   5.437 -0.4749 -0.1265  0.2965
    2CHTO  H104  664   4.000   6.261   5.388  0.9917 -1.3095 -1.3884
    2CHTO   O34  665   3.958   5.811   5.303 -0.4145 -0.1299 -0.3640
    2CHTO   C49  666   3.879   5.821   5.172  0.6931  0.0722 -0.1000
    2CHTO   H91  667   3.813   5.737   5.151  0.4259  0.8724 -2.6394
    2CHTO   C47  668   3.985   5.827   5.066 -0.0075 -0.5350 -0.0996
    2CHTO   H89  669   3.934   5.825   4.967  1.2014  0.8487 -0.7900
    2CHTO   O33  670   4.061   5.705   5.080  0.2483 -0.1692 -0.1651
    2CHTO   H70  671   4.121   5.719   5.150 -1.6764  0.1550  1.4884
    2CHTO   C45  672   4.079   5.968   5.070 -0.7843  0.1254  0.0584
    2CHTO   H87  673   4.133   5.968   5.166  0.1113  0.4003 -0.4357
    2CHTO    N8  674   4.182   5.969   4.960 -0.5348 -0.8302  0.8601
    2CHTO   H75  675   4.250   6.050   4.982  1.4404 -1.8781 -1.2087
    2CHTO   H76  676   4.237   5.884   4.925  0.2239 -0.0990  0.2538
    2CHTO   C43  677   3.988   6.103   5.078  0.2985  0.7324  0.3263
    2CHTO   H85  678   4.062   6.175   5.112 -0.3787  0.3667  2.6619
    2CHTO   O29  679   3.891   6.068   5.180  0.4771 -0.5224  1.2295
    2CHTO   C50  680   3.799   5.957   5.175 -0.1250 -0.0493 -0.6854
    2CHTO   H92  681   3.741   5.972   5.267  1.3039 -0.1697  0.2393
    2CHTO   C54  682   3.696   5.969   5.058 -0.3507  0.0532  0.0111
    2CHTO   O36  683   3.628   6.095   5.052 -0.0020  0.4396  0.5264
    2CHTO   H72  684   3.657   6.138   4.974 -1.7546  0.4785 -0.1180
    2CHTO   O27  685   3.932   6.163   4.962 -0.2333 -0.2628 -0.2512
    2CHTO   C37  686   3.969   6.277   4.886 -0.5138  1.0039 -0.2183
    2CHTO   H79  687   4.077   6.294   4.892 -0.1872 -1.3176  1.3424
    2CHTO   C38  688   3.957   6.255   4.733  0.4302  0.4408  0.5519
    2CHTO   H80  689   3.851   6.231   4.717  0.5941 -0.2699  0.5044
    2CHTO   O31  690   4.046   6.145   4.688 -0.0298  0.6050  0.2318
    2CHTO   H68  691   4.135   6.173   4.674  0.7700 -2.1737 -0.5716
    2CHTO   C39  692   3.999   6.391   4.656 -0.2555 -0.1115  0.7122
    2CHTO   H81  693   4.107   6.399   4.668 -0.3447  1.1184  0.6679
    2CHTO    N7  694   3.984   6.397   4.504  0.3278 -0.2914  0.9755
    2CHTO   H73  695   3.926   6.323   4.452  0.9070 -1.2644  1.6894
    2CHTO   H74  696   3.957   6.496   4.472 -1.3641 -1.5671 -1.6066
    2CHTO   C40  697   3.922   6.516   4.720 -0.4727  0.3121  0.1811
    2CHTO   H82  698   3.814   6.510   4.704 -0.3404  0.1204 -0.6294
    2CHTO   O26  699   3.954   6.522   4.857 -0.2802 -0.2958 -0.3128
    2CHTO   C41  700   3.899   6.407   4.924  0.3203 -0.0524 -0.6257
    2CHTO   H83  701   3.792   6.391   4.903  0.3891 -0.1661 -0.8854
    2CHTO   C52  702   3.890   6.438   5.079  0.0765  0.2252 -0.0642
    2CHTO   O35  703   4.030   6.454   5.147  0.1419 -0.4602  0.0411
    2CHTO   H71  704   4.095   6.444   5.080 -0.5111 -0.3884 -0.6058
    2CHTO   O28  705   3.954   6.643   4.657  0.0434 -0.3863 -0.0223
    2CHTO   C42  706   3.947   6.789   4.694  0.1488  0.9492  0.3194
    2CHTO   H84  707   3.975   6.850   4.608 -0.0790  1.4655  0.6075
    2CHTO   C44  708   4.038   6.830   4.810  0.1404 -0.2571 -0.1431
    2CHTO   H86  709   3.999   6.774   4.896  1.1843 -1.0680 -0.1930
    2CHTO   O32  710   4.171   6.776   4.780  0.7343  0.3952 -0.0251
    2CHTO   H69  711   4.226   6.778   4.857  0.6159 -0.9155  0.1103
    2CHTO   C48  712   4.026   6.984   4.848 -0.1294  0.1496 -0.7912
    2CHTO   H90  713   4.050   7.033   4.754 -0.9263  1.3680 -0.3582
    2CHTO    N9  714   4.118   7.026   4.961  0.2710 -0.4888 -0.5739
    2CHTO   H77  715   4.151   6.939   5.016 -1.4655 -0.0725  1.1643
    2CHTO   H78  716   4.207   7.063   4.912 -0.6183  2.2779 -0.1881
    2CHTO   C51  717   3.874   7.022   4.879 -0.3747 -1.0799  0.4516
    2CHTO   H93  718   3.836   6.981   4.973  0.3841  1.6501  1.9969
    2CHTO   O30  719   3.795   6.985   4.761  0.0836 -0.1856 -0.2173
    2CHTO   C46  720   3.806   6.834   4.728  0.5554  0.0263  0.0419
    2CHTO   H88  721   3.780   6.776   4.816 -3.0911 -0.9715 -1.6044
    2CHTO   C53  722   3.703   6.805   4.613 -0.3533  0.2601  0.2155
    2CHTO   O72  723   3.705   6.866   4.486  0.4952  0.2587 -0.2650
    2CHTO  H199  724   3.663   6.810   4.423 -0.8241  1.3929 -0.3997
    2CHTO   O22  725   3.845   7.162   4.891  0.2617  0.1720  0.0214
    2CHTO   C31  726   3.719   7.205   4.966  0.5343  0.4658  0.8511
    2CHTO   H59  727   3.705   7.314   4.950 -0.6232  0.3826  1.2902
    2CHTO   C29  728   3.585   7.142   4.915  0.5292 -0.1488  0.5531
    2CHTO   H57  729   3.576   7.033   4.919 -0.6247 -0.1031 -0.4757
    2CHTO   O21  730   3.567   7.193   4.780  0.4065 -0.3809 -0.7810
    2CHTO   H37  731   3.508   7.136   4.735 -0.4050 -0.9079  0.8842
    2CHTO   C27  732   3.459   7.202   4.997  0.3021 -0.2672 -0.7932
    2CHTO   H55  733   3.445   7.309   4.975  1.6458  0.1599  0.3307
    2CHTO    N5  734   3.334   7.124   4.967 -0.1979  0.1616  0.0835
    2CHTO   H43  735   3.260   7.186   5.016  1.2844  0.7984  1.5670
    2CHTO   H44  736   3.307   7.130   4.863  1.9481  2.3653 -0.4017
    2CHTO   C25  737   3.485   7.196   5.156  0.0558  0.4446 -0.0624
    2CHTO   H53  738   3.502   7.093   5.189 -0.4017 -0.0568 -1.3715
    2CHTO   O17  739   3.612   7.263   5.182 -0.4924 -0.5592 -0.1277
    2CHTO   C32  740   3.724   7.196   5.118  0.2597 -0.6758  0.3713
    2CHTO   H60  741   3.717   7.090   5.143 -3.1267 -0.9522 -1.3575
    2CHTO   C36  742   3.860   7.237   5.177 -0.5825  0.4297 -0.4582
    2CHTO   O25  743   3.853   7.214   5.320 -0.1025 -0.2900 -0.3390
    2CHTO   H40  744   3.809   7.287   5.358 -1.1863 -0.5163 -1.1443
    2CHTO   O15  745   3.387   7.252   5.227 -0.5869 -0.3414 -0.3039
    2CHTO   C19  746   3.314   7.243   5.357 -0.3312 -0.4844 -1.1409
    2CHTO   H47  747   3.247   7.330   5.351  0.3877  0.1127 -0.7057
    2CHTO   C20  748   3.216   7.121   5.385  0.1120  0.1095 -0.7269
    2CHTO   H48  749   3.269   7.025   5.388  0.2682  0.1866 -1.0694
    2CHTO   O19  750   3.130   7.125   5.270 -0.6975  0.4521  0.2859
    2CHTO   H35  751   3.043   7.153   5.292  0.4080  1.6998  3.2692
    2CHTO   C21  752   3.142   7.133   5.517 -0.7134 -0.1012 -0.2451
    2CHTO   H49  753   3.085   7.226   5.524  0.5305  0.5249  2.4377
    2CHTO    N4  754   3.044   7.030   5.551  0.9531  0.1082 -0.4406
    2CHTO   H41  755   3.072   6.925   5.549 -3.3449 -1.1769  1.4644
    2CHTO   H42  756   2.977   7.051   5.633  1.3728  0.8585 -0.2866
    2CHTO   C22  757   3.239   7.159   5.635 -0.1043  0.2242 -0.2306
    2CHTO   H50  758   3.301   7.070   5.647 -1.9395 -1.7829 -4.5068
    2CHTO   O14  759   3.330   7.269   5.605 -0.3334 -0.0496  0.0061
    2CHTO   C23  760   3.402   7.261   5.483 -0.6713  0.7768  0.6428
    2CHTO   H51  761   3.475   7.179   5.486 -1.6809 -0.2023 -0.7858
    2CHTO   C34  762   3.460   7.401   5.467 -0.1555  0.3229  0.0757
    2CHTO   O23  763   3.555   7.440   5.567  0.5550 -0.1440 -0.2476
    2CHTO   H38  764   3.522   7.493   5.637  2.0521 -0.0956  0.4543
    2CHTO   O16  765   3.175   7.196   5.762  0.3680 -0.0289  0.0498
    2CHTO   C24  766   3.287   7.223   5.889  0.1506 -0.0481  0.2555
    2CHTO   H52  767   3.390   7.218   5.853 -0.9063 -0.1174 -2.9869
    2CHTO   C26  768   3.264   7.115   5.996  0.3493  0.5490  0.3657
    2CHTO   H54  769   3.156   7.090   6.011  0.1536  0.9616 -0.3622
    2CHTO   O20  770   3.338   6.995   5.951 -0.2400  0.3640  0.4764
    2CHTO   H36  771   3.294   6.960   5.876 -0.0564 -0.0780  0.5753
    2CHTO   C30  772   3.319   7.161   6.133  0.1420 -0.7136 -0.4937
    2CHTO   H58  773   3.429   7.173   6.137  0.0042  0.3422  0.1942
    2CHTO    N6  774   3.289   7.069   6.245 -0.1005 -0.8073 -0.0794
    2CHTO   H45  775   3.181   7.067   6.250 -0.0174 -1.1054  1.9635
    2CHTO   H46  776   3.332   7.113   6.334 -0.0860 -1.0494  0.0312
    2CHTO   C33  777   3.259   7.300   6.168  0.8666  0.1098  1.1703
    2CHTO   H61  778   3.149   7.292   6.159  0.8674  1.4773 -0.1910
    2CHTO   O18  779   3.301   7.390   6.066 -0.0052  0.4181  0.1484
    2CHTO   C28  780   3.254   7.365   5.935 -0.0531  0.1426  0.2186
    2CHTO   H56  781   3.146   7.382   5.931 -0.0218  0.3332  0.1705
    2CHTO   C35  782   3.322   7.468   5.845 -0.0581  0.2390 -0.1661
    2CHTO   O24  783   3.235   7.511   5.741 -0.6190 -0.0344 -0.2524
    2CHTO   H39  784   3.218   7.603   5.751 -1.5430 -0.3349  1.1175
    2CHTO    O9  785   3.288   7.352   6.297  0.5066  0.0853  0.1153
    2CHTO   C13  786   3.251   7.490   6.337  0.4338 -0.0406 -0.4143
    2CHTO   H26  787   3.154   7.515   6.290 -0.5858 -0.2768  1.5169
    2CHTO   C11  788   3.366   7.582   6.288 -0.1149  0.6024  0.7741
    2CHTO   H24  789   3.361   7.592   6.178  1.0017  0.8628  0.7412
    2CHTO    O8  790   3.494   7.527   6.334  0.3803 -0.2339 -0.3114
    2CHTO    H3  791   3.567   7.565   6.289  0.5851  1.2199  1.1727
    2CHTO    C9  792   3.343   7.723   6.352 -0.1497 -0.2383 -0.8970
    2CHTO   H22  793   3.236   7.747   6.339 -0.2349  0.4213  0.9458
    2CHTO    N2  794   3.413   7.842   6.291  0.2906  0.8571  0.1008
    2CHTO   H10  795   3.514   7.817   6.260  0.5467  2.0774 -0.0890
    2CHTO   H11  796   3.404   7.928   6.355  1.2007  1.0802 -0.0551
    2CHTO    C7  797   3.360   7.708   6.506 -0.8295 -0.2966 -0.1560
    2CHTO   H20  798   3.285   7.779   6.547 -2.8318 -1.1013 -2.3234
    2CHTO    O4  799   3.336   7.578   6.555 -0.5846  0.0147  0.0563
    2CHTO   C14  800   3.227   7.511   6.494  0.1782  0.0947 -0.3208
    2CHTO   H27  801   3.140   7.577   6.513  0.5671  0.7681 -0.8826
    2CHTO   C18  802   3.195   7.384   6.573 -0.0888 -0.2134 -0.1775
    2CHTO   O13  803   3.311   7.308   6.590 -0.3985 -0.0052  0.1750
    2CHTO    H7  804   3.365   7.350   6.655 -1.1719 -0.3372  1.0550
    2CHTO    O2  805   3.520   7.748   6.551  0.1555 -0.2006 -0.8534
    2CHTO    C1  806   3.533   7.824   6.670 -0.0537 -0.4003 -0.0040
    2CHTO   H14  807   3.444   7.798   6.731  0.0427  0.1397  0.3748
    2CHTO    C2  808   3.539   7.976   6.654  0.2174 -1.0520  0.2146
    2CHTO   H15  809   3.626   7.985   6.588 -0.3389 -0.7243 -0.4810
    2CHTO    O6  810   3.425   8.028   6.595  0.6028  0.1810  0.2584
    2CHTO    H1  811   3.428   8.044   6.502  0.0021  1.4055  0.4390
    2CHTO    C3  812   3.570   8.047   6.795 -0.4413 -0.1699 -0.1852
    2CHTO   H16  813   3.481   8.035   6.860 -0.3691 -2.7174 -0.4962
    2CHTO    N1  814   3.589   8.192   6.777  0.5905  0.2587  0.4494
    2CHTO    H8  815   3.500   8.246   6.748  1.3621  1.6330  0.6006
    2CHTO    H9  816   3.631   8.229   6.869  3.4289  0.6807 -0.9843
    2CHTO    C4  817   3.685   7.975   6.874 -0.1293 -0.2749  1.2714
    2CHTO   H17  818   3.780   7.990   6.822 -1.2553  1.8165 -0.2402
    2CHTO    O1  819   3.652   7.837   6.876  0.3540 -0.3598 -0.4377
    2CHTO    C5  820   3.651   7.773   6.747 -0.2724  0.4687  0.1347
    2CHTO   H18  821   3.744   7.792   6.693  0.2969 -1.7254  0.2662
    2CHTO   C16  822   3.644   7.616   6.770 -0.0455  0.7856  0.2648
    2CHTO   O11  823   3.765   7.568   6.807 -0.0723 -0.0513 -0.5549
    2CHTO    H5  824   3.804   7.521   6.736 -0.0856 -1.0378  0.0774
    2CHTO    O3  825   3.685   8.013   7.014 -0.2163 -0.2503 -0.6993
    2CHTO    C6  826   3.817   8.040   7.081 -0.1879 -0.0266  0.3660
    2CHTO   H19  827   3.903   8.009   7.022  0.3805 -0.2046  1.2731
    2CHTO    C8  828   3.822   8.190   7.096  0.6166 -1.3208  0.0559
    2CHTO   H21  829   3.731   8.223   7.146  1.3617  0.8830  0.0591
    2CHTO    O7  830   3.836   8.263   6.968  0.3015  0.4274  0.2750
    2CHTO    H2  831   3.823   8.209   6.892 -1.6175  0.2463  0.6988
    2CHTO   C12  832   3.938   8.222   7.201 -0.8007 -0.3488 -0.1021
    2CHTO   H25  833   4.028   8.203   7.139 -0.1457 -2.2285  1.4141
    2CHTO    N3  834   3.941   8.367   7.227 -0.3944 -0.2929  0.5753
    2CHTO   H12  835   3.857   8.392   7.290 -0.0640 -1.6296  1.5631
    2CHTO   H13  836   3.932   8.415   7.130  1.8917 -0.9081  0.0341
    2CHTO   C15  837   3.936   8.125   7.327 -0.3394 -0.4178 -1.3496
    2CHTO   H28  838   3.852   8.134   7.395  0.4531 -3.3777  0.1300
    2CHTO   O10  839   4.069   8.143   7.418 -0.6243  0.4579  0.0329
    2CHTO    H4  840   4.105   8.228   7.403 -0.6016  0.0514 -2.3979
    2CHTO    O5  841   3.930   7.986   7.302  0.0282 -0.2835  0.3446
    2CHTO   C10  842   3.827   7.962   7.208  0.0833 -0.1106 -1.0623
    2CHTO   H23  843   3.734   7.978   7.262  0.3187 -0.7539 -0.4660
    2CHTO   C17  844   3.845   7.815   7.173 -1.1188 -0.3253  0.0188
    2CHTO   O12  845   3.795   7.725   7.278  0.1343  0.1155 -0.0757
    2CHTO    H6  846   3.866   7.694   7.332  0.2117  1.4772  0.6469
    3CHTO  H203  847   5.326   3.712   3.418 -1.3005 -0.3247 -1.7359
    3CHTO   O82  848   5.392   3.651   3.389  0.1993  0.0259  0.7663
    3CHTO  C123  849   5.393   3.661   3.250 -0.4839 -0.6318 -0.1512
    3CHTO  H227  850   5.327   3.745   3.224  0.5227  0.7695  1.6981
    3CHTO   O77  851   5.535   3.694   3.233  0.5198  0.2298 -0.0843
    3CHTO  C118  852   5.574   3.698   3.093 -0.1136  0.0338 -0.2447
    3CHTO  H222  853   5.519   3.787   3.057 -1.8547 -1.2110 -0.6849
    3CHTO  C125  854   5.725   3.735   3.100  0.4110 -0.5360 -0.5444
    3CHTO   O84  855   5.794   3.625   3.162 -0.1503 -0.3683 -0.3309
    3CHTO  H205  856   5.861   3.596   3.103 -0.4436 -1.0377 -0.3431
    3CHTO  C114  857   5.542   3.580   3.014 -0.4651  0.4383 -0.1987
    3CHTO  H218  858   5.603   3.494   3.042 -1.4047 -0.3586 -0.5874
    3CHTO  C116  859   5.392   3.541   3.025 -0.1342  0.0397 -0.7111
    3CHTO  H220  860   5.329   3.618   2.977  1.8184  2.2328  0.1148
    3CHTO   O79  861   5.372   3.414   2.950  0.5352  0.0302  0.4745
    3CHTO  H201  862   5.281   3.390   2.949 -0.0545  2.2126 -1.1245
    3CHTO  C120  863   5.358   3.530   3.180  0.6795 -0.2813  0.3161
    3CHTO  H224  864   5.424   3.447   3.215  3.6840  0.7761 -2.4997
    3CHTO   N21  865   5.215   3.491   3.192 -0.4362  0.4300 -1.3770
    3CHTO  H211  866   5.170   3.533   3.281 -1.7597 -1.3345 -1.1817
    3CHTO  H212  867   5.198   3.385   3.190 -0.6314  0.4782 -4.2478
    3CHTO   O75  868   5.576   3.610   2.876  0.1657  0.0525 -0.1767
    3CHTO  C112  869   5.702   3.499   2.821 -0.7138  0.3474 -0.4052
    3CHTO  H216  870   5.684   3.401   2.869  3.5737 -0.3059  0.0266
    3CHTO   O73  871   5.829   3.543   2.856 -0.0478 -0.4760 -0.2398
    3CHTO  C113  872   5.930   3.445   2.827 -0.1950 -0.1805 -0.1974
    3CHTO  H217  873   5.902   3.345   2.867 -1.1956 -1.0109 -2.8868
    3CHTO  C124  874   6.065   3.483   2.892 -0.3152 -0.2817  0.6092
    3CHTO   O83  875   6.063   3.564   3.018 -0.3960  0.1504 -0.0182
    3CHTO  H204  876   6.090   3.498   3.079  3.6054  0.0723 -1.6809
    3CHTO  C109  877   5.941   3.426   2.668 -0.6994  0.2947 -0.0531
    3CHTO  H213  878   5.970   3.524   2.628 -1.1836  0.1422 -0.7831
    3CHTO  C110  879   5.802   3.388   2.615 -0.1441  0.5721 -0.2000
    3CHTO  H214  880   5.771   3.286   2.635 -2.2090  0.7220 -2.4860
    3CHTO   O78  881   5.818   3.399   2.472 -0.0182 -0.0697 -0.2400
    3CHTO  H200  882   5.845   3.316   2.439  1.1679 -0.4313  1.5656
    3CHTO  C111  883   5.689   3.481   2.665 -0.4808  0.0281 -0.7064
    3CHTO  H215  884   5.709   3.582   2.627  0.4962  0.2952  0.4632
    3CHTO   N19  885   5.556   3.434   2.616  0.1565  0.1271  0.2164
    3CHTO  H207  886   5.542   3.438   2.509  1.3057  0.4406  0.0716
    3CHTO  H208  887   5.549   3.330   2.646  1.1712  0.2855  1.0378
    3CHTO   O74  888   6.034   3.320   2.621 -0.1674  0.5191 -0.2600
    3CHTO  C115  889   6.164   3.379   2.533  0.0688  0.4302 -0.5085
    3CHTO  H219  890   6.172   3.487   2.540  0.1422  0.3826  0.1328
    3CHTO   O76  891   6.303   3.324   2.592 -0.2159 -0.5741 -0.2577
    3CHTO  C122  892   6.316   3.181   2.602 -0.4422 -1.1874 -0.5928
    3CHTO  H226  893   6.266   3.166   2.698 -0.3206 -1.5981 -0.5952
    3CHTO  C126  894   6.471   3.144   2.613 -0.3818  0.0270 -0.2155
    3CHTO   O85  895   6.569   3.193   2.517  0.1228 -0.0316 -0.0811
    3CHTO  H206  896   6.654   3.197   2.557 -0.4317  1.1001  1.0215
    3CHTO  C121  897   6.248   3.113   2.469 -0.1559  0.1551  0.2991
    3CHTO  H225  898   6.331   3.045   2.441  0.0112  0.3663  0.2771
    3CHTO   O81  899   6.126   3.051   2.501 -0.7098  0.1638 -0.1204
    3CHTO  H202  900   6.113   3.050   2.594 -1.3770 -1.3671 -0.2219
    3CHTO  C119  901   6.239   3.226   2.358  0.6417  0.5242  0.1238
    3CHTO  H223  902   6.343   3.256   2.350  0.0967  1.9002 -2.2635
    3CHTO  C117  903   6.145   3.343   2.382  0.0130  0.3814  0.1424
    3CHTO  H221  904   6.038   3.326   2.381 -0.4053  2.7660  0.8136
    3CHTO   N20  905   6.173   3.457   2.294 -0.2012  0.3376  0.8154
    3CHTO  H209  906   6.243   3.527   2.336 -0.6841  0.7461  0.9571
    3CHTO  H210  907   6.079   3.509   2.277 -1.1465 -0.8573  2.2089
    3CHTO   O80  908   6.218   3.153   2.206  0.0099 -0.7390 -0.2421
    3CHTO  C103  909   6.125   3.032   2.184  0.0004 -0.2582  0.0386
    3CHTO  H190  910   6.122   2.971   2.275  1.4765  0.0217  0.2860
    3CHTO  C101  911   5.978   3.063   2.143  0.6044 -0.8270  1.3689
    3CHTO  H188  912   5.976   3.120   2.050 -2.5312 -2.3508  0.4254
    3CHTO   O68  913   5.903   3.137   2.263  0.0657 -0.1386 -0.2519
    3CHTO  H168  914   5.814   3.147   2.237  0.2890 -0.2362 -1.0706
    3CHTO   C99  915   5.914   2.915   2.099 -0.6998  0.2153  0.3085
    3CHTO  H186  916   5.902   2.849   2.188 -0.2251 -0.0142  0.1999
    3CHTO   N17  917   5.776   2.927   2.042  0.5547 -0.3911  0.2864
    3CHTO  H174  918   5.794   2.977   1.948 -0.5304 -1.9826 -0.8000
    3CHTO  H175  919   5.729   2.831   2.028  0.4209 -0.3577  0.5127
    3CHTO   C97  920   6.006   2.836   2.002 -0.1653 -0.0153 -0.3973
    3CHTO  H184  921   6.014   2.884   1.904 -0.6500  2.4984  0.7578
    3CHTO   O64  922   6.129   2.819   2.067  0.3174  0.0647  0.3133
    3CHTO  C104  923   6.204   2.945   2.079  0.0561  0.4994  0.2623
    3CHTO  H191  924   6.213   3.001   1.986  1.3616 -0.2149 -0.0380
    3CHTO  C108  925   6.352   2.913   2.124 -0.5453 -0.3935 -0.1470
    3CHTO   O71  926   6.434   3.021   2.084  0.1699  0.3602  0.0527
    3CHTO  H171  927   6.389   3.103   2.089  0.0392  0.2218  1.4442
    3CHTO   O62  928   5.968   2.696   1.991 -0.5596  0.0683 -0.1971
    3CHTO   C91  929   5.940   2.652   1.856 -0.2703  0.0440 -0.4511
    3CHTO  H178  930   5.875   2.724   1.806  1.7784  1.6312 -0.9190
    3CHTO   C92  931   5.863   2.517   1.879  0.9219 -0.7126 -0.1137
    3CHTO  H179  932   5.922   2.462   1.955  0.6909  2.3730  2.3966
    3CHTO   O66  933   5.746   2.548   1.963 -0.1141  0.1733 -0.2525
    3CHTO  H166  934   5.753   2.530   2.055 -0.8444 -1.7077 -0.5466
    3CHTO   C93  935   5.830   2.433   1.753  0.4041 -0.3124 -0.2311
    3CHTO  H180  936   5.724   2.454   1.729  0.5453  0.4719 -0.1889
    3CHTO   N16  937   5.819   2.285   1.784 -0.9249  0.5240  0.3815
    3CHTO  H172  938   5.726   2.260   1.833  0.1305  1.1623  2.7986
    3CHTO  H173  939   5.895   2.264   1.858 -0.3326 -1.0419 -0.6354
    3CHTO   C94  940   5.922   2.468   1.629  1.2325 -0.2883  0.0984
    3CHTO  H181  941   5.940   2.382   1.565 -0.6338 -0.9061  0.3550
    3CHTO   O61  942   6.054   2.496   1.677 -0.4000 -0.2037 -0.5763
    3CHTO   C95  943   6.070   2.617   1.758  0.4917 -0.1657 -0.5016
    3CHTO  H182  944   6.141   2.593   1.836  0.4545  0.7591 -0.1742
    3CHTO  C106  945   6.107   2.741   1.680 -0.8552 -0.2124  0.7966
    3CHTO   O69  946   6.201   2.703   1.574 -0.5408 -0.2209 -0.8091
    3CHTO  H169  947   6.232   2.779   1.528 -2.7397  1.2675  0.0930
    3CHTO   O63  948   5.867   2.584   1.540  0.6085  0.7645  0.0058
    3CHTO   C96  949   5.753   2.559   1.430 -0.3797 -0.3510  0.2328
    3CHTO  H183  950   5.664   2.521   1.480  0.8407 -1.0236  1.9655
    3CHTO   C98  951   5.797   2.464   1.309 -0.3082 -0.2514 -0.6562
    3CHTO  H185  952   5.905   2.485   1.300 -0.1971 -1.2701 -1.9271
    3CHTO   O67  953   5.786   2.333   1.364 -0.8704  0.1412  0.1963
    3CHTO  H167  954   5.826   2.269   1.308  1.0514 -1.8029  3.6996
    3CHTO  C102  955   5.711   2.480   1.177  0.8966  0.4621 -0.3811
    3CHTO  H189  956   5.616   2.431   1.199  0.7081 -0.5216 -3.2003
    3CHTO   N18  957   5.758   2.417   1.052  0.1423 -0.6017 -0.0929
    3CHTO  H176  958   5.754   2.486   0.969  1.9431  0.9490  1.0686
    3CHTO  H177  959   5.859   2.378   1.056  0.0614 -0.9478 -1.1697
    3CHTO  C105  960   5.673   2.628   1.159 -0.2652  0.0803  0.3163
    3CHTO  H192  961   5.758   2.689   1.127 -0.9045  0.9496  0.2731
    3CHTO   O65  962   5.627   2.707   1.265 -0.2257  0.2928 -0.1331
    3CHTO  C100  963   5.720   2.707   1.380  0.2470 -0.2762  0.4715
    3CHTO  H187  964   5.809   2.768   1.358  1.7894 -1.9465  2.0067
    3CHTO  C107  965   5.641   2.795   1.479  0.4964 -0.3334 -0.3870
    3CHTO   O70  966   5.722   2.869   1.570 -0.7116  0.2216  0.7524
    3CHTO  H170  967   5.660   2.932   1.603 -0.2704  1.0181  0.0734
    3CHTO   O57  968   5.557   2.618   1.029 -0.4164  0.3646  0.0164
    3CHTO   C85  969   5.561   2.715   0.923  0.4165 -0.1428 -0.3592
    3CHTO  H157  970   5.662   2.706   0.878  0.4482 -3.0136  0.1997
    3CHTO   C83  971   5.541   2.857   0.996  0.2768 -0.0392  0.3697
    3CHTO  H155  972   5.627   2.870   1.062  1.6585 -0.1017 -1.3674
    3CHTO   O56  973   5.417   2.851   1.075 -0.2023 -0.5518  0.2043
    3CHTO  H135  974   5.344   2.819   1.026  0.5377 -0.5448 -0.9365
    3CHTO   C81  975   5.549   2.966   0.889 -0.2034 -0.2801 -0.3933
    3CHTO  H153  976   5.640   2.951   0.831  0.1516 -0.7693  0.2780
    3CHTO   N14  977   5.570   3.102   0.948  0.2131  0.7283  0.5464
    3CHTO  H141  978   5.482   3.120   1.006  0.4976  0.0073  1.2004
    3CHTO  H142  979   5.658   3.126   1.004 -0.0642  0.1072  1.2405
    3CHTO   C79  980   5.431   2.944   0.781 -0.4326  0.7284 -0.4056
    3CHTO  H151  981   5.435   3.026   0.709  0.0700 -0.5100 -1.8028
    3CHTO   O52  982   5.449   2.816   0.721 -0.2721 -0.9174 -0.3000
    3CHTO   C86  983   5.456   2.702   0.812  0.8358 -0.3209 -1.1078
    3CHTO  H158  984   5.353   2.694   0.853  0.3036  0.9841 -2.1491
    3CHTO   C90  985   5.480   2.573   0.728  0.1032  0.2630 -0.9210
    3CHTO   O60  986   5.387   2.546   0.620  0.1285 -0.1445  0.4223
    3CHTO  H138  987   5.403   2.600   0.545 -0.4158 -0.4897  0.0499
    3CHTO   O50  988   5.298   2.937   0.828  0.6323 -0.1419  0.1557
    3CHTO   C73  989   5.157   2.971   0.822  0.3224 -0.3792 -0.3929
    3CHTO  H145  990   5.111   2.907   0.746  0.7283 -0.8123 -0.2767
    3CHTO   C74  991   5.141   3.120   0.789  0.5177  0.3194  0.2903
    3CHTO  H146  992   5.188   3.138   0.691 -0.4302  3.8368  0.4164
    3CHTO   O54  993   4.998   3.146   0.772 -0.5974 -0.3663 -0.0059
    3CHTO  H133  994   4.964   3.090   0.705 -1.6764  1.5153 -1.0476
    3CHTO   C75  995   5.204   3.211   0.904 -0.0126 -0.6299  0.3469
    3CHTO  H147  996   5.314   3.199   0.904  0.1814  1.0449  1.4431
    3CHTO   N13  997   5.189   3.359   0.886  0.0564 -0.1630  0.0377
    3CHTO  H139  998   5.261   3.391   0.813 -0.7183  0.2898 -0.5325
    3CHTO  H140  999   5.089   3.376   0.848 -0.1565 -0.1349  0.5914
    3CHTO   C76 1000   5.145   3.157   1.043  0.1145  0.1863  0.1564
    3CHTO  H148 1001   5.037   3.171   1.051  0.0655 -0.3914  0.5373
    3CHTO   O49 1002   5.169   3.013   1.055  0.5298  0.1615 -0.3862
    3CHTO   C77 1003   5.092   2.941   0.959 -0.0212  0.0544  0.0454
    3CHTO  H149 1004   4.990   2.979   0.951  0.7272  2.2352  0.4534
    3CHTO   C88 1005   5.096   2.785   0.985  0.6736  0.0150 -0.0454
    3CHTO   O58 1006   5.025   2.764   1.111  0.0998 -0.3730 -0.1044
    3CHTO  H136 1007   5.032   2.671   1.124  1.0550 -0.2660  0.2065
    3CHTO   O51 1008   5.234   3.223   1.176 -0.3194  0.1932  0.4438
    3CHTO   C78 1009   5.171   3.184   1.318 -0.9764 -0.1509  0.1924
    3CHTO  H150 1010   5.119   3.088   1.298  0.3708 -0.8913  0.1958
    3CHTO   C80 1011   5.066   3.289   1.358 -0.5859 -1.0099 -0.2152
    3CHTO  H152 1012   5.120   3.386   1.364 -1.2863 -0.6388  0.1750
    3CHTO   O55 1013   4.959   3.295   1.257 -0.5623 -0.4092 -0.0692
    3CHTO  H134 1014   5.000   3.323   1.177  0.7751  1.9319  1.3434
    3CHTO   C84 1015   5.010   3.247   1.504 -0.7053  0.5600  0.4676
    3CHTO  H156 1016   4.973   3.144   1.507 -2.5149  1.1903  0.3749
    3CHTO   N15 1017   4.901   3.329   1.557  0.7499  0.4434  0.5498
    3CHTO  H143 1018   4.925   3.430   1.531  1.8175  0.0271 -0.1437
    3CHTO  H144 1019   4.883   3.318   1.662 -1.4917  2.5446  0.4092
    3CHTO   C87 1020   5.139   3.246   1.599  0.3381 -0.4766  0.2326
    3CHTO  H159 1021   5.181   3.346   1.602  3.4716 -1.7159 -0.1080
    3CHTO   O53 1022   5.240   3.147   1.548  0.0549  0.7782  0.5573
    3CHTO   C82 1023   5.283   3.175   1.416  0.3013  0.4317 -0.0876
    3CHTO  H154 1024   5.334   3.272   1.414  0.9969  0.0611 -0.8251
    3CHTO   C89 1025   5.383   3.068   1.376 -0.0716 -0.2203  0.2607
    3CHTO   O59 1026   5.344   2.932   1.377 -0.5856  0.1492  0.4110
    3CHTO  H137 1027   5.389   2.883   1.443 -1.1497 -0.4813  0.3399
    3CHTO   O45 1028   5.108   3.204   1.756 -0.3637 -0.0189  0.6350
    3CHTO   C67 1029   5.230   3.205   1.834 -0.2393  0.4578  0.4277
    3CHTO  H124 1030   5.317   3.207   1.769 -1.2709  0.6000 -0.9715
    3CHTO   C65 1031   5.230   3.331   1.928 -0.0081 -0.5209  0.2126
    3CHTO  H122 1032   5.202   3.407   1.855 -1.6912  0.4486  1.8051
    3CHTO   O44 1033   5.354   3.345   1.984 -0.0737  0.2141  0.4022
    3CHTO  H102 1034   5.379   3.435   1.992 -0.8692  0.3205  1.7856
    3CHTO   C63 1035   5.111   3.318   2.024 -0.1699  0.0102 -0.3060
    3CHTO  H120 1036   5.022   3.295   1.965 -1.1528  1.1640  0.6761
    3CHTO   N11 1037   5.072   3.442   2.089 -0.5113 -0.2822 -0.3513
    3CHTO  H108 1038   4.966   3.459   2.086 -0.8467 -2.2648 -0.9522
    3CHTO  H109 1039   5.094   3.456   2.193 -1.5645  1.5998 -0.3522
    3CHTO   C61 1040   5.126   3.197   2.113 -0.0628  0.1712  0.0662
    3CHTO  H118 1041   5.027   3.181   2.157  0.5535  0.3652  1.5511
    3CHTO   O40 1042   5.161   3.070   2.041 -0.1129 -0.0231  0.0664
    3CHTO   C68 1043   5.239   3.070   1.914 -0.4820  1.2574  0.9034
    3CHTO  H125 1044   5.190   2.988   1.858  0.3467  1.7582 -0.5828
    3CHTO   C72 1045   5.393   3.029   1.925 -0.5554  0.0726  0.0660
    3CHTO   O48 1046   5.414   2.911   2.015  0.0136  0.1732 -0.1072
    3CHTO  H105 1047   5.476   2.921   2.085  1.1397 -1.1907 -0.8857
    3CHTO   O38 1048   5.224   3.216   2.217  0.6521  0.2573 -0.0055
    3CHTO   C55 1049   5.223   3.140   2.341  0.7493 -0.0450 -0.0389
    3CHTO  H112 1050   5.210   3.033   2.321  1.1550  0.1438 -1.3176
    3CHTO   C56 1051   5.117   3.197   2.446  0.1671 -0.7901 -0.5514
    3CHTO  H113 1052   5.140   3.305   2.450 -0.9213 -0.6020  2.5675
    3CHTO   O42 1053   4.983   3.178   2.398 -0.1790 -0.4969  0.0270
    3CHTO  H100 1054   4.952   3.256   2.358  2.3433 -0.7825 -2.6633
    3CHTO   C57 1055   5.132   3.132   2.587 -0.1079 -0.1530 -0.2638
    3CHTO  H114 1056   5.090   3.031   2.576  0.4742 -0.2413 -1.7548
    3CHTO   N10 1057   5.054   3.191   2.695  0.4851  0.1968  0.4317
    3CHTO  H106 1058   5.104   3.182   2.791  0.1399 -1.3565  0.4896
    3CHTO  H107 1059   5.031   3.294   2.673 -0.6768  0.1102  1.1887
    3CHTO   C58 1060   5.286   3.117   2.627  0.0730 -0.5534  0.1324
    3CHTO  H115 1061   5.321   3.214   2.667 -1.1560 -0.0460  0.0245
    3CHTO   O37 1062   5.360   3.068   2.517 -0.2815 -0.1800  0.1318
    3CHTO   C59 1063   5.366   3.150   2.404 -0.9160 -0.4338 -0.0842
    3CHTO  H116 1064   5.394   3.251   2.435 -2.0703  0.0337 -0.5460
    3CHTO   C70 1065   5.478   3.086   2.317  0.1215  0.1620 -0.0151
    3CHTO   O46 1066   5.495   3.162   2.195 -0.3866 -0.1558 -0.0744
    3CHTO  H103 1067   5.558   3.112   2.147 -0.6044  0.0087 -0.5359
    3CHTO   O39 1068   5.295   3.000   2.733 -0.0387  0.4818 -0.3897
    3CHTO   C60 1069   5.431   2.978   2.773  0.7817  0.2357  0.4649
    3CHTO  H117 1070   5.500   3.008   2.694  0.7270  0.6573  0.5760
    3CHTO   C62 1071   5.468   3.073   2.891  0.3188 -0.2093  0.0216
    3CHTO  H119 1072   5.445   3.176   2.859 -1.9881  0.0493  2.3129
    3CHTO   O43 1073   5.387   3.038   3.008 -0.4231 -0.4051 -0.1914
    3CHTO  H101 1074   5.297   3.035   2.980 -1.0296 -1.1339  1.7465
    3CHTO   C66 1075   5.622   3.059   2.922 -0.0096  0.4258  0.1615
    3CHTO  H123 1076   5.682   3.058   2.831 -0.1680  0.6840  0.0561
    3CHTO   N12 1077   5.677   3.168   3.015 -0.7297  0.2707  0.6372
    3CHTO  H110 1078   5.783   3.151   3.028 -0.6773 -0.5209 -0.6876
    3CHTO  H111 1079   5.617   3.164   3.105 -0.6518  0.2066  0.6865
    3CHTO   C69 1080   5.649   2.917   2.979  0.6439  0.4179  0.3742
    3CHTO  H126 1081   5.610   2.916   3.083  0.2207  0.8092  0.2168
    3CHTO   O41 1082   5.589   2.811   2.885  0.0103 -0.6860 -0.1927
    3CHTO   C64 1083   5.466   2.833   2.803 -0.1250  0.6533  0.2591
    3CHTO  H121 1084   5.378   2.791   2.856 -0.4145 -1.0452 -1.4800
    3CHTO   C71 1085   5.473   2.751   2.671 -0.4391 -0.3938 -1.3206
    3CHTO   O47 1086   5.487   2.611   2.702 -0.2766 -0.0701 -0.0416
    3CHTO  H104 1087   5.563   2.583   2.654 -1.0854  0.0947 -1.4319
    3CHTO   O34 1088   5.798   2.900   3.004  0.6675  0.5555 -0.6414
    3CHTO   C49 1089   5.940   2.857   2.912  0.4387  0.1058  0.4738
    3CHTO   H91 1090   6.030   2.884   2.968  0.1837 -0.9100  1.3859
    3CHTO   C47 1091   5.953   2.935   2.781 -0.0071 -0.8536 -0.0695
    3CHTO   H89 1092   6.057   2.920   2.746 -0.3984 -1.9406 -0.7965
    3CHTO   O33 1093   5.942   3.072   2.822  0.5842 -0.5535  0.2980
    3CHTO   H70 1094   5.929   3.128   2.747  0.5692 -0.8533  0.0763
    3CHTO   C45 1095   5.853   2.879   2.671 -0.0109 -0.2481  0.0106
    3CHTO   H87 1096   5.753   2.890   2.716 -0.2944 -0.0246 -0.6637
    3CHTO    N8 1097   5.851   2.953   2.536 -0.4391 -0.8279 -0.1214
    3CHTO   H75 1098   5.898   2.897   2.456 -0.2517  0.2817 -0.8063
    3CHTO   H76 1099   5.758   2.996   2.502  0.2286  1.9833  1.5007
    3CHTO   C43 1100   5.869   2.721   2.656 -0.2936 -0.2240 -0.1463
    3CHTO   H85 1101   5.791   2.685   2.589 -1.2198  1.0004  0.2522
    3CHTO   O29 1102   5.861   2.660   2.790  0.2637 -0.3241  0.8405
    3CHTO   C50 1103   5.948   2.705   2.894 -0.2270  0.5196  0.0979
    3CHTO   H92 1104   5.923   2.649   2.985 -2.0547  0.2334 -0.5456
    3CHTO   C54 1105   6.098   2.674   2.873 -0.1722  0.0668  0.1130
    3CHTO   O36 1106   6.118   2.529   2.875  0.2982  0.1041 -0.3566
    3CHTO   H72 1107   6.210   2.515   2.882  0.3538  0.4697 -0.3416
    3CHTO   O27 1108   5.992   2.689   2.584  0.5927  0.3663 -0.2136
    3CHTO   C37 1109   6.053   2.566   2.522 -0.0655  0.7245 -0.0216
    3CHTO   H79 1110   6.071   2.482   2.592 -0.7518  0.2311 -0.4288
    3CHTO   C38 1111   5.948   2.509   2.426 -1.0260  0.0658 -0.4375
    3CHTO   H80 1112   5.905   2.595   2.373 -1.3110  0.0207 -0.2814
    3CHTO   O31 1113   5.851   2.441   2.502  0.0507 -0.0551  0.1060
    3CHTO   H68 1114   5.840   2.488   2.583  1.7605  0.9644 -0.2456
    3CHTO   C39 1115   6.013   2.419   2.317  0.2401 -0.7844  0.0155
    3CHTO   H81 1116   6.028   2.322   2.364 -0.5470 -1.7979 -1.7636
    3CHTO    N7 1117   5.923   2.392   2.205  0.6461 -0.3824  0.2995
    3CHTO   H73 1118   5.826   2.438   2.195  0.1005 -1.6436 -0.3557
    3CHTO   H74 1119   5.901   2.286   2.216 -0.7708 -0.2725 -1.1702
    3CHTO   C40 1120   6.156   2.469   2.266  0.3462  0.8015  0.8410
    3CHTO   H82 1121   6.155   2.535   2.179 -0.3957 -1.6063 -1.0510
    3CHTO   O26 1122   6.244   2.519   2.365 -0.1258 -0.2768 -0.1179
    3CHTO   C41 1123   6.190   2.613   2.456 -0.3871 -0.6117  0.7340
    3CHTO   H83 1124   6.179   2.707   2.400 -2.8592 -0.6767  1.0770
    3CHTO   C52 1125   6.310   2.637   2.569 -0.2398 -0.2376  0.0962
    3CHTO   O35 1126   6.427   2.710   2.487 -0.0700  0.4817 -0.0281
    3CHTO   H71 1127   6.502   2.657   2.467 -0.1531 -0.4781  2.0649
    3CHTO   O28 1128   6.229   2.348   2.227  0.3240  0.3480 -0.2920
    3CHTO   C42 1129   6.308   2.335   2.103 -0.8942 -0.5469 -0.0247
    3CHTO   H84 1130   6.389   2.272   2.140  0.5466  1.4898  0.4044
    3CHTO   C44 1131   6.383   2.466   2.059 -0.6412 -0.5296  0.3413
    3CHTO   H86 1132   6.305   2.541   2.046 -0.4081 -0.2265  0.6718
    3CHTO   O32 1133   6.461   2.510   2.170  0.5548 -0.4682  0.4958
    3CHTO   H69 1134   6.533   2.455   2.194  1.9300  1.5158  1.0486
    3CHTO   C48 1135   6.477   2.457   1.929  0.0886  0.5358  0.2526
    3CHTO   H90 1136   6.572   2.406   1.948 -0.0666  0.4291  0.7561
    3CHTO    N9 1137   6.515   2.593   1.873  0.0520  0.0320  0.0890
    3CHTO   H77 1138   6.503   2.674   1.944  0.1107  0.6551 -0.6125
    3CHTO   H78 1139   6.458   2.610   1.783  0.3492 -1.2640 -0.3480
    3CHTO   C51 1140   6.402   2.368   1.816  0.0725  0.2043  0.1385
    3CHTO   H93 1141   6.314   2.423   1.783  0.4972  1.0588  0.4321
    3CHTO   O30 1142   6.363   2.244   1.878  0.0372  0.4018  0.9739
    3CHTO   C46 1143   6.245   2.266   1.981 -0.0509  0.0194 -0.2586
    3CHTO   H88 1144   6.170   2.332   1.937 -0.7775  2.0010  3.6937
    3CHTO   C53 1145   6.194   2.132   2.032  0.5579 -0.0219  0.6143
    3CHTO   O72 1146   6.125   2.066   1.920 -0.2358  0.2965  0.1574
    3CHTO  H199 1147   6.186   2.057   1.850 -0.0697 -1.8706  0.5513
    3CHTO   O22 1148   6.485   2.337   1.699 -1.1131  0.0351  0.9563
    3CHTO   C31 1149   6.444   2.345   1.561  0.9383  0.1368 -0.2714
    3CHTO   H59 1150   6.527   2.299   1.503  1.5491  0.3380  0.4365
    3CHTO   C29 1151   6.321   2.262   1.539  0.0004 -0.7732  0.4491
    3CHTO   H57 1152   6.239   2.307   1.597 -0.6846 -2.3273  0.7096
    3CHTO   O21 1153   6.344   2.128   1.593  0.6979  0.3710  0.6436
    3CHTO   H37 1154   6.272   2.068   1.584  0.8774  0.1123  0.9331
    3CHTO   C27 1155   6.276   2.264   1.387  0.0314  0.3490  0.0254
    3CHTO   H55 1156   6.365   2.232   1.330 -1.3124  0.4498 -2.1457
    3CHTO    N5 1157   6.164   2.176   1.342 -0.5018  0.0525  0.2526
    3CHTO   H43 1158   6.061   2.208   1.356  0.3333  2.7508  0.4545
    3CHTO   H44 1159   6.178   2.069   1.351 -1.2588  0.0002  0.9360
    3CHTO   C25 1160   6.255   2.420   1.344  0.1586  0.1684 -0.2718
    3CHTO   H53 1161   6.178   2.469   1.405  0.3049 -0.4425  0.4191
    3CHTO   O17 1162   6.387   2.489   1.368 -0.1283  0.3544  0.5138
    3CHTO   C32 1163   6.433   2.492   1.507  0.2478 -0.5394  0.1628
    3CHTO   H60 1164   6.372   2.551   1.575 -1.0108 -1.5450 -0.0728
    3CHTO   C36 1165   6.569   2.561   1.518  0.5240 -0.1787 -0.1484
    3CHTO   O25 1166   6.558   2.696   1.474  0.9495 -0.9073  0.0817
    3CHTO   H40 1167   6.622   2.727   1.412 -0.0588  1.7049  0.2640
    3CHTO   O15 1168   6.215   2.447   1.199  0.2993  0.3235 -0.3874
    3CHTO   C19 1169   6.183   2.532   1.084 -0.5784  1.0610  0.3445
    3CHTO   H47 1170   6.283   2.579   1.072 -0.7109  0.9154 -1.4325
    3CHTO   C20 1171   6.138   2.449   0.957 -0.7275  0.9221 -0.0898
    3CHTO   H48 1172   6.047   2.390   0.974  0.3898 -1.6949 -2.6959
    3CHTO   O19 1173   6.247   2.360   0.930  0.3982  0.4757 -0.1786
    3CHTO   H35 1174   6.315   2.412   0.892 -1.2720  3.3111  0.5381
    3CHTO   C21 1175   6.101   2.550   0.844  0.2503  0.3137  0.4141
    3CHTO   H49 1176   6.193   2.593   0.805 -0.0314  1.1749  0.6762
    3CHTO    N4 1177   6.033   2.487   0.724  0.0525  0.2683 -0.0783
    3CHTO   H41 1178   5.931   2.469   0.755 -0.7020 -0.9501 -3.1459
    3CHTO   H42 1179   6.047   2.567   0.653  0.6175 -1.1742 -1.6141
    3CHTO   C22 1180   6.020   2.675   0.895 -0.2970  0.1165 -0.2526
    3CHTO   H50 1181   5.918   2.645   0.920 -0.1853  0.4515  0.6283
    3CHTO   O14 1182   6.085   2.733   1.006 -0.2377 -0.0046  0.1913
    3CHTO   C23 1183   6.081   2.646   1.118 -0.4845  0.7165  0.1868
    3CHTO   H51 1184   5.981   2.606   1.138 -0.4937 -0.8115 -2.6881
    3CHTO   C34 1185   6.131   2.710   1.254 -0.2705  0.2540 -0.2702
    3CHTO   O23 1186   6.036   2.804   1.308  0.6490 -0.3774  0.9326
    3CHTO   H38 1187   6.020   2.878   1.254  0.8631 -1.0853 -0.1099
    3CHTO   O16 1188   6.026   2.765   0.786  0.1693  0.0121 -0.4990
    3CHTO   C24 1189   5.901   2.855   0.763 -0.3627 -0.2427  0.1066
    3CHTO   H52 1190   5.825   2.850   0.841 -2.0327 -0.3367 -1.4826
    3CHTO   C26 1191   5.839   2.820   0.625 -0.1646  0.6899 -0.8839
    3CHTO   H54 1192   5.922   2.799   0.554  1.1254 -0.9443  1.0448
    3CHTO   O20 1193   5.771   2.691   0.645  0.0964 -0.2809  0.8128
    3CHTO   H36 1194   5.832   2.621   0.633  2.1139  1.3542  1.2013
    3CHTO   C30 1195   5.748   2.931   0.569  0.4271  0.0707  0.0290
    3CHTO   H58 1196   5.657   2.929   0.631 -1.2638  0.8735 -2.3283
    3CHTO    N6 1197   5.693   2.904   0.430  0.0807 -0.2465 -0.3996
    3CHTO   H45 1198   5.748   2.827   0.378  1.0229  0.5725 -0.6289
    3CHTO   H46 1199   5.694   2.996   0.373 -0.3306  0.3096  0.4753
    3CHTO   C33 1200   5.818   3.072   0.587 -0.6757  0.5828 -0.3296
    3CHTO   H61 1201   5.908   3.064   0.524 -0.7196 -0.2420 -0.3040
    3CHTO   O18 1202   5.862   3.095   0.719  0.5270 -0.0091 -0.6744
    3CHTO   C28 1203   5.956   3.004   0.771 -0.0772  0.1843 -0.5103
    3CHTO   H56 1204   6.056   3.005   0.727  1.2591 -2.6758  2.2388
    3CHTO   C35 1205   5.980   3.042   0.921  0.5236  0.4568  0.1651
    3CHTO   O24 1206   6.046   3.166   0.942 -0.3009  0.6429  0.2621
    3CHTO   H39 1207   6.024   3.209   1.022  2.7409  3.1224 -0.1397
    3CHTO    O9 1208   5.744   3.181   0.533  0.1334  0.0322  0.1052
    3CHTO   C13 1209   5.806   3.343   0.528 -0.6070 -0.6138 -0.3486
    3CHTO   H26 1210   5.749   3.388   0.444 -0.7419 -1.2045 -0.5734
    3CHTO   C11 1211   5.964   3.358   0.504 -0.0734  0.7264  0.5613
    3CHTO   H24 1212   5.987   3.317   0.404  2.5178 -0.5334  1.6468
    3CHTO    O8 1213   6.037   3.269   0.586  0.0961  0.2663 -0.0166
    3CHTO    H3 1214   6.130   3.282   0.575 -0.0243  1.7519  0.5957
    3CHTO    C9 1215   6.001   3.505   0.520 -0.6512 -1.0368 -1.2456
    3CHTO   H22 1216   5.927   3.565   0.464  0.9654  1.1313 -1.1176
    3CHTO    N2 1217   6.139   3.536   0.469  0.1497 -0.4309 -0.2516
    3CHTO   H10 1218   6.125   3.551   0.363  2.2890  0.4161 -0.4534
    3CHTO   H11 1219   6.171   3.625   0.520  0.4383 -0.8022  0.2219
    3CHTO    C7 1220   5.971   3.547   0.668 -0.5821 -0.1415  0.0208
    3CHTO   H20 1221   5.960   3.657   0.671  2.2457  0.1858 -0.2689
    3CHTO    O4 1222   5.867   3.471   0.736  0.0870  0.4377  0.0680
    3CHTO   C14 1223   5.758   3.439   0.654  0.1554  0.5993 -0.2774
    3CHTO   H27 1224   5.725   3.530   0.600 -2.3093 -0.2733 -0.3045
    3CHTO   C18 1225   5.639   3.389   0.739 -0.1646 -0.3215  0.5870
    3CHTO   O13 1226   5.529   3.354   0.654  0.7219  0.3206  0.1655
    3CHTO    H7 1227   5.455   3.404   0.682  1.1704  0.6767  0.7250
    3CHTO    O2 1228   6.128   3.534   0.770  0.7603  0.4068  0.1310
    3CHTO    C1 1229   6.117   3.568   0.908  0.2152 -0.6864 -0.1210
    3CHTO   H14 1230   6.039   3.502   0.952  1.1825 -0.7901  1.4648
    3CHTO    C2 1231   6.070   3.715   0.937 -0.3364  0.3718  1.3325
    3CHTO   H15 1232   6.125   3.768   0.858 -1.1811 -0.1428  0.3909
    3CHTO    O6 1233   5.929   3.728   0.923  0.5261 -0.2465  0.2087
    3CHTO    H1 1234   5.877   3.653   0.947 -0.4157  0.8684  1.7340
    3CHTO    C3 1235   6.117   3.763   1.084  0.0028 -0.3202 -0.5091
    3CHTO   H16 1236   6.052   3.714   1.158 -0.4624  0.9262 -0.0897
    3CHTO    N1 1237   6.096   3.913   1.096  0.0069  0.4801 -0.8774
    3CHTO    H8 1238   5.998   3.937   1.058 -0.0428  1.1771 -0.3187
    3CHTO    H9 1239   6.165   3.965   1.031 -1.9380  1.2500 -2.4005
    3CHTO    C4 1240   6.261   3.722   1.118 -0.1208  0.1392 -0.3047
    3CHTO   H17 1241   6.327   3.764   1.042  0.2494 -1.4421 -0.8728
    3CHTO    O1 1242   6.265   3.583   1.112  0.1471 -0.5315 -0.1606
    3CHTO    C5 1243   6.250   3.535   0.978 -0.2114  0.1352 -0.0473
    3CHTO   H18 1244   6.339   3.573   0.927  0.4520  0.4758  1.3387
    3CHTO   C16 1245   6.269   3.379   0.997  0.4519  0.4830 -0.8066
    3CHTO   O11 1246   6.317   3.321   0.875 -0.3375  0.2187 -0.1779
    3CHTO    H5 1247   6.250   3.287   0.819  1.1768 -1.2821 -1.1628
    3CHTO    O3 1248   6.307   3.761   1.247  0.6130 -0.1131 -0.3151
    3CHTO    C6 1249   6.454   3.752   1.267 -0.0763  0.3749  0.4886
    3CHTO   H19 1250   6.504   3.685   1.197  2.6760  2.5909  0.2503
    3CHTO    C8 1251   6.527   3.887   1.253  0.4877  0.4942  0.5337
    3CHTO   H21 1252   6.477   3.951   1.327 -2.4458  0.2543 -1.1714
    3CHTO    O7 1253   6.497   3.934   1.125  0.3815  0.0767 -0.7919
    3CHTO    H2 1254   6.555   4.001   1.092  1.6386 -0.6311 -0.0789
    3CHTO   C12 1255   6.676   3.860   1.283  0.4006 -0.0654  0.6770
    3CHTO   H25 1256   6.718   3.788   1.209  0.2508  1.5826 -1.0765
    3CHTO    N3 1257   6.753   3.989   1.263 -0.1836  0.1254  0.1692
    3CHTO   H12 1258   6.846   3.976   1.317 -0.5551 -1.6437  0.4182
    3CHTO   H13 1259   6.776   4.000   1.158 -0.2683 -0.3707  0.0988
    3CHTO   C15 1260   6.688   3.797   1.434  0.5830 -0.8408 -0.3794
    3CHTO   H28 1261   6.665   3.860   1.520  1.4625 -0.9218 -0.0804
    3CHTO   O10 1262   6.822   3.741   1.444  0.3622  0.2799 -0.3048
    3CHTO    H4 1263   6.890   3.806   1.437  0.9132 -0.4912 -2.4867
    3CHTO    O5 1264   6.613   3.675   1.442  1.3024  0.9527  0.1797
    3CHTO   C10 1265   6.476   3.685   1.405  0.4501 -0.1336 -0.1063
    3CHTO   H23 1266   6.424   3.738   1.485 -1.8761 -2.9523  0.3124
    3CHTO   C17 1267   6.411   3.549   1.411 -0.0766 -0.0121  0.3284
    3CHTO   O12 1268   6.416   3.492   1.545 -0.0704 -0.4547 -0.3040
    3CHTO    H6 1269   6.498   3.446   1.556  1.0031  0.0862 -5.0306
    4CHTO  H203 1270   6.111   8.890   1.763 -0.4811  0.3875  0.1861
    4CHTO   O82 1271   6.153   8.897   1.679  0.1130 -0.3378  0.4121
    4CHTO  C123 1272   6.255   8.799   1.669 -0.0564 -0.3334  0.6599
    4CHTO  H227 1273   6.203   8.704   1.653 -0.1896  0.2763 -2.7807
    4CHTO   O77 1274   6.332   8.833   1.543  0.0429 -0.2696 -0.0934
    4CHTO  C118 1275   6.404   8.718   1.503  0.1027 -0.2375 -0.6620
    4CHTO  H222 1276   6.343   8.629   1.525  0.0289  0.2322  1.0747
    4CHTO  C125 1277   6.455   8.720   1.352 -0.4854  0.2088  0.8420
    4CHTO   O84 1278   6.527   8.839   1.331  0.5147  0.4176 -0.1126
    4CHTO  H205 1279   6.470   8.910   1.309  1.7573  0.4202 -3.6073
    4CHTO  C114 1280   6.524   8.701   1.598 -0.1437 -0.0520 -0.4309
    4CHTO  H218 1281   6.590   8.786   1.585 -1.2001  0.9211  0.4310
    4CHTO  C116 1282   6.480   8.680   1.747 -0.2666  0.1410 -0.1280
    4CHTO  H220 1283   6.428   8.582   1.752 -0.8233  0.4217 -0.3422
    4CHTO   O79 1284   6.593   8.686   1.839  0.0977  0.3754 -0.1964
    4CHTO  H201 1285   6.576   8.626   1.909  1.4437 -1.3719 -1.3160
    4CHTO  C120 1286   6.372   8.796   1.774 -0.5900 -0.3966 -0.0352
    4CHTO  H224 1287   6.432   8.889   1.787 -0.0575 -0.7053 -0.2581
    4CHTO   N21 1288   6.315   8.769   1.910 -0.6570  0.8156  1.0109
    4CHTO  H211 1289   6.230   8.702   1.906 -0.3874  0.4779  0.9245
    4CHTO  H212 1290   6.306   8.841   1.990 -1.1520  1.1620  0.6500
    4CHTO   O75 1291   6.585   8.581   1.543 -0.4641  0.6076 -0.2750
    4CHTO  C112 1292   6.762   8.600   1.552  0.2612 -0.0492 -0.1322
    4CHTO  H216 1293   6.793   8.596   1.658 -1.4984  0.5366  0.4267
    4CHTO   O73 1294   6.796   8.725   1.493 -0.1695  0.1598 -0.5997
    4CHTO  C113 1295   6.928   8.754   1.463  0.4953  0.0039 -0.2241
    4CHTO  H217 1296   6.987   8.765   1.557  2.8424  1.1881 -1.7704
    4CHTO  C124 1297   6.922   8.892   1.401 -0.0475 -0.2455 -0.1581
    4CHTO   O83 1298   6.847   8.988   1.476 -0.1975 -0.1990  0.7206
    4CHTO  H204 1299   6.755   8.992   1.458 -0.5751 -0.5832  2.4675
    4CHTO  C109 1300   6.993   8.651   1.375 -0.2450 -0.1521 -0.4649
    4CHTO  H213 1301   6.948   8.652   1.275  0.8505 -0.9300 -0.9769
    4CHTO  C110 1302   6.977   8.509   1.448 -0.0450 -0.1415  0.9321
    4CHTO  H214 1303   7.035   8.516   1.539  3.6645 -1.6214 -1.2210
    4CHTO   O78 1304   7.040   8.409   1.361 -0.3450 -0.1617  0.2602
    4CHTO  H200 1305   7.014   8.404   1.271 -1.7074  1.0862  0.5528
    4CHTO  C111 1306   6.828   8.477   1.474 -0.0530  0.5012  0.4520
    4CHTO  H215 1307   6.768   8.468   1.382 -2.1145  0.6277  1.7479
    4CHTO   N19 1308   6.808   8.354   1.548  0.4703 -0.1230  0.2774
    4CHTO  H207 1309   6.879   8.358   1.630 -0.1715  1.7315  0.7503
    4CHTO  H208 1310   6.829   8.275   1.477 -1.4773 -1.2733  0.9419
    4CHTO   O74 1311   7.134   8.680   1.372 -0.3441 -0.1717 -0.6612
    4CHTO  C115 1312   7.201   8.702   1.222 -0.0856 -0.7380 -0.0840
    4CHTO  H219 1313   7.159   8.641   1.142  1.3196  1.6253 -2.7257
    4CHTO   O76 1314   7.185   8.874   1.166 -1.1031 -0.4497 -0.5252
    4CHTO  C122 1315   7.290   8.947   1.230 -0.3486  0.4595 -0.8241
    4CHTO  H226 1316   7.287   8.919   1.336 -0.2052  2.2155 -0.3385
    4CHTO  C126 1317   7.277   9.099   1.233  0.3066  0.0907 -0.3727
    4CHTO   O85 1318   7.222   9.150   1.107  0.2217 -0.1391 -0.1685
    4CHTO  H206 1319   7.297   9.159   1.052  0.0646  0.6718 -0.2523
    4CHTO  C121 1320   7.433   8.901   1.174 -0.2093 -0.2795 -0.4469
    4CHTO  H225 1321   7.455   8.960   1.082 -0.5867  0.6091  0.0333
    4CHTO   O81 1322   7.537   8.919   1.268 -0.5241 -0.6007 -0.1561
    4CHTO  H202 1323   7.558   9.010   1.254 -1.1019 -0.2089  1.4601
    4CHTO  C119 1324   7.434   8.750   1.130 -0.3961  0.3400 -0.2507
    4CHTO  H223 1325   7.381   8.765   1.036  1.9735  1.3041 -1.4732
    4CHTO  C117 1326   7.350   8.665   1.230  0.3191 -0.1110 -0.6066
    4CHTO  H221 1327   7.367   8.679   1.337 -4.6424  0.9702  0.1562
    4CHTO   N20 1328   7.373   8.518   1.208  0.5239 -0.5087  0.1456
    4CHTO  H209 1329   7.336   8.495   1.109 -0.9825  0.4345  0.4669
    4CHTO  H210 1330   7.474   8.484   1.228  0.6617  0.1134  0.5082
    4CHTO   O80 1331   7.579   8.691   1.077 -0.0005 -0.4252 -0.1014
    4CHTO  C103 1332   7.678   8.789   0.966 -0.0046  0.0391 -0.5701
    4CHTO  H190 1333   7.620   8.876   0.936  0.4042  1.1944  1.8450
    4CHTO  C101 1334   7.824   8.831   1.016  0.1868  0.2705 -0.0316
    4CHTO  H188 1335   7.873   8.744   1.061 -0.5993 -1.0130 -1.6329
    4CHTO   O68 1336   7.826   8.948   1.140  0.1220  0.4551  0.4149
    4CHTO  H168 1337   7.776   8.920   1.214 -0.6118 -0.6236 -0.4643
    4CHTO   C99 1338   7.916   8.885   0.891  0.3263  0.7718 -0.3403
    4CHTO  H186 1339   7.891   8.988   0.857  1.4050  0.9020 -0.7628
    4CHTO   N17 1340   8.060   8.897   0.931  0.2947  0.4265 -0.1055
    4CHTO  H174 1341   8.066   8.974   1.007  0.8554  1.2449 -0.9649
    4CHTO  H175 1342   8.096   8.805   0.974  0.7479  0.9269  0.5899
    4CHTO   C97 1343   7.895   8.794   0.767  0.5201 -0.9352  0.3197
    4CHTO  H184 1344   7.950   8.700   0.781  2.0575 -0.5954 -2.8540
    4CHTO   O64 1345   7.756   8.777   0.737  0.1301  0.5468  0.0803
    4CHTO  C104 1346   7.694   8.696   0.838 -0.1112  0.1346  0.3346
    4CHTO  H191 1347   7.752   8.607   0.860  0.8809  0.2822 -1.5256
    4CHTO  C108 1348   7.556   8.646   0.800 -0.4327  0.1554  0.3128
    4CHTO   O71 1349   7.473   8.762   0.776 -0.1935 -0.3065  0.3859
    4CHTO  H171 1350   7.482   8.814   0.853  2.0368  0.8291 -0.6139
    4CHTO   O62 1351   7.945   8.866   0.650 -0.2240 -0.0790  0.9723
    4CHTO   C91 1352   7.968   8.785   0.533 -0.1952 -0.0225 -0.3690
    4CHTO  H178 1353   8.010   8.693   0.573 -0.5202  0.4627  1.1036
    4CHTO   C92 1354   8.088   8.852   0.457  0.6499  0.4608 -0.5915
    4CHTO  H179 1355   8.169   8.867   0.531  0.4683  0.1084 -0.3196
    4CHTO   O66 1356   8.141   8.750   0.369 -0.2015 -0.3121  0.4596
    4CHTO  H166 1357   8.209   8.783   0.313  0.2172 -0.1667  1.0484
    4CHTO   C93 1358   8.051   8.986   0.376 -0.6832  0.4424  0.4643
    4CHTO  H180 1359   8.130   8.990   0.300  0.3647 -1.1812  1.4147
    4CHTO   N16 1360   8.067   9.105   0.462  0.0106 -0.4376 -0.0539
    4CHTO  H172 1361   7.974   9.133   0.508  0.0372  1.2613 -1.0170
    4CHTO  H173 1362   8.106   9.187   0.404  1.2616 -0.7298  0.3611
    4CHTO   C94 1363   7.911   8.970   0.301  1.0506 -0.6357  0.3232
    4CHTO  H181 1364   7.826   9.010   0.355 -0.5448  0.0646 -2.5965
    4CHTO   O61 1365   7.873   8.831   0.300 -0.2575  0.1952  0.3801
    4CHTO   C95 1366   7.850   8.773   0.427  0.1396  0.0374 -0.1298
    4CHTO  H182 1367   7.760   8.816   0.470  0.1760 -0.0936  0.0783
    4CHTO  C106 1368   7.804   8.625   0.400  0.0037  0.1934 -0.2619
    4CHTO   O69 1369   7.756   8.561   0.524 -0.2892 -0.6501 -0.0253
    4CHTO  H169 1370   7.669   8.593   0.541 -0.7022 -0.4292 -2.3369
    4CHTO   O63 1371   7.921   9.030   0.159 -0.1536  0.0336  0.4514
    4CHTO   C96 1372   7.785   9.061   0.085  0.1513  0.3731 -0.4501
    4CHTO  H183 1373   7.702   9.001   0.122  1.7477 -1.1565  0.7178
    4CHTO   C98 1374   7.783   9.018  -0.061 -0.3366  0.0241  0.5531
    4CHTO  H185 1375   7.873   9.066  -0.103  0.6015 -0.5957  1.8161
    4CHTO   O67 1376   7.805   8.881  -0.075  0.2264  0.1968 -0.0351
    4CHTO  H167 1377   7.823   8.863  -0.165 -1.6560  2.9532 -1.0125
    4CHTO  C102 1378   7.640   9.052  -0.140  0.0484  0.1159  0.2962
    4CHTO  H189 1379   7.568   8.978  -0.101  1.4061  0.2689  3.1879
    4CHTO   N18 1380   7.641   9.041  -0.293 -0.4904 -0.1616 -0.7384
    4CHTO  H176 1381   7.650   8.946  -0.342 -0.4644 -0.5024 -0.0806
    4CHTO  H177 1382   7.697   9.120  -0.341 -0.7834  0.3688 -0.2330
    4CHTO  C105 1383   7.599   9.194  -0.091  0.4662 -0.0057  0.2870
    4CHTO  H192 1384   7.560   9.256  -0.172 -0.0431 -0.1603  0.4132
    4CHTO   O65 1385   7.694   9.271  -0.022 -0.8374  0.3290 -0.6235
    4CHTO  C100 1386   7.746   9.218   0.097 -0.4634  0.1081 -0.6693
    4CHTO  H187 1387   7.840   9.271   0.118  1.4782 -2.9943 -1.0986
    4CHTO  C107 1388   7.671   9.243   0.228  1.0198 -0.0871  0.7126
    4CHTO   O70 1389   7.693   9.386   0.263  0.2987 -0.2415 -0.0481
    4CHTO  H170 1390   7.607   9.419   0.248  0.4382  1.2042  2.1187
    4CHTO   O57 1391   7.475   9.160   0.005 -0.2312  0.1492 -0.0873
    4CHTO   C85 1392   7.342   9.188  -0.037 -0.2554  0.0896 -0.2465
    4CHTO  H157 1393   7.342   9.190  -0.148 -1.0887 -1.9031 -0.3057
    4CHTO   C83 1394   7.299   9.333   0.018  0.1180 -0.6277 -0.0124
    4CHTO  H155 1395   7.348   9.406  -0.045 -0.7965  0.0736  0.0885
    4CHTO   O56 1396   7.355   9.357   0.149  0.3437  0.7499  0.2364
    4CHTO  H135 1397   7.291   9.362   0.217 -1.1863 -2.1524 -0.9335
    4CHTO   C81 1398   7.152   9.359   0.002  0.3063 -0.3627 -0.2133
    4CHTO  H153 1399   7.133   9.351  -0.105  0.8877 -2.0873 -0.2015
    4CHTO   N14 1400   7.101   9.491   0.042 -0.2674 -0.1763  0.0188
    4CHTO  H141 1401   7.178   9.532   0.104  1.0051  0.5646 -2.0400
    4CHTO  H142 1402   7.090   9.556  -0.042 -0.6762 -0.9715 -0.5398
    4CHTO   C79 1403   7.070   9.241   0.071 -0.2657  0.6990 -0.5392
    4CHTO  H151 1404   6.967   9.247   0.036 -0.9030 -0.8290  0.9720
    4CHTO   O52 1405   7.101   9.111   0.005 -0.6744 -0.2186  0.6076
    4CHTO   C86 1406   7.243   9.076   0.018 -0.1924 -0.8667 -0.1934
    4CHTO  H158 1407   7.275   9.059   0.123  0.2520 -1.2181 -0.3856
    4CHTO   C90 1408   7.271   8.945  -0.058  0.2959 -0.4800 -0.1042
    4CHTO   O60 1409   7.209   8.837   0.008 -0.3052  0.3159 -0.5076
    4CHTO  H138 1410   7.116   8.846   0.012 -0.1450  1.7751  0.4888
    4CHTO   O50 1411   7.080   9.234   0.218  0.5402  0.2942 -0.3296
    4CHTO   C73 1412   6.992   9.194   0.327 -0.4080 -0.1262  0.0877
    4CHTO  H145 1413   6.892   9.235   0.307  0.4288  0.6109 -2.6863
    4CHTO   C74 1414   7.056   9.249   0.460  1.2228  0.1469  0.1484
    4CHTO  H146 1415   7.072   9.358   0.446 -1.5661  0.3819 -1.6088
    4CHTO   O54 1416   6.958   9.223   0.558  0.3938 -0.0080  0.1308
    4CHTO  H133 1417   6.879   9.273   0.544  1.5865  1.4779 -1.5945
    4CHTO   C75 1418   7.191   9.170   0.481  0.1171 -0.5565  0.2002
    4CHTO  H147 1419   7.255   9.182   0.392 -1.1011 -2.8033 -1.0247
    4CHTO   N13 1420   7.268   9.221   0.596 -0.0804  0.1880 -0.4689
    4CHTO  H139 1421   7.209   9.271   0.671  0.0900 -0.1307 -0.1228
    4CHTO  H140 1422   7.340   9.292   0.557 -2.2982  2.4762 -0.5001
    4CHTO   C76 1423   7.167   9.023   0.490  0.1455 -0.1995  0.2739
    4CHTO  H148 1424   7.094   9.008   0.570 -0.5156 -0.2685 -0.3415
    4CHTO   O49 1425   7.112   8.977   0.362 -0.0920  0.4808  0.4518
    4CHTO   C77 1426   6.983   9.036   0.346  0.1129  0.0326  0.1193
    4CHTO  H149 1427   6.913   9.014   0.427  0.0762  0.1699  0.1252
    4CHTO   C88 1428   6.916   8.971   0.225  1.0910  0.3324 -0.1048
    4CHTO   O58 1429   6.800   9.048   0.172  0.0822 -1.1718  0.5122
    4CHTO  H136 1430   6.731   9.039   0.235  0.4569 -4.6961  0.5058
    4CHTO   O51 1431   7.299   8.927   0.502  0.0008  0.4027  0.4019
    4CHTO   C78 1432   7.306   8.783   0.421 -0.6073  0.1807 -0.4878
    4CHTO  H150 1433   7.278   8.793   0.314  2.4395 -1.9778 -1.5699
    4CHTO   C80 1434   7.217   8.676   0.491  0.7986  0.1715 -0.0540
    4CHTO  H152 1435   7.264   8.647   0.587  0.2826 -1.7199 -0.3438
    4CHTO   O55 1436   7.085   8.725   0.501  0.3851 -0.0713  0.1467
    4CHTO  H134 1437   7.076   8.770   0.583 -2.2685  0.0794 -0.1780
    4CHTO   C84 1438   7.224   8.553   0.393  0.3986  0.5308  0.4185
    4CHTO  H156 1439   7.183   8.584   0.296  0.5695 -0.6893 -0.0588
    4CHTO   N15 1440   7.146   8.430   0.432 -0.2194 -0.3999  0.4461
    4CHTO  H143 1441   7.044   8.461   0.436 -0.4323 -1.1490  0.7164
    4CHTO  H144 1442   7.169   8.387   0.527 -1.2419  0.8808  1.2975
    4CHTO   C87 1443   7.372   8.512   0.384  0.1116  0.3815  0.3484
    4CHTO  H159 1444   7.401   8.469   0.480  1.6001  1.7309  0.5189
    4CHTO   O53 1445   7.476   8.630   0.338 -0.0274  0.3033 -0.2645
    4CHTO   C82 1446   7.453   8.750   0.411 -0.4102  0.4610  0.2091
    4CHTO  H154 1447   7.499   8.751   0.510 -0.8473  1.1501  0.4060
    4CHTO   C89 1448   7.524   8.867   0.333  0.4581 -0.3899  0.4207
    4CHTO   O59 1449   7.485   8.875   0.192  0.8994 -0.1084 -0.3066
    4CHTO  H137 1450   7.444   8.956   0.168  0.4430 -0.7784 -1.8950
    4CHTO   O45 1451   7.385   8.404   0.255 -0.1856  0.2203 -0.1357
    4CHTO   C67 1452   7.504   8.332   0.255  0.0219  0.8151  0.6905
    4CHTO  H124 1453   7.587   8.394   0.288 -0.5033  2.0066 -0.1611
    4CHTO   C65 1454   7.485   8.212   0.348 -0.1192  0.4453 -0.6560
    4CHTO  H122 1455   7.444   8.244   0.444  0.4521  2.0367 -0.9170
    4CHTO   O44 1456   7.620   8.155   0.376 -0.3080 -0.2574  0.2806
    4CHTO  H102 1457   7.617   8.111   0.459 -2.0212  2.9747  2.0517
    4CHTO   C63 1458   7.376   8.112   0.289 -0.2601 -0.1133  1.0397
    4CHTO  H120 1459   7.281   8.164   0.290  0.0771  0.5228  0.2672
    4CHTO   N11 1460   7.345   7.996   0.387  0.0358 -0.2953 -0.2348
    4CHTO  H108 1461   7.267   7.932   0.350 -2.2008  0.9574  2.1604
    4CHTO  H109 1462   7.435   7.939   0.399  0.1947  0.2610  1.3695
    4CHTO   C61 1463   7.399   8.075   0.139 -0.4195  0.1832  0.0729
    4CHTO  H118 1464   7.302   8.032   0.108 -0.7040  1.0791 -0.2897
    4CHTO   O40 1465   7.425   8.196   0.062  0.5950  0.3854 -0.1356
    4CHTO   C68 1466   7.531   8.292   0.104  0.5887 -0.5439 -0.5076
    4CHTO  H125 1467   7.522   8.383   0.040 -0.7413  0.0902  0.5674
    4CHTO   C72 1468   7.676   8.236   0.078  0.4023  0.1111  0.9357
    4CHTO   O48 1469   7.698   8.232  -0.065 -0.1105  0.1888  0.0064
    4CHTO  H105 1470   7.671   8.149  -0.100  1.7691 -1.0857  1.5438
    4CHTO   O38 1471   7.498   7.974   0.114  0.6818 -0.6674 -0.2354
    4CHTO   C55 1472   7.473   7.827   0.128 -0.6948 -0.4734  0.6533
    4CHTO  H112 1473   7.380   7.822   0.185  0.6933 -2.3387  2.8371
    4CHTO   C56 1474   7.594   7.752   0.208 -0.2191 -0.0508 -0.6817
    4CHTO  H113 1475   7.690   7.767   0.158 -1.0077 -1.9218 -2.8030
    4CHTO   O42 1476   7.606   7.799   0.342 -0.6938 -0.4494 -0.0032
    4CHTO  H100 1477   7.613   7.892   0.333 -1.6583 -0.3902 -0.2411
    4CHTO   C57 1478   7.563   7.598   0.209 -0.1242 -0.8940 -0.2359
    4CHTO  H114 1479   7.487   7.578   0.284 -1.5585 -1.7496 -1.8983
    4CHTO   N10 1480   7.682   7.529   0.265  0.0920 -0.4525 -0.4471
    4CHTO  H106 1481   7.668   7.455   0.342 -1.5387  0.1753 -0.1317
    4CHTO  H107 1482   7.749   7.492   0.188 -0.3412 -2.5907  0.1594
    4CHTO   C58 1483   7.522   7.549   0.069  0.2214 -0.0019  0.2274
    4CHTO  H115 1484   7.613   7.548   0.005  0.4511 -2.3447  0.5750
    4CHTO   O37 1485   7.414   7.624   0.010 -1.0587 -0.4903 -0.3495
    4CHTO   C59 1486   7.452   7.763  -0.013 -0.0820  0.3539  0.1039
    4CHTO  H116 1487   7.544   7.768  -0.072  0.0808  0.4357  0.3641
    4CHTO   C70 1488   7.348   7.834  -0.101  0.0262  0.1534  0.3548
    4CHTO   O46 1489   7.395   7.964  -0.147 -0.3691  0.1267 -0.4079
    4CHTO  H103 1490   7.352   8.027  -0.093 -0.9231 -0.5599 -0.0475
    4CHTO   O39 1491   7.468   7.389   0.069 -0.2755 -0.5858 -0.4669
    4CHTO   C60 1492   7.375   7.351  -0.027 -1.1717 -1.1211 -0.2091
    4CHTO  H117 1493   7.280   7.403  -0.015  0.4619  1.4865  1.7994
    4CHTO   C62 1494   7.419   7.387  -0.169  0.1662  0.3086 -0.1055
    4CHTO  H119 1495   7.429   7.496  -0.183 -0.9519  0.5001  0.5014
    4CHTO   O43 1496   7.542   7.329  -0.189 -0.2052 -0.2112  0.4856
    4CHTO  H101 1497   7.583   7.364  -0.266 -0.6776 -0.4485  0.1183
    4CHTO   C66 1498   7.305   7.339  -0.280 -0.0773  0.5667  0.1638
    4CHTO  H123 1499   7.214   7.394  -0.259 -0.2036 -0.3432  2.1174
    4CHTO   N12 1500   7.336   7.368  -0.421 -0.3801 -0.5331 -1.0490
    4CHTO  H110 1501   7.346   7.473  -0.443  0.5021 -0.1260  1.1591
    4CHTO  H111 1502   7.419   7.313  -0.465  1.4826  0.8318  0.6487
    4CHTO   C69 1503   7.264   7.191  -0.249  0.1096  0.6075  1.1106
    4CHTO  H126 1504   7.349   7.125  -0.274 -0.8270 -0.1698 -0.0426
    4CHTO   O41 1505   7.228   7.174  -0.119 -0.0189  0.1481  0.3387
    4CHTO   C64 1506   7.345   7.195  -0.016  0.2285 -0.3450 -0.1425
    4CHTO  H121 1507   7.428   7.125  -0.038  1.0374 -0.2816  2.5052
    4CHTO   C71 1508   7.288   7.165   0.132 -0.2245  0.2356 -0.2635
    4CHTO   O47 1509   7.220   7.033   0.141 -0.8028 -0.5398  0.3759
    4CHTO  H104 1510   7.169   7.020   0.219  0.4750  0.6341  1.4203
    4CHTO   O34 1511   7.140   7.145  -0.350 -1.1150  0.3409  0.3056
    4CHTO   C49 1512   7.150   6.998  -0.404 -1.3275  0.6299  0.8789
    4CHTO   H91 1513   7.255   6.975  -0.425 -1.8181 -2.2452  1.3900
    4CHTO   C47 1514   7.067   6.990  -0.530 -0.4119  0.0933 -0.3446
    4CHTO   H89 1515   7.102   6.898  -0.581  1.6540 -0.5312  2.0716
    4CHTO   O33 1516   7.106   7.104  -0.614 -0.0735  0.4943  0.2549
    4CHTO   H70 1517   7.171   7.074  -0.675 -0.0214  0.9625  0.0772
    4CHTO   C45 1518   6.910   6.985  -0.513 -0.6933 -0.2427 -0.2662
    4CHTO   H87 1519   6.879   7.086  -0.481 -0.5752 -0.3587  0.2272
    4CHTO    N8 1520   6.834   6.951  -0.637  0.0356 -0.2074 -0.0049
    4CHTO   H75 1521   6.852   7.007  -0.727 -0.5891 -2.9161 -1.8853
    4CHTO   H76 1522   6.730   6.956  -0.608  0.2994  1.3111  0.7031
    4CHTO   C43 1523   6.869   6.891  -0.387  0.1977  0.0845 -0.4296
    4CHTO   H85 1524   6.766   6.918  -0.361 -0.7802 -1.4503 -2.5794
    4CHTO   O29 1525   6.959   6.904  -0.275  0.0929  0.6454  0.0261
    4CHTO   C50 1526   7.102   6.894  -0.302  0.0278  0.0531  0.0527
    4CHTO   H92 1527   7.155   6.909  -0.207 -1.2278 -0.3110  0.8185
    4CHTO   C54 1528   7.147   6.748  -0.326  0.0446 -0.0399 -0.3725
    4CHTO   O36 1529   7.129   6.665  -0.211 -0.0827 -0.5463 -0.2086
    4CHTO   H72 1530   7.199   6.684  -0.151 -0.9899  0.4933  0.5398
    4CHTO   O27 1531   6.863   6.750  -0.431  0.0778 -0.4062 -0.5619
    4CHTO   C37 1532   6.810   6.620  -0.448  0.1937 -0.7743  0.3622
    4CHTO   H79 1533   6.776   6.603  -0.551  2.3033 -0.9715 -0.3292
    4CHTO   C38 1534   6.922   6.516  -0.424  0.5086 -0.2461  0.7804
    4CHTO   H80 1535   6.971   6.542  -0.329  2.2234 -0.3404 -0.0708
    4CHTO   O31 1536   7.006   6.523  -0.542  0.0399  0.1564  0.1647
    4CHTO   H68 1537   6.970   6.471  -0.610 -0.1279  1.2280 -0.5829
    4CHTO   C39 1538   6.864   6.369  -0.408 -0.0988  1.0250 -0.3764
    4CHTO   H81 1539   6.835   6.341  -0.510 -1.5884  4.0830 -0.8415
    4CHTO    N7 1540   6.971   6.269  -0.378  0.3421 -0.0581 -0.2117
    4CHTO   H73 1541   6.943   6.169  -0.406  1.8640 -0.7681  0.7259
    4CHTO   H74 1542   7.004   6.265  -0.275  0.0321 -2.2807 -0.1845
    4CHTO   C40 1543   6.743   6.357  -0.313  0.4815  0.1908 -0.2652
    4CHTO   H82 1544   6.771   6.372  -0.209  0.3124  1.5041 -0.4022
    4CHTO   O26 1545   6.645   6.457  -0.359 -0.2176  0.2550 -0.3710
    4CHTO   C41 1546   6.691   6.597  -0.351 -1.0168  0.0794  0.0187
    4CHTO   H83 1547   6.726   6.632  -0.252  0.5371 -2.4372  0.4123
    4CHTO   C52 1548   6.578   6.699  -0.399  0.0419 -0.5328 -0.0732
    4CHTO   O35 1549   6.471   6.703  -0.304  0.0313 -0.3024 -0.3001
    4CHTO   H71 1550   6.490   6.744  -0.222 -0.0461 -0.9126  0.0218
    4CHTO   O28 1551   6.678   6.228  -0.313 -0.6836 -0.1640 -0.1750
    4CHTO   C42 1552   6.585   6.185  -0.210  0.7847 -0.1922  0.8047
    4CHTO   H84 1553   6.538   6.092  -0.242 -0.5128 -0.0571  2.2952
    4CHTO   C44 1554   6.457   6.274  -0.188  0.0279 -0.1335  0.7339
    4CHTO   H86 1555   6.485   6.370  -0.144  2.8944  0.0795 -1.3235
    4CHTO   O32 1556   6.408   6.297  -0.320 -0.8034 -0.0067 -0.0811
    4CHTO   H69 1557   6.340   6.361  -0.329 -0.6528  0.3692  1.3870
    4CHTO   C48 1558   6.358   6.201  -0.086 -0.6475  0.0822 -0.6369
    4CHTO   H90 1559   6.338   6.105  -0.134 -1.3704 -1.1553  2.0684
    4CHTO    N9 1560   6.233   6.271  -0.067 -0.1993 -0.0147  0.6093
    4CHTO   H77 1561   6.181   6.281  -0.161  1.1724  0.4144 -0.1187
    4CHTO   H78 1562   6.265   6.368  -0.031 -0.2855  0.5069 -0.6782
    4CHTO   C51 1563   6.437   6.187   0.049  0.7188  0.0501  0.0619
    4CHTO   H93 1564   6.470   6.285   0.082 -1.9873  1.5331 -1.5271
    4CHTO   O30 1565   6.540   6.091   0.023  0.2492  0.4013 -0.1644
    4CHTO   C46 1566   6.650   6.151  -0.073 -0.0224 -0.0452 -0.4434
    4CHTO   H88 1567   6.696   6.241  -0.035 -1.6888  0.2536  0.9153
    4CHTO   C53 1568   6.757   6.044  -0.090 -0.2718  0.0704  0.5617
    4CHTO   O72 1569   6.886   6.097  -0.106  0.1264  0.0432  0.8434
    4CHTO  H199 1570   6.909   6.139  -0.025  0.8096 -0.1350  0.7510
    4CHTO   O22 1571   6.360   6.121   0.145 -0.2448 -0.5156  0.4717
    4CHTO   C31 1572   6.395   6.128   0.290 -0.0477 -0.2161  0.3831
    4CHTO   H59 1573   6.502   6.100   0.296 -0.4417 -1.8703  0.1103
    4CHTO   C29 1574   6.373   6.263   0.355 -0.5276 -0.0874  0.8397
    4CHTO   H57 1575   6.268   6.292   0.337 -0.3398 -1.2444 -2.5718
    4CHTO   O21 1576   6.455   6.356   0.287  0.4875  0.3650 -0.3806
    4CHTO   H37 1577   6.409   6.392   0.214 -3.9983 -1.1535  1.5192
    4CHTO   C27 1578   6.406   6.266   0.509 -0.3695  0.7952  0.6022
    4CHTO   H55 1579   6.508   6.228   0.525 -0.7124 -1.2521 -1.8814
    4CHTO    N5 1580   6.379   6.399   0.576  0.4662 -0.1949  0.1060
    4CHTO   H43 1581   6.409   6.409   0.680  0.8903  0.1857 -0.0564
    4CHTO   H44 1582   6.433   6.477   0.524 -0.0874  0.4862  0.5440
    4CHTO   C25 1583   6.309   6.149   0.559 -0.2279 -0.0098  0.0978
    4CHTO   H53 1584   6.207   6.173   0.525 -0.1548 -2.0263 -1.6654
    4CHTO   O17 1585   6.350   6.017   0.506  0.6491 -0.6061 -0.1630
    4CHTO   C32 1586   6.319   6.014   0.367  0.0120 -0.1036  0.1783
    4CHTO   H60 1587   6.213   6.020   0.342  0.4155 -2.0312 -2.1913
    4CHTO   C36 1588   6.371   5.875   0.316 -0.1934 -0.0021 -0.8550
    4CHTO   O25 1589   6.279   5.767   0.350 -0.1602  0.0765 -0.1570
    4CHTO   H40 1590   6.193   5.784   0.316 -0.1389 -2.2610 -1.5668
    4CHTO   O15 1591   6.311   6.133   0.725 -0.6206  0.2115 -0.1545
    4CHTO   C19 1592   6.394   6.145   0.846 -0.4964 -0.5389 -0.5952
    4CHTO   H47 1593   6.336   6.079   0.912  1.6413 -1.3624  0.5136
    4CHTO   C20 1594   6.543   6.096   0.831 -0.3306  0.7320  0.2413
    4CHTO   H48 1595   6.592   6.157   0.753  1.0720 -0.8585 -0.1533
    4CHTO   O19 1596   6.561   5.952   0.799  0.2072  0.0953  0.5230
    4CHTO   H35 1597   6.558   5.933   0.707  2.1783 -0.3893  0.5373
    4CHTO   C21 1598   6.625   6.130   0.962  1.0668 -0.0193 -0.8017
    4CHTO   H49 1599   6.573   6.072   1.038 -0.8078  1.0507 -1.2413
    4CHTO    N4 1600   6.768   6.094   0.957  0.5740  0.5093  0.2939
    4CHTO   H41 1601   6.790   6.052   0.860 -0.7555 -0.6107  0.4461
    4CHTO   H42 1602   6.837   6.173   0.979  0.0708  0.6531  1.3682
    4CHTO   C22 1603   6.606   6.279   1.006 -0.4804  0.2947  0.1988
    4CHTO   H50 1604   6.642   6.343   0.926  2.8618  0.8186  2.0232
    4CHTO   O14 1605   6.468   6.302   1.036  0.6046  0.3042  0.2712
    4CHTO   C23 1606   6.386   6.287   0.915 -0.4484  0.0669 -0.5337
    4CHTO   H51 1607   6.425   6.365   0.848  0.4638  0.1758  0.1087
    4CHTO   C34 1608   6.246   6.325   0.958  0.4517  0.1243  0.5452
    4CHTO   O23 1609   6.237   6.453   1.025 -0.2659  0.2817  0.3710
    4CHTO   H38 1610   6.291   6.518   0.984  0.3716 -1.8750 -2.3744
    4CHTO   O16 1611   6.683   6.315   1.122 -0.0737 -0.3667 -0.0269
    4CHTO   C24 1612   6.741   6.463   1.124  0.3193 -0.3308  0.6088
    4CHTO   H52 1613   6.691   6.529   1.052  0.6389 -1.0372 -0.2725
    4CHTO   C26 1614   6.888   6.467   1.086 -0.2809 -0.6251  0.3020
    4CHTO   H54 1615   6.941   6.402   1.159 -1.0796  0.1741  1.6284
    4CHTO   O20 1616   6.905   6.420   0.950  0.8731 -0.1076 -0.4387
    4CHTO   H36 1617   6.999   6.425   0.940  1.2145  0.3070  2.5715
    4CHTO   C30 1618   6.942   6.614   1.106 -0.0914  0.4184 -1.0085
    4CHTO   H58 1619   6.885   6.688   1.048 -0.2097  2.2948  1.4372
    4CHTO    N6 1620   7.082   6.629   1.068  0.1601  0.4417  0.2730
    4CHTO   H45 1621   7.122   6.539   1.112 -0.5066 -0.3392 -0.6875
    4CHTO   H46 1622   7.091   6.623   0.960  0.3016  0.6713  0.2718
    4CHTO   C33 1623   6.920   6.661   1.252  0.7132  0.1821 -0.1551
    4CHTO   H61 1624   6.967   6.587   1.319 -1.9689 -3.6408 -2.2553
    4CHTO   O18 1625   6.774   6.654   1.276 -0.1361  0.3103  0.2568
    4CHTO   C28 1626   6.718   6.516   1.260  0.0384  0.3854  0.5022
    4CHTO   H56 1627   6.759   6.452   1.338  1.3470  1.5594  0.7843
    4CHTO   C35 1628   6.574   6.532   1.293  0.9818  0.0071  0.2889
    4CHTO   O24 1629   6.544   6.559   1.436 -0.0647  0.2080  0.3903
    4CHTO   H39 1630   6.508   6.481   1.474 -0.2127  1.2389  2.4593
    4CHTO    O9 1631   6.973   6.792   1.281  0.0909 -0.6722  0.0501
    4CHTO   C13 1632   7.013   6.809   1.438  0.3634  0.3053 -0.1451
    4CHTO   H26 1633   7.056   6.713   1.472  2.2183  0.9178 -0.6936
    4CHTO   C11 1634   6.886   6.857   1.520  0.2589 -0.3944  0.2075
    4CHTO   H24 1635   6.808   6.779   1.523 -0.7165  0.5926  2.0053
    4CHTO    O8 1636   6.828   6.967   1.454  0.0055  0.0543 -0.1897
    4CHTO    H3 1637   6.819   6.937   1.366  0.3258 -1.3431  0.2348
    4CHTO    C9 1638   6.938   6.889   1.666 -0.1758  0.0400 -0.6478
    4CHTO   H22 1639   6.986   6.797   1.703  2.8651 -0.0304 -4.4251
    4CHTO    N2 1640   6.829   6.909   1.758 -0.1785 -0.4824  0.1465
    4CHTO   H10 1641   6.805   7.014   1.769  1.2035 -0.1382 -0.0214
    4CHTO   H11 1642   6.744   6.848   1.733 -0.4259  0.2331 -0.7840
    4CHTO    C7 1643   7.043   7.015   1.663 -0.0371 -0.5642 -0.0655
    4CHTO   H20 1644   7.122   6.985   1.735 -0.1583 -0.5060  0.0906
    4CHTO    O4 1645   7.089   7.036   1.525  0.6385  0.2565  0.3310
    4CHTO   C14 1646   7.130   6.911   1.459 -0.2035 -0.1577 -0.0164
    4CHTO   H27 1647   7.204   6.870   1.530 -0.2736 -0.7672 -0.2904
    4CHTO   C18 1648   7.206   6.947   1.330  0.5631 -0.0410  0.2279
    4CHTO   O13 1649   7.335   7.007   1.358 -0.2843  0.2638  0.1745
    4CHTO    H7 1650   7.326   7.077   1.419 -0.0039  1.8432 -1.5599
    4CHTO    O2 1651   6.982   7.152   1.715 -0.0763 -0.4040 -0.9870
    4CHTO    C1 1652   7.069   7.269   1.718 -0.4370  0.1112  0.3135
    4CHTO   H14 1653   7.151   7.258   1.645 -1.1567 -0.8910 -0.3597
    4CHTO    C2 1654   7.121   7.316   1.863  0.1971  0.7592  0.0179
    4CHTO   H15 1655   7.026   7.323   1.917 -0.2896  1.2454 -0.8792
    4CHTO    O6 1656   7.200   7.205   1.912  0.1563 -0.5472 -0.0336
    4CHTO    H1 1657   7.143   7.145   1.957  1.3831 -1.6843  0.0735
    4CHTO    C3 1658   7.207   7.449   1.858 -0.3671 -0.3293  0.2098
    4CHTO   H16 1659   7.304   7.425   1.813 -0.1661 -1.8926  1.3939
    4CHTO    N1 1660   7.224   7.505   1.994 -0.3926 -0.1922  0.0887
    4CHTO    H8 1661   7.130   7.557   2.005  0.2932  0.6666  2.0170
    4CHTO    H9 1662   7.237   7.435   2.075  0.4761 -2.3710 -1.8601
    4CHTO    C4 1663   7.129   7.547   1.766 -1.1914 -0.4495  0.7619
    4CHTO   H17 1664   7.042   7.581   1.822 -1.2499  0.0128  0.3963
    4CHTO    O1 1665   7.097   7.484   1.642  0.4117  0.1506  0.5076
    4CHTO    C5 1666   6.995   7.387   1.657 -0.1421 -0.0220 -0.9961
    4CHTO   H18 1667   6.923   7.420   1.731  2.3820  1.3094  0.9687
    4CHTO   C16 1668   6.922   7.365   1.531 -0.2627  0.0928  0.4971
    4CHTO   O11 1669   7.016   7.331   1.429  0.1955  0.1273  0.1738
    4CHTO    H5 1670   7.023   7.410   1.379  0.1943 -0.0512 -0.1123
    4CHTO    O3 1671   7.205   7.658   1.713  0.0784 -0.0356 -0.1288
    4CHTO    C6 1672   7.144   7.778   1.650 -0.1492 -0.2613  0.3315
    4CHTO   H19 1673   7.039   7.765   1.623 -0.4650  2.5593  0.0719
    4CHTO    C8 1674   7.137   7.893   1.754 -0.6100 -0.3600 -0.5848
    4CHTO   H21 1675   7.237   7.901   1.798 -0.4091 -1.6039 -0.7677
    4CHTO    O7 1676   7.056   7.847   1.863  0.1028 -0.7617  0.0577
    4CHTO    H2 1677   7.119   7.819   1.927 -0.8091 -1.7829  0.5376
    4CHTO   C12 1678   7.105   8.035   1.695  0.6184 -0.0414 -0.0535
    4CHTO   H25 1679   6.997   8.030   1.668 -0.0258  0.0634  2.4269
    4CHTO    N3 1680   7.125   8.143   1.802  0.0464 -0.0783 -0.4600
    4CHTO   H12 1681   7.079   8.235   1.772  0.3955 -0.2580 -1.5735
    4CHTO   H13 1682   7.075   8.113   1.893 -0.0573 -0.0051 -0.4924
    4CHTO   C15 1683   7.180   8.052   1.561  0.0523 -0.4396  0.5722
    4CHTO   H28 1684   7.286   8.076   1.572  0.2468 -1.0780  0.0803
    4CHTO   O10 1685   7.129   8.175   1.480  0.5743 -0.0527 -0.1726
    4CHTO    H4 1686   7.193   8.243   1.464  2.1433 -1.2135  1.0121
    4CHTO    O5 1687   7.162   7.948   1.472  0.0173  0.0680 -0.4855
    4CHTO   C10 1688   7.223   7.824   1.521 -0.0795 -0.7427  0.4432
    4CHTO   H23 1689   7.323   7.838   1.563 -0.6933  0.9474  1.3837
    4CHTO   C17 1690   7.234   7.714   1.409  0.1698  1.0228  0.0473
    4CHTO   O12 1691   7.105   7.694   1.344  0.2249 -0.4795  0.7092
    4CHTO    H6 1692   7.035   7.681   1.405 -0.0191  0.1024  0.5560
    5CHTO  H203 1693   7.060   3.950   3.556 -0.9209 -0.9789 -1.2515
    5CHTO   O82 1694   7.054   3.899   3.634 -0.1733  0.1668 -0.4168
    5CHTO  C123 1695   7.085   3.992   3.741 -0.0235  0.0953  0.7143
    5CHTO  H227 1696   7.177   4.045   3.714 -0.7046 -0.0445 -2.0556
    5CHTO   O77 1697   6.977   4.088   3.733  0.2602 -0.6289 -0.5431
    5CHTO  C118 1698   6.974   4.177   3.842 -0.3188  0.0410 -0.3757
    5CHTO  H222 1699   7.066   4.236   3.857  0.1481 -1.2445  2.1628
    5CHTO  C125 1700   6.851   4.265   3.804  0.2271 -0.2588  0.5700
    5CHTO   O84 1701   6.889   4.382   3.733  0.2283 -0.1796 -0.1998
    5CHTO  H205 1702   6.934   4.377   3.651  0.2574 -2.6759 -0.0849
    5CHTO  C114 1703   6.945   4.106   3.974 -0.2977  0.2564  0.3652
    5CHTO  H218 1704   6.856   4.045   3.958  0.5849 -0.5078 -1.9455
    5CHTO  C116 1705   7.062   4.014   4.006 -0.0450  0.2775 -0.4451
    5CHTO  H220 1706   7.155   4.066   4.037 -0.8865  1.5964 -0.1324
    5CHTO   O79 1707   7.038   3.926   4.126  0.5290  0.0666  0.5681
    5CHTO  H201 1708   6.994   3.848   4.099  0.6715  0.2883 -0.3262
    5CHTO  C120 1709   7.088   3.923   3.879 -0.1749 -0.4889  0.6690
    5CHTO  H224 1710   7.009   3.847   3.868 -0.7272  0.0735  0.7107
    5CHTO   N21 1711   7.222   3.853   3.888  0.8311 -0.2616 -0.1113
    5CHTO  H211 1712   7.225   3.782   3.806 -0.5410 -0.5748  0.1026
    5CHTO  H212 1713   7.237   3.794   3.977 -1.0400 -3.4529 -1.7752
    5CHTO   O75 1714   6.924   4.214   4.069 -0.4987 -0.7406  0.1026
    5CHTO  C112 1715   6.755   4.245   4.122  0.1232  0.5919  0.2381
    5CHTO  H216 1716   6.698   4.152   4.104 -1.7253  1.8261 -0.4005
    5CHTO   O73 1717   6.690   4.354   4.052 -0.6357 -0.1713  0.1260
    5CHTO  C113 1718   6.559   4.370   4.095 -0.2570 -0.4621  0.0451
    5CHTO  H217 1719   6.508   4.271   4.103  0.1357 -0.6047  0.7440
    5CHTO  C124 1720   6.489   4.463   3.990 -0.2991 -0.6309 -0.1599
    5CHTO   O83 1721   6.349   4.484   3.998 -0.0403  0.0450 -0.3696
    5CHTO  H204 1722   6.305   4.401   4.001 -1.6306  0.9108  1.3432
    5CHTO  C109 1723   6.555   4.427   4.236 -0.3820  0.1535 -0.4320
    5CHTO  H213 1724   6.607   4.524   4.231  0.6728 -0.4174 -0.7739
    5CHTO  C110 1725   6.632   4.328   4.331 -0.3367  0.3611  0.2662
    5CHTO  H214 1726   6.563   4.245   4.349  0.5128 -0.0198  1.8621
    5CHTO   O78 1727   6.642   4.399   4.450 -0.1514  0.5185 -0.2255
    5CHTO  H200 1728   6.569   4.400   4.508  0.2682  0.4107  0.3048
    5CHTO  C111 1729   6.762   4.283   4.277  0.3310 -0.1881  0.7014
    5CHTO  H215 1730   6.833   4.367   4.279  0.0960  0.0360 -0.1222
    5CHTO   N19 1731   6.825   4.178   4.358 -0.0202 -0.5886  0.6835
    5CHTO  H207 1732   6.830   4.217   4.458  0.7070 -2.2147  1.2989
    5CHTO  H208 1733   6.922   4.157   4.315 -0.2106  1.0347 -0.5933
    5CHTO   O74 1734   6.419   4.447   4.282  0.2004  0.4436 -0.3277
    5CHTO  C115 1735   6.405   4.578   4.384 -0.1550  0.1256  0.5400
    5CHTO  H219 1736   6.470   4.571   4.471 -0.4882 -0.5343  0.7397
    5CHTO   O76 1737   6.448   4.712   4.318 -0.2527 -0.1184  0.2223
    5CHTO  C122 1738   6.356   4.776   4.223  0.2099  0.6258  0.0566
    5CHTO  H226 1739   6.367   4.710   4.137  2.8625 -0.8220  1.4226
    5CHTO  C126 1740   6.415   4.911   4.188 -0.1715 -0.1617  0.0878
    5CHTO   O85 1741   6.534   4.901   4.110 -0.3780  0.4127  0.3979
    5CHTO  H206 1742   6.528   4.950   4.030  1.1892  0.8038  0.4962
    5CHTO  C121 1743   6.205   4.787   4.263 -0.3466  0.9304  0.0603
    5CHTO  H225 1744   6.176   4.894   4.261  0.3517  1.1083 -1.4107
    5CHTO   O81 1745   6.126   4.703   4.179 -0.0636 -0.6000 -0.5961
    5CHTO  H202 1746   6.127   4.614   4.206  1.1323  0.1367  2.0178
    5CHTO  C119 1747   6.198   4.741   4.412  0.1247  0.1719 -0.3618
    5CHTO  H223 1748   6.274   4.804   4.460  0.6808  0.2711 -1.3675
    5CHTO  C117 1749   6.256   4.595   4.425  0.2207  0.3177 -0.4300
    5CHTO  H221 1750   6.203   4.523   4.362  0.6095 -0.3910  0.0415
    5CHTO   N20 1751   6.244   4.543   4.567  0.0057  0.1187 -0.1958
    5CHTO  H209 1752   6.310   4.458   4.575  0.1297  0.3982  2.0449
    5CHTO  H210 1753   6.139   4.523   4.584  0.6711 -1.3428  2.5786
    5CHTO   O80 1754   6.075   4.787   4.493  0.1606  0.7344  0.4555
    5CHTO  C103 1755   5.918   4.768   4.429 -0.1854 -0.2867  0.1271
    5CHTO  H190 1756   5.918   4.811   4.329 -0.4597  2.3410  1.2285
    5CHTO  C101 1757   5.860   4.621   4.417  0.2601  0.1010  0.1637
    5CHTO  H188 1758   5.888   4.567   4.508  1.2143 -0.2079 -0.3148
    5CHTO   O68 1759   5.937   4.558   4.302 -0.8827  0.3311 -0.4343
    5CHTO  H168 1760   6.005   4.503   4.337 -0.6068 -1.0839 -3.1050
    5CHTO   C99 1761   5.706   4.623   4.375 -0.1090  0.8344 -0.1717
    5CHTO  H186 1762   5.690   4.664   4.273 -1.5238 -1.1286 -0.7676
    5CHTO   N17 1763   5.660   4.483   4.365 -0.2008 -0.1775  0.1209
    5CHTO  H174 1764   5.739   4.408   4.369 -1.2551 -1.4431 -2.1981
    5CHTO  H175 1765   5.599   4.475   4.277  0.0669  2.5415 -0.3645
    5CHTO   C97 1766   5.627   4.720   4.473  0.8259 -0.7419 -0.0468
    5CHTO  H184 1767   5.637   4.678   4.574 -2.3764 -2.3645 -0.3399
    5CHTO   O64 1768   5.686   4.851   4.461 -0.1907  0.5690 -0.0154
    5CHTO  C104 1769   5.821   4.861   4.512 -1.0190 -0.1176 -0.3731
    5CHTO  H191 1770   5.827   4.833   4.618  0.3884  0.2195 -0.3423
    5CHTO  C108 1771   5.867   5.009   4.509 -0.1006 -0.1611  0.5747
    5CHTO   O71 1772   5.981   5.031   4.593  0.7381  1.1702 -0.5816
    5CHTO  H171 1773   5.962   5.018   4.684  2.0922 -1.7796 -0.6418
    5CHTO   O62 1774   5.483   4.733   4.453  0.5392  0.0527  0.3804
    5CHTO   C91 1775   5.419   4.800   4.343 -0.6208 -0.8346  0.1118
    5CHTO  H178 1776   5.485   4.886   4.333 -0.8659 -0.3165  2.5585
    5CHTO   C92 1777   5.281   4.855   4.402 -0.0166  0.9383 -0.4480
    5CHTO  H179 1778   5.297   4.883   4.507  1.0843 -1.4024  0.0609
    5CHTO   O66 1779   5.249   4.975   4.326  0.2346  0.6690 -0.2409
    5CHTO  H166 1780   5.221   4.946   4.242 -1.4450 -0.6215  0.7362
    5CHTO   C93 1781   5.158   4.751   4.385  0.5940  0.0126  0.5290
    5CHTO  H180 1782   5.074   4.793   4.326 -0.6856 -2.2293  0.6874
    5CHTO   N16 1783   5.107   4.716   4.517  0.8302  0.5451  0.1144
    5CHTO  H172 1784   5.002   4.694   4.508  0.7781  0.4280  0.9571
    5CHTO  H173 1785   5.129   4.769   4.609  0.2407  0.8221  0.1029
    5CHTO   C94 1786   5.208   4.626   4.312  0.2030 -0.1928  0.2671
    5CHTO  H181 1787   5.291   4.578   4.364 -0.1326 -1.7763 -0.6304
    5CHTO   O61 1788   5.267   4.677   4.188 -0.1475  0.3292  0.4416
    5CHTO   C95 1789   5.400   4.717   4.209  0.2773  0.1915  0.3072
    5CHTO  H182 1790   5.459   4.625   4.213 -1.1653 -0.7273  0.5646
    5CHTO  C106 1791   5.446   4.800   4.091  0.9605  0.0215 -0.3918
    5CHTO   O69 1792   5.588   4.803   4.083 -0.3309 -0.1766  0.2433
    5CHTO  H169 1793   5.628   4.842   4.159 -1.2049  1.5413 -0.1539
    5CHTO   O63 1794   5.088   4.527   4.284  0.2246  0.5086 -0.2768
    5CHTO   C96 1795   5.128   4.406   4.216 -0.3628 -0.4535  0.3237
    5CHTO  H183 1796   5.221   4.419   4.160 -0.0866 -1.5939  0.5023
    5CHTO   C98 1797   5.017   4.348   4.118 -0.4851 -0.2657 -0.1690
    5CHTO  H185 1798   4.959   4.432   4.077 -0.6309 -0.4883 -0.4313
    5CHTO   O67 1799   5.081   4.281   4.006 -0.0216  0.5186  0.2776
    5CHTO  H167 1800   5.175   4.280   4.013 -0.1019 -1.9234  1.3587
    5CHTO  C102 1801   4.918   4.243   4.194  0.2273  0.1224 -0.1224
    5CHTO  H189 1802   4.860   4.195   4.114  0.2394  0.8923 -0.6111
    5CHTO   N18 1803   4.819   4.315   4.281 -0.1113  0.4874 -0.5200
    5CHTO  H176 1804   4.789   4.409   4.237  0.8892  0.3489 -1.5437
    5CHTO  H177 1805   4.861   4.337   4.378 -1.7153 -0.5384  0.4229
    5CHTO  C105 1806   5.007   4.136   4.255 -0.2720  0.1573 -0.1384
    5CHTO  H192 1807   4.956   4.090   4.339  0.6239 -1.6383 -0.5573
    5CHTO   O65 1808   5.141   4.175   4.311  0.7846 -0.2629  0.2425
    5CHTO  C100 1809   5.180   4.310   4.332 -0.1343  0.0250  0.0811
    5CHTO  H187 1810   5.152   4.340   4.434  0.2648  0.3149  0.1074
    5CHTO  C107 1811   5.335   4.309   4.340 -0.4266  0.2680 -0.6911
    5CHTO   O70 1812   5.397   4.256   4.224 -0.0286 -0.3319 -0.5317
    5CHTO  H170 1813   5.437   4.323   4.172  1.0338 -0.2843  0.3580
    5CHTO   O57 1814   5.012   4.026   4.140 -0.1266  0.6457 -0.1308
    5CHTO   C85 1815   5.022   3.883   4.167  0.3546  0.0677 -0.2627
    5CHTO  H157 1816   4.973   3.859   4.263 -0.9325 -1.5904 -1.2998
    5CHTO   C83 1817   5.170   3.825   4.199 -0.1200  0.0050 -0.4330
    5CHTO  H155 1818   5.205   3.867   4.293  0.3731  1.0587 -1.0904
    5CHTO   O56 1819   5.263   3.873   4.103 -0.2769 -0.0448  0.0569
    5CHTO  H135 1820   5.240   3.837   4.020 -1.2612 -1.4050  0.8991
    5CHTO   C81 1821   5.173   3.669   4.219 -0.1040  0.0331  0.4092
    5CHTO  H153 1822   5.106   3.641   4.300  0.9448 -0.5807  1.0750
    5CHTO   N14 1823   5.304   3.606   4.266  0.2643  0.2305  0.0816
    5CHTO  H141 1824   5.359   3.561   4.186 -1.6030 -1.3227 -0.3403
    5CHTO  H142 1825   5.372   3.672   4.317 -0.5164  0.2822  1.0555
    5CHTO   C79 1826   5.118   3.608   4.080  0.3390  0.0671 -0.2156
    5CHTO  H151 1827   5.124   3.499   4.090 -2.0618 -0.2846 -2.1808
    5CHTO   O52 1828   4.974   3.652   4.075  0.1338  0.1908  0.3188
    5CHTO   C86 1829   4.963   3.794   4.052  0.1440 -0.7835 -0.1707
    5CHTO  H158 1830   5.016   3.815   3.957 -3.2276  2.1197 -1.5245
    5CHTO   C90 1831   4.820   3.836   4.021  0.0240 -0.2210 -0.1278
    5CHTO   O60 1832   4.768   3.763   3.906 -0.3082 -0.1597  0.1725
    5CHTO  H138 1833   4.690   3.717   3.930  0.5166 -1.6248  0.0878
    5CHTO   O50 1834   5.204   3.636   3.968 -0.2907  0.0292 -0.4816
    5CHTO   C73 1835   5.239   3.595   3.834  0.0891 -0.6047  0.6961
    5CHTO  H145 1836   5.154   3.592   3.765 -1.0627  0.1188  2.0615
    5CHTO   C74 1837   5.304   3.456   3.840 -0.0505  0.6372 -0.0867
    5CHTO  H146 1838   5.230   3.391   3.888  0.5903  0.0860  0.1648
    5CHTO   O54 1839   5.329   3.409   3.705 -0.1758 -0.4260  0.0621
    5CHTO  H133 1840   5.291   3.324   3.692  1.3076 -0.8481 -1.6736
    5CHTO   C75 1841   5.432   3.455   3.927  0.3427 -0.6046 -0.3211
    5CHTO  H147 1842   5.398   3.466   4.031 -0.7433 -0.1515 -0.7145
    5CHTO   N13 1843   5.501   3.325   3.933 -0.3032 -0.5551 -0.3186
    5CHTO  H139 1844   5.462   3.234   3.890  0.9296 -0.7923 -0.9448
    5CHTO  H140 1845   5.565   3.316   4.019 -1.0334  0.2520  0.3213
    5CHTO   C76 1846   5.531   3.580   3.897  0.0450 -0.0992  0.1658
    5CHTO  H148 1847   5.591   3.562   3.808 -1.4638 -0.1073 -0.8731
    5CHTO   O49 1848   5.455   3.708   3.878  0.1130 -0.0780 -0.1771
    5CHTO   C77 1849   5.343   3.705   3.784 -0.2420  0.3329 -1.1683
    5CHTO  H149 1850   5.385   3.671   3.689  2.0181  0.3634 -0.2109
    5CHTO   C88 1851   5.280   3.846   3.771  0.2348 -0.1469  0.4820
    5CHTO   O58 1852   5.164   3.854   3.699 -0.2945 -0.3865 -0.2307
    5CHTO  H136 1853   5.178   3.881   3.610  1.4016 -0.5142 -0.0284
    5CHTO   O51 1854   5.628   3.607   4.025  0.0821 -0.3888  0.3445
    5CHTO   C78 1855   5.736   3.742   3.989 -0.4269 -0.3127 -0.6087
    5CHTO  H150 1856   5.700   3.790   3.895 -0.8356  1.3889  0.3986
    5CHTO   C80 1857   5.877   3.682   3.983  0.6014 -0.4205 -0.0555
    5CHTO  H152 1858   5.893   3.625   4.077 -1.3544 -1.9475 -0.6206
    5CHTO   O55 1859   5.880   3.610   3.853 -0.3792 -0.0038  0.1829
    5CHTO  H134 1860   5.845   3.658   3.780  2.8163 -1.0511 -2.1674
    5CHTO   C84 1861   5.992   3.791   3.972 -0.2591 -0.6632  0.5230
    5CHTO  H156 1862   5.977   3.857   3.886  4.3123 -1.4205 -0.9947
    5CHTO   N15 1863   6.133   3.734   3.964  0.2718  0.3853  0.0981
    5CHTO  H143 1864   6.186   3.738   3.871  1.9810  1.8804  1.0869
    5CHTO  H144 1865   6.199   3.786   4.030 -0.4438  1.7734 -0.2583
    5CHTO   C87 1866   5.983   3.893   4.093  0.1813  0.6162 -0.4698
    5CHTO  H159 1867   5.995   3.845   4.190  0.0970 -1.1452 -1.3238
    5CHTO   O53 1868   5.844   3.949   4.083  0.1582 -0.1492  0.4973
    5CHTO   C82 1869   5.738   3.851   4.101 -0.0440 -0.4511 -0.1346
    5CHTO  H154 1870   5.746   3.798   4.197 -0.1575 -0.1728  0.0264
    5CHTO   C89 1871   5.590   3.909   4.090  0.7179 -0.1835  0.7768
    5CHTO   O59 1872   5.557   3.990   4.198 -0.4498  0.2012 -0.3243
    5CHTO  H137 1873   5.534   3.938   4.273  1.5579  0.5033  0.5200
    5CHTO   O45 1874   6.100   4.012   4.080 -0.0733 -0.1181 -0.1918
    5CHTO   C67 1875   6.142   4.063   4.206 -0.5346  0.6927 -0.6091
    5CHTO  H124 1876   6.056   4.060   4.272 -0.7824 -1.1125 -0.9771
    5CHTO   C65 1877   6.254   3.976   4.265  0.4577  0.1289  0.1491
    5CHTO  H122 1878   6.313   3.944   4.179 -1.5734 -1.1794 -0.7981
    5CHTO   O44 1879   6.187   3.859   4.316 -0.7031  0.4755  0.5293
    5CHTO  H102 1880   6.248   3.806   4.364 -0.8409 -1.7785 -1.7022
    5CHTO   C63 1881   6.352   4.059   4.355  0.2809 -0.2653  0.3747
    5CHTO  H120 1882   6.410   4.118   4.284  0.4788 -1.0481 -0.1179
    5CHTO   N11 1883   6.457   3.979   4.428 -0.3207 -0.1622  0.3914
    5CHTO  H108 1884   6.479   4.028   4.521  0.7805 -0.6495  0.3918
    5CHTO  H109 1885   6.428   3.876   4.437  1.7919 -1.0353 -1.9967
    5CHTO   C61 1886   6.274   4.168   4.427  0.6078  0.1907 -0.7343
    5CHTO  H118 1887   6.340   4.223   4.494  0.5292 -0.7232  0.1044
    5CHTO   O40 1888   6.217   4.265   4.328  0.2054  0.6881 -0.3570
    5CHTO   C68 1889   6.184   4.207   4.193 -0.0169  0.4380  0.1445
    5CHTO  H125 1890   6.277   4.203   4.133 -1.1891  1.7127 -1.8093
    5CHTO   C72 1891   6.085   4.307   4.123 -0.0541 -0.3215  0.4537
    5CHTO   O48 1892   6.045   4.268   3.987  0.2805  0.0642 -0.9667
    5CHTO  H105 1893   5.977   4.204   3.994  0.2861  0.0417 -1.1334
    5CHTO   O38 1894   6.163   4.110   4.507  0.6755 -0.2239  0.5990
    5CHTO   C55 1895   6.081   4.184   4.597  0.2663  0.2924  0.5967
    5CHTO  H112 1896   6.070   4.287   4.560  0.9794 -0.5483 -2.1002
    5CHTO   C56 1897   6.135   4.173   4.752  0.4912  0.0140  0.5957
    5CHTO  H113 1898   6.152   4.067   4.777  3.7709  0.1707 -0.7679
    5CHTO   O42 1899   6.266   4.224   4.748 -0.0804  0.1220 -0.3903
    5CHTO  H100 1900   6.256   4.316   4.765  0.9749 -0.2513  2.4724
    5CHTO   C57 1901   6.035   4.250   4.847  0.5078  0.6181 -0.3415
    5CHTO  H114 1902   6.028   4.357   4.831 -1.2514  0.3342 -1.6387
    5CHTO   N10 1903   6.088   4.248   4.990  0.1417 -0.1643  0.2335
    5CHTO  H106 1904   6.060   4.344   5.031  1.0321  0.3155 -0.2459
    5CHTO  H107 1905   6.037   4.172   5.047 -1.9019  1.8719  1.2394
    5CHTO   C58 1906   5.894   4.199   4.827 -0.2342  0.1359 -0.6079
    5CHTO  H115 1907   5.884   4.096   4.869  1.2973  1.2053  2.5543
    5CHTO   O37 1908   5.857   4.206   4.690  0.4291  0.5174 -0.3716
    5CHTO   C59 1909   5.935   4.128   4.599  0.2964 -0.0443 -0.1646
    5CHTO  H116 1910   5.941   4.021   4.621  1.4355  0.2629  1.0556
    5CHTO   C70 1911   5.884   4.118   4.456 -0.1315  0.1208 -0.1998
    5CHTO   O46 1912   5.873   4.242   4.384 -0.2505 -0.2574 -0.3053
    5CHTO  H103 1913   5.827   4.237   4.303 -0.1780 -1.1983 -0.2964
    5CHTO   O39 1914   5.792   4.291   4.900 -0.0111 -0.0513  0.2299
    5CHTO   C60 1915   5.659   4.233   4.933  0.4973 -0.3053  0.2875
    5CHTO  H117 1916   5.656   4.142   4.873 -0.0209  0.5590 -1.0151
    5CHTO   C62 1917   5.646   4.188   5.083 -0.7484 -0.2549  0.1800
    5CHTO  H119 1918   5.722   4.107   5.091  2.4842  2.5984 -0.5133
    5CHTO   O43 1919   5.663   4.305   5.159  0.6178  0.3765 -0.3538
    5CHTO  H101 1920   5.744   4.348   5.140  0.1956  1.3570  0.0656
    5CHTO   C66 1921   5.499   4.122   5.108 -0.4115  0.1192 -0.4805
    5CHTO  H123 1922   5.483   4.043   5.034 -0.0157  1.2551 -1.8073
    5CHTO   N12 1923   5.484   4.064   5.243 -0.0974  0.1182  0.9563
    5CHTO  H110 1924   5.491   3.956   5.242  0.3143  0.1500  0.5750
    5CHTO  H111 1925   5.390   4.099   5.283 -0.5767 -1.2393  1.0396
    5CHTO   C69 1926   5.388   4.223   5.068  0.1674  0.7611 -0.4140
    5CHTO  H126 1927   5.397   4.313   5.132  0.0087  1.4913 -1.4260
    5CHTO   O41 1928   5.408   4.261   4.914 -0.1620  0.2215 -0.1306
    5CHTO   C64 1929   5.544   4.329   4.884 -0.8601  0.1435  0.6018
    5CHTO  H121 1930   5.553   4.425   4.938  0.8170  1.0460 -1.2313
    5CHTO   C71 1931   5.542   4.364   4.736 -0.0098 -0.5227  0.1475
    5CHTO   O47 1932   5.436   4.455   4.719  0.0586  0.1088 -0.1528
    5CHTO  H104 1933   5.474   4.541   4.709 -0.9573  0.7484  1.2628
    5CHTO   O34 1934   5.256   4.171   5.084 -0.0013  0.1627  0.2888
    5CHTO   C49 1935   5.138   4.209   5.182 -0.2053 -0.0286  0.1025
    5CHTO   H91 1936   5.186   4.220   5.279 -0.4996  3.6284 -0.0934
    5CHTO   C47 1937   5.045   4.086   5.197 -0.2599 -0.6593 -0.0833
    5CHTO   H89 1938   4.990   4.115   5.289  1.2384 -2.1966  1.3314
    5CHTO   O33 1939   5.129   3.973   5.224  1.4022  0.0043  0.2965
    5CHTO   H70 1940   5.164   3.936   5.145 -1.1696 -3.8315  0.8338
    5CHTO   C45 1941   4.946   4.082   5.075  0.0051  0.2328 -0.3792
    5CHTO   H87 1942   5.012   4.089   4.987  0.5109 -1.0716 -0.1166
    5CHTO    N8 1943   4.875   3.952   5.063 -0.2238 -0.5719 -0.4119
    5CHTO   H75 1944   4.940   3.874   5.099  1.5716  1.3301  0.6645
    5CHTO   H76 1945   4.850   3.931   4.960  1.2368  0.7702 -1.0658
    5CHTO   C43 1946   4.866   4.211   5.055 -0.5207  0.4911 -0.4632
    5CHTO   H85 1947   4.807   4.207   4.963 -1.5509  2.5354  0.0788
    5CHTO   O29 1948   4.954   4.324   5.049  0.9441  0.4906  0.0072
    5CHTO   C50 1949   5.061   4.337   5.142  0.4195 -0.0835 -0.6453
    5CHTO   H92 1950   5.131   4.414   5.106  1.2293 -0.9105 -0.8512
    5CHTO   C54 1951   5.005   4.408   5.268  0.5041 -0.4824 -0.3906
    5CHTO   O36 1952   4.916   4.512   5.239 -0.0366  0.0098  0.5359
    5CHTO   H72 1953   4.839   4.500   5.289 -0.3872 -0.6698 -0.1570
    5CHTO   O27 1954   4.759   4.226   5.149  0.8507  0.2011  0.0233
    5CHTO   C37 1955   4.627   4.196   5.202  0.1488  0.5927  0.1767
    5CHTO   H79 1956   4.582   4.288   5.242  0.7891  0.6356  0.8013
    5CHTO   C38 1957   4.540   4.147   5.079 -0.4963 -0.2160  0.2064
    5CHTO   H80 1958   4.591   4.060   5.034  1.7243  2.1994 -2.0865
    5CHTO   O31 1959   4.536   4.248   4.977 -0.8550  0.2403 -0.1828
    5CHTO   H68 1960   4.621   4.290   4.978 -0.7741  0.1040 -1.4276
    5CHTO   C39 1961   4.396   4.107   5.130  0.3743  0.0337 -0.2682
    5CHTO   H81 1962   4.351   4.198   5.169 -1.0733 -1.3772  1.4668
    5CHTO    N7 1963   4.307   4.051   5.021 -0.3226  0.0093  0.5789
    5CHTO   H73 1964   4.317   3.943   5.013  2.7972  0.3060  0.0476
    5CHTO   H74 1965   4.319   4.092   4.922  2.5034 -0.7620  0.5687
    5CHTO   C40 1966   4.405   4.003   5.253  0.4090  0.3402  0.2025
    5CHTO   H82 1967   4.440   3.909   5.212 -0.4150  0.6316 -1.2040
    5CHTO   O26 1968   4.496   4.056   5.352  0.5172 -0.0752  0.2398
    5CHTO   C41 1969   4.625   4.098   5.311 -0.2861  0.6698 -0.1195
    5CHTO   H83 1970   4.681   4.012   5.272  0.6042  1.9114 -1.6463
    5CHTO   C52 1971   4.705   4.156   5.441 -0.1006 -0.0870  0.2845
    5CHTO   O35 1972   4.725   4.045   5.520 -0.5468 -0.0516 -0.4069
    5CHTO   H71 1973   4.813   4.016   5.507 -0.4302  0.4487 -0.7432
    5CHTO   O28 1974   4.279   3.977   5.318  0.1572  0.3672 -0.2163
    5CHTO   C42 1975   4.244   4.033   5.452  0.6366  0.0171 -0.4857
    5CHTO   H84 1976   4.138   4.008   5.460  0.4988  0.1871 -1.7643
    5CHTO   C44 1977   4.249   4.189   5.459 -0.4016  1.0302  0.0655
    5CHTO   H86 1978   4.346   4.227   5.430  0.0055  0.8112  1.1249
    5CHTO   O32 1979   4.166   4.241   5.358  0.1746 -0.4254 -0.1782
    5CHTO   H69 1980   4.152   4.333   5.367 -1.1594 -0.6385  0.0608
    5CHTO   C48 1981   4.219   4.241   5.604  0.0502  0.0786  0.1688
    5CHTO   H90 1982   4.130   4.193   5.643 -0.1438  0.9254  0.7833
    5CHTO    N9 1983   4.218   4.390   5.615  0.2254 -0.0658  0.9132
    5CHTO   H77 1984   4.228   4.407   5.721  0.3017  0.8843  0.7663
    5CHTO   H78 1985   4.122   4.429   5.585  0.7030  0.5882  0.2039
    5CHTO   C51 1986   4.328   4.177   5.705 -0.1088 -0.8913 -0.0707
    5CHTO   H93 1987   4.427   4.193   5.662  0.1286 -0.0866  0.7491
    5CHTO   O30 1988   4.293   4.041   5.706  0.0417  0.1802  0.1533
    5CHTO   C46 1989   4.322   3.971   5.578  0.7559  0.3430 -0.2631
    5CHTO   H88 1990   4.429   3.981   5.559  0.9117  1.6806  1.2084
    5CHTO   C53 1991   4.288   3.816   5.573 -0.2320 -0.0195  0.5012
    5CHTO   O72 1992   4.336   3.737   5.677  0.0278 -0.1303 -0.2589
    5CHTO  H199 1993   4.430   3.736   5.677  0.0318 -0.4333  0.4998
    5CHTO   O22 1994   4.334   4.218   5.846 -0.3514  0.0491  0.0297
    5CHTO   C31 1995   4.450   4.202   5.928  0.2640 -0.1181 -0.4970
    5CHTO   H59 1996   4.430   4.248   6.027  0.6367  0.5947 -0.7476
    5CHTO   C29 1997   4.489   4.056   5.956 -0.4111  0.3345  0.0789
    5CHTO   H57 1998   4.472   3.994   5.866 -1.2921 -0.7728  0.9811
    5CHTO   O21 1999   4.400   3.992   6.048 -0.5137  0.7465  0.1191
    5CHTO   H37 2000   4.363   4.063   6.097 -1.6245  0.0666  0.2993
    5CHTO   C27 2001   4.637   4.039   6.004 -0.5276  0.4035 -0.1014
    5CHTO   H55 2002   4.634   4.049   6.114 -0.8373 -0.2279 -0.0462
    5CHTO    N5 2003   4.683   3.897   5.972  0.2394  0.7463 -0.2299
    5CHTO   H43 2004   4.640   3.852   5.884 -1.1299 -1.3214  1.4256
    5CHTO   H44 2005   4.690   3.834   6.059 -0.9902 -1.3133 -1.5780
    5CHTO   C25 2006   4.732   4.136   5.930  0.9243 -0.2966  0.0523
    5CHTO   H53 2007   4.727   4.102   5.825 -2.9022  0.4289 -0.0783
    5CHTO   O17 2008   4.678   4.271   5.950 -0.5819  0.4140 -0.1418
    5CHTO   C32 2009   4.565   4.287   5.871  0.2227  0.3084  0.1203
    5CHTO   H60 2010   4.585   4.258   5.768 -1.0616  2.1756 -0.6753
    5CHTO   C36 2011   4.519   4.437   5.859 -0.3248  0.3689  0.8811
    5CHTO   O25 2012   4.615   4.517   5.780 -0.3977 -0.1355 -0.5052
    5CHTO   H40 2013   4.606   4.525   5.687  1.8450  2.4601 -0.5946
    5CHTO   O15 2014   4.882   4.130   5.984 -0.1453 -0.0502 -0.4633
    5CHTO   C19 2015   4.998   4.211   5.976 -0.9968 -0.3277 -0.9995
    5CHTO   H47 2016   4.953   4.311   5.965  0.2088  0.5731  1.8280
    5CHTO   C20 2017   5.104   4.187   6.094  0.0282 -0.2670  0.1545
    5CHTO   H48 2018   5.133   4.081   6.102 -2.4307 -1.0006 -0.0767
    5CHTO   O19 2019   5.038   4.223   6.214  0.0221  0.3175  0.6751
    5CHTO   H35 2020   4.975   4.157   6.235  1.2095 -0.7285  0.9707
    5CHTO   C21 2021   5.238   4.273   6.088  0.0466 -0.0227 -0.1278
    5CHTO   H49 2022   5.210   4.377   6.106 -3.1235 -0.7498 -0.5972
    5CHTO    N4 2023   5.337   4.238   6.192  0.5880 -0.2372 -0.3865
    5CHTO   H41 2024   5.360   4.133   6.194  2.3003  0.1000 -1.6193
    5CHTO   H42 2025   5.296   4.271   6.287  0.0335  1.3830 -1.1624
    5CHTO   C22 2026   5.295   4.262   5.946  0.4200 -0.5270  0.2198
    5CHTO   H50 2027   5.320   4.156   5.938  0.8480 -0.2500 -2.4050
    5CHTO   O14 2028   5.191   4.295   5.846 -0.4623  0.6175  0.4876
    5CHTO   C23 2029   5.085   4.195   5.845 -0.1178  0.5736 -0.1733
    5CHTO   H51 2030   5.134   4.096   5.838 -1.5970 -0.0755 -1.7171
    5CHTO   C34 2031   5.013   4.219   5.710 -0.8207  0.5229  0.5310
    5CHTO   O23 2032   5.109   4.212   5.601  0.5270 -0.1362 -0.2077
    5CHTO   H38 2033   5.172   4.147   5.626  1.2861  1.5301  2.4198
    5CHTO   O16 2034   5.410   4.341   5.917  0.1482 -0.7743  0.1305
    5CHTO   C24 2035   5.521   4.266   5.840 -0.1729 -0.2535  1.0758
    5CHTO   H52 2036   5.492   4.166   5.807  0.7369  0.2321 -1.3226
    5CHTO   C26 2037   5.644   4.264   5.931 -0.1886  0.2699  0.5708
    5CHTO   H54 2038   5.665   4.369   5.961  0.7778 -0.0847  1.1339
    5CHTO   O20 2039   5.614   4.182   6.051  0.2994 -0.5969  0.1651
    5CHTO   H36 2040   5.530   4.202   6.087  1.3094  1.2338  1.5586
    5CHTO   C30 2041   5.772   4.216   5.861 -0.2703  0.1131 -0.6962
    5CHTO   H58 2042   5.772   4.106   5.851  1.4422 -0.0535  0.7612
    5CHTO    N6 2043   5.896   4.231   5.945  0.0305 -0.1608 -0.2926
    5CHTO   H45 2044   5.879   4.298   6.028 -1.7999 -1.1060  0.1315
    5CHTO   H46 2045   5.930   4.135   5.981 -0.1249  0.7762  2.4370
    5CHTO   C33 2046   5.794   4.278   5.720 -0.9980  0.6772  0.2028
    5CHTO   H61 2047   5.818   4.384   5.736 -2.4908  1.2971 -1.4578
    5CHTO   O18 2048   5.668   4.274   5.650  0.2538 -0.7055  0.6422
    5CHTO   C28 2049   5.558   4.335   5.713 -0.1055 -1.0510  0.6435
    5CHTO   H56 2050   5.569   4.441   5.737 -1.6878 -0.3184 -1.7488
    5CHTO   C35 2051   5.437   4.331   5.615  0.9803 -0.4114  0.0134
    5CHTO   O24 2052   5.413   4.199   5.569 -0.3030  0.7095  0.0796
    5CHTO   H39 2053   5.491   4.167   5.528 -1.5772  0.8099 -2.5055
    5CHTO    O9 2054   5.902   4.228   5.640 -0.3529 -0.2138  0.7861
    5CHTO   C13 2055   5.892   4.079   5.548  0.1715 -0.3015  0.2329
    5CHTO   H26 2056   5.794   4.032   5.568  0.1240 -0.3819 -0.2030
    5CHTO   C11 2057   6.012   3.989   5.602  0.7393 -0.6733  0.0294
    5CHTO   H24 2058   5.991   3.968   5.708 -0.0141  2.7298  0.6032
    5CHTO    O8 2059   6.136   4.064   5.604 -0.0488 -0.4605  0.0592
    5CHTO    H3 2060   6.184   4.025   5.675  1.5770  2.3114  0.5308
    5CHTO    C9 2061   6.028   3.867   5.504 -0.1034 -0.0049 -0.0598
    5CHTO   H22 2062   5.927   3.824   5.501  0.8512 -2.3534  0.2884
    5CHTO    N2 2063   6.111   3.761   5.569  0.3006 -0.0594 -0.4107
    5CHTO   H10 2064   6.188   3.729   5.500 -0.0589  0.1918 -0.9323
    5CHTO   H11 2065   6.053   3.680   5.610  1.2817 -0.9617 -0.7912
    5CHTO    C7 2066   6.072   3.921   5.362 -0.0080 -1.2922  0.0686
    5CHTO   H20 2067   6.035   3.848   5.288  0.0128 -0.2156 -1.0352
    5CHTO    O4 2068   6.022   4.059   5.326  0.0227  0.2509  0.3078
    5CHTO   C14 2069   5.897   4.108   5.391  0.1587 -0.2991 -0.4583
    5CHTO   H27 2070   5.807   4.063   5.345  0.4233 -2.9291  1.4396
    5CHTO   C18 2071   5.901   4.260   5.349 -0.2710 -0.8739 -0.3807
    5CHTO   O13 2072   5.801   4.343   5.412 -0.3018 -0.1876 -0.2533
    5CHTO    H7 2073   5.839   4.387   5.486  0.8998 -0.4124 -0.7211
    5CHTO    O2 2074   6.239   3.916   5.344 -0.4764 -0.6575 -0.2110
    5CHTO    C1 2075   6.287   3.962   5.213 -0.2278  0.6697 -0.0167
    5CHTO   H14 2076   6.205   4.018   5.163  0.5331  2.7827  1.0394
    5CHTO    C2 2077   6.337   3.839   5.118  0.1159  0.0804 -0.1572
    5CHTO   H15 2078   6.412   3.786   5.178 -0.2943 -0.2782  0.0378
    5CHTO    O6 2079   6.227   3.754   5.085 -0.0620  0.4427  0.3447
    5CHTO    H1 2080   6.165   3.803   5.035 -0.5816 -0.7140 -0.1603
    5CHTO    C3 2081   6.410   3.903   4.988  0.3158 -0.0809  1.0366
    5CHTO   H16 2082   6.334   3.948   4.922  2.1183  1.1608 -0.2583
    5CHTO    N1 2083   6.476   3.798   4.904  0.3647 -0.0059  0.4558
    5CHTO    H8 2084   6.410   3.719   4.870  0.6466  0.2474 -0.7147
    5CHTO    H9 2085   6.571   3.769   4.945  0.3336  0.4880  0.8753
    5CHTO    C4 2086   6.508   4.020   5.030  0.5189 -0.5346 -0.4683
    5CHTO   H17 2087   6.593   3.976   5.082  0.6487  1.2010  0.8375
    5CHTO    O1 2088   6.447   4.116   5.115  0.1362  0.3414 -0.5890
    5CHTO    C5 2089   6.397   4.066   5.238 -0.4160  0.1279 -0.4973
    5CHTO   H18 2090   6.479   4.027   5.298 -1.0980 -1.4920 -0.5915
    5CHTO   C16 2091   6.340   4.196   5.310  1.1357  0.6017  0.1048
    5CHTO   O11 2092   6.436   4.264   5.378  0.4077  0.2966 -0.2732
    5CHTO    H5 2093   6.467   4.210   5.448 -0.8234  2.1038  1.7242
    5CHTO    O3 2094   6.548   4.108   4.922  0.3635  0.1155 -0.0189
    5CHTO    C6 2095   6.681   4.160   4.944  0.3311 -0.1370  0.0225
    5CHTO   H19 2096   6.697   4.179   5.051  1.7440  1.3340 -0.4231
    5CHTO    C8 2097   6.795   4.056   4.893  0.6593 -0.4652  0.2894
    5CHTO   H21 2098   6.773   4.024   4.790 -0.7078 -2.8035  1.2578
    5CHTO    O7 2099   6.799   3.952   4.983  0.1399 -0.3200  0.0164
    5CHTO    H2 2100   6.868   3.894   4.959  0.4287 -0.3836  0.9882
    5CHTO   C12 2101   6.934   4.130   4.890  0.2739  0.1243 -0.3393
    5CHTO   H25 2102   6.964   4.145   4.995  0.2420  1.9288 -0.5800
    5CHTO    N3 2103   7.050   4.049   4.835  0.0498 -0.8518  0.9252
    5CHTO   H12 2104   7.148   4.095   4.838 -1.2708  2.0637  1.6270
    5CHTO   H13 2105   7.025   4.018   4.735 -0.1718 -1.6747  1.2291
    5CHTO   C15 2106   6.923   4.270   4.815  0.2974 -0.2251  0.1318
    5CHTO   H28 2107   6.879   4.265   4.715  0.8375 -2.2615 -0.0181
    5CHTO   O10 2108   7.050   4.347   4.825  0.0975  0.2826  0.3251
    5CHTO    H4 2109   7.096   4.327   4.746 -1.0152  0.6026 -0.4122
    5CHTO    O5 2110   6.828   4.348   4.883 -0.9116 -0.4341  0.8963
    5CHTO   C10 2111   6.693   4.297   4.876 -0.1783  0.0413  0.2263
    5CHTO   H23 2112   6.647   4.293   4.777 -3.9870  0.1782  1.8822
    5CHTO   C17 2113   6.609   4.413   4.942 -0.1585 -0.4731  0.5014
    5CHTO   O12 2114   6.470   4.420   4.917  0.5780  0.2831 -0.2671
    5CHTO    H6 2115   6.430   4.427   5.002 -0.3891 -0.4852 -0.6547
    6CHTO  H203 2116   7.889   5.625   1.771 -1.1806 -0.5001 -0.3180
    6CHTO   O82 2117   7.911   5.680   1.698 -0.5819  0.0804  0.3006
    6CHTO  C123 2118   7.804   5.769   1.667 -0.3406 -0.7452  0.3182
    6CHTO  H227 2119   7.842   5.840   1.592  1.0875 -0.4049  1.3459
    6CHTO   O77 2120   7.706   5.682   1.605 -0.3214 -0.4266 -0.3028
    6CHTO  C118 2121   7.581   5.748   1.566  0.1652 -0.5103  0.0782
    6CHTO  H222 2122   7.612   5.827   1.496  0.1053 -0.2018  0.3990
    6CHTO  C125 2123   7.489   5.646   1.485 -0.5811  0.1866 -0.4976
    6CHTO   O84 2124   7.438   5.550   1.570  0.4851 -0.0954 -0.1606
    6CHTO  H205 2125   7.434   5.468   1.524  1.8421 -0.4641  0.3773
    6CHTO  C114 2126   7.504   5.805   1.687  0.3171 -0.3161  0.2947
    6CHTO  H218 2127   7.491   5.722   1.757  0.5450  0.3504  1.1400
    6CHTO  C116 2128   7.599   5.903   1.764  0.1151 -0.2778  0.4990
    6CHTO  H220 2129   7.613   5.996   1.705  2.4820 -1.1417 -0.3426
    6CHTO   O79 2130   7.528   5.949   1.885 -0.1254 -0.3238  0.3435
    6CHTO  H201 2131   7.505   5.884   1.948 -2.7873  0.4558  0.2389
    6CHTO  C120 2132   7.741   5.837   1.796 -0.2879 -0.1733 -0.4267
    6CHTO  H224 2133   7.728   5.760   1.875  1.0967 -0.3710 -0.3777
    6CHTO   N21 2134   7.836   5.938   1.855  0.7494 -0.2121 -0.9571
    6CHTO  H211 2135   7.941   5.926   1.834  1.1704  0.7108  0.5500
    6CHTO  H212 2136   7.806   6.036   1.820  0.4491 -0.3816 -1.1819
    6CHTO   O75 2137   7.383   5.853   1.635 -0.2421  0.3439 -0.6165
    6CHTO  C112 2138   7.258   5.827   1.728  0.7347  0.8309 -0.1942
    6CHTO  H216 2139   7.289   5.825   1.833  0.7159 -0.8647 -0.1936
    6CHTO   O73 2140   7.203   5.699   1.688 -0.0960  0.5981 -0.1874
    6CHTO  C113 2141   7.081   5.655   1.743  0.0670  0.3564  0.6526
    6CHTO  H217 2142   7.103   5.648   1.851  4.9225  1.0524 -0.1606
    6CHTO  C124 2143   7.050   5.510   1.691  0.0535  0.2843  0.4889
    6CHTO   O83 2144   7.145   5.417   1.743  0.1520 -0.4847 -0.4287
    6CHTO  H204 2145   7.234   5.435   1.717  0.7741  1.6432  2.7878
    6CHTO  C109 2146   6.960   5.753   1.712  0.1086  0.3283  0.4595
    6CHTO  H213 2147   6.953   5.749   1.602 -0.2886  1.3688  0.4412
    6CHTO  C110 2148   7.003   5.900   1.753 -0.2158 -0.1010  0.1793
    6CHTO  H214 2149   7.012   5.902   1.862 -0.6004 -0.7913  0.2250
    6CHTO   O78 2150   6.903   5.995   1.720  0.1266  0.5541 -0.3936
    6CHTO  H200 2151   6.923   6.046   1.644  1.0877  2.3013  0.9850
    6CHTO  C111 2152   7.149   5.937   1.692  0.0905  1.2013 -0.1742
    6CHTO  H215 2153   7.143   5.931   1.582 -2.1898  1.4633 -0.1030
    6CHTO   N19 2154   7.198   6.074   1.725  0.2864 -0.1209  0.0442
    6CHTO  H207 2155   7.240   6.111   1.632  2.9395 -2.8449  0.0882
    6CHTO  H208 2156   7.127   6.142   1.769  2.2113  0.9843  1.4938
    6CHTO   O74 2157   6.832   5.705   1.769 -0.7779 -0.0696 -0.7850
    6CHTO  C115 2158   6.694   5.773   1.730 -0.2406  0.5256 -0.8825
    6CHTO  H219 2159   6.712   5.868   1.681  0.5975 -0.3084 -2.2383
    6CHTO   O76 2160   6.620   5.695   1.637 -0.1985 -0.1135 -0.2921
    6CHTO  C122 2161   6.599   5.556   1.671 -0.6405 -0.2846  0.4593
    6CHTO  H226 2162   6.692   5.506   1.644 -0.8995 -0.7542  0.4262
    6CHTO  C126 2163   6.494   5.504   1.568 -0.7342 -0.4016  0.8189
    6CHTO   O85 2164   6.371   5.571   1.563  0.8248 -0.4965 -0.2766
    6CHTO  H206 2165   6.299   5.524   1.528 -0.0564 -0.3651  1.2877
    6CHTO  C121 2166   6.560   5.538   1.816  0.2693  0.5244  0.7236
    6CHTO  H225 2167   6.486   5.457   1.830  1.0891 -0.0813  1.6042
    6CHTO   O81 2168   6.663   5.484   1.900  0.2668  0.0538  0.5160
    6CHTO  H202 2169   6.700   5.541   1.965 -0.9916 -1.1662  2.3388
    6CHTO  C119 2170   6.507   5.672   1.882  0.6029 -0.0373  0.0841
    6CHTO  H223 2171   6.414   5.691   1.828  2.0761 -1.6778 -3.1984
    6CHTO  C117 2172   6.608   5.790   1.857 -0.0954  1.1480 -0.0956
    6CHTO  H221 2173   6.681   5.803   1.937 -0.2486  2.0822 -0.1067
    6CHTO   N20 2174   6.532   5.924   1.855  0.0736 -0.3070  0.6537
    6CHTO  H209 2175   6.424   5.919   1.865  0.0998  2.8137  3.1824
    6CHTO  H210 2176   6.576   5.998   1.919  0.0575  1.4044 -1.2685
    6CHTO   O80 2177   6.454   5.657   2.040 -0.4664  1.2594  0.2205
    6CHTO  C103 2178   6.304   5.647   2.074 -0.4452 -0.4633 -0.2312
    6CHTO  H190 2179   6.293   5.623   2.179 -2.1975 -1.7031 -0.6761
    6CHTO  C101 2180   6.215   5.778   2.031  0.6261  0.0522 -0.2490
    6CHTO  H188 2181   6.241   5.806   1.929  1.0542 -2.4094 -0.8394
    6CHTO   O68 2182   6.266   5.906   2.144  0.1542 -0.2328 -0.3075
    6CHTO  H168 2183   6.247   5.877   2.231 -0.5045 -0.1468 -0.4200
    6CHTO   C99 2184   6.061   5.746   2.050  0.2026  0.4122  0.4951
    6CHTO  H186 2185   6.034   5.735   2.157  1.4043  2.1583  0.9886
    6CHTO   N17 2186   5.981   5.859   2.002 -0.0719 -0.3241  0.1729
    6CHTO  H174 2187   5.877   5.850   2.032 -0.3430 -2.0108 -1.2384
    6CHTO  H175 2188   6.021   5.948   2.048 -1.1191 -0.6609  1.7880
    6CHTO   C97 2189   6.020   5.615   1.982  0.1205 -0.5333 -0.2182
    6CHTO  H184 2190   6.017   5.633   1.874  1.9905  1.5291  0.0399
    6CHTO   O64 2191   6.114   5.505   2.013  0.3732  0.1753  0.7093
    6CHTO  C104 2192   6.250   5.525   1.999  0.1256 -0.2356 -0.3123
    6CHTO  H191 2193   6.271   5.538   1.893  1.3094  1.3168  0.0831
    6CHTO  C108 2194   6.319   5.394   2.042 -0.1873 -0.5919  0.0474
    6CHTO   O71 2195   6.259   5.352   2.167  0.3836 -0.0253 -0.3809
    6CHTO  H171 2196   6.166   5.345   2.161  0.3460  0.7076 -0.8148
    6CHTO   O62 2197   5.888   5.571   2.030  0.0941  0.0312  0.7145
    6CHTO   C91 2198   5.869   5.505   2.158 -0.0109 -0.5001  0.3983
    6CHTO  H178 2199   5.950   5.527   2.228 -0.4568  1.0570  0.4413
    6CHTO   C92 2200   5.873   5.354   2.132 -0.0549  0.1956 -0.0338
    6CHTO  H179 2201   5.948   5.334   2.055 -0.9002  0.8826 -1.0467
    6CHTO   O66 2202   5.905   5.288   2.254 -0.3603  0.1320  0.2498
    6CHTO  H166 2203   5.991   5.309   2.285 -0.3670 -1.8960  1.7891
    6CHTO   C93 2204   5.728   5.302   2.081 -1.1147 -0.2771  0.3886
    6CHTO  H180 2205   5.734   5.193   2.072  1.1987 -0.2117  0.8493
    6CHTO   N16 2206   5.696   5.354   1.946  0.2102 -0.2188  0.4301
    6CHTO  H172 2207   5.703   5.461   1.947  1.0804 -0.2397 -1.1010
    6CHTO  H173 2208   5.601   5.325   1.903 -1.6451  3.2946  2.0476
    6CHTO   C94 2209   5.623   5.331   2.196 -0.5501 -0.3567  0.0322
    6CHTO  H181 2210   5.525   5.354   2.154  0.2798 -0.1251 -1.8750
    6CHTO   O61 2211   5.652   5.444   2.280 -0.9392 -0.0153  0.1339
    6CHTO   C95 2212   5.727   5.557   2.225 -0.2297 -0.2946 -0.0294
    6CHTO  H182 2213   5.666   5.614   2.155  0.7237  1.0264  0.1764
    6CHTO  C106 2214   5.767   5.642   2.344  0.1184 -0.2634  0.1867
    6CHTO   O69 2215   5.706   5.775   2.338 -0.2232 -0.0374 -0.2169
    6CHTO  H169 2216   5.708   5.805   2.249 -1.9551  0.9352  0.0498
    6CHTO   O63 2217   5.602   5.214   2.283  0.4429  0.3495 -0.2296
    6CHTO   C96 2218   5.526   5.091   2.210 -0.6244 -0.3597  0.2472
    6CHTO  H183 2219   5.556   5.084   2.105  0.3614 -1.4719  0.5957
    6CHTO   C98 2220   5.367   5.090   2.207 -0.3449 -0.1604 -0.7915
    6CHTO  H185 2221   5.325   5.108   2.307  0.0563  1.5069 -0.9011
    6CHTO   O67 2222   5.314   5.195   2.124  1.3807 -0.1643  0.1957
    6CHTO  H167 2223   5.224   5.177   2.109  1.6580 -0.4891 -1.0927
    6CHTO  C102 2224   5.309   4.950   2.152 -0.4175  0.2079  0.0033
    6CHTO  H189 2225   5.349   4.936   2.051 -0.3556  1.1112 -0.0994
    6CHTO   N18 2226   5.160   4.934   2.143 -0.1189 -0.3721 -0.2395
    6CHTO  H176 2227   5.131   4.974   2.047  0.6708 -1.7163 -1.0617
    6CHTO  H177 2228   5.125   5.008   2.214  0.5809  1.2833 -1.5808
    6CHTO  C105 2229   5.388   4.838   2.231 -0.0864  0.1195  0.2732
    6CHTO  H192 2230   5.376   4.855   2.338 -1.1028 -0.3536  0.2431
    6CHTO   O65 2231   5.533   4.841   2.204 -0.1050 -0.4466 -0.9004
    6CHTO  C100 2232   5.584   4.955   2.269  0.2178  0.2672  0.6400
    6CHTO  H187 2233   5.549   4.954   2.373 -0.5957  2.9512  0.4207
    6CHTO  C107 2234   5.743   4.953   2.267  0.0440 -0.0069 -0.6356
    6CHTO   O70 2235   5.802   4.839   2.331  0.5941  0.7309  0.2696
    6CHTO  H170 2236   5.884   4.866   2.368  2.1672  0.9611 -3.1581
    6CHTO   O57 2237   5.317   4.686   2.177 -0.3356  0.2359  0.1319
    6CHTO   C85 2238   5.305   4.578   2.283 -0.0407 -0.3553  0.0303
    6CHTO  H157 2239   5.286   4.481   2.232 -2.5746  0.4480 -0.6523
    6CHTO   C83 2240   5.179   4.602   2.366  0.7545 -0.5019 -0.3398
    6CHTO  H155 2241   5.101   4.588   2.291 -0.9990  0.0820  1.3298
    6CHTO   O56 2242   5.169   4.739   2.419 -0.4742  0.2623  0.0060
    6CHTO  H135 2243   5.089   4.744   2.469  0.4893  0.0055  1.6028
    6CHTO   C81 2244   5.162   4.490   2.476 -0.0860  0.8856  0.1110
    6CHTO  H153 2245   5.150   4.396   2.423  1.2935 -0.4056  2.0389
    6CHTO   N14 2246   5.035   4.486   2.552  0.0671 -0.6967 -0.2620
    6CHTO  H141 2247   4.950   4.488   2.487  0.2558 -1.1524 -0.5210
    6CHTO  H142 2248   5.032   4.572   2.616 -1.3223 -0.3748 -0.7400
    6CHTO   C79 2249   5.295   4.482   2.560 -0.6217  0.2127  0.2042
    6CHTO  H151 2250   5.284   4.394   2.622  0.3150 -0.0665 -0.0121
    6CHTO   O52 2251   5.419   4.474   2.487  0.0872  0.4711 -0.1300
    6CHTO   C86 2252   5.434   4.567   2.374 -0.0581 -0.1285 -0.1901
    6CHTO  H158 2253   5.449   4.668   2.419 -0.2267  0.2065 -0.8778
    6CHTO   C90 2254   5.565   4.533   2.291  0.2767 -0.9437 -0.5108
    6CHTO   O60 2255   5.687   4.547   2.373 -0.0398 -0.0301  0.4266
    6CHTO  H138 2256   5.659   4.522   2.459 -2.3644 -2.6033 -0.9986
    6CHTO   O50 2257   5.317   4.597   2.641  0.1291  0.0407 -0.1477
    6CHTO   C73 2258   5.325   4.682   2.759  0.8604 -0.1978  0.0115
    6CHTO  H145 2259   5.271   4.633   2.841 -0.6766 -1.6893 -1.8279
    6CHTO   C74 2260   5.261   4.822   2.727 -0.1453 -0.1285 -0.1729
    6CHTO  H146 2261   5.166   4.803   2.675 -0.2111  0.0216 -0.1078
    6CHTO   O54 2262   5.233   4.886   2.854  0.2005  0.3078  0.1988
    6CHTO  H133 2263   5.150   4.860   2.889  0.9795 -0.4155  1.5470
    6CHTO   C75 2264   5.357   4.918   2.639  0.4720 -0.3998  0.0905
    6CHTO  H147 2265   5.367   4.874   2.539 -0.4674 -0.3413 -0.0328
    6CHTO   N13 2266   5.309   5.049   2.590 -0.4729  0.0671  0.2708
    6CHTO  H139 2267   5.244   5.051   2.503 -2.1226  0.3217  1.4711
    6CHTO  H140 2268   5.262   5.110   2.665  1.0678  1.3822  0.1873
    6CHTO   C76 2269   5.501   4.920   2.702 -0.1283  0.3122 -0.1599
    6CHTO  H148 2270   5.494   4.959   2.804  0.9471  1.5258 -0.5465
    6CHTO   O49 2271   5.545   4.779   2.704 -0.3361 -0.6090  0.5837
    6CHTO   C77 2272   5.470   4.697   2.787 -0.2642  0.0781 -0.1518
    6CHTO  H149 2273   5.475   4.732   2.890 -0.9863  1.5818 -0.6050
    6CHTO   C88 2274   5.536   4.560   2.795 -1.0337  0.8279 -0.6433
    6CHTO   O58 2275   5.668   4.563   2.850  0.3324 -0.0843  0.3693
    6CHTO  H136 2276   5.666   4.590   2.940  0.1362 -0.7041  0.5547
    6CHTO   O51 2277   5.608   4.983   2.607  0.1237  0.5034  0.1105
    6CHTO   C78 2278   5.700   5.090   2.679  1.1553  0.2777  0.2561
    6CHTO  H150 2279   5.687   5.084   2.789  0.6005  1.5969  0.2686
    6CHTO   C80 2280   5.673   5.232   2.642  0.3388 -0.4507 -0.6954
    6CHTO  H152 2281   5.666   5.241   2.531  2.3224  2.8386 -0.6224
    6CHTO   O55 2282   5.542   5.264   2.694 -0.1806 -0.9983 -0.6080
    6CHTO  H134 2283   5.554   5.280   2.786  0.2136  0.3463 -0.8716
    6CHTO   C84 2284   5.778   5.330   2.710 -0.5046 -0.3113  0.5525
    6CHTO  H156 2285   5.774   5.321   2.819 -1.1234 -0.8513  0.4854
    6CHTO   N15 2286   5.754   5.478   2.682 -0.0483  0.4167  0.0404
    6CHTO  H143 2287   5.783   5.533   2.769  1.7094 -0.0189 -0.2403
    6CHTO  H144 2288   5.805   5.519   2.597 -0.0432 -0.3137 -0.3136
    6CHTO   C87 2289   5.916   5.283   2.663 -0.7856  0.0628 -0.1242
    6CHTO  H159 2290   5.927   5.289   2.554  0.3730  0.3896  0.0008
    6CHTO   O53 2291   5.938   5.145   2.702 -0.0649  0.4305  0.0042
    6CHTO   C82 2292   5.846   5.048   2.648 -0.0425 -0.5202 -0.2236
    6CHTO  H154 2293   5.861   5.048   2.540 -0.3646  0.2599 -0.2689
    6CHTO   C89 2294   5.889   4.907   2.701  0.2139  0.5906 -0.5392
    6CHTO   O59 2295   6.008   4.874   2.625 -0.8087 -0.1994 -0.1169
    6CHTO  H137 2296   6.085   4.919   2.655 -1.5124  1.5593 -0.8694
    6CHTO   O45 2297   6.035   5.358   2.730 -0.7118 -0.2046 -0.4222
    6CHTO   C67 2298   6.141   5.400   2.637 -0.3066  0.3481 -0.5110
    6CHTO  H124 2299   6.174   5.311   2.584 -0.4000  1.0597 -1.7883
    6CHTO   C65 2300   6.104   5.516   2.546  0.7526 -0.2643  0.2243
    6CHTO  H122 2301   6.002   5.547   2.566  1.2732  0.3519  1.9464
    6CHTO   O44 2302   6.106   5.459   2.416 -0.1993 -0.3168 -0.0090
    6CHTO  H102 2303   6.130   5.522   2.350  0.1812 -0.4204  0.0323
    6CHTO   C63 2304   6.188   5.640   2.575 -0.2221  0.0826  0.5333
    6CHTO  H120 2305   6.161   5.671   2.676 -0.6666  2.5187 -0.3005
    6CHTO   N11 2306   6.146   5.761   2.493  0.8053  0.1674 -1.0459
    6CHTO  H108 2307   6.103   5.729   2.400 -1.1482 -1.0673  0.2550
    6CHTO  H109 2308   6.224   5.834   2.483  1.3937 -0.2180  0.6051
    6CHTO   C61 2309   6.343   5.618   2.578  0.1092  0.1435 -0.0302
    6CHTO  H118 2310   6.387   5.714   2.611  1.5537  0.3435 -2.4492
    6CHTO   O40 2311   6.375   5.515   2.676  0.0127 -0.5485 -0.3339
    6CHTO   C68 2312   6.263   5.441   2.736 -0.7366  0.2489 -0.1494
    6CHTO  H125 2313   6.226   5.504   2.821  0.7491  1.5006 -0.4129
    6CHTO   C72 2314   6.317   5.312   2.801  0.3565 -0.1348 -0.5042
    6CHTO   O48 2315   6.383   5.213   2.711 -0.2209 -0.0217 -0.2253
    6CHTO  H105 2316   6.319   5.153   2.677 -1.7880  1.5812 -0.1869
    6CHTO   O38 2317   6.395   5.570   2.455  0.2237  0.0488 -0.1809
    6CHTO   C55 2318   6.537   5.578   2.435 -0.0854 -0.2246  0.2256
    6CHTO  H112 2319   6.594   5.547   2.524 -0.2743  1.9942  1.1638
    6CHTO   C56 2320   6.581   5.719   2.383 -0.4694  0.6820  0.3301
    6CHTO  H113 2321   6.499   5.750   2.316  1.3399 -0.6487 -2.5766
    6CHTO   O42 2322   6.579   5.806   2.493  0.1426  0.1304  0.7034
    6CHTO  H100 2323   6.655   5.860   2.499 -0.8534  1.3452  2.9600
    6CHTO   C57 2324   6.724   5.719   2.310 -0.2996  0.3226 -0.6912
    6CHTO  H114 2325   6.802   5.730   2.386  0.8278  0.6823 -1.8840
    6CHTO   N10 2326   6.744   5.853   2.240 -0.0088  0.3504 -0.4958
    6CHTO  H106 2327   6.665   5.870   2.168  0.5564  0.8704 -0.9903
    6CHTO  H107 2328   6.839   5.882   2.200  1.2017  0.0354  2.0586
    6CHTO   C58 2329   6.753   5.597   2.221  0.5152  0.1191  1.0414
    6CHTO  H115 2330   6.691   5.598   2.129  2.5938 -1.3713 -0.4418
    6CHTO   O37 2331   6.718   5.474   2.287  0.3116  0.1148 -0.5361
    6CHTO   C59 2332   6.581   5.472   2.328 -0.2053 -0.2949 -0.2537
    6CHTO  H116 2333   6.518   5.479   2.239  0.3737 -1.5926 -0.7748
    6CHTO   C70 2334   6.555   5.329   2.368 -0.2916 -0.1040  0.6239
    6CHTO   O46 2335   6.605   5.294   2.502  0.1394 -0.4131 -0.2530
    6CHTO  H103 2336   6.591   5.207   2.532 -2.5101  0.1538  0.2174
    6CHTO   O39 2337   6.929   5.594   2.165  0.2520  0.1501  0.5879
    6CHTO   C60 2338   7.005   5.466   2.175  0.2454 -0.7952  0.1849
    6CHTO  H117 2339   7.004   5.429   2.277  1.7646 -0.1505  0.4565
    6CHTO   C62 2340   6.931   5.353   2.097  0.1204 -0.0535 -0.5307
    6CHTO  H119 2341   6.833   5.337   2.146  0.5152 -0.9639 -0.0080
    6CHTO   O43 2342   6.918   5.389   1.957  0.4963  0.3255 -0.0381
    6CHTO  H101 2343   6.876   5.317   1.914 -0.2782  0.3668  0.6295
    6CHTO   C66 2344   7.005   5.215   2.117 -0.1893  0.5178  0.0837
    6CHTO  H123 2345   6.989   5.184   2.220 -0.1035  0.0465 -0.0482
    6CHTO   N12 2346   6.936   5.104   2.039  0.0467 -0.2472 -0.6436
    6CHTO  H110 2347   6.883   5.030   2.099  0.6566 -2.4223 -2.7103
    6CHTO  H111 2348   7.014   5.059   1.981  2.0272  0.8916  1.0697
    6CHTO   C69 2349   7.158   5.227   2.095 -0.2371 -0.1390  0.9230
    6CHTO  H126 2350   7.171   5.240   1.986 -3.4109  1.2304  0.6676
    6CHTO   O41 2351   7.227   5.339   2.168 -0.4785 -0.5332  0.2569
    6CHTO   C64 2352   7.164   5.472   2.138  0.5354 -0.3048 -0.4455
    6CHTO  H121 2353   7.173   5.497   2.030  2.2277 -2.4202 -0.8299
    6CHTO   C71 2354   7.213   5.584   2.228  0.3335  0.0356  0.5214
    6CHTO   O47 2355   7.234   5.558   2.367  0.3164  0.1585  0.6312
    6CHTO  H104 2356   7.289   5.482   2.371  0.5908  0.2160 -1.2778
    6CHTO   O34 2357   7.222   5.096   2.149 -0.2346 -0.5392 -0.1571
    6CHTO   C49 2358   7.309   4.980   2.093  0.1460 -0.2514  0.7048
    6CHTO   H91 2359   7.264   4.932   2.006 -2.0705  0.2419  1.5665
    6CHTO   C47 2360   7.332   4.888   2.214  0.2103 -0.5675  0.0501
    6CHTO   H89 2361   7.397   4.808   2.171 -0.3255 -1.3586  0.6945
    6CHTO   O33 2362   7.211   4.831   2.263  0.3540 -0.6312  0.1415
    6CHTO   H70 2363   7.149   4.902   2.263  1.4829  0.3759 -0.6854
    6CHTO   C45 2364   7.401   4.975   2.339  0.1056 -0.4476 -0.0386
    6CHTO   H87 2365   7.324   5.027   2.398 -1.2899 -1.9844 -0.4834
    6CHTO    N8 2366   7.469   4.877   2.426 -0.2059 -0.1038  0.4902
    6CHTO   H75 2367   7.575   4.896   2.426  0.0265 -1.2497 -1.5782
    6CHTO   H76 2368   7.433   4.869   2.527  1.4111 -0.9667  1.0220
    6CHTO   C43 2369   7.490   5.100   2.283  0.0425  0.1439  0.3087
    6CHTO   H85 2370   7.425   5.188   2.278  3.4023  2.7031 -0.6711
    6CHTO   O29 2371   7.539   5.061   2.151  0.3114  0.3520 -0.0865
    6CHTO   C50 2372   7.447   5.035   2.044  0.0075 -0.0567 -0.0043
    6CHTO   H92 2373   7.437   5.127   1.984  1.6590 -1.8854 -3.1609
    6CHTO   C54 2374   7.515   4.937   1.940 -0.0243 -0.3266  0.3004
    6CHTO   O36 2375   7.635   4.992   1.890  0.2291  0.8552  0.3215
    6CHTO   H72 2376   7.708   4.939   1.916 -1.8816 -1.3624  1.9180
    6CHTO   O27 2377   7.602   5.144   2.363  0.0747 -0.4285 -0.3424
    6CHTO   C37 2378   7.629   5.264   2.449 -0.5455  0.8603  0.5377
    6CHTO   H79 2379   7.735   5.267   2.475 -0.6082 -0.4408  0.9506
    6CHTO   C38 2380   7.600   5.397   2.382 -0.0341 -0.2328 -0.6357
    6CHTO   H80 2381   7.496   5.399   2.347 -0.6535 -0.6219  1.1456
    6CHTO   O31 2382   7.700   5.426   2.276  0.0463 -0.1916  0.3235
    6CHTO   H68 2383   7.787   5.436   2.310  0.8859 -2.2341 -1.1606
    6CHTO   C39 2384   7.605   5.520   2.484 -1.0838  0.0165  0.6436
    6CHTO   H81 2385   7.708   5.546   2.509 -0.5578 -2.2258  0.8886
    6CHTO    N7 2386   7.551   5.649   2.435 -0.0839 -0.2226 -0.2891
    6CHTO   H73 2387   7.618   5.700   2.369 -2.2018  0.2976 -2.1084
    6CHTO   H74 2388   7.502   5.706   2.513  1.5175 -0.3428  0.8398
    6CHTO   C40 2389   7.534   5.483   2.624  0.4270  0.2040  0.8084
    6CHTO   H82 2390   7.425   5.483   2.621  0.3681 -2.5768  1.9244
    6CHTO   O26 2391   7.582   5.359   2.671 -0.4709  0.8374  0.3537
    6CHTO   C41 2392   7.557   5.247   2.583  0.3206  0.1253  0.4092
    6CHTO   H83 2393   7.450   5.238   2.563  0.9433 -0.5995 -2.8903
    6CHTO   C52 2394   7.599   5.125   2.669 -0.3984 -0.0822  0.3976
    6CHTO   O35 2395   7.570   5.106   2.824  0.0704  0.4993  0.1281
    6CHTO   H71 2396   7.650   5.078   2.865  0.9050  0.5579 -1.4085
    6CHTO   O28 2397   7.581   5.572   2.718  0.1206  0.0545  0.4373
    6CHTO   C42 2398   7.506   5.613   2.837  0.0948  0.1281  0.4730
    6CHTO   H84 2399   7.585   5.665   2.893  0.7744 -0.8642  0.4439
    6CHTO   C44 2400   7.459   5.490   2.934 -0.2580  0.1798  0.0895
    6CHTO   H86 2401   7.384   5.434   2.879 -1.8187 -0.1330  2.4734
    6CHTO   O32 2402   7.573   5.400   2.945 -0.2647  0.0218 -0.1939
    6CHTO   H69 2403   7.543   5.316   2.974  1.6737 -0.1925  1.2462
    6CHTO   C48 2404   7.398   5.541   3.068  0.0729 -0.0468  1.5365
    6CHTO   H90 2405   7.482   5.568   3.132 -0.7860  2.5296  1.6335
    6CHTO    N9 2406   7.329   5.437   3.139 -0.0029  0.0112  0.0123
    6CHTO   H77 2407   7.397   5.376   3.197 -1.3304 -0.5011  1.0672
    6CHTO   H78 2408   7.250   5.381   3.091 -0.3525 -1.0933  1.8478
    6CHTO   C51 2409   7.299   5.660   3.041 -0.1310 -0.0449  0.5153
    6CHTO   H93 2410   7.216   5.617   2.985 -0.5161  0.9488  0.3183
    6CHTO   O30 2411   7.365   5.764   2.970  0.6819  0.5644  0.3797
    6CHTO   C46 2412   7.391   5.715   2.825  0.2462  0.1682 -0.6220
    6CHTO   H88 2413   7.303   5.665   2.785 -0.1047  1.8752 -2.0900
    6CHTO   C53 2414   7.436   5.832   2.733 -0.8108  0.0890  0.4870
    6CHTO   O72 2415   7.344   5.944   2.731 -0.3580  0.6423  0.2135
    6CHTO  H199 2416   7.374   6.019   2.684  1.9704 -0.5729 -0.3116
    6CHTO   O22 2417   7.259   5.710   3.167  0.1403 -0.3212 -0.3929
    6CHTO   C31 2418   7.157   5.811   3.195  0.3163  0.3164  0.0229
    6CHTO   H59 2419   7.160   5.829   3.304  2.5137  0.5159 -0.0479
    6CHTO   C29 2420   7.167   5.939   3.119  0.2981  0.4972 -0.0381
    6CHTO   H57 2421   7.170   5.912   3.012  1.2733 -0.9326  0.3341
    6CHTO   O21 2422   7.293   6.005   3.148  0.2266 -0.0831  0.5569
    6CHTO   H37 2423   7.297   6.088   3.105  0.0099 -0.3709 -0.0146
    6CHTO   C27 2424   7.044   6.045   3.138  0.1963 -1.0594  0.4726
    6CHTO   H55 2425   7.048   6.083   3.241 -0.3455 -1.5901  0.6907
    6CHTO    N5 2426   7.061   6.163   3.043  0.1725  0.1064 -0.1965
    6CHTO   H43 2427   7.163   6.196   3.034 -0.1381  0.8355 -1.0158
    6CHTO   H44 2428   6.982   6.236   3.037 -0.5227 -0.6354 -0.2016
    6CHTO   C25 2429   6.905   5.972   3.132  0.4651 -0.4932 -0.1493
    6CHTO   H53 2430   6.870   5.968   3.028  0.7847 -1.3798 -0.2243
    6CHTO   O17 2431   6.902   5.846   3.203  0.5523  0.2028 -0.2240
    6CHTO   C32 2432   7.013   5.752   3.166  0.7896 -0.5466 -0.1217
    6CHTO   H60 2433   7.004   5.737   3.058 -1.1733 -1.5503  0.1466
    6CHTO   C36 2434   6.993   5.604   3.224 -0.4290 -0.1085  0.7568
    6CHTO   O25 2435   6.973   5.620   3.363  0.3091  0.3896 -0.1443
    6CHTO   H40 2436   7.012   5.696   3.402  2.1506 -0.7909  0.3738
    6CHTO   O15 2437   6.804   6.049   3.204  0.4475 -0.1143  0.2577
    6CHTO   C19 2438   6.726   6.078   3.316 -0.1167 -0.1188 -0.2616
    6CHTO   H47 2439   6.665   5.989   3.340  2.7046 -1.5820  1.8426
    6CHTO   C20 2440   6.800   6.107   3.447 -0.0052  0.0042 -0.1921
    6CHTO   H48 2441   6.861   6.198   3.435 -0.4719  0.2537 -0.7160
    6CHTO   O19 2442   6.894   6.004   3.483  0.9229 -0.3585 -0.0371
    6CHTO   H35 2443   6.927   6.034   3.566  1.5414  3.0552 -1.4323
    6CHTO   C21 2444   6.699   6.115   3.562  0.0051 -0.3433 -0.3332
    6CHTO   H49 2445   6.642   6.023   3.574 -2.1407  0.8927 -0.8547
    6CHTO    N4 2446   6.760   6.152   3.689  0.2227 -0.2026 -0.0034
    6CHTO   H41 2447   6.719   6.096   3.772  1.7087  2.0991  2.3591
    6CHTO   H42 2448   6.751   6.257   3.712  1.9976  0.2036 -1.0697
    6CHTO   C22 2449   6.599   6.221   3.518  0.1212 -0.5380 -0.2802
    6CHTO   H50 2450   6.645   6.321   3.520 -0.3516 -0.3221 -0.1918
    6CHTO   O14 2451   6.535   6.202   3.393 -0.1309  0.2517 -0.2560
    6CHTO   C23 2452   6.626   6.195   3.290  0.8659  0.0688  0.2764
    6CHTO   H51 2453   6.677   6.291   3.277  1.9272 -0.7366 -1.7166
    6CHTO   C34 2454   6.541   6.161   3.165  0.4467  0.6132  1.1918
    6CHTO   O23 2455   6.612   6.194   3.047 -0.7740 -0.0492  0.1868
    6CHTO   H38 2456   6.553   6.188   2.975 -0.0525 -0.6341 -0.3698
    6CHTO   O16 2457   6.484   6.242   3.602  0.1553  0.1016 -0.2779
    6CHTO   C24 2458   6.438   6.401   3.619 -0.5306 -0.1313  0.9168
    6CHTO   H52 2459   6.501   6.464   3.556  0.9204 -1.2897  1.1550
    6CHTO   C26 2460   6.452   6.442   3.766  0.3570  0.3948 -0.4780
    6CHTO   H54 2461   6.383   6.385   3.831  2.7367  0.2191  1.9862
    6CHTO   O20 2462   6.585   6.418   3.801 -0.8526  0.2916  0.8836
    6CHTO   H36 2463   6.630   6.486   3.755 -1.3633  1.9394  2.7560
    6CHTO   C30 2464   6.413   6.595   3.782  0.5558 -0.2002  0.3488
    6CHTO   H58 2465   6.471   6.658   3.714  2.1823  1.1719  2.9102
    6CHTO    N6 2466   6.439   6.648   3.921 -0.1469 -0.3667  0.3234
    6CHTO   H45 2467   6.345   6.653   3.974  0.1875  2.5681  0.7235
    6CHTO   H46 2468   6.486   6.746   3.921  0.9089 -0.8648  1.8572
    6CHTO   C33 2469   6.264   6.605   3.727 -0.5898 -0.0059 -0.8231
    6CHTO   H61 2470   6.208   6.537   3.794 -1.5662 -0.0740 -1.6899
    6CHTO   O18 2471   6.254   6.560   3.594  0.1406  0.8181  0.0176
    6CHTO   C28 2472   6.291   6.423   3.571 -0.2673 -0.4256 -0.4349
    6CHTO   H56 2473   6.232   6.349   3.624  0.9631 -0.8541  0.3594
    6CHTO   C35 2474   6.266   6.386   3.421  0.2962  0.5258 -0.3248
    6CHTO   O24 2475   6.321   6.483   3.331 -0.0360 -0.7604  0.1880
    6CHTO   H39 2476   6.292   6.449   3.249  1.9370 -1.4553 -0.2386
    6CHTO    O9 2477   6.197   6.731   3.742  0.2053  0.3543  0.3399
    6CHTO   C13 2478   6.025   6.722   3.767 -0.0172  0.4737  0.0381
    6CHTO   H26 2479   6.003   6.645   3.844  5.1592 -1.1183  0.1442
    6CHTO   C11 2480   5.955   6.689   3.623 -0.1589 -1.2261 -0.2168
    6CHTO   H24 2481   6.000   6.603   3.572 -0.9463 -1.0503 -1.2194
    6CHTO    O8 2482   5.991   6.797   3.530 -0.2353 -0.2905 -0.3127
    6CHTO    H3 2483   5.973   6.878   3.573  1.1509  0.5813 -1.3372
    6CHTO    C9 2484   5.808   6.676   3.644  0.2344 -0.2461 -0.5631
    6CHTO   H22 2485   5.795   6.577   3.689 -1.7941  0.3419  0.2048
    6CHTO    N2 2486   5.728   6.663   3.524  0.4922 -0.1820  0.6973
    6CHTO   H10 2487   5.718   6.762   3.480 -1.3085 -0.7401 -0.1757
    6CHTO   H11 2488   5.777   6.606   3.446  0.1868  1.6636 -0.8894
    6CHTO    C7 2489   5.748   6.782   3.747 -0.0747 -0.1023 -0.1680
    6CHTO   H20 2490   5.745   6.729   3.845 -2.5916  1.4538  0.6385
    6CHTO    O4 2491   5.837   6.886   3.772  0.2261 -0.5306  0.2871
    6CHTO   C14 2492   5.971   6.863   3.820  0.3191 -1.0755 -0.0576
    6CHTO   H27 2493   5.949   6.865   3.929  2.6186  1.2712  0.4068
    6CHTO   C18 2494   6.073   6.984   3.792  0.1261  0.3518 -0.3122
    6CHTO   O13 2495   6.027   7.109   3.834  0.0270 -0.4681 -0.2991
    6CHTO    H7 2496   5.974   7.153   3.770  1.5718 -0.4569 -1.6055
    6CHTO    O2 2497   5.614   6.846   3.711  0.9401 -0.4830 -0.2244
    6CHTO    C1 2498   5.514   6.876   3.817 -0.0378  0.2414  0.2429
    6CHTO   H14 2499   5.448   6.956   3.777 -1.4459 -0.8877  0.2524
    6CHTO    C2 2500   5.576   6.926   3.957 -0.3772  0.5803  0.4184
    6CHTO   H15 2501   5.653   6.854   3.985 -1.9533 -1.7024 -0.9320
    6CHTO    O6 2502   5.631   7.056   3.943 -0.8009  0.6151 -0.1399
    6CHTO    H1 2503   5.696   7.068   4.010 -0.7250 -0.2174 -0.0511
    6CHTO    C3 2504   5.465   6.929   4.080  0.7877 -0.2211 -0.3246
    6CHTO   H16 2505   5.397   7.015   4.063  0.3300 -0.8734 -1.8754
    6CHTO    N1 2506   5.523   6.950   4.217  0.3393  0.1319 -0.4993
    6CHTO    H8 2507   5.631   6.959   4.221  0.1896  1.1528  3.0428
    6CHTO    H9 2508   5.489   7.046   4.253  0.1897 -0.8082  1.9701
    6CHTO    C4 2509   5.377   6.804   4.073 -0.1088  0.1407  0.6432
    6CHTO   H17 2510   5.442   6.721   4.101  0.2697 -0.2503 -1.3500
    6CHTO    O1 2511   5.325   6.786   3.943 -0.3316 -0.4257 -0.2772
    6CHTO    C5 2512   5.427   6.755   3.851 -0.0822  0.6784 -0.1051
    6CHTO   H18 2513   5.495   6.676   3.884  1.2724  3.0914  3.1944
    6CHTO   C16 2514   5.353   6.702   3.722  0.0634 -0.6397 -0.1152
    6CHTO   O11 2515   5.290   6.577   3.749  0.7250 -0.1421  0.0284
    6CHTO    H5 2516   5.263   6.526   3.676 -0.7185 -0.5489  0.8237
    6CHTO    O3 2517   5.266   6.808   4.166  0.0294  0.1976 -0.0758
    6CHTO    C6 2518   5.203   6.679   4.196  0.4158  0.0529  0.4266
    6CHTO   H19 2519   5.215   6.603   4.119  0.0725  0.6961 -0.2661
    6CHTO    C8 2520   5.240   6.619   4.338 -0.6162 -0.2634 -0.6965
    6CHTO   H21 2521   5.245   6.698   4.414  2.5697 -2.0560  1.0976
    6CHTO    O7 2522   5.376   6.576   4.323  0.7161  0.6451  1.1771
    6CHTO    H2 2523   5.420   6.659   4.310  0.5962  0.5486  0.0852
    6CHTO   C12 2524   5.148   6.497   4.373  0.5377 -0.4726  1.0227
    6CHTO   H25 2525   5.171   6.415   4.302  0.7694 -0.9735  1.6775
    6CHTO    N3 2526   5.176   6.451   4.516 -0.5473 -0.4555  0.2774
    6CHTO   H12 2527   5.282   6.456   4.533 -0.5041  1.3656 -0.3984
    6CHTO   H13 2528   5.125   6.524   4.578 -0.0126  0.2992 -0.1597
    6CHTO   C15 2529   4.999   6.540   4.356  0.1169  0.0471 -0.2960
    6CHTO   H28 2530   4.972   6.613   4.432  1.7107  0.1834  0.1579
    6CHTO   O10 2531   4.910   6.428   4.341  0.0023 -0.2774  0.2734
    6CHTO    H4 2532   4.878   6.397   4.424  1.8836 -0.4969  0.9425
    6CHTO    O5 2533   4.971   6.603   4.235  0.2034  0.0569 -0.4996
    6CHTO   C10 2534   5.050   6.716   4.197  0.4142 -1.2192 -0.8505
    6CHTO   H23 2535   5.031   6.802   4.261 -0.3702 -1.0759 -1.2770
    6CHTO   C17 2536   5.001   6.767   4.061 -0.0874 -0.3550  0.2622
    6CHTO   O12 2537   4.860   6.764   4.045  0.6237  0.3187 -0.8303
    6CHTO    H6 2538   4.827   6.789   3.961 -0.4997  0.4418 -0.3732
    7CHTO  H203 2539   4.635   4.111   4.623  1.1402 -0.5297 -0.9163
    7CHTO   O82 2540   4.703   4.113   4.688  0.0580 -0.1563  0.2200
    7CHTO  C123 2541   4.834   4.086   4.631 -0.1403  0.0590  0.0345
    7CHTO  H227 2542   4.836   4.119   4.526 -3.9246  1.8919  0.4459
    7CHTO   O77 2543   4.923   4.169   4.715  0.1163 -0.5262 -0.3617
    7CHTO  C118 2544   5.054   4.165   4.660 -0.0671 -0.2334 -0.1137
    7CHTO  H222 2545   5.062   4.177   4.550  1.3743 -0.1032 -0.0052
    7CHTO  C125 2546   5.143   4.267   4.730 -0.2887 -0.6943  0.0254
    7CHTO   O84 2547   5.095   4.400   4.726 -0.3014 -0.1676 -0.0058
    7CHTO  H205 2548   5.054   4.430   4.804  0.5535 -2.1885  1.2646
    7CHTO  C114 2549   5.111   4.019   4.689  0.3123  0.1910  0.2122
    7CHTO  H218 2550   5.111   3.994   4.795  1.7256 -0.6096  0.0326
    7CHTO  C116 2551   5.018   3.911   4.618 -0.0980  0.1488  0.3590
    7CHTO  H220 2552   5.030   3.917   4.508 -1.0054  0.8384  0.2885
    7CHTO   O79 2553   5.067   3.780   4.649 -0.0538 -0.2282 -0.0287
    7CHTO  H201 2554   5.023   3.741   4.722  0.2840  2.1308  1.4887
    7CHTO  C120 2555   4.862   3.931   4.652 -1.2012 -0.5600 -0.1256
    7CHTO  H224 2556   4.843   3.890   4.753 -0.2859  0.4098  0.4451
    7CHTO   N21 2557   4.778   3.837   4.571 -0.1412  0.0441 -0.1430
    7CHTO  H211 2558   4.767   3.878   4.472  1.0286  1.1565  0.1823
    7CHTO  H212 2559   4.681   3.838   4.618 -0.1365  3.1466 -0.0921
    7CHTO   O75 2560   5.242   4.024   4.626  0.1709 -0.1656 -0.0429
    7CHTO  C112 2561   5.338   3.886   4.674 -0.7265 -0.3523  0.5045
    7CHTO  H216 2562   5.320   3.792   4.620 -1.1552  1.2599 -2.2170
    7CHTO   O73 2563   5.317   3.869   4.819 -0.4173  0.2425  0.6229
    7CHTO  C113 2564   5.377   3.751   4.871 -0.1619  0.4614 -0.2412
    7CHTO  H217 2565   5.361   3.665   4.803  1.7511  0.7746 -1.1250
    7CHTO  C124 2566   5.304   3.723   5.002  0.0137 -0.5166  0.2511
    7CHTO   O83 2567   5.168   3.674   4.972  0.0198  0.1231  0.0119
    7CHTO  H204 2568   5.098   3.728   5.002 -0.4045 -0.5745  0.3002
    7CHTO  C109 2569   5.529   3.774   4.875 -0.5339 -0.1718  0.1973
    7CHTO  H213 2570   5.549   3.855   4.947  1.0002 -1.6480  1.4709
    7CHTO  C110 2571   5.574   3.808   4.731 -0.3751  0.2489  0.2193
    7CHTO  H214 2572   5.569   3.713   4.679  1.3048 -2.1529  4.1794
    7CHTO   O78 2573   5.718   3.841   4.733 -0.4403  0.3184 -0.2965
    7CHTO  H200 2574   5.757   3.833   4.648 -0.3871 -1.1263 -0.1507
    7CHTO  C111 2575   5.494   3.923   4.670 -0.2446 -0.1017 -0.4058
    7CHTO  H215 2576   5.510   4.015   4.728 -3.9211  0.8774 -0.8651
    7CHTO   N19 2577   5.532   3.947   4.525 -0.4447 -0.4766 -0.5213
    7CHTO  H207 2578   5.459   3.910   4.454 -1.6696  1.2647 -0.1891
    7CHTO  H208 2579   5.576   4.044   4.512 -1.3880  0.0992  0.5537
    7CHTO   O74 2580   5.615   3.660   4.922  0.3515 -0.0527 -0.1419
    7CHTO  C115 2581   5.667   3.669   5.071  0.6517  0.3450 -0.5763
    7CHTO  H219 2582   5.651   3.768   5.115 -1.9725  0.5779 -1.9698
    7CHTO   O76 2583   5.571   3.574   5.177  0.5764  0.3558 -0.6236
    7CHTO  C122 2584   5.601   3.601   5.314  0.7328 -0.0811 -0.3318
    7CHTO  H226 2585   5.558   3.517   5.370 -1.6104  1.3440  0.0824
    7CHTO  C126 2586   5.519   3.725   5.360 -0.1683 -0.1685  0.6851
    7CHTO   O85 2587   5.522   3.743   5.503  0.5276 -0.2640 -0.2899
    7CHTO  H206 2588   5.491   3.829   5.525 -2.4700 -1.3505  0.0222
    7CHTO  C121 2589   5.758   3.630   5.342  0.2883 -0.0515 -0.1272
    7CHTO  H225 2590   5.769   3.740   5.335  2.6433 -0.3040 -0.9347
    7CHTO   O81 2591   5.790   3.605   5.483  0.2858  0.0481 -0.0030
    7CHTO  H202 2592   5.847   3.533   5.501 -1.9030 -1.8517 -0.4711
    7CHTO  C119 2593   5.849   3.566   5.232 -0.4142 -0.6364  0.0695
    7CHTO  H223 2594   5.953   3.595   5.250 -1.0960  1.8038  0.1513
    7CHTO  C117 2595   5.813   3.613   5.082  0.6745 -0.4975  0.5008
    7CHTO  H221 2596   5.821   3.537   5.004  2.1111  1.1350 -1.0214
    7CHTO   N20 2597   5.900   3.725   5.031  0.0422 -0.1697 -0.2053
    7CHTO  H209 2598   5.997   3.695   4.995  0.3386  0.8070 -0.2557
    7CHTO  H210 2599   5.845   3.764   4.946  0.7741 -1.2881 -1.2003
    7CHTO   O80 2600   5.858   3.428   5.238  0.2415 -0.1941  0.0090
    7CHTO  C103 2601   6.006   3.347   5.202  0.1339 -0.5526 -0.2210
    7CHTO  H190 2602   6.001   3.238   5.189 -0.2548 -0.2446 -3.2434
    7CHTO  C101 2603   6.068   3.397   5.064 -0.6173  0.8862 -0.4017
    7CHTO  H188 2604   6.072   3.504   5.043  0.0470  0.8781 -0.3332
    7CHTO   O68 2605   5.980   3.344   4.958 -0.1928  0.1456 -0.3460
    7CHTO  H168 2606   6.004   3.380   4.875  1.2985  1.9523  0.8360
    7CHTO   C99 2607   6.215   3.338   5.049  0.0480  0.6657  0.8990
    7CHTO  H186 2608   6.215   3.228   5.042  1.0017  0.8398 -2.8982
    7CHTO   N17 2609   6.289   3.368   4.918 -0.6095 -0.2492  0.2411
    7CHTO  H174 2610   6.373   3.300   4.912  0.6199  1.3118 -0.7346
    7CHTO  H175 2611   6.234   3.372   4.825 -0.1246 -0.8861 -0.0779
    7CHTO   C97 2612   6.299   3.371   5.174 -0.6089 -0.2856 -0.3535
    7CHTO  H184 2613   6.318   3.479   5.182  0.8044 -0.5459  0.0229
    7CHTO   O64 2614   6.233   3.318   5.296 -0.3486 -0.2217  0.3726
    7CHTO  C104 2615   6.103   3.380   5.322 -0.3380 -0.6269  0.9158
    7CHTO  H191 2616   6.106   3.488   5.338  2.7313 -0.6037  0.5926
    7CHTO  C108 2617   6.047   3.325   5.448 -0.3318 -0.1077  0.3148
    7CHTO   O71 2618   6.112   3.385   5.559 -0.1295  0.3458 -0.1052
    7CHTO  H171 2619   6.196   3.415   5.530 -0.2164 -0.3413 -1.1126
    7CHTO   O62 2620   6.432   3.303   5.173  0.2517 -0.2377  0.5654
    7CHTO   C91 2621   6.531   3.382   5.250 -0.4453  0.1462  0.2710
    7CHTO  H178 2622   6.533   3.482   5.207 -1.9185 -0.0610 -0.3248
    7CHTO   C92 2623   6.676   3.322   5.222 -0.4231  0.0881 -0.0885
    7CHTO  H179 2624   6.684   3.297   5.115 -3.6177 -0.3041 -0.2701
    7CHTO   O66 2625   6.776   3.431   5.237 -0.0075  0.4834 -0.0831
    7CHTO  H166 2626   6.862   3.393   5.239 -0.0688  0.3581  0.2093
    7CHTO   C93 2627   6.718   3.204   5.317 -0.5396  0.0043 -0.3881
    7CHTO  H180 2628   6.828   3.198   5.327 -0.6053  0.2713  0.6161
    7CHTO   N16 2629   6.664   3.071   5.267 -0.0640 -0.2035  0.0308
    7CHTO  H172 2630   6.707   2.988   5.321  0.4871  1.6297  2.5042
    7CHTO  H173 2631   6.717   3.066   5.173  1.6324  0.3069  0.9350
    7CHTO   C94 2632   6.647   3.222   5.459 -0.3055  0.7877 -0.3144
    7CHTO  H181 2633   6.551   3.172   5.470  0.2117  0.1065  1.3933
    7CHTO   O61 2634   6.620   3.360   5.484 -0.8250  0.7019 -0.5295
    7CHTO   C95 2635   6.506   3.408   5.405  0.7496  0.0230  0.0555
    7CHTO  H182 2636   6.415   3.351   5.423 -0.2589  1.4971 -0.2356
    7CHTO  C106 2637   6.455   3.556   5.435 -0.2074 -0.0834 -0.8291
    7CHTO   O69 2638   6.393   3.576   5.561 -0.1457 -0.4755  0.8023
    7CHTO  H169 2639   6.429   3.651   5.604 -0.8662  1.4433 -1.8037
    7CHTO   O63 2640   6.739   3.178   5.577 -0.1272 -0.1212  0.4274
    7CHTO   C96 2641   6.681   3.190   5.708  0.2538 -0.2917 -0.9188
    7CHTO  H183 2642   6.655   3.292   5.736  0.4870  0.1149 -2.1434
    7CHTO   C98 2643   6.783   3.146   5.816 -0.5369  0.3887 -1.1860
    7CHTO  H185 2644   6.877   3.201   5.800  2.0718 -3.0859  1.1980
    7CHTO   O67 2645   6.743   3.181   5.951 -0.1254 -0.0647  0.2443
    7CHTO  H167 2646   6.740   3.274   5.966  4.9193 -0.0984  2.5507
    7CHTO  C102 2647   6.818   2.990   5.823  0.1163 -0.9333  0.3826
    7CHTO  H189 2648   6.879   2.980   5.914 -0.7011 -1.3344  0.8914
    7CHTO   N18 2649   6.904   2.940   5.715 -0.0343 -0.4632  0.1114
    7CHTO  H176 2650   6.853   2.893   5.633  0.7944 -1.6715  0.2811
    7CHTO  H177 2651   6.956   3.026   5.675 -0.3387  0.1040  0.9288
    7CHTO  C105 2652   6.682   2.914   5.841  0.1217  0.2141 -0.6407
    7CHTO  H192 2653   6.666   2.848   5.756  0.0258 -2.6060  1.5023
    7CHTO   O65 2654   6.564   2.996   5.839  0.0449  1.0034  0.3403
    7CHTO  C100 2655   6.555   3.085   5.725  0.3439  0.1389  0.5092
    7CHTO  H187 2656   6.560   3.028   5.631  1.0495  0.5403  0.2952
    7CHTO  C107 2657   6.425   3.160   5.733  0.0200  0.1414 -0.0636
    7CHTO   O70 2658   6.416   3.232   5.852 -0.1095  0.1453 -0.3854
    7CHTO  H170 2659   6.336   3.207   5.895  0.0715  1.1143  0.5431
    7CHTO   O57 2660   6.689   2.834   5.977 -0.3262  0.1480 -0.4762
    7CHTO   C85 2661   6.765   2.716   5.974 -0.3863  0.1089  0.2491
    7CHTO  H157 2662   6.848   2.737   5.904 -0.2183 -1.7339 -0.1304
    7CHTO   C83 2663   6.681   2.602   5.901  0.2001 -0.9329  0.4774
    7CHTO  H155 2664   6.654   2.644   5.804  0.0036 -1.6642  0.2164
    7CHTO   O56 2665   6.556   2.581   5.973  0.2528  0.0976  0.0859
    7CHTO  H135 2666   6.479   2.591   5.920 -0.2269  1.5346  1.0558
    7CHTO   C81 2667   6.773   2.476   5.890  0.0532  1.2265 -0.0675
    7CHTO  H153 2668   6.862   2.512   5.839 -0.8167  2.7061 -0.5562
    7CHTO   N14 2669   6.709   2.378   5.804  0.2426  0.2413  0.2141
    7CHTO  H141 2670   6.672   2.304   5.872  1.6653  0.0202  0.7657
    7CHTO  H142 2671   6.777   2.333   5.735 -1.7568  2.0194 -3.0452
    7CHTO   C79 2672   6.822   2.435   6.036  0.5147  0.4663 -0.2121
    7CHTO  H151 2673   6.897   2.358   6.021 -0.0419  0.2721 -2.1895
    7CHTO   O52 2674   6.892   2.545   6.098 -0.2204 -0.1532  0.0468
    7CHTO   C86 2675   6.818   2.672   6.114  0.0562  0.2723  0.0618
    7CHTO  H158 2676   6.738   2.652   6.189 -0.6290  0.2096 -0.6774
    7CHTO   C90 2677   6.919   2.770   6.175 -0.5561  0.3061  0.2014
    7CHTO   O60 2678   6.860   2.891   6.212 -0.4777 -0.2961  0.0051
    7CHTO  H138 2679   6.912   2.938   6.274 -1.8783 -1.6668  2.2833
    7CHTO   O50 2680   6.725   2.381   6.128  0.5253 -0.1805 -0.0192
    7CHTO   C73 2681   6.717   2.275   6.222  1.1132 -0.3437  0.1687
    7CHTO  H145 2682   6.813   2.270   6.274  0.2147  0.2096  1.9181
    7CHTO   C74 2683   6.686   2.138   6.162 -0.6227 -0.0987  0.1832
    7CHTO  H146 2684   6.768   2.107   6.096  0.3497 -2.1665  2.2917
    7CHTO   O54 2685   6.681   2.043   6.274 -0.4839  0.2125 -0.8020
    7CHTO  H133 2686   6.671   1.950   6.265  2.2533 -0.4095  1.6963
    7CHTO   C75 2687   6.547   2.156   6.087 -0.5844  0.8529 -0.4247
    7CHTO  H147 2688   6.563   2.220   5.999 -1.4647  0.3973 -0.9192
    7CHTO   N13 2689   6.506   2.029   6.021 -0.2613 -0.0145 -0.6922
    7CHTO  H139 2690   6.588   1.961   6.032  0.5452  0.9338 -0.7424
    7CHTO  H140 2691   6.497   2.031   5.914  0.9420 -1.8035 -0.8307
    7CHTO   C76 2692   6.435   2.215   6.175 -0.8181  0.4727  0.5034
    7CHTO  H148 2693   6.400   2.129   6.231 -0.8587  0.8157  1.0109
    7CHTO   O49 2694   6.481   2.328   6.259  0.1546  0.0301  0.0425
    7CHTO   C77 2695   6.607   2.319   6.327 -0.5674  0.1021 -0.2057
    7CHTO  H149 2696   6.607   2.242   6.404  1.2858  0.6480  0.3675
    7CHTO   C88 2697   6.639   2.454   6.389  0.0567  0.0269  0.4786
    7CHTO   O58 2698   6.522   2.499   6.490 -0.0168  0.4087 -0.4008
    7CHTO  H136 2699   6.539   2.480   6.580 -1.9989 -1.0145 -0.3102
    7CHTO   O51 2700   6.325   2.286   6.072 -0.2065  0.0921  0.3182
    7CHTO   C78 2701   6.170   2.235   6.106 -0.0241  0.2518  0.0615
    7CHTO  H150 2702   6.168   2.158   6.186 -0.4993  2.7428  2.5636
    7CHTO   C80 2703   6.095   2.186   5.976 -0.2304 -0.2822 -0.6957
    7CHTO  H152 2704   6.097   2.269   5.902  1.6093 -0.7822 -1.2209
    7CHTO   O55 2705   6.162   2.081   5.905  0.6947 -0.0222  0.0893
    7CHTO  H134 2706   6.102   2.034   5.851  0.7296 -0.4696  0.4366
    7CHTO   C84 2707   5.947   2.156   6.010  0.3288  0.4011  0.7615
    7CHTO  H156 2708   5.958   2.058   6.057  1.3699 -0.2248 -0.7448
    7CHTO   N15 2709   5.861   2.139   5.890 -0.0569  0.1860 -0.7771
    7CHTO  H143 2710   5.798   2.054   5.904  1.9725 -1.2246 -0.0191
    7CHTO  H144 2711   5.921   2.128   5.802  2.0612  0.6023  0.5774
    7CHTO   C87 2712   5.876   2.256   6.105 -0.6194 -0.5783 -0.1077
    7CHTO  H159 2713   5.833   2.339   6.049 -0.0478  1.0233  1.7605
    7CHTO   O53 2714   5.967   2.320   6.201  0.6872  0.1940  0.1844
    7CHTO   C82 2715   6.095   2.355   6.164  1.1409  0.6399  0.2357
    7CHTO  H154 2716   6.093   2.436   6.091  1.3893 -0.3460 -0.8894
    7CHTO   C89 2717   6.158   2.410   6.288 -0.4151 -0.2436  0.1462
    7CHTO   O59 2718   6.269   2.492   6.255  0.1765  0.4033  0.3707
    7CHTO  H137 2719   6.241   2.578   6.230  0.7412  0.2315 -0.8906
    7CHTO   O45 2720   5.747   2.190   6.177  0.6095 -0.2049  0.3761
    7CHTO   C67 2721   5.662   2.280   6.250  0.2476 -0.1233  0.0983
    7CHTO  H124 2722   5.706   2.376   6.278  1.4257  0.1758 -2.5306
    7CHTO   C65 2723   5.528   2.312   6.174  0.1042 -0.4290  0.4261
    7CHTO  H122 2724   5.504   2.237   6.099 -0.8964  0.7210 -0.4303
    7CHTO   O44 2725   5.553   2.437   6.100  0.1564 -0.3736  0.5640
    7CHTO  H102 2726   5.520   2.510   6.149  1.3677  0.7209 -0.2369
    7CHTO   C63 2727   5.404   2.310   6.269  0.3898  0.3756  0.7364
    7CHTO  H120 2728   5.376   2.206   6.286  0.5377  0.4576  1.5202
    7CHTO   N11 2729   5.279   2.353   6.208 -0.3365  0.2709 -0.5137
    7CHTO  H108 2730   5.207   2.360   6.287  0.5864 -0.5825  0.4216
    7CHTO  H109 2731   5.242   2.281   6.138 -3.2651 -1.6545  2.8396
    7CHTO   C61 2732   5.441   2.369   6.409 -0.7624  0.5608  0.2513
    7CHTO  H118 2733   5.351   2.359   6.472  0.5257  0.5110  2.1155
    7CHTO   O40 2734   5.548   2.294   6.478  0.8666  0.0236 -0.2566
    7CHTO   C68 2735   5.624   2.206   6.390  0.7024  0.2981 -0.1461
    7CHTO  H125 2736   5.571   2.111   6.368  0.2559 -0.0071  2.1400
    7CHTO   C72 2737   5.747   2.163   6.478 -0.2453 -0.0901  0.2794
    7CHTO   O48 2738   5.844   2.267   6.494 -0.3090  0.1153  0.3888
    7CHTO  H105 2739   5.908   2.239   6.557 -1.5035 -0.8448  1.2131
    7CHTO   O38 2740   5.495   2.506   6.409  0.0564 -0.0809 -0.2942
    7CHTO   C55 2741   5.462   2.595   6.513  0.1759  0.6480 -0.8508
    7CHTO  H112 2742   5.445   2.533   6.603  1.0882  0.4100 -0.8321
    7CHTO   C56 2743   5.333   2.681   6.472  0.1326 -0.0112 -0.0236
    7CHTO  H113 2744   5.339   2.697   6.363 -2.7820  1.2920 -0.0259
    7CHTO   O42 2745   5.212   2.605   6.492 -0.2344 -0.5574 -0.9284
    7CHTO  H100 2746   5.184   2.559   6.415 -2.4076  0.3204 -0.6936
    7CHTO   C57 2747   5.323   2.817   6.543  0.8499 -0.2692 -0.4992
    7CHTO  H114 2748   5.299   2.798   6.647 -0.9033  0.9024 -0.6789
    7CHTO   N10 2749   5.216   2.903   6.488  0.1702 -0.9679 -0.1550
    7CHTO  H106 2750   5.126   2.885   6.545 -0.6855 -0.5812 -1.3564
    7CHTO  H107 2751   5.201   2.876   6.384  0.2289  0.9315 -0.6799
    7CHTO   C58 2752   5.456   2.887   6.544 -0.0506  0.2264  0.7059
    7CHTO  H115 2753   5.485   2.908   6.439 -3.8888 -0.7150 -0.6180
    7CHTO   O37 2754   5.554   2.805   6.599  0.0015  0.2636  0.4061
    7CHTO   C59 2755   5.589   2.681   6.534  0.4705 -0.4369 -0.2245
    7CHTO  H116 2756   5.634   2.709   6.440  1.7478 -0.8556  0.2546
    7CHTO   C70 2757   5.682   2.607   6.630 -0.2372 -0.5456 -0.2597
    7CHTO   O46 2758   5.813   2.675   6.637 -0.4930  0.1049  0.0767
    7CHTO  H103 2759   5.854   2.630   6.708 -1.8740  1.4421  1.7645
    7CHTO   O39 2760   5.462   3.017   6.636  0.0435  0.5176 -0.4518
    7CHTO   C60 2761   5.554   3.116   6.597 -0.1548 -0.2849  0.8896
    7CHTO  H117 2762   5.630   3.075   6.532 -0.1437  1.3636 -0.1461
    7CHTO   C62 2763   5.475   3.228   6.518 -0.7491 -0.1578  0.4251
    7CHTO  H119 2764   5.427   3.186   6.427 -2.2995  0.0416  1.1291
    7CHTO   O43 2765   5.364   3.258   6.603 -0.4863 -0.0053  0.1744
    7CHTO  H101 2766   5.296   3.304   6.558 -0.8385  0.9181  1.6197
    7CHTO   C66 2767   5.573   3.353   6.472 -0.2016  0.1080  0.2450
    7CHTO  H123 2768   5.651   3.319   6.403  0.4713 -0.9053  1.4963
    7CHTO   N12 2769   5.511   3.457   6.390  0.2998 -0.8457 -0.0794
    7CHTO  H110 2770   5.412   3.467   6.430 -1.0528  1.1877 -3.6632
    7CHTO  H111 2771   5.510   3.427   6.286  3.3481 -1.5553  0.0398
    7CHTO   C69 2772   5.635   3.409   6.601 -0.2933 -0.2165  0.3273
    7CHTO  H126 2773   5.551   3.447   6.663 -0.6701  0.3572 -0.5295
    7CHTO   O41 2774   5.705   3.303   6.669 -0.0416 -0.1064  0.7434
    7CHTO   C64 2775   5.623   3.176   6.725 -0.3219  0.4850 -0.6125
    7CHTO  H121 2776   5.539   3.216   6.786 -0.4237  0.8154 -0.9706
    7CHTO   C71 2777   5.725   3.078   6.795  0.5942  0.3050 -0.0122
    7CHTO   O47 2778   5.658   2.966   6.863 -0.1186 -0.5269  0.1458
    7CHTO  H104 2779   5.650   2.897   6.800  0.3277 -0.9179  0.5185
    7CHTO   O34 2780   5.740   3.537   6.583 -0.1025 -0.3060  0.4445
    7CHTO   C49 2781   5.764   3.623   6.736  0.0731  0.2597 -1.0802
    7CHTO   H91 2782   5.681   3.689   6.760  0.2797  0.2080 -0.1989
    7CHTO   C47 2783   5.886   3.710   6.718 -0.0429 -0.5610 -0.2170
    7CHTO   H89 2784   5.877   3.775   6.807  0.9576  0.9377 -1.1851
    7CHTO   O33 2785   5.878   3.787   6.599 -0.2985  0.1645  0.0050
    7CHTO   H70 2786   5.864   3.730   6.525  0.6775 -0.5132  0.3373
    7CHTO   C45 2787   6.018   3.617   6.706 -0.2874 -0.2340  0.0706
    7CHTO   H87 2788   6.047   3.597   6.601  1.9204  0.2354  0.5553
    7CHTO    N8 2789   6.129   3.693   6.766 -0.0125  0.3119  0.3352
    7CHTO   H75 2790   6.220   3.638   6.745  1.0920  2.3758 -0.4219
    7CHTO   H76 2791   6.118   3.712   6.872 -0.5417  1.3929  0.0887
    7CHTO   C43 2792   5.992   3.471   6.761 -0.4437  0.5831 -0.0284
    7CHTO   H85 2793   5.930   3.424   6.685 -0.1702  2.9509 -1.7667
    7CHTO   O29 2794   5.925   3.476   6.883  0.3866 -0.5066  0.3765
    7CHTO   C50 2795   5.786   3.524   6.867  0.2638 -0.4341  0.3369
    7CHTO   H92 2796   5.713   3.442   6.868  0.0182 -0.2767  4.3645
    7CHTO   C54 2797   5.749   3.601   6.997  0.1420 -0.3121  0.1883
    7CHTO   O36 2798   5.616   3.664   7.003 -0.0837  0.6332 -0.2990
    7CHTO   H72 2799   5.563   3.617   7.065  0.6914  1.8470  1.3255
    7CHTO   O27 2800   6.121   3.404   6.780  0.2206 -0.0046 -0.2598
    7CHTO   C37 2801   6.200   3.287   6.799 -0.3018 -0.1139 -0.4036
    7CHTO   H79 2802   6.169   3.241   6.894  1.8327 -0.0258  0.3662
    7CHTO   C38 2803   6.179   3.182   6.689  0.4951  0.0742 -0.3696
    7CHTO   H80 2804   6.188   3.236   6.593  0.8693  2.6792  1.0678
    7CHTO   O31 2805   6.047   3.131   6.714 -0.1566 -0.4475  0.8165
    7CHTO   H68 2806   6.037   3.075   6.789 -1.5658 -0.1151  0.8787
    7CHTO   C39 2807   6.286   3.069   6.691 -0.2529 -0.1993  0.1456
    7CHTO   H81 2808   6.266   3.008   6.779  0.4976 -0.5687  0.0654
    7CHTO    N7 2809   6.289   2.979   6.574 -0.1089 -0.6633 -0.3951
    7CHTO   H73 2810   6.267   2.879   6.611  1.6105 -0.5926  0.9213
    7CHTO   H74 2811   6.385   2.973   6.525 -0.4249  1.2053 -1.2568
    7CHTO   C40 2812   6.432   3.130   6.721 -0.2201 -0.2973  0.2174
    7CHTO   H82 2813   6.470   3.180   6.633 -3.0084 -3.6025 -3.0121
    7CHTO   O26 2814   6.429   3.216   6.834 -0.0487 -0.5128  0.1882
    7CHTO   C41 2815   6.353   3.329   6.811 -0.4016  0.7859 -0.4952
    7CHTO   H83 2816   6.383   3.389   6.724  0.0104 -0.0545 -0.9365
    7CHTO   C52 2817   6.359   3.429   6.930  0.1024 -0.1104 -0.4254
    7CHTO   O35 2818   6.505   3.465   6.959 -0.1897 -0.7952  0.1498
    7CHTO   H71 2819   6.512   3.535   7.021 -2.1618 -0.4711  0.0362
    7CHTO   O28 2820   6.525   3.031   6.756 -0.2441  0.1331  0.1290
    7CHTO   C42 2821   6.667   3.052   6.732  0.1701 -0.0772  0.6264
    7CHTO   H84 2822   6.713   2.962   6.774  1.7583 -0.4223 -1.7336
    7CHTO   C44 2823   6.728   3.174   6.809  0.0143 -0.3638  0.1890
    7CHTO   H86 2824   6.690   3.270   6.773  1.9576  0.3984  0.0823
    7CHTO   O32 2825   6.702   3.165   6.946 -0.2894 -0.2370  0.0922
    7CHTO   H69 2826   6.775   3.197   6.996 -0.3308  1.2555 -0.7768
    7CHTO   C48 2827   6.887   3.188   6.779 -0.1985  0.0174 -0.0016
    7CHTO   H90 2828   6.929   3.102   6.830 -1.3410  0.9577  2.6090
    7CHTO    N9 2829   6.948   3.305   6.850  0.7755  0.6758  0.0397
    7CHTO   H77 2830   6.896   3.397   6.829 -0.7970  0.4321  2.7234
    7CHTO   H78 2831   6.933   3.277   6.953  0.0074  0.6794 -0.0697
    7CHTO   C51 2832   6.904   3.192   6.618  0.7264  0.9287 -0.2325
    7CHTO   H93 2833   6.846   3.277   6.582 -1.9159 -1.0169 -0.7561
    7CHTO   O30 2834   6.855   3.065   6.567 -0.2298  0.1167 -0.6258
    7CHTO   C46 2835   6.707   3.055   6.584 -0.1605 -0.6776 -0.0748
    7CHTO   H88 2836   6.676   3.147   6.535  0.0434  0.0255  1.1003
    7CHTO   C53 2837   6.651   2.936   6.493  0.1448  0.4274 -0.6709
    7CHTO   O72 2838   6.721   2.813   6.516  0.1333 -0.4017  0.8525
    7CHTO  H199 2839   6.812   2.832   6.502  0.1709 -1.6357 -0.7131
    7CHTO   O22 2840   7.043   3.208   6.588  0.1969 -0.8602  0.3887
    7CHTO   C31 2841   7.101   3.253   6.456  0.1016  0.0330  0.2793
    7CHTO   H59 2842   7.212   3.259   6.469  0.0915  0.3684  0.2296
    7CHTO   C29 2843   7.077   3.156   6.344 -0.5440  0.0217  0.4976
    7CHTO   H57 2844   6.968   3.144   6.344 -0.7720  1.8985 -0.2611
    7CHTO   O21 2845   7.118   3.026   6.380 -0.1720  0.5617  0.8292
    7CHTO   H37 2846   7.107   2.968   6.307  3.2940 -0.1626  0.8054
    7CHTO   C27 2847   7.129   3.207   6.209 -0.1353  0.0250  0.4346
    7CHTO   H55 2848   7.239   3.206   6.209 -0.1341 -0.8343 -0.2513
    7CHTO    N5 2849   7.085   3.125   6.093  0.7656  0.2238 -0.6553
    7CHTO   H43 2850   7.136   3.030   6.097  2.2789  1.0212 -0.6557
    7CHTO   H44 2851   7.095   3.170   5.996 -0.1743 -0.4261 -1.0685
    7CHTO   C25 2852   7.085   3.351   6.188  0.4467  0.3278  0.0362
    7CHTO   H53 2853   6.976   3.339   6.185  0.7077 -1.7459 -2.5714
    7CHTO   O17 2854   7.125   3.438   6.301  0.0749 -0.0734 -0.5656
    7CHTO   C32 2855   7.054   3.393   6.419 -0.7845  0.4175  0.4581
    7CHTO   H60 2856   6.945   3.393   6.411 -0.7149  2.4230 -1.0416
    7CHTO   C36 2857   7.098   3.495   6.521 -0.4285 -0.3312  0.4205
    7CHTO   O25 2858   7.002   3.609   6.530 -0.3863 -0.4883  0.1620
    7CHTO   H40 2859   7.047   3.674   6.480 -0.3205 -0.6960 -0.0484
    7CHTO   O15 2860   7.168   3.415   6.055  0.0441  0.1165  0.0821
    7CHTO   C19 2861   7.133   3.522   5.959  0.9555 -1.2855 -0.2348
    7CHTO   H47 2862   7.230   3.553   5.919  0.9862 -2.4180 -1.0674
    7CHTO   C20 2863   7.035   3.465   5.847 -0.1344  0.3478  0.3498
    7CHTO   H48 2864   6.938   3.430   5.885 -0.7883  0.3683 -1.2653
    7CHTO   O19 2865   7.101   3.353   5.785 -0.3896 -0.3927 -0.2638
    7CHTO   H35 2866   7.133   3.293   5.851 -2.4370 -0.6920  0.5061
    7CHTO   C21 2867   7.019   3.587   5.747 -0.0644  0.2842 -0.3045
    7CHTO   H49 2868   7.121   3.608   5.714  0.4713  0.2993  1.3126
    7CHTO    N4 2869   6.946   3.563   5.620 -0.4833  0.2905 -0.1812
    7CHTO   H41 2870   6.924   3.457   5.619 -1.7535  0.5531 -1.7734
    7CHTO   H42 2871   7.013   3.578   5.537 -0.1906 -1.4810 -0.2910
    7CHTO   C22 2872   6.946   3.709   5.819  0.1389  0.9880  0.5081
    7CHTO   H50 2873   6.853   3.676   5.865  0.3210  0.0795  0.2442
    7CHTO   O14 2874   7.027   3.745   5.931 -0.2645  0.2585 -0.2512
    7CHTO   C23 2875   7.059   3.650   6.033  0.2708  0.4278  0.4262
    7CHTO   H51 2876   6.963   3.620   6.077  0.0342 -1.8637 -1.5329
    7CHTO   C34 2877   7.146   3.727   6.136 -0.5551 -0.2815  0.3420
    7CHTO   O23 2878   7.054   3.809   6.204 -0.0591 -0.0291 -0.5200
    7CHTO   H38 2879   7.102   3.885   6.232  0.9652 -1.2664  1.2065
    7CHTO   O16 2880   6.928   3.831   5.743 -0.1498  0.5997  0.5032
    7CHTO   C24 2881   6.811   3.915   5.787  0.1685 -0.1781  1.1840
    7CHTO   H52 2882   6.774   3.891   5.886 -1.0607  0.0648  0.7957
    7CHTO   C26 2883   6.693   3.887   5.690 -0.1205 -0.8501  0.2847
    7CHTO   H54 2884   6.724   3.901   5.584  2.5509  1.6623  1.3401
    7CHTO   O20 2885   6.649   3.745   5.693  0.0189 -0.4356 -0.1420
    7CHTO   H36 2886   6.614   3.709   5.773  0.4258 -0.9500 -0.1960
    7CHTO   C30 2887   6.577   3.988   5.728  0.9659  0.1864  0.5091
    7CHTO   H58 2888   6.532   3.964   5.825  0.1579 -0.6472 -0.0682
    7CHTO    N6 2889   6.461   3.992   5.637 -0.6007  0.1083  0.3620
    7CHTO   H45 2890   6.424   3.892   5.621 -2.6126  1.1519 -1.9032
    7CHTO   H46 2891   6.483   4.036   5.540 -2.2394 -0.4722 -0.2845
    7CHTO   C33 2892   6.620   4.137   5.750 -0.1772  0.2789  0.0858
    7CHTO   H61 2893   6.650   4.186   5.657  0.4313  1.3795  0.8488
    7CHTO   O18 2894   6.733   4.131   5.841 -0.1092 -0.3201  0.6044
    7CHTO   C28 2895   6.847   4.065   5.786 -0.3497 -0.1225 -0.1293
    7CHTO   H56 2896   6.865   4.092   5.683 -2.5080  3.2867  0.2906
    7CHTO   C35 2897   6.975   4.101   5.870 -0.4160 -0.4957 -0.9966
    7CHTO   O24 2898   6.974   4.069   6.014 -0.0571  0.1569 -0.4380
    7CHTO   H39 2899   7.047   4.014   6.034 -1.3749 -1.8738 -1.0934
    7CHTO    O9 2900   6.518   4.225   5.805  0.3990 -0.2401 -0.0906
    7CHTO   C13 2901   6.544   4.384   5.776  0.2773 -0.7186  0.1494
    7CHTO   H26 2902   6.586   4.389   5.673  1.1640 -0.5147  0.5195
    7CHTO   C11 2903   6.642   4.438   5.884  0.0020 -0.4297 -0.4451
    7CHTO   H24 2904   6.744   4.406   5.860  0.9944  1.1710  1.4925
    7CHTO    O8 2905   6.617   4.371   6.010  0.6277  0.5016 -0.4470
    7CHTO    H3 2906   6.693   4.348   6.060  0.4972  2.1677  0.5465
    7CHTO    C9 2907   6.628   4.594   5.887  0.2503 -0.2542 -0.1248
    7CHTO   H22 2908   6.645   4.627   5.784  0.6350 -0.6540 -0.1893
    7CHTO    N2 2909   6.737   4.652   5.964 -0.7280 -0.0602 -0.4727
    7CHTO   H10 2910   6.762   4.745   5.914 -0.8540  0.2353  0.0083
    7CHTO   H11 2911   6.823   4.587   5.958  0.1339  1.1237 -1.2429
    7CHTO    C7 2912   6.490   4.634   5.937  0.3487  0.3408 -0.3067
    7CHTO   H20 2913   6.495   4.741   5.910  0.9232  0.7856  1.4845
    7CHTO    O4 2914   6.381   4.577   5.860 -0.0219 -0.3445  0.5289
    7CHTO   C14 2915   6.409   4.474   5.769 -0.1449 -0.4489 -0.3605
    7CHTO   H27 2916   6.400   4.532   5.674  0.0832 -1.6950 -1.1538
    7CHTO   C18 2917   6.294   4.365   5.767 -0.2015 -0.1993  0.7837
    7CHTO   O13 2918   6.178   4.416   5.707 -0.1957  0.0590  0.4297
    7CHTO    H7 2919   6.121   4.451   5.774  0.1613 -0.3043  0.9314
    7CHTO    O2 2920   6.468   4.613   6.085 -0.2070 -0.1418  0.6351
    7CHTO    C1 2921   6.342   4.666   6.129  0.2754  0.2827 -0.1178
    7CHTO   H14 2922   6.271   4.691   6.048  2.9046 -1.6681 -3.1398
    7CHTO    C2 2923   6.365   4.783   6.224  0.5826  0.6988 -0.9548
    7CHTO   H15 2924   6.432   4.742   6.301  0.3798 -1.1298 -1.7270
    7CHTO    O6 2925   6.423   4.896   6.160  0.1178 -0.8020 -0.0312
    7CHTO    H1 2926   6.452   4.957   6.225  1.7660 -1.0954 -0.4768
    7CHTO    C3 2927   6.222   4.831   6.282  0.6859 -0.5437 -0.0266
    7CHTO   H16 2928   6.156   4.845   6.195  0.9559 -0.9944 -0.3009
    7CHTO    N1 2929   6.220   4.960   6.362  0.3246 -0.2316  0.6742
    7CHTO    H8 2930   6.287   4.955   6.446  0.6022 -0.3009  0.4496
    7CHTO    H9 2931   6.115   4.973   6.384 -0.0528  1.6020 -1.9736
    7CHTO    C4 2932   6.161   4.708   6.363  0.2650 -0.0704  0.0727
    7CHTO   H17 2933   6.225   4.681   6.447 -1.5265 -2.1508  0.7986
    7CHTO    O1 2934   6.155   4.592   6.279  0.1912 -0.5528  0.0060
    7CHTO    C5 2935   6.277   4.550   6.207  0.2256  0.2518  0.4007
    7CHTO   H18 2936   6.348   4.515   6.282 -0.9879  1.9974  2.4148
    7CHTO   C16 2937   6.239   4.439   6.115  0.2219  0.2383  0.2285
    7CHTO   O11 2938   6.136   4.475   6.025  0.8424  0.1796  0.0508
    7CHTO    H5 2939   6.079   4.401   6.015 -0.5413  1.4351 -1.8495
    7CHTO    O3 2940   6.026   4.724   6.398 -0.0749 -0.1737 -0.1202
    7CHTO    C6 2941   5.964   4.620   6.480 -1.0983  0.4798  0.3027
    7CHTO   H19 2942   6.022   4.528   6.491  1.6369  1.8183 -2.2628
    7CHTO    C8 2943   5.936   4.679   6.619 -0.2577 -0.0899 -0.4557
    7CHTO   H21 2944   5.891   4.776   6.600 -2.0243 -0.7627  0.1382
    7CHTO    O7 2945   6.067   4.702   6.674  0.2653 -0.2716 -0.6613
    7CHTO    H2 2946   6.071   4.790   6.707  0.6548 -0.2918 -0.6636
    7CHTO   C12 2947   5.847   4.588   6.707  0.0312 -0.1366 -0.4062
    7CHTO   H25 2948   5.918   4.505   6.726 -0.2480 -0.2418  0.1893
    7CHTO    N3 2949   5.808   4.660   6.838 -0.1895  0.3868  0.4779
    7CHTO   H12 2950   5.882   4.677   6.915 -0.2230  0.0469  0.5878
    7CHTO   H13 2951   5.764   4.755   6.814  2.0820  0.8895 -1.8860
    7CHTO   C15 2952   5.729   4.531   6.619 -0.1482 -0.5957 -0.2701
    7CHTO   H28 2953   5.659   4.613   6.606  0.2202 -0.4458 -1.3569
    7CHTO   O10 2954   5.652   4.399   6.687  0.3552  0.5453  0.1617
    7CHTO    H4 2955   5.680   4.317   6.651  0.1963  0.3316  0.5151
    7CHTO    O5 2956   5.768   4.480   6.495  0.0803  0.5056 -0.0588
    7CHTO   C10 2957   5.827   4.583   6.414  0.5843 -0.5257  0.1219
    7CHTO   H23 2958   5.766   4.672   6.401  2.6661  0.9384  0.0278
    7CHTO   C17 2959   5.831   4.526   6.268 -0.2672  0.6888  0.1757
    7CHTO   O12 2960   5.869   4.617   6.164  0.7747  0.3736  0.2823
    7CHTO    H6 2961   5.800   4.645   6.107  0.3653  0.8021  0.9804
    8CHTO  H203 2962   7.337   7.508   0.514  1.2131  0.5742 -0.0476
    8CHTO   O82 2963   7.381   7.468   0.587 -0.0511  0.2430  0.5333
    8CHTO  C123 2964   7.339   7.524   0.712 -0.4012  0.7292  0.0681
    8CHTO  H227 2965   7.372   7.457   0.794 -0.6747 -1.3876 -1.4982
    8CHTO   O77 2966   7.409   7.652   0.713 -0.1492 -0.6641 -0.0133
    8CHTO  C118 2967   7.383   7.732   0.827 -0.0620 -0.3964 -0.0747
    8CHTO  H222 2968   7.399   7.668   0.915  0.1451 -0.6780 -0.3180
    8CHTO  C125 2969   7.474   7.870   0.824  0.0909 -0.3737  0.5817
    8CHTO   O84 2970   7.441   7.949   0.707 -0.5442  0.6061 -0.0149
    8CHTO  H205 2971   7.441   7.896   0.630 -1.2736  1.1991 -0.4350
    8CHTO  C114 2972   7.231   7.770   0.845 -0.1898  0.8346  0.7068
    8CHTO  H218 2973   7.192   7.807   0.750 -1.8829 -2.1550  0.1471
    8CHTO  C116 2974   7.153   7.626   0.863 -0.6319 -0.2796 -0.1132
    8CHTO  H220 2975   7.183   7.578   0.958 -1.5621 -0.0278  0.3098
    8CHTO   O79 2976   7.015   7.670   0.875  0.1918  0.6120  0.3511
    8CHTO  H201 2977   6.970   7.631   0.948 -0.4043 -2.3811 -1.5090
    8CHTO  C120 2978   7.181   7.544   0.737 -0.1329 -0.3602  0.1233
    8CHTO  H224 2979   7.137   7.589   0.645 -0.0996  0.4847  0.5172
    8CHTO   N21 2980   7.104   7.416   0.746  0.3939 -0.3093  0.2537
    8CHTO  H211 2981   7.159   7.338   0.694 -0.7107  0.6268 -2.4379
    8CHTO  H212 2982   7.093   7.387   0.849  1.9170  3.7187  1.6436
    8CHTO   O75 2983   7.223   7.869   0.955 -0.5317  0.4008 -0.4078
    8CHTO  C112 2984   7.130   7.997   0.914  0.2248  0.1194  0.6301
    8CHTO  H216 2985   7.069   7.978   0.824  1.1829 -0.3680  0.0672
    8CHTO   O73 2986   7.222   8.104   0.893 -0.2223  0.2904 -0.0040
    8CHTO  C113 2987   7.157   8.227   0.858  0.2445 -0.6641 -0.1847
    8CHTO  H217 2988   7.130   8.214   0.751  1.1353  0.4124 -0.5451
    8CHTO  C124 2989   7.271   8.332   0.842 -0.4954 -0.1337 -0.2359
    8CHTO   O83 2990   7.349   8.345   0.963 -0.1950  0.4345 -0.2904
    8CHTO  H204 2991   7.309   8.413   1.012 -1.1288  0.9471 -1.7448
    8CHTO  C109 2992   7.044   8.280   0.956 -0.7956  0.1811  0.3371
    8CHTO  H213 2993   7.095   8.324   1.043  1.2657 -0.9347 -0.2731
    8CHTO  C110 2994   6.946   8.172   0.995 -0.0014  0.2700 -0.2221
    8CHTO  H214 2995   6.879   8.157   0.910 -0.6260 -0.7383  0.4337
    8CHTO   O78 2996   6.863   8.224   1.100  0.1863 -0.6656 -0.7421
    8CHTO  H200 2997   6.803   8.288   1.066  0.6622  0.9017  1.3560
    8CHTO  C111 2998   7.023   8.032   1.027  1.2397 -0.3902 -0.0045
    8CHTO  H215 2999   7.081   8.047   1.119  2.3467  0.6323 -0.8346
    8CHTO   N19 3000   6.932   7.913   1.052  1.3274 -0.3241  0.3885
    8CHTO  H207 3001   6.827   7.926   1.030  1.2801 -0.6096  0.4486
    8CHTO  H208 3002   6.967   7.847   1.129  0.2079 -1.5243 -0.1144
    8CHTO   O74 3003   6.974   8.385   0.888 -0.3387  0.0652  0.0787
    8CHTO  C115 3004   6.941   8.517   0.990  0.7493 -0.0465  0.0861
    8CHTO  H219 3005   6.959   8.495   1.095 -1.1522 -0.7112  0.2931
    8CHTO   O76 3006   7.018   8.633   0.956 -0.0881 -0.1800  0.7482
    8CHTO  C122 3007   7.016   8.667   0.815 -0.6930  0.1908  0.3577
    8CHTO  H226 3008   7.083   8.606   0.755 -2.3031  0.2338 -1.5570
    8CHTO  C126 3009   7.072   8.814   0.805 -0.0195  0.1503 -0.1581
    8CHTO   O85 3010   6.983   8.928   0.811  0.0945  0.2089  0.4264
    8CHTO  H206 3011   6.943   8.944   0.728  1.8296  2.4453 -0.0093
    8CHTO  C121 3012   6.874   8.643   0.741 -0.2823 -0.2699 -0.4644
    8CHTO  H225 3013   6.862   8.735   0.680  0.5272  0.1556  0.0089
    8CHTO   O81 3014   6.871   8.530   0.656  0.6048 -0.0842  0.4367
    8CHTO  H202 3015   6.836   8.544   0.570 -1.4397 -0.8422  1.1201
    8CHTO  C119 3016   6.764   8.642   0.860  0.1897 -0.2573 -0.5418
    8CHTO  H223 3017   6.773   8.740   0.908  1.0709 -0.4360 -0.3359
    8CHTO  C117 3018   6.787   8.529   0.966 -0.4168 -0.2803 -1.0845
    8CHTO  H221 3019   6.751   8.431   0.935  0.7668 -0.6570 -1.2894
    8CHTO   N20 3020   6.713   8.559   1.090 -0.7504 -0.7534  0.0960
    8CHTO  H209 3021   6.776   8.564   1.177 -1.1551  1.1280  0.2956
    8CHTO  H210 3022   6.649   8.645   1.076  2.5026  2.4847  3.7986
    8CHTO   O80 3023   6.603   8.646   0.796 -0.2512 -0.3175  0.7629
    8CHTO  C103 3024   6.523   8.783   0.785 -0.6017  0.6187 -0.3408
    8CHTO  H190 3025   6.415   8.772   0.771 -0.3689 -0.6079 -1.2681
    8CHTO  C101 3026   6.526   8.881   0.908  0.5999 -0.0031 -0.2560
    8CHTO  H188 3027   6.625   8.888   0.954 -0.5616  0.1331  2.2687
    8CHTO   O68 3028   6.409   8.816   1.014  0.5834  0.3666 -0.3292
    8CHTO  H168 3029   6.335   8.786   0.965 -0.7043  1.5524  0.8465
    8CHTO   C99 3030   6.480   9.023   0.861 -0.8516 -0.0168 -0.5416
    8CHTO  H186 3031   6.375   9.012   0.828 -1.4616 -0.0107  1.3485
    8CHTO   N17 3032   6.481   9.117   0.975  0.0259  0.0545  0.1320
    8CHTO  H174 3033   6.389   9.108   1.032  0.0055  1.4406  0.3357
    8CHTO  H175 3034   6.568   9.098   1.036 -0.4340  0.0780  0.8022
    8CHTO   C97 3035   6.562   9.065   0.740 -0.1185  0.4380 -0.2525
    8CHTO  H184 3036   6.669   9.067   0.765 -0.1895  0.1484  0.0704
    8CHTO   O64 3037   6.531   8.977   0.628  0.1593 -0.9542  0.4085
    8CHTO  C104 3038   6.586   8.850   0.654 -0.1764  0.1490  0.2029
    8CHTO  H191 3039   6.695   8.856   0.665 -0.1003  0.2529 -0.6204
    8CHTO  C108 3040   6.571   8.762   0.528 -0.5090 -1.2528  0.0742
    8CHTO   O71 3041   6.648   8.803   0.413  0.6880  0.8607 -0.4127
    8CHTO  H171 3042   6.631   8.894   0.397  0.8391  0.6675 -1.8009
    8CHTO   O62 3043   6.519   9.194   0.691  0.0571  0.0038  0.0517
    8CHTO   C91 3044   6.614   9.278   0.617 -0.0115 -0.2264 -0.1585
    8CHTO  H178 3045   6.705   9.218   0.616  0.4210  0.4039  0.5702
    8CHTO   C92 3046   6.638   9.401   0.707  0.4424 -0.0214 -0.5004
    8CHTO  H179 3047   6.543   9.423   0.757  0.8195 -2.0209  1.1444
    8CHTO   O66 3048   6.720   9.362   0.812 -0.4436  0.0316  0.0698
    8CHTO  H166 3049   6.739   9.438   0.863  0.5131 -2.1891  3.2044
    8CHTO   C93 3050   6.695   9.529   0.627 -0.0238 -0.2208  0.0293
    8CHTO  H180 3051   6.802   9.507   0.617  0.3159  0.8721  1.0805
    8CHTO   N16 3052   6.692   9.649   0.718 -0.6859  0.2486  0.0637
    8CHTO  H172 3053   6.718   9.734   0.658  0.7112  0.4840  0.9850
    8CHTO  H173 3054   6.756   9.653   0.805 -2.3144  2.5853  1.2085
    8CHTO   C94 3055   6.632   9.552   0.488 -0.4453 -0.4520  0.2846
    8CHTO  H181 3056   6.525   9.575   0.496 -0.8859 -2.3115  0.1052
    8CHTO   O61 3057   6.639   9.427   0.419 -0.8340 -0.2519 -0.0528
    8CHTO   C95 3058   6.555   9.323   0.477 -0.4786  0.5018 -0.2125
    8CHTO  H182 3059   6.452   9.359   0.478 -0.1940  1.3466 -0.2681
    8CHTO  C106 3060   6.559   9.210   0.371  0.4454  0.2551 -0.2990
    8CHTO   O69 3061   6.516   9.249   0.242 -0.2984 -0.0712  0.4689
    8CHTO  H169 3062   6.594   9.266   0.193  0.3697 -1.6375  0.9789
    8CHTO   O63 3063   6.712   9.682   0.401  0.4099  1.2227 -0.4188
    8CHTO   C96 3064   6.632   9.690   0.268  0.7621  0.0377  0.3080
    8CHTO  H183 3065   6.544   9.627   0.259 -0.2411  1.4907 -0.1596
    8CHTO   C98 3066   6.728   9.662   0.151 -0.4641 -0.0561 -0.8809
    8CHTO  H185 3067   6.825   9.712   0.165 -0.6247 -0.5122  2.0566
    8CHTO   O67 3068   6.751   9.520   0.150 -0.4508  0.2386 -0.0401
    8CHTO  H167 3069   6.804   9.487   0.220 -1.9978 -1.7842  0.2291
    8CHTO  C102 3070   6.665   9.711   0.009 -0.2262  0.3295 -0.2001
    8CHTO  H189 3071   6.579   9.645  -0.010  0.0715  0.0749 -0.6891
    8CHTO   N18 3072   6.760   9.690  -0.099 -0.7306 -0.2826  1.0431
    8CHTO  H176 3073   6.705   9.672  -0.191 -0.0733 -1.0102  0.7894
    8CHTO  H177 3074   6.815   9.600  -0.078  0.8439  0.6300  0.8773
    8CHTO  C105 3075   6.609   9.852   0.013  0.1232  0.3369  0.1621
    8CHTO  H192 3076   6.691   9.922   0.027 -1.0948  1.6988  0.6526
    8CHTO   O65 3077   6.525   9.866   0.126  0.2641 -0.3081  0.2105
    8CHTO  C100 3078   6.570   9.839   0.262  0.3864 -0.1050  0.2367
    8CHTO  H187 3079   6.647   9.915   0.284  1.0801 -0.2494 -1.6398
    8CHTO  C107 3080   6.453   9.845   0.355  0.0057  0.6108  0.1054
    8CHTO   O70 3081   6.428   9.987   0.379 -0.3285 -0.0705 -0.3084
    8CHTO  H170 3082   6.489  10.013   0.446 -1.0760  1.4060 -0.1723
    8CHTO   O57 3083   6.522   9.883  -0.135  0.1070  0.7544 -0.0191
    8CHTO   C85 3084   6.565   9.988  -0.224  0.8375 -0.6827 -0.4706
    8CHTO  H157 3085   6.675   9.995  -0.231  0.9613 -0.8080  1.2483
    8CHTO   C83 3086   6.535  10.131  -0.155 -0.2796  0.7889  1.0068
    8CHTO  H155 3087   6.605  10.133  -0.071  1.3446 -1.7236 -0.2116
    8CHTO   O56 3088   6.401  10.139  -0.096  1.1232 -0.4336  0.0923
    8CHTO  H135 3089   6.389  10.218  -0.049  0.2211 -0.9562  0.7515
    8CHTO   C81 3090   6.566  10.245  -0.250 -0.1723 -0.4735  0.9969
    8CHTO  H153 3091   6.671  10.237  -0.278 -0.3291 -1.2282  0.6137
    8CHTO   N14 3092   6.556  10.378  -0.194  0.5109  0.0629 -0.0473
    8CHTO  H141 3093   6.454  10.398  -0.169  0.4455  1.2706 -1.2698
    8CHTO  H142 3094   6.617  10.392  -0.107 -0.1702  0.5377  0.3642
    8CHTO   C79 3095   6.487  10.226  -0.385  0.0772  0.2298  0.5238
    8CHTO  H151 3096   6.510  10.308  -0.454  2.0436 -0.6334  0.1103
    8CHTO   O52 3097   6.519  10.099  -0.450 -0.2980  0.4797 -0.3516
    8CHTO   C86 3098   6.497   9.981  -0.364  0.0078 -0.2678  0.0816
    8CHTO  H158 3099   6.387   9.979  -0.362 -0.0891 -0.0826 -3.1762
    8CHTO   C90 3100   6.549   9.850  -0.436  0.1004 -0.3681 -1.2112
    8CHTO   O60 3101   6.689   9.858  -0.469 -0.1230  0.9342 -0.2010
    8CHTO  H138 3102   6.735   9.791  -0.421 -0.7607  2.4043  2.5788
    8CHTO   O50 3103   6.343  10.234  -0.371  0.2178 -0.3322 -0.3735
    8CHTO   C73 3104   6.216  10.259  -0.420  0.2879 -0.0444  0.2115
    8CHTO  H145 3105   6.209  10.216  -0.521 -0.7763 -2.8073  1.4046
    8CHTO   C74 3106   6.187  10.406  -0.425 -0.0028  0.4805  0.0978
    8CHTO  H146 3107   6.273  10.438  -0.486  1.4531 -0.4796  1.6202
    8CHTO   O54 3108   6.069  10.424  -0.507 -0.2132 -0.3893  0.0901
    8CHTO  H133 3109   6.074  10.380  -0.589  0.4620 -0.7960  0.3493
    8CHTO   C75 3110   6.172  10.483  -0.288 -0.0019 -0.1161 -0.2023
    8CHTO  H147 3111   6.268  10.478  -0.234 -0.9735 -1.2126  1.4894
    8CHTO   N13 3112   6.126  10.624  -0.305  0.0643  0.0269 -0.8975
    8CHTO  H139 3113   6.058  10.634  -0.388  1.2484  1.7082 -1.6943
    8CHTO  H140 3114   6.204  10.699  -0.314  1.0242 -0.7395  0.7005
    8CHTO   C76 3115   6.068  10.390  -0.197 -0.1175 -0.3227  0.0413
    8CHTO  H148 3116   5.968  10.396  -0.240 -0.0428  1.3007  0.0595
    8CHTO   O49 3117   6.113  10.248  -0.198  0.9877 -0.1012 -0.0770
    8CHTO   C77 3118   6.108  10.194  -0.327  0.3639  0.1652 -0.5071
    8CHTO  H149 3119   6.008  10.210  -0.368 -0.2957 -2.1483  0.1281
    8CHTO   C88 3120   6.122  10.042  -0.298 -0.4062  0.5216  0.3464
    8CHTO   O58 3121   6.126   9.957  -0.434 -0.2799 -0.6195  0.0152
    8CHTO  H136 3122   6.084  10.008  -0.500 -0.0308  1.5600  1.5157
    8CHTO   O51 3123   6.071  10.421  -0.053  0.1092  0.5528 -0.1350
    8CHTO   C78 3124   5.946  10.336   0.025  0.3694  0.4534 -0.3212
    8CHTO  H150 3125   5.891  10.260  -0.035 -0.7193  0.0161  1.1902
    8CHTO   C80 3126   5.841  10.444   0.066 -0.0994 -0.7740 -0.2732
    8CHTO  H152 3127   5.896  10.539   0.082 -0.3037 -1.1055  2.6584
    8CHTO   O55 3128   5.764  10.473  -0.052 -0.0135 -0.4454  0.2280
    8CHTO  H134 3129   5.822  10.520  -0.109  0.5701  0.9155  1.9310
    8CHTO   C84 3130   5.752  10.423   0.196 -0.1677  0.5193  0.4872
    8CHTO  H156 3131   5.667  10.363   0.162  0.7062 -0.6091  0.2528
    8CHTO   N15 3132   5.696  10.539   0.261  0.1924 -0.0187 -0.0565
    8CHTO  H143 3133   5.591  10.533   0.282  0.6779 -0.8703  2.2022
    8CHTO  H144 3134   5.709  10.629   0.204  0.5078  0.3680  0.6219
    8CHTO   C87 3135   5.824  10.329   0.301  0.3757  0.1362  0.0151
    8CHTO  H159 3136   5.897  10.388   0.357  0.0070  0.5622  0.0448
    8CHTO   O53 3137   5.893  10.206   0.226 -0.2239 -0.2218  0.2858
    8CHTO   C82 3138   6.005  10.254   0.141  0.2300 -0.5880  0.4460
    8CHTO  H154 3139   6.073  10.313   0.203 -0.9541 -0.4483  1.6399
    8CHTO   C89 3140   6.087  10.131   0.090 -0.0444  0.8904  0.4168
    8CHTO   O59 3141   6.162  10.086   0.202 -0.4908  0.5391 -0.3694
    8CHTO  H137 3142   6.128  10.121   0.282 -0.3396 -0.0765 -0.0285
    8CHTO   O45 3143   5.700  10.260   0.398  0.0765 -0.3561 -0.3356
    8CHTO   C67 3144   5.757  10.164   0.487 -0.5150 -0.7527 -0.2684
    8CHTO  H124 3145   5.835  10.106   0.439 -0.6169 -3.2892  2.4628
    8CHTO   C65 3146   5.820  10.235   0.613  0.3919  0.3247  0.2029
    8CHTO  H122 3147   5.748  10.313   0.638  1.5904  1.3377  0.6005
    8CHTO   O44 3148   5.945  10.298   0.575  0.1949  0.0861  0.0499
    8CHTO  H102 3149   5.941  10.376   0.626 -2.0265 -1.8435  3.0138
    8CHTO   C63 3150   5.821  10.141   0.741  0.6626 -0.2985  0.5774
    8CHTO  H120 3151   5.724  10.153   0.789 -0.3615 -0.1301 -1.5078
    8CHTO   N11 3152   5.918  10.175   0.850  0.2381  0.9536  0.6007
    8CHTO  H108 3153   5.939  10.096   0.919  1.7008 -0.2498 -1.1528
    8CHTO  H109 3154   5.888  10.268   0.895  1.2369  0.6772  1.8736
    8CHTO   C61 3155   5.831   9.992   0.693 -0.4459  0.1591  0.2410
    8CHTO  H118 3156   5.829   9.930   0.784  2.4443 -0.1309  0.1557
    8CHTO   O40 3157   5.709   9.957   0.618  0.8119  0.4986 -0.3000
    8CHTO   C68 3158   5.655  10.055   0.522 -0.2582  0.2642  0.4202
    8CHTO  H125 3159   5.565  10.105   0.563 -2.0039 -0.8124 -2.0128
    8CHTO   C72 3160   5.607   9.961   0.401  0.1101 -0.6731 -0.4795
    8CHTO   O48 3161   5.539  10.042   0.298  0.3395 -0.0299 -0.2739
    8CHTO  H105 3162   5.474   9.983   0.266 -1.6209  1.1742  1.3472
    8CHTO   O38 3163   5.948   9.962   0.615 -0.1157  0.5889  0.1113
    8CHTO   C55 3164   5.975   9.822   0.592 -0.7111  0.1775  0.2039
    8CHTO  H112 3165   5.887   9.761   0.614 -0.2022 -0.8874 -0.7020
    8CHTO   C56 3166   6.095   9.787   0.682 -0.5037  0.8275 -0.2867
    8CHTO  H113 3167   6.164   9.871   0.668 -0.3990  0.8081  0.1007
    8CHTO   O42 3168   6.055   9.815   0.817  0.2394 -0.0275  0.1094
    8CHTO  H100 3169   5.966   9.842   0.832  0.3433  1.2748 -1.4626
    8CHTO   C57 3170   6.158   9.642   0.667  0.1816  0.6640  0.8158
    8CHTO  H114 3171   6.085   9.578   0.714  0.3376 -0.9863 -1.1032
    8CHTO   N10 3172   6.290   9.623   0.737  0.5852  0.0180 -0.0647
    8CHTO  H106 3173   6.374   9.678   0.698 -0.4544  2.8342  1.5687
    8CHTO  H107 3174   6.280   9.635   0.844 -1.9446 -1.1359 -0.1421
    8CHTO   C58 3175   6.168   9.600   0.517  1.2837 -0.7613  0.4993
    8CHTO  H115 3176   6.251   9.659   0.473 -0.8899  1.2718 -0.9894
    8CHTO   O37 3177   6.046   9.642   0.447 -0.4105  0.2197  0.2482
    8CHTO   C59 3178   6.023   9.784   0.443 -0.0760 -0.0398 -0.0203
    8CHTO  H116 3179   6.112   9.840   0.416 -1.0821  1.3319 -0.5259
    8CHTO   C70 3180   5.927   9.810   0.322 -0.0247 -0.2904 -0.1295
    8CHTO   O46 3181   5.991   9.805   0.195  0.6392  0.6825  0.7948
    8CHTO  H103 3182   5.938   9.796   0.119  1.7610  1.8696 -0.1411
    8CHTO   O39 3183   6.203   9.425   0.495 -0.4113  0.2663  0.5431
    8CHTO   C60 3184   6.093   9.339   0.435  0.6020 -0.3801  0.2524
    8CHTO  H117 3185   5.997   9.370   0.477  0.0020  0.5958 -1.7826
    8CHTO   C62 3186   6.086   9.355   0.273 -0.4627 -0.2375 -1.1175
    8CHTO  H119 3187   6.076   9.461   0.241  1.8936  0.6026  0.7967
    8CHTO   O43 3188   6.212   9.318   0.215  0.2334  0.0037 -0.2855
    8CHTO  H101 3189   6.225   9.226   0.228  0.8061  0.0396 -0.5772
    8CHTO   C66 3190   5.959   9.268   0.215  0.3669 -0.9426 -0.1418
    8CHTO  H123 3191   5.870   9.313   0.260  0.3206 -0.5237 -0.6492
    8CHTO   N12 3192   5.954   9.276   0.067  0.1756 -0.2366 -0.0272
    8CHTO  H110 3193   6.020   9.200   0.026  1.6362  0.8043  0.3743
    8CHTO  H111 3194   5.852   9.270   0.032 -0.6076 -1.1213  2.3196
    8CHTO   C69 3195   5.965   9.118   0.263 -0.5303  0.3720  0.2358
    8CHTO  H126 3196   6.044   9.065   0.205 -1.1113 -0.0876 -0.1434
    8CHTO   O41 3197   5.983   9.098   0.409 -0.0460  0.2565  0.5183
    8CHTO   C64 3198   6.107   9.191   0.471 -0.0806  0.0916 -0.5986
    8CHTO  H121 3199   6.211   9.165   0.442 -0.4090  0.4088 -2.1131
    8CHTO   C71 3200   6.106   9.160   0.631 -0.2148  0.2864  0.1756
    8CHTO   O47 3201   6.215   9.231   0.691 -0.3387  0.1974  0.0675
    8CHTO  H104 3202   6.180   9.310   0.727  0.3356  1.2702 -1.5467
    8CHTO   O34 3203   5.813   9.037   0.236 -0.1305 -0.5828 -0.7774
    8CHTO   C49 3204   5.674   9.003   0.306 -0.0161 -0.3618  0.1472
    8CHTO   H91 3205   5.699   8.924   0.377  0.7282 -0.9251 -0.7252
    8CHTO   C47 3206   5.575   8.967   0.200 -0.3582  0.1823 -0.1975
    8CHTO   H89 3207   5.487   8.929   0.255 -0.4025 -1.1949 -1.1834
    8CHTO   O33 3208   5.631   8.853   0.128 -0.2896 -0.0052 -0.5638
    8CHTO   H70 3209   5.559   8.806   0.090 -0.5629  0.0342 -0.1119
    8CHTO   C45 3210   5.552   9.084   0.088 -0.4125 -0.6057  0.0967
    8CHTO   H87 3211   5.633   9.080   0.013  0.7871  2.1500  1.1595
    8CHTO    N8 3212   5.425   9.054   0.009 -0.0576 -0.7704  0.1055
    8CHTO   H75 3213   5.368   9.145   0.003  2.5822  0.7820 -1.9778
    8CHTO   H76 3214   5.365   8.982   0.064  0.6643 -2.5239 -1.3321
    8CHTO   C43 3215   5.567   9.225   0.159 -0.2320  0.3203 -0.5163
    8CHTO   H85 3216   5.673   9.248   0.148 -0.8109  2.5556 -1.8483
    8CHTO   O29 3217   5.526   9.220   0.298  0.3702 -0.5190 -0.5536
    8CHTO   C50 3218   5.602   9.127   0.381 -0.3217  0.1228  0.1468
    8CHTO   H92 3219   5.684   9.182   0.429 -2.5139  1.2521  2.7420
    8CHTO   C54 3220   5.522   9.094   0.505 -0.1661  0.0623 -0.0898
    8CHTO   O36 3221   5.584   8.995   0.583 -0.4993 -0.1663 -0.2513
    8CHTO   H72 3222   5.643   9.040   0.640  0.3111 -3.6642  1.8501
    8CHTO   O27 3223   5.507   9.334   0.083  0.0756 -0.4924 -0.6100
    8CHTO   C37 3224   5.475   9.473   0.110 -0.0570  0.3103 -0.5239
    8CHTO   H79 3225   5.463   9.473   0.219  2.6887 -0.5758 -0.1985
    8CHTO   C38 3226   5.588   9.571   0.065  0.1732 -0.6961  0.2334
    8CHTO   H80 3227   5.609   9.553  -0.042  0.7875  0.8499  0.0850
    8CHTO   O31 3228   5.706   9.528   0.136 -0.6360 -0.2525 -0.4929
    8CHTO   H68 3229   5.695   9.543   0.228 -1.7077 -1.4012 -0.4204
    8CHTO   C39 3230   5.560   9.720   0.091 -0.0218 -0.1098 -0.6615
    8CHTO   H81 3231   5.543   9.722   0.198 -3.5217  0.0545 -1.1601
    8CHTO    N7 3232   5.667   9.818   0.054  0.5659 -0.7045 -0.2968
    8CHTO   H73 3233   5.725   9.779  -0.028 -1.9867 -2.3723 -1.3874
    8CHTO   H74 3234   5.743   9.840   0.128  2.3559 -0.3495 -2.2201
    8CHTO   C40 3235   5.422   9.762   0.020 -0.0274 -0.1647 -0.2945
    8CHTO   H82 3236   5.443   9.765  -0.087 -0.9401  2.1027 -0.4321
    8CHTO   O26 3237   5.318   9.667   0.058 -0.0643 -0.7075  0.1493
    8CHTO   C41 3238   5.348   9.517   0.047  0.4114 -0.1460  0.3165
    8CHTO   H83 3239   5.369   9.488  -0.057  0.8846  1.2270  0.0171
    8CHTO   C52 3240   5.226   9.416   0.085  0.1719  1.0062  0.5574
    8CHTO   O35 3241   5.127   9.417  -0.006  0.6450 -0.1435  0.4676
    8CHTO   H71 3242   5.134   9.342  -0.062 -1.4155  0.1045 -0.1600
    8CHTO   O28 3243   5.370   9.888   0.060 -0.0020  0.0570 -0.6295
    8CHTO   C42 3244   5.318   9.985  -0.044 -0.9506  0.4944 -0.6197
    8CHTO   H84 3245   5.266  10.050   0.027 -0.5679  0.2242 -0.0878
    8CHTO   C44 3246   5.212   9.932  -0.149  0.8421  0.6763  0.4225
    8CHTO   H86 3247   5.261   9.848  -0.198  1.6677  0.8547  0.9391
    8CHTO   O32 3248   5.098   9.893  -0.076 -0.0253 -0.3899 -0.2456
    8CHTO   H69 3249   5.024   9.878  -0.132 -0.7547 -2.7405  1.2712
    8CHTO   C48 3250   5.170  10.038  -0.267  0.6420 -0.1110  0.2833
    8CHTO   H90 3251   5.115  10.126  -0.232 -1.0424 -1.0328 -0.0130
    8CHTO    N9 3252   5.080   9.974  -0.370 -0.1330 -0.1759 -0.5902
    8CHTO   H77 3253   5.121   9.880  -0.404  0.5268  0.3671 -1.3098
    8CHTO   H78 3254   5.043  10.042  -0.445  1.7246  0.5996 -0.8444
    8CHTO   C51 3255   5.301  10.103  -0.330 -0.4107  0.2732  0.3042
    8CHTO   H93 3256   5.365  10.025  -0.372  1.1905  0.7511  1.8077
    8CHTO   O30 3257   5.369  10.166  -0.221  0.0033 -0.0667  0.0457
    8CHTO   C46 3258   5.434  10.068  -0.115  0.6761 -1.0029  0.1262
    8CHTO   H88 3259   5.501  10.004  -0.172  1.3718 -0.3915  0.2516
    8CHTO   C53 3260   5.502  10.170  -0.018 -0.0564  0.1926  0.6992
    8CHTO   O72 3261   5.639  10.163  -0.054 -0.4577  0.4280 -0.8426
    8CHTO  H199 3262   5.681  10.082  -0.031  0.4506  1.7962  2.5189
    8CHTO   O22 3263   5.283  10.207  -0.426  0.0433 -0.3965  0.0772
    8CHTO   C31 3264   5.398  10.237  -0.515 -0.1975  0.0996 -0.3310
    8CHTO   H59 3265   5.362  10.313  -0.588  1.2500  2.9473  1.8510
    8CHTO   C29 3266   5.516  10.311  -0.438  0.2430 -0.2785 -0.3505
    8CHTO   H57 3267   5.547  10.247  -0.354 -2.2497 -2.1519 -0.7856
    8CHTO   O21 3268   5.460  10.428  -0.376 -0.0369 -0.0348  0.1955
    8CHTO   H37 3269   5.516  10.468  -0.313 -2.2191  0.3322  1.9842
    8CHTO   C27 3270   5.642  10.338  -0.529  0.1301 -0.6652  0.0095
    8CHTO   H55 3271   5.615  10.401  -0.615 -2.8321 -0.6473  0.9034
    8CHTO    N5 3272   5.760  10.396  -0.456 -0.5128 -0.7118 -0.2900
    8CHTO   H43 3273   5.737  10.484  -0.397 -0.8224  0.1636 -1.7036
    8CHTO   H44 3274   5.816  10.330  -0.392 -0.0075 -1.0825 -1.1125
    8CHTO   C25 3275   5.680  10.199  -0.590 -0.2189  0.0972 -0.0677
    8CHTO   H53 3276   5.715  10.128  -0.514 -0.1517 -0.6703 -0.8062
    8CHTO   O17 3277   5.575  10.144  -0.672  0.3767  0.1552  0.1986
    8CHTO   C32 3278   5.453  10.114  -0.596 -0.0212 -0.2339  0.4878
    8CHTO   H60 3279   5.483  10.026  -0.538  0.2669 -0.4179  0.0554
    8CHTO   C36 3280   5.345  10.061  -0.699  0.5794 -0.4013  0.1610
    8CHTO   O25 3281   5.382   9.933  -0.743  0.6154  0.5836  0.0284
    8CHTO   H40 3282   5.309   9.910  -0.798  0.5664 -1.0906  0.7536
    8CHTO   O15 3283   5.818  10.230  -0.697 -0.2158 -0.0957 -0.4526
    8CHTO   C19 3284   5.915  10.159  -0.780 -0.0281 -0.4867 -0.3466
    8CHTO   H47 3285   5.856  10.128  -0.867  1.3311  0.9407 -1.8131
    8CHTO   C20 3286   6.029  10.251  -0.831 -0.7317 -0.0074 -0.1625
    8CHTO   H48 3287   6.085  10.291  -0.746 -4.1197  0.8680  1.7583
    8CHTO   O19 3288   5.967  10.364  -0.886 -0.0541  0.0374 -0.6998
    8CHTO   H35 3289   6.028  10.419  -0.931 -2.5683  1.5155 -2.4208
    8CHTO   C21 3290   6.140  10.185  -0.919  0.0650  0.9405  0.1639
    8CHTO   H49 3291   6.099  10.157  -1.016  0.1069  1.7739 -0.0964
    8CHTO    N4 3292   6.253  10.275  -0.961 -0.6458  0.2913 -0.7845
    8CHTO   H41 3293   6.247  10.383  -0.957  1.8569  0.3963  1.6960
    8CHTO   H42 3294   6.352  10.247  -0.928 -0.9590  0.9713  0.8074
    8CHTO   C22 3295   6.191  10.056  -0.846 -0.0655 -0.4149 -0.1450
    8CHTO   H50 3296   6.249  10.090  -0.760 -0.0359  1.8825 -1.0400
    8CHTO   O14 3297   6.077   9.978  -0.803 -0.1848 -0.5163  0.0302
    8CHTO   C23 3298   5.978  10.038  -0.713 -0.0230 -0.2539 -0.0177
    8CHTO   H51 3299   6.024  10.065  -0.617  2.6060  0.1003 -1.3555
    8CHTO   C34 3300   5.868   9.929  -0.682 -0.9576 -0.1834  0.2036
    8CHTO   O23 3301   5.931   9.821  -0.615  0.0384  0.1762  0.5259
    8CHTO   H38 3302   5.866   9.753  -0.613 -0.3688  0.5755  1.0687
    8CHTO   O16 3303   6.278   9.979  -0.934  0.9008 -0.1326 -0.6544
    8CHTO   C24 3304   6.354   9.866  -0.862 -0.7391  0.4509  0.7200
    8CHTO   H52 3305   6.315   9.846  -0.763  0.1523  0.4412  1.0755
    8CHTO   C26 3306   6.501   9.907  -0.850  0.3341  0.4016 -0.1667
    8CHTO   H54 3307   6.525   9.944  -0.952 -0.4848 -1.4340 -1.0477
    8CHTO   O20 3308   6.513  10.005  -0.744 -0.7241  0.2465 -0.2531
    8CHTO   H36 3309   6.604  10.026  -0.732 -0.3419  0.8659 -3.7615
    8CHTO   C30 3310   6.596   9.786  -0.818 -0.2808  0.5435  0.0848
    8CHTO   H58 3311   6.592   9.762  -0.711 -0.8764 -1.6031 -0.4060
    8CHTO    N6 3312   6.737   9.822  -0.849 -0.2108  0.3708 -0.2977
    8CHTO   H45 3313   6.771   9.819  -0.951  1.7095 -1.8277  0.3512
    8CHTO   H46 3314   6.798   9.747  -0.800 -0.5489  0.5304  0.3661
    8CHTO   C33 3315   6.552   9.657  -0.888 -0.5925 -0.9028 -0.3046
    8CHTO   H61 3316   6.584   9.665  -0.993 -2.5600 -0.1948 -0.8664
    8CHTO   O18 3317   6.408   9.635  -0.885 -0.4191 -0.1518  0.2855
    8CHTO   C28 3318   6.336   9.733  -0.950  0.2829 -0.8789  0.1269
    8CHTO   H56 3319   6.374   9.747  -1.051 -0.8779 -0.8960 -0.3234
    8CHTO   C35 3320   6.193   9.686  -0.955  0.0667 -0.3948 -0.0736
    8CHTO   O24 3321   6.128   9.679  -0.827 -0.2372  0.0170  0.2031
    8CHTO   H39 3322   6.037   9.656  -0.829 -0.6613  0.9221  4.3311
    8CHTO    O9 3323   6.620   9.547  -0.835 -0.0489 -0.5836 -0.0615
    8CHTO   C13 3324   6.613   9.422  -0.927 -0.8136 -0.7789  0.1937
    8CHTO   H26 3325   6.591   9.452  -1.031  0.4508 -0.8803 -0.1108
    8CHTO   C11 3326   6.484   9.334  -0.863  0.7362 -1.2816 -0.0943
    8CHTO   H24 3327   6.389   9.374  -0.902  2.7687  2.6001 -1.3292
    8CHTO    O8 3328   6.473   9.334  -0.721  0.5573 -0.4230 -0.4078
    8CHTO    H3 3329   6.498   9.410  -0.672  0.6561 -0.4858 -0.3590
    8CHTO    C9 3330   6.494   9.186  -0.913  0.8167 -0.9495 -0.6995
    8CHTO   H22 3331   6.521   9.198  -1.019 -1.1172 -1.4215 -1.2600
    8CHTO    N2 3332   6.383   9.092  -0.900 -0.1602  0.4731 -0.7645
    8CHTO   H10 3333   6.398   9.004  -0.839 -2.5249  0.7961  0.3564
    8CHTO   H11 3334   6.292   9.143  -0.873 -0.8203 -0.0318 -2.0026
    8CHTO    C7 3335   6.628   9.130  -0.849  0.0443 -0.3636 -0.4426
    8CHTO   H20 3336   6.644   9.049  -0.922  0.3284 -0.8205  0.1220
    8CHTO    O4 3337   6.728   9.231  -0.836 -0.4433  0.1426  0.7768
    8CHTO   C14 3338   6.745   9.333  -0.937 -0.4213 -0.3215 -0.4251
    8CHTO   H27 3339   6.756   9.289  -1.038 -2.9649  0.2403 -0.9767
    8CHTO   C18 3340   6.868   9.427  -0.923 -0.1363 -0.2004  0.0900
    8CHTO   O13 3341   6.880   9.508  -1.043  0.0016  0.7995  0.0318
    8CHTO    H7 3342   6.931   9.471  -1.112  1.0902 -0.5906  1.5432
    8CHTO    O2 3343   6.609   9.057  -0.695 -0.3979  0.4299 -0.1499
    8CHTO    C1 3344   6.706   8.955  -0.664  0.0129 -0.4191  0.1718
    8CHTO   H14 3345   6.733   8.968  -0.557 -0.2230 -0.8532  0.2875
    8CHTO    C2 3346   6.845   8.961  -0.742 -0.5022  0.2745 -0.1624
    8CHTO   H15 3347   6.818   8.974  -0.848 -1.2787  0.2480  0.0286
    8CHTO    O6 3348   6.927   9.074  -0.706 -0.4934 -0.1241 -0.2201
    8CHTO    H1 3349   7.018   9.059  -0.724 -0.1421  1.3912  0.2805
    8CHTO    C3 3350   6.935   8.828  -0.728  0.9887 -0.6161 -0.0874
    8CHTO   H16 3351   6.977   8.827  -0.626  1.1427  1.5340 -0.1014
    8CHTO    N1 3352   7.046   8.826  -0.831  0.2393  0.3236  0.5213
    8CHTO    H8 3353   7.054   8.928  -0.864 -0.5257 -0.5272 -2.4366
    8CHTO    H9 3354   7.030   8.763  -0.917  0.2311  0.7944  0.1820
    8CHTO    C4 3355   6.838   8.701  -0.732 -0.1408  0.1968  0.3638
    8CHTO   H17 3356   6.800   8.688  -0.833  1.0392  1.2201 -0.2241
    8CHTO    O1 3357   6.727   8.707  -0.641  0.4620 -0.0123 -0.2773
    8CHTO    C5 3358   6.637   8.818  -0.672  0.8564  0.9201 -0.8272
    8CHTO   H18 3359   6.602   8.810  -0.775  1.6052 -0.2856 -1.0000
    8CHTO   C16 3360   6.515   8.811  -0.569 -0.7186  0.1091 -0.1931
    8CHTO   O11 3361   6.415   8.912  -0.602  0.3255 -0.1308  0.2191
    8CHTO    H5 3362   6.336   8.899  -0.552 -0.3288 -0.2835 -0.8232
    8CHTO    O3 3363   6.915   8.587  -0.693  0.2873  0.0783 -0.0740
    8CHTO    C6 3364   6.866   8.456  -0.699 -0.3783 -0.0189 -0.1402
    8CHTO   H19 3365   6.758   8.447  -0.686 -0.0335 -1.2923  2.1861
    8CHTO    C8 3366   6.910   8.384  -0.837 -0.2371  0.4457 -0.2101
    8CHTO   H21 3367   7.016   8.408  -0.851  0.0888 -0.0667  1.2307
    8CHTO    O7 3368   6.828   8.455  -0.930  0.1884 -0.1188  0.3078
    8CHTO    H2 3369   6.879   8.475  -1.007 -0.4659 -0.1786 -0.1455
    8CHTO   C12 3370   6.878   8.229  -0.829  0.1969 -0.1214  0.2660
    8CHTO   H25 3371   6.767   8.229  -0.819 -0.0977  0.6853 -2.6111
    8CHTO    N3 3372   6.926   8.157  -0.950  0.4980  0.5618 -0.5899
    8CHTO   H12 3373   6.861   8.166  -1.036  0.7805 -3.0949 -1.2898
    8CHTO   H13 3374   6.954   8.055  -0.928 -1.9653  0.2409  1.3523
    8CHTO   C15 3375   6.941   8.172  -0.706 -0.1191  0.0176 -0.2459
    8CHTO   H28 3376   7.049   8.186  -0.712  0.0432 -1.0912  0.0614
    8CHTO   O10 3377   6.895   8.020  -0.665 -0.0220  0.7168 -0.1370
    8CHTO    H4 3378   6.808   8.010  -0.697 -1.3133  3.5045  2.2382
    8CHTO    O5 3379   6.893   8.240  -0.585  0.7717  0.1215  0.5097
    8CHTO   C10 3380   6.926   8.378  -0.580 -0.7798  0.6788 -0.1542
    8CHTO   H23 3381   7.033   8.400  -0.585 -0.8042  0.7888 -0.2056
    8CHTO   C17 3382   6.874   8.445  -0.448  0.0909 -0.1506  0.1985
    8CHTO   O12 3383   6.734   8.410  -0.422 -0.7367 -0.0170 -0.0413
    8CHTO    H6 3384   6.712   8.458  -0.344  0.1521 -1.5970  1.2065
    9CHTO  H203 3385   6.427   5.212   4.926 -0.9878  1.1159 -0.4759
    9CHTO   O82 3386   6.441   5.249   5.011 -0.7432  0.0315 -0.0405
    9CHTO  C123 3387   6.584   5.234   5.026  0.3106  0.8099  0.1604
    9CHTO  H227 3388   6.613   5.272   5.126 -0.6241 -2.1115  1.5823
    9CHTO   O77 3389   6.609   5.093   5.022 -0.4844  0.1540 -0.0461
    9CHTO  C118 3390   6.743   5.039   5.025  0.1315  0.4528  0.2164
    9CHTO  H222 3391   6.804   5.081   5.106  1.1355 -0.4499 -0.0571
    9CHTO  C125 3392   6.743   4.880   5.045  0.2015 -0.8028 -0.2661
    9CHTO   O84 3393   6.734   4.848   5.182  0.5239 -0.5515  0.0707
    9CHTO  H205 3394   6.819   4.823   5.212  0.9643  1.3644  0.4805
    9CHTO  C114 3395   6.811   5.087   4.896 -0.3757 -0.0361 -0.4225
    9CHTO  H218 3396   6.752   5.050   4.812 -0.9742  0.9606 -0.4567
    9CHTO  C116 3397   6.806   5.245   4.898  0.2934 -0.3671 -0.3951
    9CHTO  H220 3398   6.876   5.287   4.974  0.2257  1.1691 -1.1632
    9CHTO   O79 3399   6.871   5.285   4.774  0.2959 -0.4928  0.5376
    9CHTO  H201 3400   6.959   5.254   4.774  0.7575  0.5563  4.6361
    9CHTO  C120 3401   6.661   5.311   4.912  0.4247 -0.6124  0.8376
    9CHTO  H224 3402   6.605   5.288   4.818  1.0705  1.5772 -0.1111
    9CHTO   N21 3403   6.652   5.457   4.925 -0.4306 -0.2278 -0.3542
    9CHTO  H211 3404   6.637   5.499   4.827  0.3929  0.5365 -0.1689
    9CHTO  H212 3405   6.582   5.505   4.991  0.7083  2.3712 -0.9620
    9CHTO   O75 3406   6.943   5.033   4.900 -0.1889 -0.3380  0.5548
    9CHTO  C112 3407   6.970   4.968   4.745 -0.3820 -0.7132  0.4185
    9CHTO  H216 3408   6.904   5.020   4.673 -0.5371  3.1174  3.1583
    9CHTO   O73 3409   6.948   4.826   4.752  0.1628 -0.1288  0.3052
    9CHTO  C113 3410   6.967   4.759   4.628  0.0836  0.4956 -0.0637
    9CHTO  H217 3411   6.893   4.805   4.559  0.0236  1.6022  0.7345
    9CHTO  C124 3412   6.932   4.616   4.650  0.5503 -0.2593  0.1336
    9CHTO   O83 3413   6.801   4.571   4.684 -0.1567 -0.0484 -0.4744
    9CHTO  H204 3414   6.808   4.489   4.730 -2.2514 -0.0135 -0.0221
    9CHTO  C109 3415   7.109   4.769   4.579  0.3649 -0.0243  0.2918
    9CHTO  H213 3416   7.177   4.738   4.659 -0.2889  1.7140  1.5547
    9CHTO  C110 3417   7.140   4.920   4.560 -0.5052  0.0998  0.0242
    9CHTO  H214 3418   7.077   4.963   4.482 -0.1932 -1.9461 -1.4037
    9CHTO   O78 3419   7.274   4.920   4.505  0.1071  0.1237  0.5221
    9CHTO  H200 3420   7.319   5.002   4.517 -0.9291  1.0146 -1.4851
    9CHTO  C111 3421   7.121   4.992   4.698  0.7634 -0.5535 -0.6206
    9CHTO  H215 3422   7.192   4.953   4.773  2.5270  2.0660 -0.8677
    9CHTO   N19 3423   7.148   5.141   4.683  0.0063  0.2109  0.0149
    9CHTO  H207 3424   7.054   5.191   4.700 -0.3055  0.1831 -1.5220
    9CHTO  H208 3425   7.216   5.182   4.756 -0.4489  0.2605  0.4074
    9CHTO   O74 3426   7.126   4.682   4.458  0.9140 -0.2429  0.3325
    9CHTO  C115 3427   7.272   4.617   4.449  0.2388  0.2282 -0.0038
    9CHTO  H219 3428   7.345   4.676   4.505 -2.3377  2.9776  0.5884
    9CHTO   O76 3429   7.280   4.462   4.510  0.1310 -0.1326  0.1302
    9CHTO  C122 3430   7.197   4.373   4.440 -0.3439  0.5232  0.1625
    9CHTO  H226 3431   7.092   4.401   4.449 -0.2539  1.5145 -1.6465
    9CHTO  C126 3432   7.212   4.238   4.517 -0.3525  0.4784  0.1508
    9CHTO   O85 3433   7.100   4.147   4.511 -0.1473  0.3369 -0.0729
    9CHTO  H206 3434   7.109   4.092   4.436 -1.4743  1.2872 -0.9383
    9CHTO  C121 3435   7.237   4.365   4.281  0.7623  0.0127 -0.5996
    9CHTO  H225 3436   7.346   4.343   4.287  0.6394  0.0034  2.3078
    9CHTO   O81 3437   7.153   4.266   4.218 -0.5562 -0.6867 -0.5899
    9CHTO  H202 3438   7.109   4.315   4.150  0.2051 -0.6998 -1.1033
    9CHTO  C119 3439   7.222   4.515   4.223 -0.0594  0.7752 -0.5478
    9CHTO  H223 3440   7.264   4.507   4.122  1.1991  0.4015 -0.0084
    9CHTO  C117 3441   7.307   4.623   4.295  0.5567  0.1810 -0.4573
    9CHTO  H221 3442   7.275   4.723   4.265 -0.8367 -0.1840 -0.2272
    9CHTO   N20 3443   7.457   4.621   4.270 -0.0047  0.0857  0.5519
    9CHTO  H209 3444   7.477   4.597   4.167 -0.6718  2.0270 -0.0498
    9CHTO  H210 3445   7.487   4.724   4.285 -1.1302  0.3584  0.9754
    9CHTO   O80 3446   7.086   4.546   4.199 -0.4890  0.2706 -0.3173
    9CHTO  C103 3447   7.043   4.649   4.091  0.2361  0.3987  0.4088
    9CHTO  H190 3448   7.070   4.753   4.110  2.5141  0.5963 -3.4337
    9CHTO  C101 3449   7.070   4.617   3.942  0.0570  0.1499 -0.4561
    9CHTO  H188 3450   7.028   4.519   3.916 -1.8067  1.1217 -1.1973
    9CHTO   O68 3451   7.215   4.636   3.918 -0.1672  0.2132 -0.2156
    9CHTO  H168 3452   7.227   4.645   3.825  0.2961 -0.6686 -0.2452
    9CHTO   C99 3453   6.980   4.721   3.848 -0.6269  0.3602 -0.0969
    9CHTO  H186 3454   7.022   4.822   3.868 -1.7879  1.0213 -0.8839
    9CHTO   N17 3455   7.001   4.711   3.702 -0.2818  0.4692  0.1647
    9CHTO  H174 3456   6.976   4.610   3.673  2.8262 -1.3816  3.4631
    9CHTO  H175 3457   7.098   4.745   3.671 -0.8044  2.0215  0.1800
    9CHTO   C97 3458   6.832   4.720   3.898 -1.0269 -0.1398 -1.1733
    9CHTO  H184 3459   6.784   4.626   3.868 -0.8213 -0.5369 -0.2693
    9CHTO   O64 3460   6.824   4.752   4.042  0.0443  0.1203 -0.5182
    9CHTO  C104 3461   6.886   4.650   4.122 -0.5768 -0.5464  0.2959
    9CHTO  H191 3462   6.844   4.551   4.103 -2.0426  0.6192 -2.9739
    9CHTO  C108 3463   6.859   4.687   4.265  0.5355 -0.0521  0.3894
    9CHTO   O71 3464   6.923   4.804   4.316 -0.2898 -0.1361 -0.4394
    9CHTO  H171 3465   7.001   4.782   4.364 -0.9746  0.4925  0.9734
    9CHTO   O62 3466   6.770   4.840   3.858 -0.0420  0.1834 -0.7813
    9CHTO   C91 3467   6.680   4.834   3.744  0.1480  0.6643  0.3770
    9CHTO  H178 3468   6.710   4.753   3.677 -0.2163 -0.3215  1.3819
    9CHTO   C92 3469   6.694   4.962   3.660  0.0079 -0.1665 -0.1331
    9CHTO  H179 3470   6.798   4.996   3.649 -0.3424  1.3146  0.9543
    9CHTO   O66 3471   6.645   4.942   3.526  0.3526 -0.1247  0.3516
    9CHTO  H166 3472   6.682   5.008   3.470 -1.2904 -1.0485 -1.9136
    9CHTO   C93 3473   6.604   5.081   3.716 -0.1893  0.7272  0.2238
    9CHTO  H180 3474   6.575   5.141   3.628 -0.2717 -1.4818 -1.3076
    9CHTO   N16 3475   6.679   5.169   3.807 -0.1139  0.0803  0.1166
    9CHTO  H172 3476   6.757   5.225   3.757  0.9288 -1.1433  0.3625
    9CHTO  H173 3477   6.714   5.115   3.894 -1.6626 -3.2052 -1.2556
    9CHTO   C94 3478   6.471   5.029   3.785  0.4083 -0.5475  0.3819
    9CHTO  H181 3479   6.482   5.014   3.892  1.3122 -2.8674 -0.0119
    9CHTO   O61 3480   6.427   4.903   3.736 -0.7858 -0.2103 -0.0475
    9CHTO   C95 3481   6.524   4.797   3.776 -1.1339 -0.9137 -0.5964
    9CHTO  H182 3482   6.513   4.783   3.883 -0.9189  1.4660 -0.2231
    9CHTO  C106 3483   6.477   4.668   3.699  0.6480 -0.9402  0.5060
    9CHTO   O69 3484   6.341   4.630   3.725 -0.2747 -0.0842 -0.5935
    9CHTO  H169 3485   6.312   4.568   3.660 -2.0120  0.6304 -0.5152
    9CHTO   O63 3486   6.351   5.140   3.752  0.1655 -0.5299 -0.7281
    9CHTO   C96 3487   6.220   5.132   3.850  0.5061  0.4176 -0.3099
    9CHTO  H183 3488   6.258   5.151   3.951  0.3363  0.2940 -0.2239
    9CHTO   C98 3489   6.139   4.997   3.860  0.7926 -0.3538 -0.5972
    9CHTO  H185 3490   6.116   4.955   3.761 -1.9600  1.3132 -0.6996
    9CHTO   O67 3491   6.222   4.897   3.924  0.0859 -0.1301 -0.7209
    9CHTO  H167 3492   6.223   4.823   3.866 -1.8845 -1.4638  0.8611
    9CHTO  C102 3493   6.002   5.015   3.952 -0.0332  0.2512  0.5674
    9CHTO  H189 3494   6.036   5.029   4.056  1.1533 -0.0374  0.2239
    9CHTO   N18 3495   5.918   4.894   3.955 -0.5361 -0.4345 -0.9036
    9CHTO  H176 3496   5.855   4.889   3.868  0.5074 -0.8443 -1.6488
    9CHTO  H177 3497   5.982   4.807   3.960  0.7725  0.5292 -0.3702
    9CHTO  C105 3498   5.927   5.145   3.920  0.3070 -0.1048 -0.1486
    9CHTO  H192 3499   5.866   5.132   3.830  0.2742  1.3140 -0.3401
    9CHTO   O65 3500   6.008   5.266   3.901  0.6561 -0.1160  0.1708
    9CHTO  C100 3501   6.121   5.251   3.814 -0.7221  0.0137  0.1343
    9CHTO  H187 3502   6.078   5.229   3.715 -3.1019  0.3007  1.0563
    9CHTO  C107 3503   6.194   5.395   3.809 -0.4643 -0.7463 -0.3326
    9CHTO   O70 3504   6.299   5.415   3.716 -0.2030  0.3952  0.2566
    9CHTO  H170 3505   6.368   5.456   3.764 -0.2442  1.5337 -0.6476
    9CHTO   O57 3506   5.818   5.169   4.044  0.0793  0.5029 -0.0454
    9CHTO   C85 3507   5.707   5.261   4.032 -0.0681  0.9613 -0.2923
    9CHTO  H157 3508   5.633   5.212   3.965 -1.5057  1.9160  0.5690
    9CHTO   C83 3509   5.743   5.398   3.957  0.2034  0.8333 -0.2377
    9CHTO  H155 3510   5.777   5.368   3.858 -2.7452 -2.3419 -0.3610
    9CHTO   O56 3511   5.857   5.467   4.021  0.0394 -0.3321  0.6454
    9CHTO  H135 3512   5.934   5.418   4.043  0.4695  0.2477  0.4465
    9CHTO   C81 3513   5.616   5.481   3.936  0.0951 -0.2509  0.6370
    9CHTO  H153 3514   5.545   5.418   3.882  0.2443 -1.3828  1.7366
    9CHTO   N14 3515   5.645   5.601   3.850  0.3359  0.4213  0.8251
    9CHTO  H141 3516   5.718   5.667   3.892 -0.2742  0.8608  1.1950
    9CHTO  H142 3517   5.677   5.576   3.750  0.8425  0.7077  0.9116
    9CHTO   C79 3518   5.553   5.518   4.079 -0.0518  0.1646 -0.2879
    9CHTO  H151 3519   5.458   5.568   4.062  0.0524 -0.7441 -3.9215
    9CHTO   O52 3520   5.529   5.393   4.151 -0.1757  0.2346  0.0016
    9CHTO   C86 3521   5.645   5.300   4.169  0.4420 -0.1438  0.3302
    9CHTO  H158 3522   5.714   5.358   4.233 -0.1366  0.6429  0.2645
    9CHTO   C90 3523   5.600   5.176   4.252  0.1943  0.2797  0.1943
    9CHTO   O60 3524   5.580   5.215   4.384  0.3777  0.1948  0.4229
    9CHTO  H138 3525   5.500   5.180   4.418  0.2867 -1.6493 -1.5807
    9CHTO   O50 3526   5.639   5.605   4.150 -0.3425 -0.1700  0.2691
    9CHTO   C73 3527   5.646   5.713   4.244  0.8536  0.1430 -0.3742
    9CHTO  H145 3528   5.549   5.740   4.288  0.7901 -1.9693  0.8645
    9CHTO   C74 3529   5.692   5.846   4.169  0.2091  0.1713  0.2785
    9CHTO  H146 3530   5.616   5.865   4.092 -1.0634 -0.0507  1.4466
    9CHTO   O54 3531   5.696   5.950   4.268  0.1748  0.2448 -0.5512
    9CHTO  H133 3532   5.763   6.015   4.255  1.1492 -0.7439 -0.5575
    9CHTO   C75 3533   5.833   5.819   4.105 -0.9316 -0.8467  0.3746
    9CHTO  H147 3534   5.821   5.739   4.030  2.2453  0.7699 -1.9722
    9CHTO   N13 3535   5.893   5.931   4.026  0.0149 -0.5549  0.7372
    9CHTO  H139 3536   5.945   5.902   3.936  2.1787  3.3330  0.6179
    9CHTO  H140 3537   5.820   6.006   4.001 -0.0267 -1.3652 -1.7164
    9CHTO   C76 3538   5.930   5.763   4.219  0.7040 -0.1846  0.0197
    9CHTO  H148 3539   5.973   5.841   4.283  1.1756  0.3421 -0.9353
    9CHTO   O49 3540   5.878   5.657   4.295  0.5695  0.4561 -0.7283
    9CHTO   C77 3541   5.745   5.677   4.347  0.1180 -0.2068 -0.3496
    9CHTO  H149 3542   5.755   5.760   4.417 -1.3600 -0.1456 -0.2110
    9CHTO   C88 3543   5.698   5.558   4.435  0.6780 -0.4773  0.5989
    9CHTO   O58 3544   5.547   5.592   4.507  0.4809  0.3321 -0.1496
    9CHTO  H136 3545   5.483   5.605   4.441  0.5920  2.4722  0.1228
    9CHTO   O51 3546   6.048   5.690   4.141 -0.1632 -0.0534 -0.1620
    9CHTO   C78 3547   6.185   5.680   4.208  0.1158  0.0604 -0.2184
    9CHTO  H150 3548   6.167   5.694   4.316  0.5564 -2.0006  0.1491
    9CHTO   C80 3549   6.281   5.788   4.158 -0.2373  0.0206 -0.4672
    9CHTO  H152 3550   6.275   5.780   4.047  0.8841 -0.4379 -0.5111
    9CHTO   O55 3551   6.243   5.920   4.201 -0.0623  0.2855 -0.2579
    9CHTO  H134 3552   6.177   5.957   4.146 -1.3448  1.2925  1.8616
    9CHTO   C84 3553   6.431   5.757   4.214  0.3676  0.1652 -1.0388
    9CHTO  H156 3554   6.431   5.769   4.322  0.0873 -2.6902 -0.6877
    9CHTO   N15 3555   6.543   5.838   4.146 -0.6975 -0.3793  0.0267
    9CHTO  H143 3556   6.500   5.909   4.078  0.4978  1.0376  0.7278
    9CHTO  H144 3557   6.601   5.769   4.088  0.5390  0.4116  0.2891
    9CHTO   C87 3558   6.457   5.606   4.188  0.4358 -0.2102  0.2867
    9CHTO  H159 3559   6.455   5.586   4.081  1.0208 -1.4290  0.4962
    9CHTO   O53 3560   6.355   5.527   4.251  0.3015 -0.4765 -0.6959
    9CHTO   C82 3561   6.233   5.538   4.183  0.7821 -0.2660  0.0873
    9CHTO  H154 3562   6.241   5.527   4.075  1.2470 -0.8428  0.1792
    9CHTO   C89 3563   6.130   5.430   4.226  0.2189 -0.7681  0.1807
    9CHTO   O59 3564   6.160   5.305   4.155 -0.3854 -0.4732  0.3281
    9CHTO  H137 3565   6.141   5.316   4.064  0.0642 -2.2916  0.0066
    9CHTO   O45 3566   6.600   5.554   4.249  0.1773 -0.1238  0.6324
    9CHTO   C67 3567   6.604   5.429   4.327  0.1865 -0.2940 -0.4871
    9CHTO  H124 3568   6.504   5.394   4.350 -0.2576  0.8835 -0.5689
    9CHTO   C65 3569   6.674   5.321   4.243 -0.3235 -0.3928  0.5290
    9CHTO  H122 3570   6.746   5.363   4.172 -1.7000 -1.9116 -1.8402
    9CHTO   O44 3571   6.578   5.256   4.158  0.2837 -0.0457  0.1924
    9CHTO  H102 3572   6.550   5.312   4.088  0.6499 -0.9636 -0.6927
    9CHTO   C63 3573   6.772   5.225   4.325 -0.0716 -0.9317  0.4844
    9CHTO  H120 3574   6.862   5.280   4.352  0.0889 -0.6111 -0.6729
    9CHTO   N11 3575   6.818   5.099   4.251  1.0533 -0.0143  0.5719
    9CHTO  H108 3576   6.742   5.032   4.217  1.0522  1.5001 -2.6845
    9CHTO  H109 3577   6.894   5.044   4.303  1.4468  0.5748  0.6238
    9CHTO   C61 3578   6.700   5.202   4.465 -0.2262 -0.6100  0.2781
    9CHTO  H118 3579   6.765   5.138   4.526  2.7385  2.5947  0.6802
    9CHTO   O40 3580   6.683   5.333   4.541 -0.1387 -0.0182 -0.5108
    9CHTO   C68 3581   6.683   5.454   4.464  0.2564  0.4883  0.2489
    9CHTO  H125 3582   6.785   5.492   4.443 -0.9184  3.8361  0.3660
    9CHTO   C72 3583   6.609   5.560   4.542  0.3773 -0.6304 -0.4812
    9CHTO   O48 3584   6.702   5.655   4.612 -0.2124  0.4325  0.0484
    9CHTO  H105 3585   6.646   5.715   4.658 -2.2442 -0.1774 -1.5516
    9CHTO   O38 3586   6.572   5.140   4.440  0.0669  0.3751  0.4131
    9CHTO   C55 3587   6.513   5.111   4.562 -0.2607 -0.2370  0.3173
    9CHTO  H112 3588   6.557   5.172   4.641 -1.0844 -2.7601  2.7994
    9CHTO   C56 3589   6.531   4.951   4.589 -0.3707 -0.2648 -0.0278
    9CHTO  H113 3590   6.495   4.905   4.495  1.4391  0.1130 -0.9088
    9CHTO   O42 3591   6.672   4.927   4.589  0.1191  0.2302 -0.7115
    9CHTO  H100 3592   6.705   4.912   4.502  2.5183  0.4140  0.1339
    9CHTO   C57 3593   6.462   4.912   4.717 -0.0127  0.5352  0.1474
    9CHTO  H114 3594   6.520   4.968   4.791  0.2520  0.7929 -0.2495
    9CHTO   N10 3595   6.477   4.771   4.761 -0.1460 -0.0329  0.2972
    9CHTO  H106 3596   6.399   4.718   4.708 -0.6758  1.0797 -0.0659
    9CHTO  H107 3597   6.469   4.759   4.868 -2.9780  2.8332  0.4947
    9CHTO   C58 3598   6.318   4.967   4.727 -0.0388  0.4204  0.0762
    9CHTO  H115 3599   6.252   4.911   4.657 -0.2918  0.8297 -0.0114
    9CHTO   O37 3600   6.309   5.104   4.696 -0.4281 -0.3047  0.2245
    9CHTO   C59 3601   6.358   5.140   4.561  0.0568  0.0934  0.0185
    9CHTO  H116 3602   6.306   5.078   4.488  1.3418  1.2196 -1.8791
    9CHTO   C70 3603   6.328   5.283   4.529 -0.5291 -0.2062 -0.1386
    9CHTO   O46 3604   6.366   5.384   4.624 -0.2856  0.8996  0.4460
    9CHTO  H103 3605   6.459   5.391   4.611 -0.3994  2.7848  0.5849
    9CHTO   O39 3606   6.278   4.958   4.905 -0.6975  0.1961 -0.2280
    9CHTO   C60 3607   6.141   4.952   4.924 -0.5366 -0.7048  0.5835
    9CHTO  H117 3608   6.096   5.033   4.867 -2.7073 -1.0460  1.7474
    9CHTO   C62 3609   6.074   4.814   4.867 -0.3221 -0.4142  0.3314
    9CHTO  H119 3610   6.093   4.824   4.758 -3.6352  1.2074 -0.1550
    9CHTO   O43 3611   6.148   4.707   4.924  0.5454  0.3853  0.0833
    9CHTO  H101 3612   6.104   4.625   4.910 -1.5936  1.4095  0.5883
    9CHTO   C66 3613   5.913   4.808   4.889 -0.1342 -0.1638  0.1654
    9CHTO  H123 3614   5.858   4.893   4.847 -2.4304 -0.4003  2.5844
    9CHTO   N12 3615   5.846   4.687   4.830  0.3321  0.3202  0.0469
    9CHTO  H110 3616   5.741   4.685   4.855  1.1644 -2.2478  3.7480
    9CHTO  H111 3617   5.866   4.687   4.724 -2.6477  1.0114 -0.5371
    9CHTO   C69 3618   5.890   4.823   5.042  0.4822 -0.0492  0.0172
    9CHTO  H126 3619   5.941   4.738   5.091 -1.8327 -0.6148  1.5104
    9CHTO   O41 3620   5.965   4.957   5.091  0.3544  0.2921 -0.0784
    9CHTO   C64 3621   6.107   4.978   5.074  0.7137 -0.1982 -0.3570
    9CHTO  H121 3622   6.160   4.908   5.142  2.3298 -0.0506 -1.4542
    9CHTO   C71 3623   6.146   5.125   5.116 -0.5346 -0.8465  0.3342
    9CHTO   O47 3624   6.128   5.144   5.258 -0.4356  0.1106  0.0344
    9CHTO  H104 3625   6.183   5.215   5.284 -2.2225  1.5253  0.1016
    9CHTO   O34 3626   5.732   4.824   5.075  0.3118 -0.1549  0.7804
    9CHTO   C49 3627   5.600   4.817   5.156 -0.3578  0.8047  0.6768
    9CHTO   H91 3628   5.512   4.845   5.098  0.9676 -1.2732 -2.4822
    9CHTO   C47 3629   5.624   4.912   5.277 -0.4693  0.5184 -0.5178
    9CHTO   H89 3630   5.527   4.906   5.330 -1.3445 -0.7112 -2.2054
    9CHTO   O33 3631   5.647   5.034   5.214  0.2541 -0.4915 -0.7425
    9CHTO   H70 3632   5.588   5.095   5.254  2.3042  1.6349 -0.8349
    9CHTO   C45 3633   5.742   4.862   5.375 -0.4680 -0.0150 -0.1078
    9CHTO   H87 3634   5.832   4.906   5.330 -1.2910  0.8030 -0.9864
    9CHTO    N8 3635   5.728   4.918   5.508 -0.6574  0.2635  0.3661
    9CHTO   H75 3636   5.625   4.920   5.540 -1.3870  0.6571 -1.9631
    9CHTO   H76 3637   5.771   5.018   5.507  0.0378 -0.0265  0.7639
    9CHTO   C43 3638   5.766   4.698   5.357 -0.2109  0.1470  0.4428
    9CHTO   H85 3639   5.829   4.695   5.267 -0.7843 -1.9857  0.0960
    9CHTO   O29 3640   5.643   4.633   5.338  0.7258  0.2966 -0.4157
    9CHTO   C50 3641   5.589   4.670   5.208 -0.7168 -0.6011  0.5952
    9CHTO   H92 3642   5.631   4.609   5.126  0.9586  2.6967 -1.1188
    9CHTO   C54 3643   5.438   4.624   5.203 -0.0353 -0.4418  0.3129
    9CHTO   O36 3644   5.338   4.697   5.273 -0.2507 -0.3542  0.0386
    9CHTO   H72 3645   5.264   4.707   5.217 -0.0081  0.5000 -0.1407
    9CHTO   O27 3646   5.848   4.639   5.457  0.0613  0.4069 -0.1078
    9CHTO   C37 3647   5.988   4.619   5.478 -0.4699 -0.2571 -0.2448
    9CHTO   H79 3648   6.006   4.512   5.496  0.1959 -0.1396 -0.2069
    9CHTO   C38 3649   6.088   4.653   5.364  0.2120  0.7526  0.2779
    9CHTO   H80 3650   6.060   4.754   5.332 -0.3189  0.5781  0.1886
    9CHTO   O31 3651   6.077   4.558   5.253  0.3435 -0.0621 -0.1475
    9CHTO   H68 3652   6.107   4.471   5.268 -0.0220 -0.5293 -2.0008
    9CHTO   C39 3653   6.239   4.668   5.411 -0.1218  0.0576  0.3397
    9CHTO   H81 3654   6.275   4.572   5.447 -0.6403 -0.1313  0.3564
    9CHTO    N7 3655   6.328   4.709   5.294  0.5058  0.0714 -0.2044
    9CHTO   H73 3656   6.332   4.620   5.234 -1.1977  1.8613 -3.0876
    9CHTO   H74 3657   6.270   4.781   5.238 -0.5049  0.5479  1.4251
    9CHTO   C40 3658   6.233   4.764   5.531 -0.6992  1.0040  0.0026
    9CHTO   H82 3659   6.199   4.864   5.506  2.6961  1.3819 -3.6324
    9CHTO   O26 3660   6.161   4.708   5.639  0.0257  0.0852 -0.4191
    9CHTO   C41 3661   6.020   4.702   5.604  0.2395  0.1771 -0.3052
    9CHTO   H83 3662   5.975   4.800   5.583  1.2985  0.5061 -1.0906
    9CHTO   C52 3663   5.960   4.638   5.737 -0.0963  0.0109  0.8032
    9CHTO   O35 3664   5.826   4.622   5.732  0.1377  0.6502 -0.5590
    9CHTO   H71 3665   5.798   4.547   5.780 -0.2978  0.0505 -1.7126
    9CHTO   O28 3666   6.365   4.793   5.589  0.4756 -0.0078  0.1636
    9CHTO   C42 3667   6.401   4.931   5.632 -0.9403 -0.3931  0.4298
    9CHTO   H84 3668   6.503   4.928   5.670 -0.3035 -2.9730 -1.3751
    9CHTO   C44 3669   6.319   4.984   5.753 -0.4128  0.7748  0.2710
    9CHTO   H86 3670   6.214   4.969   5.728 -0.4723 -0.0738  0.9873
    9CHTO   O32 3671   6.334   4.898   5.866 -0.0356  0.3494  0.4658
    9CHTO   H69 3672   6.305   4.811   5.847  0.6982  0.7202 -2.5267
    9CHTO   C48 3673   6.337   5.137   5.783 -0.1908  0.4219 -0.0327
    9CHTO   H90 3674   6.434   5.153   5.828  0.0157  0.6486 -0.5527
    9CHTO    N9 3675   6.237   5.184   5.884  0.2685  0.2583 -0.2487
    9CHTO   H77 3676   6.277   5.214   5.980 -0.2927  1.0427 -0.2625
    9CHTO   H78 3677   6.177   5.262   5.841  1.2644  1.3063  0.2507
    9CHTO   C51 3678   6.319   5.216   5.649 -0.4730  0.6517 -0.0096
    9CHTO   H93 3679   6.221   5.191   5.609  0.5589 -1.5876 -1.2742
    9CHTO   O30 3680   6.420   5.180   5.562 -0.3649  0.6832  0.2661
    9CHTO   C46 3681   6.400   5.034   5.515 -0.3162 -0.0760  0.4811
    9CHTO   H88 3682   6.298   5.033   5.476  0.1367 -1.0835 -0.7098
    9CHTO   C53 3683   6.512   4.998   5.413 -0.5003 -0.2118 -0.0854
    9CHTO   O72 3684   6.479   5.065   5.296  0.3528 -0.3980 -0.3927
    9CHTO  H199 3685   6.544   5.062   5.228  1.3360 -2.2606  0.5988
    9CHTO   O22 3686   6.338   5.357   5.654  0.6692 -0.4334  0.1742
    9CHTO   C31 3687   6.289   5.465   5.560  0.1750 -0.0957  0.3945
    9CHTO   H59 3688   6.308   5.563   5.610 -0.0767  0.5060 -0.6884
    9CHTO   C29 3689   6.361   5.469   5.426 -0.4067 -0.1792 -0.5467
    9CHTO   H57 3690   6.362   5.371   5.377  0.0685  0.2041 -1.3077
    9CHTO   O21 3691   6.496   5.503   5.452 -0.2884  0.1232 -0.0602
    9CHTO   H37 3692   6.541   5.438   5.502  2.3415  1.1413 -1.0250
    9CHTO   C27 3693   6.308   5.569   5.322 -0.3098  0.4156  0.6011
    9CHTO   H55 3694   6.322   5.670   5.362  0.1282  0.0521  1.3942
    9CHTO    N5 3695   6.383   5.561   5.189  0.9001  0.1436 -0.0517
    9CHTO   H43 3696   6.405   5.457   5.169  2.9110  0.6023 -0.3219
    9CHTO   H44 3697   6.311   5.585   5.113 -1.3731 -1.4830  1.5484
    9CHTO   C25 3698   6.147   5.544   5.316  0.3461  0.6404  0.1304
    9CHTO   H53 3699   6.128   5.447   5.269 -0.3934  0.0659  1.5888
    9CHTO   O17 3700   6.093   5.555   5.457  0.1933  0.2855  0.4403
    9CHTO   C32 3701   6.137   5.448   5.536  0.8901  0.1414  0.8391
    9CHTO   H60 3702   6.119   5.353   5.486  0.9680  1.2561 -1.3658
    9CHTO   C36 3703   6.068   5.444   5.675  0.6117  0.7499 -1.4452
    9CHTO   O25 3704   5.933   5.397   5.663  0.4640 -0.4350  0.3544
    9CHTO   H40 3705   5.903   5.393   5.752  1.2097 -3.6079  0.5077
    9CHTO   O15 3706   6.086   5.643   5.241  0.3766  0.5162  0.9221
    9CHTO   C19 3707   5.991   5.624   5.131  0.4637 -0.4663 -0.1795
    9CHTO   H47 3708   5.970   5.727   5.100 -0.3185 -1.0309 -1.5381
    9CHTO   C20 3709   6.054   5.542   5.018 -0.1897 -0.1650  0.1044
    9CHTO   H48 3710   6.106   5.452   5.056 -0.7857  0.1801  1.7549
    9CHTO   O19 3711   6.148   5.623   4.951 -0.4087 -0.1065  0.4141
    9CHTO   H35 3712   6.106   5.699   4.915 -0.9234  0.5209  2.3143
    9CHTO   C21 3713   5.945   5.486   4.912 -0.2810 -0.8662 -0.1667
    9CHTO   H49 3714   5.911   5.572   4.855 -0.1378 -0.1835  0.7751
    9CHTO    N4 3715   5.996   5.383   4.815 -0.3636 -0.0743 -0.5577
    9CHTO   H41 3716   6.103   5.377   4.823 -0.5866 -0.4444  3.0640
    9CHTO   H42 3717   5.966   5.406   4.713  1.4823  0.3914 -1.0086
    9CHTO   C22 3718   5.823   5.437   4.992 -0.1592  0.9190  0.3327
    9CHTO   H50 3719   5.840   5.345   5.048  1.4588 -0.0661 -1.7141
    9CHTO   O14 3720   5.768   5.539   5.077 -0.4187 -0.4781  0.2607
    9CHTO   C23 3721   5.856   5.570   5.185  0.5303  0.1710  0.2620
    9CHTO   H51 3722   5.872   5.482   5.249  1.5881  0.8016  0.8963
    9CHTO   C34 3723   5.785   5.664   5.284 -0.5823 -0.4081  0.0196
    9CHTO   O23 3724   5.678   5.608   5.366  0.0882 -0.0062 -0.0045
    9CHTO   H38 3725   5.596   5.601   5.321 -0.5439 -2.6635  1.3986
    9CHTO   O16 3726   5.718   5.420   4.895 -0.0698  0.2132  0.3571
    9CHTO   C24 3727   5.608   5.307   4.932  1.0270 -0.4120 -0.1537
    9CHTO   H52 3728   5.613   5.279   5.037 -1.0466  0.8375  0.3070
    9CHTO   C26 3729   5.619   5.187   4.840 -0.6276 -0.7988 -0.3279
    9CHTO   H54 3730   5.604   5.221   4.735 -0.5348 -0.5068 -0.2456
    9CHTO   O20 3731   5.753   5.138   4.851  0.2177 -0.0365 -0.2350
    9CHTO   H36 3732   5.818   5.199   4.823 -0.1167 -0.0060 -0.9500
    9CHTO   C30 3733   5.505   5.082   4.865 -0.4012  0.1142  0.4264
    9CHTO   H58 3734   5.510   5.051   4.970 -1.1885  1.2900  0.8250
    9CHTO    N6 3735   5.509   4.966   4.775 -0.4687  0.6064  0.2727
    9CHTO   H45 3736   5.432   4.896   4.803 -0.0844 -0.3307 -0.9980
    9CHTO   H46 3737   5.488   4.996   4.673  1.9789 -0.3927 -0.5458
    9CHTO   C33 3738   5.369   5.152   4.876  0.2826 -0.6618 -0.1377
    9CHTO   H61 3739   5.334   5.170   4.773  1.1570 -1.5204 -0.5919
    9CHTO   O18 3740   5.366   5.278   4.949 -0.2234 -0.4077  0.9519
    9CHTO   C28 3741   5.466   5.372   4.908 -0.0548 -0.3043 -0.4388
    9CHTO   H56 3742   5.449   5.392   4.803  1.5480  0.1450 -0.6201
    9CHTO   C35 3743   5.451   5.500   4.994  0.6515  0.5725 -0.5394
    9CHTO   O24 3744   5.331   5.580   4.981 -0.3006 -0.1715 -0.2696
    9CHTO   H39 3745   5.359   5.667   5.000  2.7528 -1.1557 -0.1259
    9CHTO    O9 3746   5.275   5.066   4.931  1.1372  0.5081  0.5823
    9CHTO   C13 3747   5.132   5.074   4.842 -0.2632 -0.1559 -0.1099
    9CHTO   H26 3748   5.158   5.075   4.734 -2.9430  0.8980 -0.8013
    9CHTO   C11 3749   5.043   5.207   4.881 -0.3215  0.0670  0.0399
    9CHTO   H24 3750   5.065   5.280   4.801  0.8369  0.4336  0.6809
    9CHTO    O8 3751   5.085   5.265   5.007  0.1359 -0.0202 -0.4324
    9CHTO    H3 3752   5.046   5.350   5.014 -1.3499 -0.7926  1.1642
    9CHTO    C9 3753   4.891   5.175   4.882 -0.0995 -0.0719 -0.1744
    9CHTO   H22 3754   4.870   5.141   4.779 -1.6421 -0.3508  0.2202
    9CHTO    N2 3755   4.803   5.291   4.907  0.1710 -0.1424  0.3135
    9CHTO   H10 3756   4.823   5.362   4.828 -0.6659 -3.3380 -2.8976
    9CHTO   H11 3757   4.822   5.328   5.007  1.0650 -0.2529  0.1885
    9CHTO    C7 3758   4.862   5.055   4.972 -0.2125  0.0964  0.1831
    9CHTO   H20 3759   4.756   5.028   4.954  0.1628 -0.4060 -1.3346
    9CHTO    O4 3760   4.948   4.942   4.955 -0.4397 -0.0651  0.1188
    9CHTO   C14 3761   5.041   4.939   4.852 -0.7740 -0.3527 -0.0423
    9CHTO   H27 3762   4.999   4.914   4.753  0.2133 -0.2393 -0.4863
    9CHTO   C18 3763   5.133   4.820   4.886 -0.7067  0.0779  0.0517
    9CHTO   O13 3764   5.095   4.690   4.837 -0.0311 -0.3714  0.0421
    9CHTO    H7 3765   5.083   4.691   4.744 -2.4473 -2.7479  0.2637
    9CHTO    O2 3766   4.877   5.102   5.127 -0.1750 -0.2351  0.6779
    9CHTO    C1 3767   4.844   4.992   5.222 -0.0194 -0.4720  0.6696
    9CHTO   H14 3768   4.852   4.890   5.177  0.0083  0.2663 -1.0345
    9CHTO    C2 3769   4.696   5.006   5.289 -0.8913 -0.2045 -0.0463
    9CHTO   H15 3770   4.697   5.105   5.338 -0.5344 -0.5975  0.7555
    9CHTO    O6 3771   4.598   4.998   5.189 -0.3420 -0.2746 -0.2618
    9CHTO    H1 3772   4.598   5.084   5.151 -5.3238  0.6690  1.3706
    9CHTO    C3 3773   4.689   4.894   5.407  0.7171 -0.7592 -0.7601
    9CHTO   H16 3774   4.677   4.799   5.352  0.6239 -1.9626  1.2839
    9CHTO    N1 3775   4.568   4.910   5.488  0.2744  0.0299 -0.1662
    9CHTO    H8 3776   4.479   4.890   5.430  0.5991  1.8566 -1.3278
    9CHTO    H9 3777   4.561   5.008   5.533  2.0011  1.1025 -2.1282
    9CHTO    C4 3778   4.823   4.881   5.495 -0.6672  0.6928  0.2484
    9CHTO   H17 3779   4.822   4.972   5.556 -1.9206  2.8119 -2.7988
    9CHTO    O1 3780   4.943   4.881   5.425  0.4654 -0.1801  0.3926
    9CHTO    C5 3781   4.957   4.991   5.334  0.3071 -0.0617  0.0212
    9CHTO   H18 3782   4.956   5.086   5.387  1.5039  0.1182 -0.2666
    9CHTO   C16 3783   5.102   4.970   5.271  0.1779 -0.8047  0.2875
    9CHTO   O11 3784   5.137   5.070   5.186 -0.3468 -0.5110 -0.5739
    9CHTO    H5 3785   5.230   5.059   5.174  0.7883  4.9959  1.5625
    9CHTO    O3 3786   4.816   4.755   5.574  0.3576 -0.3864 -0.0839
    9CHTO    C6 3787   4.891   4.762   5.700 -0.4352 -0.2142 -0.0686
    9CHTO   H19 3788   4.982   4.821   5.688 -1.5957  1.3790 -1.2322
    9CHTO    C8 3789   4.798   4.809   5.816 -0.0738  0.0777  0.2800
    9CHTO   H21 3790   4.706   4.751   5.807  0.9182 -1.8832  2.1049
    9CHTO    O7 3791   4.769   4.943   5.782 -0.1349  0.5326 -0.0560
    9CHTO    H2 3792   4.833   5.000   5.818 -0.4477  0.1418  1.1744
    9CHTO   C12 3793   4.851   4.790   5.962 -0.2497  0.1879 -0.6217
    9CHTO   H25 3794   4.932   4.865   5.972  1.7199 -2.3376  4.1715
    9CHTO    N3 3795   4.744   4.813   6.060  0.9609  0.6742 -0.4270
    9CHTO   H12 3796   4.674   4.734   6.036  0.9658  0.6598 -0.3931
    9CHTO   H13 3797   4.696   4.909   6.053  1.1237  1.0225  2.5653
    9CHTO   C15 3798   4.923   4.646   5.967  0.0259  0.4450  0.4016
    9CHTO   H28 3799   4.866   4.554   5.983 -0.9701  0.5023 -2.6396
    9CHTO   O10 3800   5.038   4.657   6.077  0.1137  0.5127 -0.3091
    9CHTO    H4 3801   5.058   4.749   6.084  0.7089  0.4509 -1.0901
    9CHTO    O5 3802   5.009   4.619   5.857 -0.1671  0.1618 -0.5217
    9CHTO   C10 3803   4.944   4.620   5.729 -0.6636  0.2653 -0.2345
    9CHTO   H23 3804   4.869   4.541   5.738  1.8042 -2.3153 -1.4302
    9CHTO   C17 3805   5.044   4.576   5.621  0.1527 -0.0740 -0.0595
    9CHTO   O12 3806   5.177   4.631   5.624  0.0254 -0.6372  0.6703
    9CHTO    H6 3807   5.213   4.624   5.711 -2.1755 -2.6812  1.4853
   10CHTO  H203 3808   5.492   7.344   4.951 -0.0717  2.2479  1.8383
   10CHTO   O82 3809   5.450   7.300   5.022 -0.2787  0.3148  0.5666
   10CHTO  C123 3810   5.309   7.321   5.019 -0.1157 -0.1420  0.4771
   10CHTO  H227 3811   5.285   7.375   4.925 -1.0744 -0.3809  0.5806
   10CHTO   O77 3812   5.261   7.185   5.018 -0.2871 -0.4259  0.0054
   10CHTO  C118 3813   5.113   7.165   5.011 -0.1168  0.1673  0.0451
   10CHTO  H222 3814   5.056   7.201   4.924  0.3791 -0.2057 -0.4307
   10CHTO  C125 3815   5.104   7.008   5.008 -0.5626  0.4791  0.1638
   10CHTO   O84 3816   4.971   6.962   5.001 -0.5935  0.1478 -0.5464
   10CHTO  H205 3817   4.968   6.872   4.976  2.6633 -0.8626  2.2792
   10CHTO  C114 3818   5.061   7.228   5.139  0.0928 -0.2825  0.5966
   10CHTO  H218 3819   5.097   7.172   5.226  0.9012 -2.3888 -1.0445
   10CHTO  C116 3820   5.100   7.379   5.156  0.9181  0.0776  0.2115
   10CHTO  H220 3821   5.051   7.440   5.077 -0.3136  0.5445  1.3205
   10CHTO   O79 3822   5.053   7.429   5.281  0.2028 -0.2176  0.3474
   10CHTO  H201 3823   5.102   7.388   5.349 -0.3207 -2.7405 -0.7177
   10CHTO  C120 3824   5.260   7.400   5.144  0.2157  0.4341  0.0844
   10CHTO  H224 3825   5.304   7.353   5.234  1.9946  0.0558 -0.9506
   10CHTO   N21 3826   5.304   7.542   5.142  0.3670  0.6110  0.4378
   10CHTO  H211 3827   5.396   7.564   5.089  1.9803 -0.3082  2.8047
   10CHTO  H212 3828   5.291   7.587   5.239 -2.4763 -0.1956  0.4676
   10CHTO   O75 3829   4.919   7.211   5.135  0.1836  0.5550  0.4358
   10CHTO  C112 3830   4.859   7.133   5.273 -0.1200 -0.5005 -0.4741
   10CHTO  H216 3831   4.865   7.203   5.357 -2.7886 -1.3655  0.5064
   10CHTO   O73 3832   4.941   7.016   5.294 -0.4981  0.2396  0.2148
   10CHTO  C113 3833   4.904   6.939   5.411 -0.0704 -0.1864  0.8659
   10CHTO  H217 3834   4.884   6.997   5.503 -1.3034  0.3668  0.2652
   10CHTO  C124 3835   5.022   6.846   5.437 -1.4686  0.4554  0.6053
   10CHTO   O83 3836   5.012   6.729   5.355 -0.4016 -0.1066 -0.8315
   10CHTO  H204 3837   4.990   6.741   5.265 -1.4601 -2.1408 -0.8757
   10CHTO  C109 3838   4.769   6.872   5.378  0.2696  0.6617 -0.2862
   10CHTO  H213 3839   4.777   6.806   5.290  2.1200 -0.0566  0.4068
   10CHTO  C110 3840   4.671   6.991   5.359  0.1874  0.2988  0.6725
   10CHTO  H214 3841   4.660   7.048   5.452  0.7598  0.1724  0.8218
   10CHTO   O78 3842   4.544   6.926   5.337 -0.6695 -0.1637 -0.3993
   10CHTO  H200 3843   4.492   6.942   5.413 -0.2977 -0.6884 -0.0314
   10CHTO  C111 3844   4.717   7.079   5.240 -0.2510 -0.0956 -0.3819
   10CHTO  H215 3845   4.714   7.016   5.149 -0.7064  1.0953 -1.1959
   10CHTO   N19 3846   4.622   7.190   5.216 -0.1910  0.3462  0.5921
   10CHTO  H207 3847   4.629   7.271   5.288  1.8737  0.0313  0.7776
   10CHTO  H208 3848   4.521   7.151   5.217 -0.1202 -0.0637 -2.3456
   10CHTO   O74 3849   4.722   6.791   5.496  0.7089 -0.4970 -0.1936
   10CHTO  C115 3850   4.653   6.652   5.447  0.0965  0.0222  0.4003
   10CHTO  H219 3851   4.651   6.643   5.338 -0.3317 -1.7813  0.5410
   10CHTO   O76 3852   4.738   6.534   5.491  0.2164 -0.7268 -0.3545
   10CHTO  C122 3853   4.751   6.524   5.631 -0.5103  0.6737  0.3956
   10CHTO  H226 3854   4.840   6.585   5.644 -0.3774  0.4229  0.6489
   10CHTO  C126 3855   4.788   6.375   5.654 -0.3724 -0.1595  0.3789
   10CHTO   O85 3856   4.910   6.348   5.592  0.0030  0.1818  0.0441
   10CHTO  H206 3857   4.979   6.406   5.617  1.5057 -2.1559  1.5233
   10CHTO  C121 3858   4.635   6.567   5.721  0.3386 -0.8698 -0.1339
   10CHTO  H225 3859   4.635   6.500   5.809 -0.3933 -1.4093 -0.5404
   10CHTO   O81 3860   4.650   6.699   5.761  0.0378  0.0629 -0.1436
   10CHTO  H202 3861   4.619   6.705   5.849 -0.2775  1.4228 -0.3351
   10CHTO  C119 3862   4.502   6.545   5.640 -0.1212 -0.1720 -0.1804
   10CHTO  H223 3863   4.495   6.444   5.600  1.1753 -0.0294 -0.8117
   10CHTO  C117 3864   4.509   6.639   5.516  0.2263 -0.4341 -0.5902
   10CHTO  H221 3865   4.479   6.742   5.533  0.2770 -0.2369 -1.6311
   10CHTO   N20 3866   4.412   6.594   5.414  0.1117 -0.3017 -0.1110
   10CHTO  H209 3867   4.447   6.623   5.316 -0.7146  2.5768  0.3775
   10CHTO  H210 3868   4.312   6.632   5.425 -0.0712 -0.3207 -1.6784
   10CHTO   O80 3869   4.365   6.556   5.722  0.7821 -0.4942 -0.1544
   10CHTO  C103 3870   4.273   6.447   5.714 -0.3770  0.0878 -0.6707
   10CHTO  H190 3871   4.266   6.420   5.608  2.8560  1.0454 -1.1832
   10CHTO  C101 3872   4.307   6.315   5.806 -0.0013  0.4385  0.0813
   10CHTO  H188 3873   4.312   6.355   5.907 -0.9488 -0.0049  0.3084
   10CHTO   O68 3874   4.442   6.254   5.763 -0.1576  0.2512 -0.4772
   10CHTO  H168 3875   4.430   6.213   5.679 -0.6331  1.8483 -1.2044
   10CHTO   C99 3876   4.180   6.216   5.796 -0.2782 -0.3084  0.4333
   10CHTO  H186 3877   4.144   6.202   5.692 -1.2290  1.2035  0.5415
   10CHTO   N17 3878   4.201   6.074   5.846  0.3569 -0.1318  0.4680
   10CHTO  H174 3879   4.276   6.016   5.792 -1.4681 -1.7397 -0.4005
   10CHTO  H175 3880   4.107   6.024   5.861  0.3698  0.5996  3.3059
   10CHTO   C97 3881   4.065   6.299   5.861  0.3315  0.4665 -0.3788
   10CHTO  H184 3882   4.085   6.334   5.963 -3.3663  2.4833 -0.2255
   10CHTO   O64 3883   4.035   6.409   5.773 -1.3049 -0.1473 -0.3866
   10CHTO  C104 3884   4.137   6.500   5.752  0.0910 -0.6867  0.1902
   10CHTO  H191 3885   4.147   6.553   5.847 -1.1057 -1.3513  0.7007
   10CHTO  C108 3886   4.098   6.608   5.652 -0.5657  0.2512 -0.0120
   10CHTO   O71 3887   3.972   6.672   5.679 -0.2786 -0.5227 -0.0244
   10CHTO  H171 3888   3.907   6.608   5.701  0.4617 -0.7401  1.5828
   10CHTO   O62 3889   3.936   6.231   5.861 -0.0125 -0.3325  0.1591
   10CHTO   C91 3890   3.840   6.282   5.962 -0.0126  0.1178 -0.4503
   10CHTO  H178 3891   3.866   6.371   6.019  0.0937 -0.3016  0.1708
   10CHTO   C92 3892   3.817   6.178   6.069  0.0618  0.1091 -0.8782
   10CHTO  H179 3893   3.794   6.082   6.020 -1.2221  0.6280 -1.3388
   10CHTO   O66 3894   3.946   6.156   6.137  1.0825  0.3760 -0.5998
   10CHTO  H166 3895   3.943   6.064   6.155 -1.1965  0.0900 -2.2150
   10CHTO   C93 3896   3.704   6.224   6.175  0.7431  0.1017  0.5600
   10CHTO  H180 3897   3.746   6.290   6.252 -1.1248  1.3310  0.5504
   10CHTO   N16 3898   3.658   6.114   6.263  0.1626 -0.8666 -0.2459
   10CHTO  H172 3899   3.589   6.048   6.211  0.0344 -0.2604 -0.8646
   10CHTO  H173 3900   3.738   6.062   6.312 -0.3766  0.7289  2.3994
   10CHTO   C94 3901   3.577   6.297   6.103  0.2275  0.4825 -0.5276
   10CHTO  H181 3902   3.506   6.227   6.058 -2.1134  1.6333  1.2298
   10CHTO   O61 3903   3.617   6.379   5.996  0.3300 -0.3285  0.1698
   10CHTO   C95 3904   3.708   6.327   5.900  0.2727  0.8655  0.1356
   10CHTO  H182 3905   3.665   6.241   5.849  0.6501  0.5158  0.4027
   10CHTO  C106 3906   3.727   6.437   5.789 -0.1520 -0.0089  0.4408
   10CHTO   O69 3907   3.602   6.468   5.727 -0.2926 -0.1377 -0.6823
   10CHTO  H169 3908   3.622   6.537   5.667  1.8261 -1.3409 -1.4132
   10CHTO   O63 3909   3.496   6.380   6.203  0.1917 -0.2235 -0.1494
   10CHTO   C96 3910   3.558   6.504   6.255 -0.5710 -0.4004 -0.0351
   10CHTO  H183 3911   3.649   6.523   6.198 -0.3825 -1.3717 -0.0590
   10CHTO   C98 3912   3.589   6.512   6.405  0.6551  0.2890  1.0180
   10CHTO  H185 3913   3.496   6.493   6.461 -0.2859  2.1392  0.1031
   10CHTO   O67 3914   3.665   6.401   6.442  0.1205 -0.1003 -0.1102
   10CHTO  H167 3915   3.608   6.328   6.428 -1.7359  1.5729 -1.4721
   10CHTO  C102 3916   3.664   6.643   6.442  0.3093  0.0720  0.1471
   10CHTO  H189 3917   3.761   6.642   6.390  0.3938 -1.1447  0.3047
   10CHTO   N18 3918   3.697   6.657   6.585  0.0973 -0.3230 -0.7373
   10CHTO  H176 3919   3.599   6.642   6.629  0.2974 -2.6496 -1.0698
   10CHTO  H177 3920   3.762   6.580   6.623  0.6845  0.1580 -0.7695
   10CHTO  C105 3921   3.587   6.769   6.389  0.1188 -0.1311  0.5172
   10CHTO  H192 3922   3.500   6.784   6.453  0.3360  1.7791  0.3884
   10CHTO   O65 3923   3.524   6.761   6.256 -0.1023  0.2135  0.7502
   10CHTO  C100 3924   3.464   6.634   6.218  0.2962 -0.4488 -0.2947
   10CHTO  H187 3925   3.367   6.628   6.270 -0.4813  0.2476 -1.6233
   10CHTO  C107 3926   3.429   6.637   6.067  0.9384  0.1101 -0.1643
   10CHTO   O70 3927   3.528   6.675   5.974 -0.3304  0.0879  0.4769
   10CHTO  H170 3928   3.514   6.767   5.963  0.0374 -0.0956 -1.8907
   10CHTO   O57 3929   3.668   6.881   6.400  0.3101 -0.0338 -0.4233
   10CHTO   C85 3930   3.640   7.015   6.444  0.5030  0.8356  0.7115
   10CHTO  H157 3931   3.534   7.022   6.412  0.2007  0.4328  1.6298
   10CHTO   C83 3932   3.729   7.111   6.356  0.1758 -0.0023  0.5151
   10CHTO  H155 3933   3.698   7.091   6.253  1.9119  1.4098 -0.2974
   10CHTO   O56 3934   3.868   7.070   6.354 -0.4099 -0.0814 -0.0001
   10CHTO  H135 3935   3.888   7.024   6.275 -1.9420  0.3199 -0.6507
   10CHTO   C81 3936   3.697   7.259   6.383  0.2507  0.4334  0.5747
   10CHTO  H153 3937   3.593   7.281   6.357  0.0000  3.5008  3.7204
   10CHTO   N14 3938   3.761   7.357   6.290 -0.2785  0.0876  0.8711
   10CHTO  H141 3939   3.721   7.349   6.191 -0.8090  1.2157  0.9903
   10CHTO  H142 3940   3.865   7.331   6.283 -0.4699 -0.1608 -1.4308
   10CHTO   C79 3941   3.729   7.291   6.535 -0.4094  0.4687  0.5201
   10CHTO  H151 3942   3.688   7.390   6.552 -0.0535  0.6016  0.5945
   10CHTO   O52 3943   3.659   7.201   6.625  0.2999  0.1865 -0.2336
   10CHTO   C86 3944   3.658   7.058   6.595 -0.6015 -0.3330  0.0819
   10CHTO  H158 3945   3.756   7.018   6.629 -0.1155  1.5427  0.9683
   10CHTO   C90 3946   3.559   6.995   6.695  0.4529  0.1653  0.3175
   10CHTO   O60 3947   3.427   7.014   6.651  0.5306  0.1679 -0.0601
   10CHTO  H138 3948   3.386   7.035   6.733 -1.3968 -1.6335 -0.4878
   10CHTO   O50 3949   3.868   7.281   6.566 -0.1916 -0.0242  0.8358
   10CHTO   C73 3950   4.003   7.239   6.599  0.0597  0.2743 -0.5041
   10CHTO  H145 3951   4.032   7.165   6.522  0.4386  1.0386 -1.1102
   10CHTO   C74 3952   4.013   7.184   6.739  0.2353 -0.5965  1.1409
   10CHTO  H146 3953   3.936   7.106   6.737  2.2505 -2.6541  0.8875
   10CHTO   O54 3954   4.136   7.112   6.737 -0.0963  0.3108  0.1162
   10CHTO  H133 3955   4.149   7.049   6.805  0.9162 -0.2809 -0.6117
   10CHTO   C75 3956   3.977   7.298   6.844  0.6675 -0.4581 -0.6887
   10CHTO  H147 3957   3.876   7.335   6.818  1.3077  2.9430  1.3127
   10CHTO   N13 3958   3.970   7.246   6.979 -0.3342  0.4674 -0.4195
   10CHTO  H139 3959   3.939   7.313   7.058 -0.3091 -0.4404  0.3604
   10CHTO  H140 3960   3.901   7.163   6.985  0.9682 -0.5749  0.2636
   10CHTO   C76 3961   4.077   7.420   6.826 -0.3225  0.1849 -0.2207
   10CHTO  H148 3962   4.177   7.379   6.836  1.8828  5.1555 -0.1887
   10CHTO   O49 3963   4.061   7.470   6.687  0.2304 -0.2019  0.4655
   10CHTO   C77 3964   4.102   7.368   6.587 -0.4024 -0.8802 -0.1441
   10CHTO  H149 3965   4.202   7.335   6.612 -0.1004 -0.1155 -0.3276
   10CHTO   C88 3966   4.106   7.416   6.442 -0.9708  0.5530  0.1472
   10CHTO   O58 3967   4.161   7.524   6.423  0.4714 -1.0867 -0.4525
   10CHTO  H136 3968   4.226   7.516   6.355  0.3089  0.5273 -0.7983
   10CHTO   O51 3969   4.049   7.553   6.922  0.1761  0.1478  0.0078
   10CHTO   C78 3970   4.157   7.637   6.952  0.4944 -0.6078  0.8691
   10CHTO  H150 3971   4.248   7.617   6.891 -0.1006 -2.2023  0.4603
   10CHTO   C80 3972   4.195   7.629   7.100  0.2691 -0.7842 -0.7092
   10CHTO  H152 3973   4.109   7.645   7.168  0.8385 -0.2678 -0.0929
   10CHTO   O55 3974   4.237   7.497   7.141  0.1111  0.4435 -0.3325
   10CHTO  H134 3975   4.173   7.429   7.129  2.9144 -2.3109 -0.2606
   10CHTO   C84 3976   4.298   7.745   7.148 -0.1393  0.6651  0.5943
   10CHTO  H156 3977   4.390   7.741   7.090 -1.1987  0.1644 -1.0888
   10CHTO   N15 3978   4.334   7.748   7.288 -0.3528 -0.0555  0.1217
   10CHTO  H143 3979   4.307   7.836   7.343  0.3676 -0.6048  1.3930
   10CHTO  H144 3980   4.292   7.664   7.340 -1.2903  0.6078  0.4523
   10CHTO   C87 3981   4.253   7.880   7.100 -0.3103 -0.1370 -0.3201
   10CHTO  H159 3982   4.174   7.918   7.164  0.8493 -0.0531  1.0820
   10CHTO   O53 3983   4.213   7.866   6.953  0.0022 -0.7167  0.3509
   10CHTO   C82 3984   4.108   7.781   6.922 -0.2526  0.4430  0.5211
   10CHTO  H154 3985   4.019   7.812   6.976  0.7137  2.2812  1.1023
   10CHTO   C89 3986   4.077   7.802   6.769 -0.0209  0.0682  0.0090
   10CHTO   O59 3987   4.028   7.938   6.747 -0.3844 -0.2041 -0.3730
   10CHTO  H137 3988   3.944   7.946   6.790  0.2992  1.0133  0.7722
   10CHTO   O45 3989   4.384   8.001   7.095  1.1007  0.0003 -0.3261
   10CHTO   C67 3990   4.368   8.133   7.140  1.1309  0.0871 -1.0360
   10CHTO  H124 3991   4.264   8.157   7.117  0.2661  0.6913  3.1037
   10CHTO   C65 3992   4.383   8.148   7.300  0.0753 -0.4211 -0.2012
   10CHTO  H122 3993   4.337   8.059   7.344 -1.2004  0.5625  0.4559
   10CHTO   O44 3994   4.319   8.270   7.343  0.2771 -0.3953 -0.6617
   10CHTO  H102 3995   4.231   8.282   7.312  0.3757  1.0001 -0.4379
   10CHTO   C63 3996   4.533   8.127   7.331  0.3471 -0.9521  0.3585
   10CHTO  H120 3997   4.562   8.036   7.279  1.1100 -0.0483 -0.8298
   10CHTO   N11 3998   4.570   8.080   7.467 -0.1221  0.0419  0.2746
   10CHTO  H108 3999   4.675   8.066   7.476 -0.4086 -1.0201  2.3809
   10CHTO  H109 4000   4.544   8.163   7.529 -1.9020 -0.4060  0.1601
   10CHTO   C61 4001   4.622   8.238   7.263 -0.0384  0.7821  0.1675
   10CHTO  H118 4002   4.721   8.189   7.256 -0.1021  0.9302 -2.2804
   10CHTO   O40 4003   4.587   8.268   7.124  0.1032  0.1791  0.3214
   10CHTO   C68 4004   4.458   8.231   7.064 -0.4520 -0.2235  0.5062
   10CHTO  H125 4005   4.490   8.175   6.974 -1.0954 -2.0512  1.3941
   10CHTO   C72 4006   4.385   8.363   7.020  0.7468 -0.2604 -0.4493
   10CHTO   O48 4007   4.265   8.347   6.942 -0.2519 -0.1957  0.2359
   10CHTO  H105 4008   4.210   8.423   6.942  1.0021  0.7314 -0.6077
   10CHTO   O38 4009   4.629   8.361   7.331 -0.6286  0.0085 -0.0006
   10CHTO   C55 4010   4.737   8.450   7.349  0.4632 -0.8282  0.7722
   10CHTO  H112 4011   4.815   8.431   7.272 -2.2905  0.9440 -2.6062
   10CHTO   C56 4012   4.794   8.450   7.493 -0.0414 -0.1849  0.4181
   10CHTO  H113 4013   4.713   8.485   7.559 -1.0035 -0.5159 -0.5723
   10CHTO   O42 4014   4.828   8.311   7.530 -0.4186 -0.4031  0.2144
   10CHTO  H100 4015   4.878   8.334   7.606  0.7898  2.3265 -1.3349
   10CHTO   C57 4016   4.917   8.552   7.499 -1.0529 -0.4668  0.0447
   10CHTO  H114 4017   4.982   8.519   7.419  0.1919  1.1990  0.3403
   10CHTO   N10 4018   4.982   8.547   7.632  0.3550 -0.5891 -0.2084
   10CHTO  H106 4019   4.915   8.525   7.714  1.7740 -1.6931  0.6892
   10CHTO  H107 4020   5.021   8.646   7.651  2.3476 -1.2203 -0.8792
   10CHTO   C58 4021   4.864   8.693   7.447 -0.3289  0.0898 -0.5618
   10CHTO  H115 4022   4.802   8.741   7.525  1.0669  1.9289 -0.5452
   10CHTO   O37 4023   4.794   8.691   7.322 -0.2575  0.0784  0.4577
   10CHTO   C59 4024   4.685   8.599   7.322 -0.0969  1.1497 -0.5268
   10CHTO  H116 4025   4.613   8.625   7.399 -1.6068 -0.0009 -1.5080
   10CHTO   C70 4026   4.610   8.609   7.188  0.4863  0.3383 -0.6185
   10CHTO   O46 4027   4.696   8.586   7.076 -0.1823  0.2503 -0.4220
   10CHTO  H103 4028   4.678   8.660   7.021 -1.7987  0.0559 -0.1757
   10CHTO   O39 4029   4.982   8.771   7.413  0.4215  0.7668 -0.1824
   10CHTO   C60 4030   5.004   8.913   7.435  0.0912 -0.1847 -0.4598
   10CHTO  H117 4031   4.919   8.975   7.409 -0.0871 -0.9055 -1.6116
   10CHTO   C62 4032   5.043   8.928   7.587  0.4306  0.2847 -0.0785
   10CHTO  H119 4033   4.961   8.884   7.647 -1.2934  2.4094 -0.8142
   10CHTO   O43 4034   5.149   8.846   7.629 -0.3462  0.0248 -0.4989
   10CHTO  H101 4035   5.187   8.812   7.550  0.0027  1.3207 -0.8988
   10CHTO   C66 4036   5.061   9.085   7.635  0.2373 -0.1657  0.4331
   10CHTO  H123 4037   4.976   9.138   7.592  1.0646  0.7874 -0.0242
   10CHTO   N12 4038   5.062   9.108   7.786 -0.5682 -0.5257 -0.2378
   10CHTO  H110 4039   4.969   9.089   7.837 -0.7114  0.1183 -0.2621
   10CHTO  H111 4040   5.108   9.201   7.814 -3.7579  0.6420  1.4073
   10CHTO   C69 4041   5.186   9.131   7.552  0.0404  0.0508  0.3029
   10CHTO  H126 4042   5.273   9.075   7.593 -0.1189 -0.6569 -0.3168
   10CHTO   O41 4043   5.173   9.101   7.387  0.8716  0.1693 -0.4064
   10CHTO   C64 4044   5.123   8.964   7.349  0.2409 -0.1256 -0.1681
   10CHTO  H121 4045   5.206   8.891   7.359 -1.5194 -2.3352 -1.3070
   10CHTO   C71 4046   5.072   8.962   7.199 -0.3945  0.1894 -0.3156
   10CHTO   O47 4047   5.174   8.996   7.108 -0.3215 -0.4836  0.0058
   10CHTO  H104 4048   5.255   8.954   7.131  0.2591 -0.4651 -1.9678
   10CHTO   O34 4049   5.189   9.279   7.574  0.0148 -0.3131 -0.3129
   10CHTO   C49 4050   5.262   9.391   7.539  0.2869  0.6999  0.5217
   10CHTO   H91 4051   5.362   9.380   7.582  0.4620 -0.2668 -0.1151
   10CHTO   C47 4052   5.197   9.518   7.594  1.2128  0.4176  0.3277
   10CHTO   H89 4053   5.266   9.602   7.569  1.8131 -0.4484 -1.0116
   10CHTO   O33 4054   5.181   9.511   7.739  0.5671  0.2327  0.1578
   10CHTO   H70 4055   5.132   9.587   7.763  0.0206  0.2266 -0.9053
   10CHTO   C45 4056   5.060   9.535   7.515  0.1328 -0.7150  0.1230
   10CHTO   H87 4057   5.004   9.443   7.536 -0.2840 -0.1314  1.7076
   10CHTO    N8 4058   4.975   9.652   7.559 -0.6695 -0.6698  0.2023
   10CHTO   H75 4059   4.936   9.707   7.475 -1.3817 -0.9477  0.3488
   10CHTO   H76 4060   5.039   9.721   7.613 -0.1003 -0.8806 -0.1926
   10CHTO   C43 4061   5.093   9.543   7.359 -0.8680 -0.4240 -0.0473
   10CHTO   H85 4062   4.995   9.546   7.311  0.4690 -1.1083 -2.8919
   10CHTO   O29 4063   5.172   9.428   7.315 -0.4665  0.3795  0.4008
   10CHTO   C50 4064   5.287   9.393   7.387  0.8997 -0.0837  0.4923
   10CHTO   H92 4065   5.311   9.290   7.356 -1.5775 -0.4325 -0.4194
   10CHTO   C54 4066   5.415   9.470   7.346 -0.6277  0.0984  0.6518
   10CHTO   O36 4067   5.428   9.466   7.205  1.0099 -0.3097 -0.4163
   10CHTO   H72 4068   5.427   9.377   7.174  1.5933  0.3618 -2.4384
   10CHTO   O27 4069   5.164   9.659   7.328  0.1650  0.1325 -0.3240
   10CHTO   C37 4070   5.184   9.766   7.233 -0.2233  0.0756 -0.0639
   10CHTO   H79 4071   5.258   9.745   7.155 -2.6731 -0.7756 -2.2135
   10CHTO   C38 4072   5.056   9.796   7.152 -0.2281 -0.1105 -0.1079
   10CHTO   H80 4073   4.977   9.797   7.229 -0.5855  0.5405 -0.4836
   10CHTO   O31 4074   5.028   9.688   7.070 -0.0485 -0.1661 -0.0810
   10CHTO   H68 4075   5.000   9.615   7.121 -1.8236  1.1580  0.8839
   10CHTO   C39 4076   5.049   9.932   7.073  0.4263 -0.0468  0.0474
   10CHTO   H81 4077   5.108   9.911   6.984  0.7525  2.9126 -0.4740
   10CHTO    N7 4078   4.911   9.968   7.029 -0.2386 -0.5424 -0.0038
   10CHTO   H73 4079   4.853   9.998   7.114 -0.3117 -1.8058  0.4077
   10CHTO   H74 4080   4.930  10.054   6.967 -1.0663 -0.9304 -0.8143
   10CHTO   C40 4081   5.127  10.049   7.140  0.1130 -0.0472  0.4382
   10CHTO   H82 4082   5.062  10.114   7.200  0.5934 -0.1054  1.0295
   10CHTO   O26 4083   5.245  10.014   7.209 -0.6989  0.5457  0.0701
   10CHTO   C41 4084   5.223   9.903   7.306  0.4300  0.3092  0.6014
   10CHTO   H83 4085   5.146   9.949   7.371 -1.2519 -1.1268 -0.3229
   10CHTO   C52 4086   5.348   9.899   7.398  0.4751  0.2711  0.0361
   10CHTO   O35 4087   5.377  10.034   7.462 -0.0156 -0.0543 -0.6001
   10CHTO   H71 4088   5.464  10.044   7.496 -1.2395  0.5178  2.5237
   10CHTO   O28 4089   5.173  10.138   7.037 -0.1449 -0.1627 -0.7645
   10CHTO   C42 4090   5.159  10.276   7.017 -0.2866 -0.1770 -0.6176
   10CHTO   H84 4091   5.073  10.308   7.075 -0.2011 -1.5349  0.2588
   10CHTO   C44 4092   5.125  10.316   6.880 -0.4567  0.5830  0.0217
   10CHTO   H86 4093   5.205  10.281   6.814 -1.6124 -0.5505 -0.7955
   10CHTO   O32 4094   4.992  10.261   6.847 -0.7520 -0.2201 -0.0895
   10CHTO   H69 4095   5.015  10.173   6.824  2.3236 -0.1416  2.3715
   10CHTO   C48 4096   5.130  10.468   6.846  0.5499 -0.4364 -0.5106
   10CHTO   H90 4097   5.064  10.520   6.915  1.2470 -0.6947  0.3685
   10CHTO    N9 4098   5.088  10.502   6.707 -0.2704  0.1493  0.2591
   10CHTO   H77 4099   5.110  10.427   6.633 -1.0511 -0.3268  0.5027
   10CHTO   H78 4100   5.114  10.600   6.670  3.2823 -0.5323  0.7795
   10CHTO   C51 4101   5.267  10.530   6.894 -0.1797  0.3368  0.0654
   10CHTO   H93 4102   5.341  10.487   6.828 -0.3809  0.3600 -0.1734
   10CHTO   O30 4103   5.291  10.496   7.030 -0.0916  0.5244  0.6909
   10CHTO   C46 4104   5.285  10.353   7.071  0.1418  0.1820 -0.2496
   10CHTO   H88 4105   5.375  10.298   7.044 -0.2279  0.1501 -1.4404
   10CHTO   C53 4106   5.275  10.355   7.228  0.2076 -0.1622  0.3248
   10CHTO   O72 4107   5.407  10.384   7.274 -0.0532 -0.1432  0.0889
   10CHTO  H199 4108   5.432  10.310   7.325  0.2148 -1.0607 -1.3528
   10CHTO   O22 4109   5.262  10.677   6.884  0.2615  0.2890 -0.2257
   10CHTO   C31 4110   5.353  10.772   6.825  0.4167 -0.8056 -0.3471
   10CHTO   H59 4111   5.450  10.753   6.875  0.9859 -1.2811 -1.6026
   10CHTO   C29 4112   5.377  10.746   6.668  0.2229  0.0602 -0.5565
   10CHTO   H57 4113   5.274  10.732   6.633 -0.1885 -0.5550  0.8512
   10CHTO   O21 4114   5.436  10.614   6.663 -0.0392 -0.1389  0.3379
   10CHTO   H37 4115   5.434  10.571   6.579 -2.2606  0.6180 -0.0246
   10CHTO   C27 4116   5.448  10.863   6.589 -0.0791 -0.7401 -0.2286
   10CHTO   H55 4117   5.557  10.861   6.605 -0.2766  0.2929  1.4312
   10CHTO    N5 4118   5.423  10.857   6.445  0.4458  0.4915 -0.2427
   10CHTO   H43 4119   5.446  10.755   6.417 -1.2926 -0.1028  0.4242
   10CHTO   H44 4120   5.321  10.881   6.419  0.3665  0.3789 -0.0290
   10CHTO   C25 4121   5.404  11.007   6.645 -0.3766 -0.0349  0.2295
   10CHTO   H53 4122   5.307  11.045   6.611 -0.4045  0.9212  1.3549
   10CHTO   O17 4123   5.410  11.002   6.784  0.2618 -0.0921 -0.0806
   10CHTO   C32 4124   5.320  10.920   6.853 -0.4644 -0.0842 -0.2937
   10CHTO   H60 4125   5.216  10.943   6.830 -0.0231  1.4451 -0.8186
   10CHTO   C36 4126   5.337  10.956   7.001 -0.4980  0.6315  0.2290
   10CHTO   O25 4127   5.270  11.073   7.045 -0.4618 -0.0181 -0.1063
   10CHTO   H40 4128   5.306  11.100   7.127 -0.8621  0.6625 -0.1506
   10CHTO   O15 4129   5.508  11.118   6.608  0.0277  0.2705 -0.0380
   10CHTO   C19 4130   5.507  11.254   6.629 -0.7443 -0.2724 -0.2333
   10CHTO   H47 4131   5.437  11.286   6.550 -0.7626  2.8954  0.9913
   10CHTO   C20 4132   5.457  11.315   6.764 -0.0177 -0.1884  0.1546
   10CHTO   H48 4133   5.528  11.293   6.845 -0.2182  0.3612  0.4871
   10CHTO   O19 4134   5.320  11.260   6.799  0.4074  0.8469  0.0933
   10CHTO   H35 4135   5.298  11.281   6.887  4.5269 -0.8860  1.6329
   10CHTO   C21 4136   5.456  11.471   6.732 -0.0961  0.5702 -0.3419
   10CHTO   H49 4137   5.407  11.494   6.637  1.1222 -1.6573 -1.5188
   10CHTO    N4 4138   5.380  11.550   6.835 -0.0267  0.7644  0.3476
   10CHTO   H41 4139   5.436  11.561   6.928  2.2963  1.9896 -1.1341
   10CHTO   H42 4140   5.284  11.506   6.858 -0.3925  1.2093 -0.3385
   10CHTO   C22 4141   5.607  11.512   6.726  0.5492  0.1236  0.4372
   10CHTO   H50 4142   5.663  11.467   6.808  0.2564  0.8156  1.0197
   10CHTO   O14 4143   5.654  11.453   6.600  0.3605 -0.1111 -0.7171
   10CHTO   C23 4144   5.650  11.312   6.587  0.2213 -0.7476 -0.1728
   10CHTO   H51 4145   5.732  11.269   6.646  0.9899 -1.8251 -1.9935
   10CHTO   C34 4146   5.670  11.273   6.443 -0.5552  0.0231  0.0208
   10CHTO   O23 4147   5.808  11.302   6.418  0.0771  0.5973 -1.2177
   10CHTO   H38 4148   5.844  11.216   6.411 -1.3283 -0.3697  2.2221
   10CHTO   O16 4149   5.625  11.657   6.719 -0.0206 -0.3736  0.0735
   10CHTO   C24 4150   5.750  11.718   6.757 -0.0836  0.3999  0.0489
   10CHTO   H52 4151   5.834  11.652   6.739 -0.5593 -0.3990  0.7193
   10CHTO   C26 4152   5.738  11.761   6.902  0.1573 -0.5543  0.1688
   10CHTO   H54 4153   5.649  11.826   6.909  0.3513 -0.5153  3.1600
   10CHTO   O20 4154   5.722  11.644   6.988 -0.2009 -0.8339  0.8763
   10CHTO   H36 4155   5.636  11.609   6.980 -0.4940 -0.4600  2.2830
   10CHTO   C30 4156   5.868  11.849   6.934  0.2898 -0.2988  0.6045
   10CHTO   H58 4157   5.963  11.795   6.923  1.2250  1.8613 -2.7239
   10CHTO    N6 4158   5.858  11.906   7.068 -0.5935 -0.7473  0.7420
   10CHTO   H45 4159   5.940  11.873   7.130 -0.2400 -0.0133  0.6681
   10CHTO   H46 4160   5.767  11.879   7.120 -0.7586  0.5763  1.1833
   10CHTO   C33 4161   5.881  11.968   6.837  0.4743  0.0628  1.1022
   10CHTO   H61 4162   5.798  12.039   6.851  0.5159  0.2553  0.4075
   10CHTO   O18 4163   5.880  11.913   6.703  0.0484  0.1661 -0.1506
   10CHTO   C28 4164   5.767  11.836   6.661 -0.7903 -0.3216  0.4452
   10CHTO   H56 4165   5.676  11.897   6.666 -1.3087 -1.1054  0.6869
   10CHTO   C35 4166   5.794  11.785   6.517  0.2582  0.1862  0.4496
   10CHTO   O24 4167   5.697  11.696   6.458  0.3421 -0.7258  0.6412
   10CHTO   H39 4168   5.745  11.636   6.405 -0.1757 -0.4339 -0.1615
   10CHTO    O9 4169   5.998  12.050   6.860 -0.6183  0.3058 -0.2426
   10CHTO   C13 4170   5.983  12.218   6.809 -0.0897 -0.4198 -0.1115
   10CHTO   H26 4171   5.905  12.217   6.729  0.3069  1.8521 -0.5644
   10CHTO   C11 4172   6.117  12.276   6.757 -0.5922  0.2944 -0.1032
   10CHTO   H24 4173   6.142  12.220   6.666  2.1306 -1.5998  1.7196
   10CHTO    O8 4174   6.218  12.259   6.854  0.1964  0.5175 -0.6648
   10CHTO    H3 4175   6.218  12.176   6.898 -0.8215  1.2340  0.7139
   10CHTO    C9 4176   6.092  12.423   6.711  0.0685  0.1151  0.3575
   10CHTO   H22 4177   6.013  12.411   6.636 -0.9549 -0.6151  1.5314
   10CHTO    N2 4178   6.205  12.493   6.635 -0.5290  0.5756  0.1835
   10CHTO   H10 4179   6.253  12.414   6.578 -0.8314 -0.2812  1.1001
   10CHTO   H11 4180   6.276  12.534   6.705 -1.0624  0.8483  0.5647
   10CHTO    C7 4181   6.043  12.511   6.828  0.0987  0.1044  0.4583
   10CHTO   H20 4182   6.018  12.609   6.784 -1.9470 -0.5358  0.1316
   10CHTO    O4 4183   5.926  12.451   6.888  0.0677 -0.0163  0.0621
   10CHTO   C14 4184   5.923  12.308   6.924 -0.5032  0.0746  0.3819
   10CHTO   H27 4185   5.817  12.278   6.935  0.2004 -2.9502 -0.4697
   10CHTO   C18 4186   5.986  12.294   7.063  0.3153  0.1511  0.2027
   10CHTO   O13 4187   5.926  12.383   7.165  0.5161 -0.6277  0.0281
   10CHTO    H7 4188   5.978  12.462   7.167  1.3506 -1.1375 -0.7282
   10CHTO    O2 4189   6.169  12.540   6.948  0.5765 -0.0965 -0.1943
   10CHTO    C1 4190   6.142  12.642   7.050 -0.1654 -0.7457 -0.0536
   10CHTO   H14 4191   6.075  12.600   7.127  1.1643 -1.1140  0.9242
   10CHTO    C2 4192   6.078  12.788   7.004  0.0568  0.0156  0.6059
   10CHTO   H15 4193   6.133  12.819   6.914 -1.3752  1.7601  0.3055
   10CHTO    O6 4194   5.933  12.781   6.977 -0.3384  0.0465  0.6013
   10CHTO    H1 4195   5.885  12.782   7.058 -1.8039 -2.3452 -0.1900
   10CHTO    C3 4196   6.107  12.896   7.119 -0.6837 -0.0018 -0.1746
   10CHTO   H16 4197   6.046  12.886   7.210  3.2424 -2.5626  2.3485
   10CHTO    N1 4198   6.066  13.033   7.067 -0.3931 -0.1406  0.2887
   10CHTO    H8 4199   6.103  13.048   6.967 -0.8596 -1.6447 -0.1151
   10CHTO    H9 4200   6.110  13.115   7.124 -1.8656  0.9262 -0.0849
   10CHTO    C4 4201   6.254  12.892   7.178 -0.2789 -0.3390  0.0114
   10CHTO   H17 4202   6.327  12.913   7.100 -3.2650  2.9462 -2.0900
   10CHTO    O1 4203   6.277  12.762   7.228  0.3045  0.1163  0.2261
   10CHTO    C5 4204   6.284  12.661   7.126 -0.2032  0.2699  0.5831
   10CHTO   H18 4205   6.352  12.702   7.051  0.4506  0.2485  1.1608
   10CHTO   C16 4206   6.341  12.532   7.195 -0.1618 -0.2323 -0.5832
   10CHTO   O11 4207   6.397  12.448   7.098 -0.0607 -0.0892 -0.0822
   10CHTO    H5 4208   6.462  12.494   7.049 -0.4382 -1.0048 -1.4753
   10CHTO    O3 4209   6.268  12.963   7.301 -0.2889 -0.5996 -0.5905
   10CHTO    C6 4210   6.408  12.993   7.341 -0.9766  0.1428  0.7800
   10CHTO   H19 4211   6.486  12.921   7.315 -0.5545 -0.1174  2.6652
   10CHTO    C8 4212   6.443  13.137   7.291  0.3501 -0.5033 -0.4175
   10CHTO   H21 4213   6.366  13.207   7.322  2.5899  1.4807  0.7814
   10CHTO    O7 4214   6.445  13.144   7.148  0.6013  0.3666  0.2898
   10CHTO    H2 4215   6.402  13.222   7.119  0.2050 -0.2163 -0.7097
   10CHTO   C12 4216   6.585  13.174   7.355  0.0295 -0.1597 -0.1610
   10CHTO   H25 4217   6.663  13.107   7.313 -0.8399 -0.0387 -2.0088
   10CHTO    N3 4218   6.619  13.318   7.322  0.4199  0.7989  0.1353
   10CHTO   H12 4219   6.552  13.379   7.381 -0.9164  0.5611 -1.0943
   10CHTO   H13 4220   6.596  13.333   7.217  0.7026  2.6349  0.3305
   10CHTO   C15 4221   6.590  13.154   7.513 -0.0276 -0.2527 -0.7066
   10CHTO   H28 4222   6.547  13.243   7.557  0.5779 -0.1049 -0.4119
   10CHTO   O10 4223   6.736  13.138   7.570  0.3082 -0.3106 -0.2095
   10CHTO    H4 4224   6.797  13.201   7.536 -0.5463  0.5868 -0.0926
   10CHTO    O5 4225   6.524  13.032   7.559  0.0159 -0.5137  0.5488
   10CHTO   C10 4226   6.400  13.002   7.498 -0.4490  0.2390 -0.7905
   10CHTO   H23 4227   6.324  13.077   7.519  1.2908  2.0375 -0.7131
   10CHTO   C17 4228   6.357  12.881   7.576 -0.3549  0.4502 -0.2264
   10CHTO   O12 4229   6.338  12.921   7.719  0.3344  0.3498  0.6897
   10CHTO    H6 4230   6.247  12.914   7.742  0.6621 -1.3365  1.4838
   11CHTO  H203 4231   7.588   5.922   1.208  0.2398  0.5861  0.1003
   11CHTO   O82 4232   7.523   5.915   1.276 -0.3525 -0.1140 -0.5364
   11CHTO  C123 4233   7.396   5.964   1.231 -0.3231  0.6693 -0.0098
   11CHTO  H227 4234   7.394   5.953   1.121 -1.0682  0.0824  0.0655
   11CHTO   O77 4235   7.305   5.866   1.275 -0.2329 -0.1292 -0.1972
   11CHTO  C118 4236   7.171   5.886   1.242  0.8616 -0.0360  0.0230
   11CHTO  H222 4237   7.163   5.879   1.133  2.8616  1.0224 -0.2072
   11CHTO  C125 4238   7.085   5.770   1.307 -0.0277  0.4597 -0.1422
   11CHTO   O84 4239   6.946   5.762   1.261  0.0250  0.1440 -0.0983
   11CHTO  H205 4240   6.911   5.687   1.305  2.2681 -1.3334 -0.7285
   11CHTO  C114 4241   7.117   6.025   1.297 -0.1392 -0.2485 -0.1048
   11CHTO  H218 4242   7.129   6.032   1.405  2.7870  0.6035 -0.4168
   11CHTO  C116 4243   7.207   6.139   1.232  0.8655  0.3553 -0.0617
   11CHTO  H220 4244   7.200   6.148   1.121  0.0680  3.4494  0.2144
   11CHTO   O79 4245   7.171   6.265   1.296  0.0232 -0.2228 -0.0410
   11CHTO  H201 4246   7.200   6.346   1.258  0.4245  0.1913  1.1050
   11CHTO  C120 4247   7.356   6.115   1.261  0.1735  0.3511 -0.3039
   11CHTO  H224 4248   7.363   6.142   1.368  0.4657 -3.2155  0.6561
   11CHTO   N21 4249   7.446   6.205   1.189 -0.2567  0.4541 -0.0061
   11CHTO  H211 4250   7.538   6.220   1.244 -1.2798  0.3746  1.7623
   11CHTO  H212 4251   7.399   6.299   1.164  0.6851  0.5345 -1.5802
   11CHTO   O75 4252   6.981   6.037   1.261  0.8560 -0.1833  0.1387
   11CHTO  C112 4253   6.856   6.026   1.377 -0.0066 -0.3597  1.0749
   11CHTO  H216 4254   6.887   5.964   1.463  3.2695 -0.7348 -0.3011
   11CHTO   O73 4255   6.746   5.968   1.305  0.1793 -0.0793 -0.0226
   11CHTO  C113 4256   6.625   5.947   1.377  0.1114  0.1778 -0.0303
   11CHTO  H217 4257   6.628   5.875   1.461  0.5775 -2.6545 -2.4040
   11CHTO  C124 4258   6.552   5.863   1.269  0.3464 -0.2214 -0.0021
   11CHTO   O83 4259   6.451   5.777   1.326  0.0651  0.1097 -0.7608
   11CHTO  H204 4260   6.444   5.790   1.419 -0.6181 -0.1920 -0.7688
   11CHTO  C109 4261   6.556   6.081   1.431  0.4781  0.5246  0.4234
   11CHTO  H213 4262   6.528   6.139   1.342 -2.4193 -0.7451  0.4596
   11CHTO  C110 4263   6.669   6.154   1.509  0.3602  0.1002 -0.0838
   11CHTO  H214 4264   6.687   6.095   1.599  1.8310  1.2228  0.3876
   11CHTO   O78 4265   6.629   6.282   1.552  1.0315  0.0243  0.0052
   11CHTO  H200 4266   6.587   6.329   1.482  0.0456 -2.8451 -1.4007
   11CHTO  C111 4267   6.802   6.165   1.424 -0.7698 -0.9614  0.2190
   11CHTO  H215 4268   6.776   6.226   1.336 -0.3485 -1.9849 -0.6324
   11CHTO   N19 4269   6.915   6.241   1.493  0.2204  0.5765  0.4551
   11CHTO  H207 4270   7.013   6.196   1.490  0.3699  0.9907 -1.1157
   11CHTO  H208 4271   6.928   6.340   1.452  1.0182 -0.2148 -1.2411
   11CHTO   O74 4272   6.435   6.048   1.521 -0.0202 -0.5478 -0.1969
   11CHTO  C115 4273   6.289   6.083   1.438 -0.0752  0.3290 -0.3898
   11CHTO  H219 4274   6.303   6.087   1.330 -1.0372  2.5939 -0.4524
   11CHTO   O76 4275   6.196   5.976   1.457 -0.0660  0.0900  0.1898
   11CHTO  C122 4276   6.167   5.942   1.603  0.4124  0.4330  1.1295
   11CHTO  H226 4277   6.253   5.878   1.623  0.4100 -0.6583 -2.0299
   11CHTO  C126 4278   6.039   5.849   1.603  0.5368 -0.4595 -0.2754
   11CHTO   O85 4279   6.042   5.732   1.520  0.1743 -0.1896 -0.0759
   11CHTO  H206 4280   5.999   5.661   1.564 -0.3409  0.3243  0.2690
   11CHTO  C121 4281   6.146   6.067   1.695  0.2188  0.7967 -0.6871
   11CHTO  H225 4282   6.049   6.045   1.745 -0.1743  0.8512 -1.4261
   11CHTO   O81 4283   6.250   6.082   1.787 -0.6886 -0.0707  0.5253
   11CHTO  H202 4284   6.277   5.996   1.813  0.3300  0.4072  1.0925
   11CHTO  C119 4285   6.120   6.192   1.604 -0.7994 -0.4251  0.3228
   11CHTO  H223 4286   6.034   6.166   1.543  0.2571  1.8071 -2.2090
   11CHTO  C117 4287   6.238   6.222   1.501  0.1925  0.2961  0.6825
   11CHTO  H221 4288   6.327   6.271   1.539 -0.3997  2.6646 -0.8707
   11CHTO   N20 4289   6.194   6.310   1.386  0.1875  0.6467 -0.0060
   11CHTO  H209 4290   6.087   6.322   1.391  0.2455  0.3975  2.8032
   11CHTO  H210 4291   6.234   6.410   1.392 -0.1384  0.6410  2.6947
   11CHTO   O80 4292   6.065   6.334   1.674  0.6695 -0.0985  0.4093
   11CHTO  C103 4293   6.154   6.423   1.774  0.3476 -0.1264  0.2982
   11CHTO  H190 4294   6.201   6.359   1.848 -1.9865 -1.0937  1.0026
   11CHTO  C101 4295   6.256   6.529   1.711 -0.4243 -0.0776 -0.3585
   11CHTO  H188 4296   6.218   6.567   1.616 -3.1657 -2.2330 -0.1712
   11CHTO   O68 4297   6.392   6.458   1.665 -0.5482  0.0437  0.0297
   11CHTO  H168 4298   6.416   6.399   1.734 -0.4082  0.3089  0.2115
   11CHTO   C99 4299   6.285   6.648   1.814 -0.4767 -0.8181 -0.0772
   11CHTO  H186 4300   6.340   6.599   1.897  0.1427 -2.1060 -1.2334
   11CHTO   N17 4301   6.371   6.755   1.759  0.0369  0.1526 -0.4039
   11CHTO  H174 4302   6.452   6.714   1.701 -0.9434 -0.1467 -1.5836
   11CHTO  H175 4303   6.405   6.819   1.839 -2.4641 -0.7725  1.4543
   11CHTO   C97 4304   6.159   6.714   1.864 -0.1977  0.6114  0.3106
   11CHTO  H184 4305   6.105   6.754   1.776  1.0903  2.1101  0.1818
   11CHTO   O64 4306   6.087   6.612   1.932  0.2110 -0.2219 -0.8187
   11CHTO  C104 4307   6.042   6.500   1.856 -0.5067  0.2643 -0.0698
   11CHTO  H191 4308   5.966   6.539   1.788 -0.1386  1.2358  0.0682
   11CHTO  C108 4309   5.963   6.400   1.942 -0.2086  0.3363  0.0247
   11CHTO   O71 4310   6.047   6.342   2.044 -0.0229 -0.1684 -0.2215
   11CHTO  H171 4311   5.993   6.310   2.113 -1.5515  2.3241 -0.2063
   11CHTO   O62 4312   6.180   6.818   1.960  0.4921 -0.4775  0.0838
   11CHTO   C91 4313   6.075   6.912   1.983 -0.3043  1.4757  0.6884
   11CHTO  H178 4314   5.979   6.861   1.975 -0.1475  1.4929 -1.6342
   11CHTO   C92 4315   6.083   7.016   1.868 -0.6335 -0.4489 -0.3824
   11CHTO  H179 4316   6.105   6.969   1.771  1.1393  0.9768 -0.7245
   11CHTO   O66 4317   5.959   7.079   1.845  0.0631 -0.3390  0.3347
   11CHTO  H166 4318   5.949   7.130   1.923 -1.6332  1.3734 -0.9185
   11CHTO   C93 4319   6.185   7.134   1.897 -0.4282  0.8789  0.0042
   11CHTO  H180 4320   6.170   7.209   1.819 -0.2480  1.9096  0.9506
   11CHTO   N16 4321   6.328   7.096   1.882 -0.3723  0.1701  0.2602
   11CHTO  H172 4322   6.348   7.022   1.806  0.1374  0.2276  0.3346
   11CHTO  H173 4323   6.389   7.183   1.865  1.2738 -1.4929 -2.6369
   11CHTO   C94 4324   6.156   7.202   2.035 -0.2381  0.0240  0.0353
   11CHTO  H181 4325   6.247   7.215   2.094 -0.6556  1.3811  0.3976
   11CHTO   O61 4326   6.067   7.126   2.120  0.1420 -0.4764  0.0086
   11CHTO   C95 4327   6.094   6.984   2.122  0.4636  0.1370  0.1001
   11CHTO  H182 4328   6.196   6.969   2.159  0.3955  2.8297  1.5254
   11CHTO  C106 4329   6.000   6.938   2.239 -0.0594  0.1937 -0.2003
   11CHTO   O69 4330   6.050   6.819   2.296 -0.1692  0.1536 -0.0856
   11CHTO  H169 4331   6.144   6.823   2.303 -0.0554 -1.0997 -0.8752
   11CHTO   O63 4332   6.081   7.350   2.004  0.1885 -0.2859  0.6539
   11CHTO   C96 4333   6.080   7.443   2.132  0.6370 -0.1472 -0.4479
   11CHTO  H183 4334   6.112   7.387   2.219  2.2610  0.2934 -0.7373
   11CHTO   C98 4335   5.938   7.502   2.167 -0.5726  0.2538  0.2241
   11CHTO  H185 4336   5.869   7.416   2.171  0.3392 -0.5412 -0.8943
   11CHTO   O67 4337   5.942   7.555   2.302  0.1417  0.6074 -0.2001
   11CHTO  H167 4338   5.875   7.519   2.356  1.8487  1.1711  2.3776
   11CHTO  C102 4339   5.886   7.609   2.060 -0.1890 -0.0046  0.0392
   11CHTO  H189 4340   5.812   7.672   2.111  0.3080  0.5702  0.0568
   11CHTO   N18 4341   5.820   7.546   1.946 -0.0481 -0.4784 -0.2111
   11CHTO  H176 4342   5.713   7.558   1.959  0.1611  0.8967  0.3541
   11CHTO  H177 4343   5.857   7.445   1.933  0.9698 -0.2247  0.6975
   11CHTO  C105 4344   6.003   7.704   2.015  0.7647 -0.1020 -0.3397
   11CHTO  H192 4345   6.025   7.687   1.909 -0.3883  1.0326 -0.7709
   11CHTO   O65 4346   6.128   7.687   2.089  0.1306 -0.7466  0.7287
   11CHTO  C100 4347   6.188   7.556   2.108 -0.6987  0.3589 -0.3012
   11CHTO  H187 4348   6.246   7.529   2.019 -0.8082  0.0707 -0.2859
   11CHTO  C107 4349   6.292   7.553   2.221  0.0127 -0.3093 -0.1145
   11CHTO   O70 4350   6.398   7.465   2.195 -0.5810 -0.1794  0.0336
   11CHTO  H170 4351   6.461   7.472   2.265 -0.4159  0.4390 -0.1824
   11CHTO   O57 4352   5.941   7.854   2.030 -0.1841 -0.4438 -0.6064
   11CHTO   C85 4353   5.950   7.954   1.924  0.5381 -0.0555  0.0876
   11CHTO  H157 4354   5.913   8.035   1.990 -3.3892 -2.4198  0.9155
   11CHTO   C83 4355   5.845   7.937   1.814  1.2131 -0.0856  0.0696
   11CHTO  H155 4356   5.749   7.945   1.866  1.6153  0.4390  0.7401
   11CHTO   O56 4357   5.847   7.808   1.750 -0.0578  0.7912 -0.4067
   11CHTO  H135 4358   5.778   7.784   1.690 -0.0123 -2.7749  0.8539
   11CHTO   C81 4359   5.858   8.053   1.715 -0.8102  0.3748  0.0254
   11CHTO  H153 4360   5.853   8.149   1.766 -2.3031  0.8391 -0.9707
   11CHTO   N14 4361   5.746   8.061   1.614 -0.6529  0.3226 -0.1324
   11CHTO  H141 4362   5.730   7.958   1.593  0.0421 -0.6943  3.9798
   11CHTO  H142 4363   5.656   8.098   1.658 -0.6692  3.2795 -2.4833
   11CHTO   C79 4364   5.991   8.044   1.640  0.6734  0.8771 -0.7332
   11CHTO  H151 4365   6.002   8.134   1.579  0.1006  0.7080 -1.0922
   11CHTO   O52 4366   6.106   8.048   1.735  0.2865  0.1429  0.0331
   11CHTO   C86 4367   6.094   7.978   1.859 -0.0642  0.5424  0.4745
   11CHTO  H158 4368   6.139   7.880   1.830 -0.2266  1.3880 -2.7763
   11CHTO   C90 4369   6.186   8.046   1.955 -0.4403 -0.5597 -0.4718
   11CHTO   O60 4370   6.324   8.029   1.924 -0.3874  0.7443  0.2682
   11CHTO  H138 4371   6.357   7.943   1.945  0.7840  0.7957 -1.2508
   11CHTO   O50 4372   6.005   7.929   1.553 -0.4643 -0.1207  0.0309
   11CHTO   C73 4373   6.070   7.913   1.426  0.7089 -0.1424  0.0461
   11CHTO  H145 4374   6.126   8.004   1.399 -0.4705  0.8637  0.9564
   11CHTO   C74 4375   5.953   7.907   1.323 -0.5401  0.6084 -0.0528
   11CHTO  H146 4376   5.890   7.997   1.323 -1.0753  0.3213 -3.9711
   11CHTO   O54 4377   6.015   7.911   1.196  0.2509 -0.6922  0.5635
   11CHTO  H133 4378   6.039   7.825   1.165  1.7004  0.2426 -1.0168
   11CHTO   C75 4379   5.868   7.776   1.334  0.2319 -0.0572  0.1365
   11CHTO  H147 4380   5.811   7.781   1.428  0.9899  1.2395  0.5347
   11CHTO   N13 4381   5.771   7.745   1.221  0.2308  0.2502  0.3048
   11CHTO  H139 4382   5.830   7.734   1.131 -0.0068  1.0426  0.0460
   11CHTO  H140 4383   5.713   7.831   1.192  2.3304  1.4350 -0.5275
   11CHTO   C76 4384   5.969   7.649   1.355  0.3875 -0.4974 -0.8225
   11CHTO  H148 4385   6.002   7.608   1.259  1.1372 -1.4642 -0.1557
   11CHTO   O49 4386   6.083   7.672   1.444 -0.3098  0.3685 -0.3737
   11CHTO   C77 4387   6.165   7.790   1.426 -0.0631 -0.0788 -0.3768
   11CHTO  H149 4388   6.203   7.771   1.325 -0.1535 -1.7693 -0.0971
   11CHTO   C88 4389   6.269   7.794   1.540  0.1858  0.2108  0.1760
   11CHTO   O58 4390   6.328   7.921   1.540  0.5058 -0.0226  0.9184
   11CHTO  H136 4391   6.267   7.979   1.583  0.3573 -1.5910  2.8947
   11CHTO   O51 4392   5.878   7.543   1.425  0.1350  0.4975 -0.3358
   11CHTO   C78 4393   5.937   7.395   1.431  0.0131 -0.3134 -0.2170
   11CHTO  H150 4394   6.043   7.383   1.400  0.4818  1.3609  0.6727
   11CHTO   C80 4395   5.849   7.302   1.343 -0.1807  0.0541 -0.4020
   11CHTO  H152 4396   5.749   7.299   1.393  1.6780  0.3985  3.4794
   11CHTO   O55 4397   5.840   7.357   1.209 -0.3708 -0.2041  0.3859
   11CHTO  H134 4398   5.756   7.397   1.201 -0.3303  1.0228  4.5694
   11CHTO   C84 4399   5.898   7.150   1.339 -0.1918  0.7928  0.0477
   11CHTO  H156 4400   5.993   7.146   1.284 -0.2033 -0.2607  0.0864
   11CHTO   N15 4401   5.804   7.057   1.267  0.1678 -0.2211  0.0827
   11CHTO  H143 4402   5.804   7.061   1.160 -1.3311 -2.4571 -0.0407
   11CHTO  H144 4403   5.701   7.071   1.294  0.1516 -1.4329  0.6873
   11CHTO   C87 4404   5.919   7.100   1.483 -0.0275  0.5331  0.4902
   11CHTO  H159 4405   5.826   7.070   1.532 -0.5300 -1.1035 -1.3863
   11CHTO   O53 4406   5.998   7.202   1.566 -0.7419 -0.1006 -0.0223
   11CHTO   C82 4407   5.940   7.333   1.570 -0.1605 -0.3512 -0.0868
   11CHTO  H154 4408   5.839   7.324   1.610 -0.3860  4.2103  0.6054
   11CHTO   C89 4409   6.019   7.424   1.665  0.1978  0.4327 -0.0868
   11CHTO   O59 4410   6.142   7.472   1.609 -0.1657 -0.1552  0.2837
   11CHTO  H137 4411   6.206   7.488   1.675  0.1701  0.3581 -0.1571
   11CHTO   O45 4412   6.018   6.961   1.479 -0.0097  0.1240  0.2755
   11CHTO   C67 4413   6.138   6.955   1.398  0.0240 -1.1459  0.2508
   11CHTO  H124 4414   6.112   6.975   1.295  0.4220  0.2057  0.4033
   11CHTO   C65 4415   6.238   7.060   1.447  0.0178  0.1579  0.1470
   11CHTO  H122 4416   6.212   7.083   1.551 -1.0560 -1.8496  0.3460
   11CHTO   O44 4417   6.219   7.173   1.364 -0.6364  0.4950  0.1704
   11CHTO  H102 4418   6.275   7.169   1.289  0.6770 -1.5909  1.2226
   11CHTO   C63 4419   6.379   6.995   1.452  0.0018  0.7783  0.2320
   11CHTO  H120 4420   6.382   6.929   1.538 -0.5424 -1.7150 -1.5885
   11CHTO   N11 4421   6.490   7.091   1.479 -0.5557 -0.4376 -0.6653
   11CHTO  H108 4422   6.549   7.055   1.561 -0.3847  1.4019  0.0468
   11CHTO  H109 4423   6.565   7.081   1.403  1.5560  0.1829  1.2759
   11CHTO   C61 4424   6.414   6.899   1.330 -0.5070  0.7570 -0.1366
   11CHTO  H118 4425   6.504   6.841   1.354 -1.5958 -0.5033  0.9952
   11CHTO   O40 4426   6.301   6.803   1.312  0.3143  0.2884 -0.0930
   11CHTO   C68 4427   6.189   6.810   1.414  0.0322  0.2986  1.3077
   11CHTO  H125 4428   6.221   6.779   1.515 -0.0160 -0.4184  1.1076
   11CHTO   C72 4429   6.094   6.700   1.355 -0.1568 -0.0911  0.0955
   11CHTO   O48 4430   6.012   6.643   1.455 -0.1730  0.2598  0.0765
   11CHTO  H105 4431   5.928   6.614   1.425  0.0390 -0.4922  0.2114
   11CHTO   O38 4432   6.435   6.968   1.205 -0.5679  0.2254 -0.1597
   11CHTO   C55 4433   6.544   6.911   1.131  0.2484  0.2088  0.2542
   11CHTO  H112 4434   6.586   6.824   1.184 -0.8382 -0.5403 -0.0912
   11CHTO   C56 4435   6.654   7.024   1.106  0.1182  0.0509  0.7756
   11CHTO  H113 4436   6.601   7.110   1.063 -0.9514 -2.2842 -2.7526
   11CHTO   O42 4437   6.698   7.078   1.228  0.3089  0.5221  0.4782
   11CHTO  H100 4438   6.765   7.144   1.222 -0.2957  1.4845  3.1036
   11CHTO   C57 4439   6.774   6.961   1.023 -0.6265 -0.5967 -0.2812
   11CHTO  H114 4440   6.812   6.882   1.088 -0.9311 -0.2556  0.3146
   11CHTO   N10 4441   6.881   7.060   0.992  0.0913  0.7057  1.0611
   11CHTO  H106 4442   6.854   7.164   0.984  1.0811  0.8824 -0.1312
   11CHTO  H107 4443   6.957   7.046   1.067  1.0847  1.0939  0.1499
   11CHTO   C58 4444   6.719   6.903   0.893 -0.8940  0.1365  0.5128
   11CHTO  H115 4445   6.679   6.981   0.825  0.4872  1.1197  0.8202
   11CHTO   O37 4446   6.611   6.810   0.914  0.2924 -0.6696  0.1138
   11CHTO   C59 4447   6.497   6.866   0.990  0.0525 -0.0441  0.1123
   11CHTO  H116 4448   6.462   6.952   0.932  0.9268  0.2739  0.0386
   11CHTO   C70 4449   6.381   6.768   0.998  0.6495 -0.3002  0.1280
   11CHTO   O46 4450   6.351   6.705   0.878  0.4087 -1.3021  0.5486
   11CHTO  H103 4451   6.413   6.636   0.863 -0.5930 -2.0150 -0.3963
   11CHTO   O39 4452   6.836   6.812   0.832  0.3883  0.0686  0.4521
   11CHTO   C60 4453   6.860   6.834   0.688  0.1402  0.2792 -0.3156
   11CHTO  H117 4454   6.773   6.883   0.643  0.5165  0.4150 -0.9021
   11CHTO   C62 4455   6.989   6.917   0.661  0.1684  0.4311  0.4467
   11CHTO  H119 4456   6.977   7.013   0.716  2.1305  2.1033 -1.8862
   11CHTO   O43 4457   7.099   6.840   0.718 -0.5374 -0.3339  0.0785
   11CHTO  H101 4458   7.175   6.894   0.715 -1.0213  0.3370 -0.3370
   11CHTO   C66 4459   7.014   6.936   0.505 -0.5719  0.1902  0.1365
   11CHTO  H123 4460   6.923   6.984   0.467 -1.2841 -2.0042 -0.9678
   11CHTO   N12 4461   7.133   7.025   0.484  0.6447 -0.5662 -0.1086
   11CHTO  H110 4462   7.134   7.065   0.384  1.4910 -2.5494 -0.9154
   11CHTO  H111 4463   7.225   6.984   0.524  1.2743  1.8457  1.0371
   11CHTO   C69 4464   7.011   6.806   0.421 -0.1433 -0.1455  0.0083
   11CHTO  H126 4465   7.110   6.758   0.436  0.4757  0.3755 -2.2877
   11CHTO   O41 4466   6.912   6.705   0.458 -0.3476  0.2268  0.2257
   11CHTO   C64 4467   6.870   6.698   0.620 -0.1211  0.3088 -0.2586
   11CHTO  H121 4468   6.939   6.631   0.675 -1.2460 -0.4731  0.2240
   11CHTO   C71 4469   6.741   6.617   0.632 -0.3446 -0.3355  0.1717
   11CHTO   O47 4470   6.728   6.575   0.772 -0.2167 -0.2359  1.1228
   11CHTO  H104 4471   6.759   6.638   0.835 -0.8533  0.5836  0.6398
   11CHTO   O34 4472   6.984   6.861   0.265  0.0111  0.2772 -0.4009
   11CHTO   C49 4473   6.954   6.768   0.129 -0.6892  0.5210  0.5474
   11CHTO   H91 4474   7.048   6.745   0.078  0.3022  2.3061  1.5279
   11CHTO   C47 4475   6.877   6.849   0.024 -0.1063 -0.4445 -0.2973
   11CHTO   H89 4476   6.863   6.785  -0.066  0.3992 -1.2435  0.1793
   11CHTO   O33 4477   6.947   6.971  -0.011 -0.6640  0.1260 -0.6289
   11CHTO   H70 4478   6.926   7.051   0.032 -0.3847  0.8092 -1.7529
   11CHTO   C45 4479   6.731   6.892   0.086 -0.0978  0.0211  0.0233
   11CHTO   H87 4480   6.750   6.988   0.136  0.4275  0.4904 -1.0394
   11CHTO    N8 4481   6.641   6.913  -0.026 -0.4182 -0.4918  0.4521
   11CHTO   H75 4482   6.680   6.973  -0.107  2.1467 -0.1564  1.8872
   11CHTO   H76 4483   6.549   6.957   0.011 -0.5354 -0.8105  0.5398
   11CHTO   C43 4484   6.684   6.788   0.198  0.4222 -0.3420  0.3863
   11CHTO   H85 4485   6.741   6.824   0.283  0.5603  1.3276 -0.4022
   11CHTO   O29 4486   6.725   6.659   0.157 -0.8571  0.3453 -0.0778
   11CHTO   C50 4487   6.870   6.638   0.142 -0.0174 -1.0081 -0.8548
   11CHTO   H92 4488   6.912   6.590   0.231 -2.6970 -2.4970 -0.3540
   11CHTO   C54 4489   6.892   6.528   0.028  0.7468 -0.0290 -0.4925
   11CHTO   O36 4490   6.826   6.408   0.075 -0.0662 -0.1849 -0.5395
   11CHTO   H72 4491   6.838   6.341   0.011 -0.0361  0.6701 -1.4430
   11CHTO   O27 4492   6.547   6.813   0.231  0.2823 -0.1477 -0.5336
   11CHTO   C37 4493   6.442   6.731   0.281  0.5105 -0.1344  0.1381
   11CHTO   H79 4494   6.485   6.634   0.312 -2.8649 -2.5494 -2.3702
   11CHTO   C38 4495   6.365   6.797   0.398 -0.1788 -1.1030  0.0250
   11CHTO   H80 4496   6.347   6.903   0.373 -0.8524 -1.2881 -0.2812
   11CHTO   O31 4497   6.453   6.792   0.512 -0.3432 -0.5921  0.1133
   11CHTO   H68 4498   6.479   6.705   0.533 -2.8740 -2.0611 -2.4973
   11CHTO   C39 4499   6.225   6.726   0.424 -0.3950 -0.8687  0.0028
   11CHTO   H81 4500   6.246   6.628   0.466 -1.2294 -1.6570 -1.4339
   11CHTO    N7 4501   6.143   6.791   0.534 -0.1443  1.0159 -0.5169
   11CHTO   H73 4502   6.183   6.769   0.632  1.6296 -1.6542 -1.7870
   11CHTO   H74 4503   6.120   6.896   0.526 -3.2944  0.3535 -0.6191
   11CHTO   C40 4504   6.145   6.714   0.295  0.0792  0.9095  0.6409
   11CHTO   H82 4505   6.111   6.807   0.250 -0.3080  0.1457 -0.6617
   11CHTO   O26 4506   6.225   6.638   0.202 -0.1516  0.4739  0.1451
   11CHTO   C41 4507   6.343   6.708   0.163 -0.4787  0.1599 -0.5318
   11CHTO   H83 4508   6.321   6.799   0.106  1.1478  1.5208  0.9536
   11CHTO   C52 4509   6.417   6.615   0.066 -0.1953  0.1020  0.4751
   11CHTO   O35 4510   6.345   6.620  -0.068  0.5860  0.1250 -0.5544
   11CHTO   H71 4511   6.258   6.585  -0.062 -0.7402  3.2772 -0.2573
   11CHTO   O28 4512   6.042   6.619   0.303 -0.2196 -0.2782 -0.4171
   11CHTO   C42 4513   5.903   6.616   0.255  0.8586  0.3350 -0.0870
   11CHTO   H84 4514   5.916   6.645   0.151  2.4255  0.6520  0.1959
   11CHTO   C44 4515   5.796   6.718   0.324  0.6565 -0.8517 -0.0267
   11CHTO   H86 4516   5.794   6.704   0.432  0.6246 -0.0561  0.0838
   11CHTO   O32 4517   5.837   6.854   0.302 -0.4106  0.2477  0.3669
   11CHTO   H69 4518   5.907   6.886   0.356 -0.8129  2.3698 -0.3139
   11CHTO   C48 4519   5.648   6.693   0.271  1.2879 -0.2981 -0.2630
   11CHTO   H90 4520   5.656   6.710   0.163  2.5410  1.2093  0.0404
   11CHTO    N9 4521   5.541   6.777   0.326  0.4235  0.2591  0.3085
   11CHTO   H77 4522   5.481   6.839   0.262  0.5109  0.2787  0.2475
   11CHTO   H78 4523   5.574   6.827   0.416  0.9046  2.1654 -0.9221
   11CHTO   C51 4524   5.627   6.537   0.293 -0.2919 -0.4231 -0.5551
   11CHTO   H93 4525   5.636   6.514   0.399 -0.6361 -2.5614 -0.9611
   11CHTO   O30 4526   5.709   6.453   0.216  1.0606 -0.8641  0.7059
   11CHTO   C46 4527   5.854   6.464   0.257  0.4776 -0.1777 -0.1746
   11CHTO   H88 4528   5.861   6.425   0.359 -1.9120  0.9717  0.4450
   11CHTO   C53 4529   5.927   6.369   0.158 -0.1756  0.6022  0.5741
   11CHTO   O72 4530   6.061   6.331   0.196 -0.6144 -0.3135  0.6446
   11CHTO  H199 4531   6.051   6.295   0.282  2.4219 -1.2800  0.6566
   11CHTO   O22 4532   5.491   6.500   0.256 -1.0170  0.2071 -0.6297
   11CHTO   C31 4533   5.454   6.358   0.278  0.4627 -0.4832 -0.8278
   11CHTO   H59 4534   5.543   6.292   0.282 -0.7502 -2.1351 -0.2946
   11CHTO   C29 4535   5.377   6.335   0.412  0.4986  0.2554 -0.8524
   11CHTO   H57 4536   5.287   6.398   0.402 -0.3321 -0.4432  1.7280
   11CHTO   O21 4537   5.443   6.387   0.524 -0.5265  0.5010  0.7785
   11CHTO   H37 4538   5.458   6.478   0.507  0.7583  0.2775  0.7015
   11CHTO   C27 4539   5.338   6.180   0.427  0.0497 -0.3712 -0.5180
   11CHTO   H55 4540   5.431   6.128   0.453  0.2515  1.8995  3.8762
   11CHTO    N5 4541   5.246   6.155   0.539 -0.1526  0.1816  0.5093
   11CHTO   H43 4542   5.257   6.056   0.581  0.5427 -0.3694 -0.9370
   11CHTO   H44 4543   5.142   6.186   0.530 -0.3900 -1.0048 -1.1110
   11CHTO   C25 4544   5.293   6.119   0.292 -0.1875 -0.2043 -0.5631
   11CHTO   H53 4545   5.190   6.152   0.273  0.8543  3.0514 -0.8881
   11CHTO   O17 4546   5.368   6.165   0.176  0.0067 -0.4317  0.5387
   11CHTO   C32 4547   5.378   6.307   0.157  0.0048 -0.0792  0.4945
   11CHTO   H60 4548   5.275   6.341   0.152 -0.0956 -0.6132 -1.3216
   11CHTO   C36 4549   5.455   6.319   0.023  0.9246  0.8088 -0.8542
   11CHTO   O25 4550   5.483   6.458   0.005  0.1550 -0.2815  0.4609
   11CHTO   H40 4551   5.412   6.510  -0.027 -0.6739 -1.3947  0.4812
   11CHTO   O15 4552   5.310   5.975   0.289 -0.0102  0.0637  0.2360
   11CHTO   C19 4553   5.215   5.869   0.249  0.5910  0.4499 -0.6092
   11CHTO   H47 4554   5.272   5.777   0.267  0.2917  0.1884 -0.9851
   11CHTO   C20 4555   5.076   5.870   0.330 -0.6184  0.2993  0.1819
   11CHTO   H48 4556   5.016   5.960   0.309  0.9947  1.5242  0.7294
   11CHTO   O19 4557   5.102   5.874   0.476 -0.5944  0.1102 -0.0528
   11CHTO   H35 4558   5.139   5.957   0.499  0.0142  0.2876 -1.6274
   11CHTO   C21 4559   4.991   5.746   0.294 -0.4909 -0.8442  0.1154
   11CHTO   H49 4560   5.052   5.664   0.332  1.4407 -0.4993 -2.1070
   11CHTO    N4 4561   4.858   5.733   0.364  0.0645 -0.4065  0.2985
   11CHTO   H41 4562   4.827   5.631   0.349 -1.7265  0.4809 -2.3700
   11CHTO   H42 4563   4.777   5.795   0.327  0.8518  0.3148 -0.2407
   11CHTO   C22 4564   4.980   5.737   0.139  0.2288  0.5806 -0.2392
   11CHTO   H50 4565   4.919   5.819   0.101  0.0027  0.5155 -0.0201
   11CHTO   O14 4566   5.108   5.735   0.077  0.1007 -0.5487 -0.1944
   11CHTO   C23 4567   5.177   5.867   0.100  0.2554 -0.1645 -0.0881
   11CHTO   H51 4568   5.109   5.950   0.075  0.8884  0.8398  1.4622
   11CHTO   C34 4569   5.300   5.879   0.010 -0.0393 -0.1507  0.1966
   11CHTO   O23 4570   5.260   5.873  -0.126  0.3673 -0.4620  0.3712
   11CHTO   H38 4571   5.188   5.817  -0.144 -0.2612  0.4858 -0.1038
   11CHTO   O16 4572   4.928   5.605   0.100 -0.0736 -0.3290  0.3574
   11CHTO   C24 4573   4.916   5.601  -0.056  0.0050 -0.4303  0.4538
   11CHTO   H52 4574   4.978   5.676  -0.106  1.7993 -3.4570 -2.0307
   11CHTO   C26 4575   4.766   5.623  -0.095  0.2556  0.2455  0.6136
   11CHTO   H54 4576   4.697   5.561  -0.033  1.0591 -1.9865 -0.6719
   11CHTO   O20 4577   4.730   5.756  -0.058  0.4120  0.1249 -0.2762
   11CHTO   H36 4578   4.637   5.762  -0.049  0.0441 -3.8707 -0.3500
   11CHTO   C30 4579   4.741   5.598  -0.248  0.4271  0.1139 -0.1474
   11CHTO   H58 4580   4.803   5.674  -0.297 -0.4577  1.5856  0.9720
   11CHTO    N6 4581   4.599   5.617  -0.286  0.1600 -0.5498  0.6789
   11CHTO   H45 4582   4.536   5.534  -0.262 -1.8303  1.1718  1.5817
   11CHTO   H46 4583   4.592   5.640  -0.391  2.9265 -0.0669  0.5373
   11CHTO   C33 4584   4.805   5.462  -0.288 -0.1468  0.1305  0.1756
   11CHTO   H61 4585   4.747   5.386  -0.234 -2.2022  1.6200  0.1022
   11CHTO   O18 4586   4.939   5.459  -0.246  0.6633  0.0909  0.2992
   11CHTO   C28 4587   4.962   5.460  -0.104  0.3322 -1.0359 -0.0124
   11CHTO   H56 4588   4.901   5.385  -0.054  0.6647 -0.3021  1.5354
   11CHTO   C35 4589   5.109   5.434  -0.069 -0.8171 -0.4568 -0.1343
   11CHTO   O24 4590   5.199   5.533  -0.120 -0.2687 -0.6737 -0.0452
   11CHTO   H39 4591   5.231   5.518  -0.207  0.6222  0.7099  0.0243
   11CHTO    O9 4592   4.792   5.428  -0.431  0.0033  0.2918 -0.3372
   11CHTO   C13 4593   4.886   5.509  -0.557  0.4525  0.4963  0.0457
   11CHTO   H26 4594   4.952   5.585  -0.509  1.4225 -0.3313  0.0427
   11CHTO   C11 4595   4.783   5.580  -0.657  0.1670  0.3903 -0.0963
   11CHTO   H24 4596   4.710   5.645  -0.606 -1.1023 -0.3333 -0.9593
   11CHTO    O8 4597   4.697   5.480  -0.704 -0.2359 -0.1238 -0.1197
   11CHTO    H3 4598   4.642   5.443  -0.638 -1.3018 -1.4624 -1.6990
   11CHTO    C9 4599   4.866   5.660  -0.767 -0.4672 -0.5309  0.0679
   11CHTO   H22 4600   4.903   5.749  -0.714 -0.6835 -0.0511 -0.5814
   11CHTO    N2 4601   4.781   5.721  -0.872 -0.1684  0.6787 -0.1451
   11CHTO   H10 4602   4.813   5.682  -0.967 -1.3680  0.5707 -0.5098
   11CHTO   H11 4603   4.679   5.699  -0.844 -0.2606  2.3881  0.9226
   11CHTO    C7 4604   4.991   5.575  -0.811  0.1031 -0.0055 -0.1653
   11CHTO   H20 4605   5.071   5.612  -0.744 -2.0763 -0.8703  3.0246
   11CHTO    O4 4606   4.978   5.438  -0.780  0.1144  0.2827  0.7979
   11CHTO   C14 4607   4.972   5.402  -0.638 -0.1533  0.0190  0.5856
   11CHTO   H27 4608   5.077   5.410  -0.602  0.8026  0.0208 -2.1125
   11CHTO   C18 4609   4.933   5.256  -0.634  0.1246 -0.7185 -0.2458
   11CHTO   O13 4610   4.974   5.202  -0.505  0.0751  0.1794  0.5505
   11CHTO    H7 4611   4.973   5.108  -0.508  1.6432  0.1423  0.8764
   11CHTO    O2 4612   5.044   5.579  -0.975 -0.2272  0.0149  0.0457
   11CHTO    C1 4613   5.139   5.684  -1.010 -0.4531  0.7773 -0.0090
   11CHTO   H14 4614   5.122   5.768  -0.940 -0.1970  1.3308 -0.5978
   11CHTO    C2 4615   5.112   5.735  -1.161 -0.4769 -0.0155 -0.8177
   11CHTO   H15 4616   5.141   5.649  -1.222 -1.6521  0.2736 -1.7906
   11CHTO    O6 4617   4.972   5.767  -1.192 -0.4159 -0.0073 -0.0765
   11CHTO    H1 4618   4.916   5.783  -1.119  0.7603  2.1083  0.3994
   11CHTO    C3 4619   5.209   5.861  -1.186 -0.2397 -0.2413 -0.4197
   11CHTO   H16 4620   5.174   5.938  -1.116  0.2578  2.1476 -2.7411
   11CHTO    N1 4621   5.206   5.910  -1.329  0.4254  0.5700 -0.4011
   11CHTO    H8 4622   5.252   6.006  -1.346  0.3068  0.6553 -0.2466
   11CHTO    H9 4623   5.260   5.837  -1.387  0.0604 -0.5812  0.6843
   11CHTO    C4 4624   5.362   5.826  -1.140 -0.5501 -0.4717 -0.1951
   11CHTO   H17 4625   5.404   5.756  -1.213  1.9291  1.2578 -0.4775
   11CHTO    O1 4626   5.375   5.772  -1.010 -0.6216  0.1981  0.1331
   11CHTO    C5 4627   5.293   5.652  -1.000  0.0954  0.0630  0.3977
   11CHTO   H18 4628   5.327   5.582  -1.076  0.1266  0.6320 -0.1116
   11CHTO   C16 4629   5.333   5.595  -0.861  0.0084  0.0466 -0.2233
   11CHTO   O11 4630   5.472   5.562  -0.839  0.0580 -0.1167  0.2270
   11CHTO    H5 4631   5.524   5.631  -0.876 -1.4474  2.1749  2.1927
   11CHTO    O3 4632   5.450   5.942  -1.144  0.0212  0.1342 -0.6063
   11CHTO    C6 4633   5.573   5.934  -1.225 -1.0234 -0.8532 -0.3472
   11CHTO   H19 4634   5.571   5.851  -1.296  0.1579 -1.2814  0.1096
   11CHTO    C8 4635   5.582   6.067  -1.299  0.6345  0.0863 -0.4300
   11CHTO   H21 4636   5.579   6.149  -1.228  1.3105  2.0615 -2.6188
   11CHTO    O7 4637   5.469   6.073  -1.386  0.2087  0.1640  0.5386
   11CHTO    H2 4638   5.394   6.114  -1.349  0.8649  1.3140  0.6076
   11CHTO   C12 4639   5.717   6.073  -1.379 -0.3158 -0.3982  0.0930
   11CHTO   H25 4640   5.719   5.980  -1.440 -1.6562 -0.4734  0.1436
   11CHTO    N3 4641   5.728   6.195  -1.468  0.4330 -0.0509  0.2970
   11CHTO   H12 4642   5.636   6.251  -1.484  1.1648  1.9999  2.8142
   11CHTO   H13 4643   5.780   6.174  -1.560 -0.1201  3.1855 -0.8261
   11CHTO   C15 4644   5.831   6.063  -1.271  0.3787  0.9730 -0.1758
   11CHTO   H28 4645   5.828   6.132  -1.187 -2.0915 -0.5346  1.0039
   11CHTO   O10 4646   5.983   6.046  -1.343 -0.2665 -0.8823  0.4024
   11CHTO    H4 4647   6.003   6.123  -1.393 -1.2152 -1.1639 -0.4138
   11CHTO    O5 4648   5.812   5.936  -1.210  0.6102  0.2120 -0.1669
   11CHTO   C10 4649   5.696   5.912  -1.129 -0.1133 -0.0432  0.1916
   11CHTO   H23 4650   5.701   5.974  -1.039 -0.7574  1.2081 -0.6176
   11CHTO   C17 4651   5.702   5.767  -1.072  0.0176  0.0548 -0.0876
   11CHTO   O12 4652   5.819   5.751  -0.987  0.4925 -0.4775 -0.3844
   11CHTO    H6 4653   5.837   5.660  -0.970 -0.9880 -1.0230 -1.6255
   12CHTO  H203 4654   5.492   2.810   5.842 -0.4678 -2.0207  1.3373
   12CHTO   O82 4655   5.558   2.753   5.808  0.1130 -0.6668  0.1048
   12CHTO  C123 4656   5.490   2.636   5.752 -0.2421 -0.5453  0.1665
   12CHTO  H227 4657   5.446   2.664   5.655  0.7417 -0.8597 -0.3773
   12CHTO   O77 4658   5.594   2.535   5.727 -0.1485  0.3419  0.2281
   12CHTO  C118 4659   5.569   2.420   5.647  0.3510 -0.2299 -0.6343
   12CHTO  H222 4660   5.521   2.449   5.552  0.0697 -2.4599 -1.1965
   12CHTO  C125 4661   5.705   2.353   5.615  0.1267  0.8134  0.4400
   12CHTO   O84 4662   5.695   2.227   5.551  0.0335 -0.1601  0.1029
   12CHTO  H205 4663   5.723   2.242   5.463 -0.3096  0.9035  0.1611
   12CHTO  C114 4664   5.472   2.340   5.740  0.3752  0.6855  0.5549
   12CHTO  H218 4665   5.526   2.311   5.830  0.0832  0.1758  0.5708
   12CHTO  C116 4666   5.344   2.425   5.788  0.1227  0.2716  0.3004
   12CHTO  H220 4667   5.278   2.436   5.699 -0.8409 -2.0664  0.6924
   12CHTO   O79 4668   5.273   2.349   5.886  0.1508  0.2304 -0.7067
   12CHTO  H201 4669   5.257   2.264   5.849  4.1165 -0.9128 -0.0708
   12CHTO  C120 4670   5.381   2.571   5.851  0.6878  0.0962 -0.6691
   12CHTO  H224 4671   5.432   2.555   5.949 -1.0740  0.4602  0.3452
   12CHTO   N21 4672   5.263   2.657   5.866  1.1892  0.9516  0.3937
   12CHTO  H211 4673   5.212   2.644   5.772 -0.3815  0.0760  1.3404
   12CHTO  H212 4674   5.195   2.623   5.943 -0.5520 -1.7181 -2.2220
   12CHTO   O75 4675   5.449   2.218   5.668  0.4372 -0.0598  0.0705
   12CHTO  C112 4676   5.352   2.089   5.739 -0.3940 -0.1125  0.2313
   12CHTO  H216 4677   5.247   2.122   5.741 -0.4026  0.0934 -2.0821
   12CHTO   O73 4678   5.395   2.062   5.871 -0.3509  0.0324 -0.0935
   12CHTO  C113 4679   5.316   1.963   5.938 -0.2093 -0.1810  0.2329
   12CHTO  H217 4680   5.208   1.989   5.933 -0.7347 -1.9369  1.7445
   12CHTO  C124 4681   5.377   1.954   6.079 -0.8271  0.5306  0.8286
   12CHTO   O83 4682   5.518   1.930   6.087 -0.3659 -0.2361  0.2374
   12CHTO  H204 4683   5.571   2.005   6.069  1.1079 -0.6649  2.5495
   12CHTO  C109 4684   5.326   1.827   5.865 -0.6283  0.2161 -0.3860
   12CHTO  H213 4685   5.432   1.799   5.861 -0.4868  0.7789 -0.7054
   12CHTO  C110 4686   5.285   1.845   5.715 -0.3704 -0.1781 -0.3919
   12CHTO  H214 4687   5.178   1.865   5.706 -0.5344 -0.4986  0.7545
   12CHTO   O78 4688   5.307   1.720   5.655 -0.1334  0.5284  0.5987
   12CHTO  H200 4689   5.307   1.734   5.562 -0.1013  0.9012  0.6521
   12CHTO  C111 4690   5.367   1.959   5.650  0.3764 -0.1580  0.1298
   12CHTO  H215 4691   5.475   1.939   5.662  0.6590  1.0609 -0.3193
   12CHTO   N19 4692   5.330   1.983   5.503 -0.2575  0.4210 -0.2474
   12CHTO  H207 4693   5.311   2.088   5.486  0.1337  0.5559  0.1419
   12CHTO  H208 4694   5.241   1.932   5.469  0.6350  0.2911 -2.4865
   12CHTO   O74 4695   5.250   1.722   5.932  0.3478 -0.2420  0.2148
   12CHTO  C115 4696   5.326   1.597   5.960 -0.0591  0.0445 -0.2037
   12CHTO  H219 4697   5.418   1.587   5.903  1.5851  0.1992  2.3499
   12CHTO   O76 4698   5.371   1.585   6.096  0.2405  0.0374  0.3751
   12CHTO  C122 4699   5.287   1.528   6.193 -0.2778 -0.3552 -0.3662
   12CHTO  H226 4700   5.196   1.587   6.208 -0.7362 -1.5540  1.7409
   12CHTO  C126 4701   5.361   1.535   6.330  0.2703 -0.0290  0.6140
   12CHTO   O85 4702   5.350   1.661   6.401  0.8766  0.0585  0.2105
   12CHTO  H206 4703   5.414   1.657   6.470  1.6302 -2.5111 -0.5758
   12CHTO  C121 4704   5.251   1.381   6.158  0.1066  0.0297  0.4102
   12CHTO  H225 4705   5.323   1.316   6.213 -0.1040  1.0986  1.9659
   12CHTO   O81 4706   5.116   1.363   6.203 -0.2456 -0.0530 -0.0974
   12CHTO  H202 4707   5.093   1.275   6.179 -0.0598 -0.3437  0.7740
   12CHTO  C119 4708   5.263   1.350   6.003 -0.3057 -0.1869 -0.3118
   12CHTO  H223 4709   5.365   1.323   5.979 -0.2175  0.5614 -0.8023
   12CHTO  C117 4710   5.227   1.478   5.917  0.3084 -0.1147 -0.1838
   12CHTO  H221 4711   5.127   1.518   5.933  0.1636 -0.9878  1.1721
   12CHTO   N20 4712   5.228   1.435   5.778  0.5872  0.4327 -0.1559
   12CHTO  H209 4713   5.166   1.348   5.763  0.3987  0.3111  1.2995
   12CHTO  H210 4714   5.326   1.421   5.734 -0.2976 -0.3608 -1.9606
   12CHTO   O80 4715   5.199   1.213   5.962 -0.0878 -0.0114  0.0560
   12CHTO  C103 4716   5.264   1.069   6.020 -1.0133 -0.0031  0.2889
   12CHTO  H190 4717   5.358   1.094   6.070 -1.0679 -0.5579  0.6692
   12CHTO  C101 4718   5.173   0.969   6.107 -0.5962  0.2778  0.2641
   12CHTO  H188 4719   5.075   0.962   6.059 -0.3218  1.3780 -0.4608
   12CHTO   O68 4720   5.142   1.036   6.238 -0.0628  0.6091 -0.4797
   12CHTO  H168 4721   5.120   0.980   6.310  2.3081 -0.0013 -0.2082
   12CHTO   C99 4722   5.220   0.815   6.115  0.1438 -0.2218  0.0704
   12CHTO  H186 4723   5.309   0.806   6.181  0.1955 -0.1146  0.0152
   12CHTO   N17 4724   5.122   0.724   6.172 -0.1465  0.4938  0.2718
   12CHTO  H174 4725   5.071   0.765   6.258 -1.1395 -2.3529  1.0969
   12CHTO  H175 4726   5.060   0.671   6.102  1.3249 -1.8500  0.6715
   12CHTO   C97 4727   5.266   0.777   5.969  1.1566  0.3062 -0.2005
   12CHTO  H184 4728   5.176   0.769   5.907  1.7173  1.6161 -1.2063
   12CHTO   O64 4729   5.360   0.874   5.916  0.3677  0.4511  0.0790
   12CHTO  C104 4730   5.299   0.999   5.886  0.0194 -0.2772 -0.2237
   12CHTO  H191 4731   5.211   0.967   5.830 -2.2498  3.3925  1.0565
   12CHTO  C108 4732   5.388   1.068   5.784 -0.0860  0.0997  0.2946
   12CHTO   O71 4733   5.521   1.103   5.836 -0.1522 -0.2095 -0.1610
   12CHTO  H171 4734   5.583   1.033   5.836 -0.4774 -0.5035  0.2690
   12CHTO   O62 4735   5.335   0.655   5.970  0.7422 -0.2096  0.7990
   12CHTO   C91 4736   5.337   0.560   5.865  0.6713 -0.4663 -0.1713
   12CHTO  H178 4737   5.313   0.620   5.777 -0.1251  0.0411  0.3831
   12CHTO   C92 4738   5.223   0.451   5.874  0.4092 -0.6199  0.2123
   12CHTO  H179 4739   5.226   0.407   5.975 -0.3556 -1.7101 -0.2355
   12CHTO   O66 4740   5.098   0.523   5.868  0.5539 -0.1170  0.1157
   12CHTO  H166 4741   5.026   0.462   5.863 -2.6612  3.5140 -0.1641
   12CHTO   C93 4742   5.220   0.349   5.753  0.1064 -0.1601  0.5143
   12CHTO  H180 4743   5.199   0.403   5.659  0.3653  1.5691  1.4389
   12CHTO   N16 4744   5.123   0.242   5.755  0.0470  0.5019  0.3925
   12CHTO  H172 4745   5.147   0.155   5.696 -0.0078  0.4404  0.4611
   12CHTO  H173 4746   5.104   0.209   5.856  1.9479  1.7934  1.2183
   12CHTO   C94 4747   5.365   0.288   5.746 -0.3013  0.6662 -0.2120
   12CHTO  H181 4748   5.391   0.238   5.840  1.9950  1.3995 -0.4351
   12CHTO   O61 4749   5.463   0.394   5.729 -0.5136  0.6411 -0.5764
   12CHTO   C95 4750   5.461   0.484   5.838 -0.2355 -0.8004 -0.2190
   12CHTO  H182 4751   5.481   0.429   5.930 -0.5117  3.4351  2.5194
   12CHTO  C106 4752   5.585   0.577   5.834  0.1303 -0.1900  0.5060
   12CHTO   O69 4753   5.696   0.498   5.872 -0.3409 -0.5265 -0.1622
   12CHTO  H169 4754   5.691   0.466   5.960 -0.3737  0.5745  0.2443
   12CHTO   O63 4755   5.389   0.193   5.636 -0.4199  0.5937  0.7535
   12CHTO   C96 4756   5.486   0.068   5.693 -0.1187  0.1438 -0.1630
   12CHTO  H183 4757   5.492   0.075   5.802 -3.1029  0.1620  0.0487
   12CHTO   C98 4758   5.632   0.076   5.643 -0.2483 -0.2423 -0.4111
   12CHTO  H185 4759   5.618   0.074   5.534  1.1784 -1.2595 -0.5835
   12CHTO   O67 4760   5.694   0.207   5.672 -0.1116  0.3651 -0.1111
   12CHTO  H167 4761   5.728   0.207   5.760 -0.7413  3.0584  0.1706
   12CHTO  C102 4762   5.720  -0.054   5.689 -0.5374  0.0034 -0.5362
   12CHTO  H189 4763   5.740  -0.040   5.796 -1.4129  0.6118 -0.4433
   12CHTO   N18 4764   5.854  -0.062   5.625  0.2713 -0.0791 -0.7533
   12CHTO  H176 4765   5.929  -0.087   5.698 -2.8176  1.6153  3.2309
   12CHTO  H177 4766   5.866  -0.110   5.530 -0.1010 -0.2022 -0.7368
   12CHTO  C105 4767   5.643  -0.181   5.667 -0.3097  0.6078  0.7097
   12CHTO  H192 4768   5.647  -0.210   5.562  1.7190  0.7671  0.7264
   12CHTO   O65 4769   5.505  -0.167   5.700 -0.1882  0.2726 -0.5530
   12CHTO  C100 4770   5.426  -0.066   5.651  0.6381 -0.3130  0.1066
   12CHTO  H187 4771   5.443  -0.067   5.543  0.2143 -0.0905  0.0369
   12CHTO  C107 4772   5.272  -0.090   5.682  0.3788  0.1890  0.3770
   12CHTO   O70 4773   5.186  -0.042   5.575 -0.4825 -0.4265 -0.4083
   12CHTO  H170 4774   5.098  -0.045   5.607 -0.1485 -2.5452  0.3665
   12CHTO   O57 4775   5.690  -0.285   5.774 -0.5174  0.1574 -0.0140
   12CHTO   C85 4776   5.634  -0.406   5.834  0.6012 -0.4870  0.2556
   12CHTO  H157 4777   5.594  -0.466   5.749  1.5675 -2.3992  1.1196
   12CHTO   C83 4778   5.519  -0.365   5.922 -0.4556  0.5103  0.6028
   12CHTO  H155 4779   5.440  -0.315   5.865  0.8160  0.5675 -1.1392
   12CHTO   O56 4780   5.572  -0.278   6.023  0.1025 -0.0658 -1.3317
   12CHTO  H135 4781   5.514  -0.209   6.050  1.7928  0.3842  1.2805
   12CHTO   C81 4782   5.454  -0.492   5.989 -0.2963 -0.2894  0.3485
   12CHTO  H153 4783   5.413  -0.548   5.904 -0.4740  0.2467  0.0800
   12CHTO   N14 4784   5.331  -0.453   6.067 -0.7843 -0.1464  0.8459
   12CHTO  H141 4785   5.261  -0.534   6.062  0.6103 -1.1717 -4.6322
   12CHTO  H142 4786   5.283  -0.362   6.038  0.9806 -0.0510 -2.0056
   12CHTO   C79 4787   5.552  -0.585   6.065  0.0419  0.0832  0.1764
   12CHTO  H151 4788   5.508  -0.684   6.073  0.3771 -0.0538  0.3416
   12CHTO   O52 4789   5.667  -0.616   5.972  0.2363 -0.1987 -0.3862
   12CHTO   C86 4790   5.730  -0.494   5.917 -0.2400 -0.3065  0.4957
   12CHTO  H158 4791   5.755  -0.446   6.015  1.3391  1.6377 -0.8084
   12CHTO   C90 4792   5.862  -0.515   5.844  0.8563  0.1625 -0.4200
   12CHTO   O60 4793   5.841  -0.590   5.725  0.0276  0.5838 -0.1929
   12CHTO  H138 4794   5.920  -0.623   5.688 -0.1183  0.9235 -0.8215
   12CHTO   O50 4795   5.604  -0.536   6.191 -0.1363  0.1559  0.3857
   12CHTO   C73 4796   5.551  -0.513   6.323 -0.3494  0.4129  0.0373
   12CHTO  H145 4797   5.453  -0.559   6.342 -0.5162  1.4267  1.6946
   12CHTO   C74 4798   5.542  -0.360   6.354 -0.6682  0.5198  0.5636
   12CHTO  H146 4799   5.479  -0.315   6.275  0.9879 -0.8508 -1.5886
   12CHTO   O54 4800   5.468  -0.352   6.482 -0.5647 -0.0873  0.1749
   12CHTO  H133 4801   5.510  -0.395   6.554 -2.8972  1.7313  2.7231
   12CHTO   C75 4802   5.686  -0.293   6.353  0.9408 -0.3780 -0.5889
   12CHTO  H147 4803   5.731  -0.303   6.253 -1.1774 -0.2330 -1.5976
   12CHTO   N13 4804   5.680  -0.148   6.383 -0.6702 -0.1767  0.3685
   12CHTO  H139 4805   5.776  -0.101   6.376 -2.2589  3.7084  3.0037
   12CHTO  H140 4806   5.614  -0.093   6.317 -3.0197 -2.5825  0.6191
   12CHTO   C76 4807   5.791  -0.372   6.440  0.1511 -0.2834  0.4243
   12CHTO  H148 4808   5.765  -0.348   6.543 -3.4961 -0.7409 -0.3204
   12CHTO   O49 4809   5.778  -0.519   6.412 -0.3754  0.0839  0.4888
   12CHTO   C77 4810   5.648  -0.569   6.426  0.5153 -0.1159 -0.1195
   12CHTO  H149 4811   5.616  -0.542   6.526  2.5112 -1.5529  0.9372
   12CHTO   C88 4812   5.663  -0.724   6.427  0.5051  0.1638  0.2937
   12CHTO   O58 4813   5.557  -0.795   6.445  0.3629  0.0483  0.4951
   12CHTO  H136 4814   5.555  -0.844   6.525 -1.2547  0.5865  0.8225
   12CHTO   O51 4815   5.952  -0.320   6.411  0.0548  0.0875  0.2031
   12CHTO   C78 4816   6.075  -0.410   6.472 -0.3050 -0.1621 -0.1692
   12CHTO  H150 4817   6.049  -0.518   6.462 -0.6162 -0.2044  1.0439
   12CHTO   C80 4818   6.103  -0.373   6.620 -0.6253  0.3241 -0.1644
   12CHTO  H152 4819   6.117  -0.264   6.631 -1.2604  0.2374  1.6319
   12CHTO   O55 4820   6.004  -0.421   6.706 -0.1185 -0.0615 -0.1983
   12CHTO  H134 4821   6.006  -0.375   6.788 -0.7490 -1.2427  0.5017
   12CHTO   C84 4822   6.240  -0.446   6.665  0.2731  0.0868  0.0499
   12CHTO  H156 4823   6.218  -0.551   6.680  0.0621 -0.0919 -1.4356
   12CHTO   N15 4824   6.288  -0.404   6.802 -0.4827 -0.6118 -0.0843
   12CHTO  H143 4825   6.287  -0.297   6.790  1.0534 -0.5350  0.2934
   12CHTO  H144 4826   6.384  -0.434   6.838 -0.3235 -0.4870 -0.4023
   12CHTO   C87 4827   6.351  -0.430   6.562 -0.0799  0.7223  0.1210
   12CHTO  H159 4828   6.386  -0.328   6.550 -0.3944  0.6522 -1.5107
   12CHTO   O53 4829   6.294  -0.473   6.433 -1.0600 -0.3579  0.3998
   12CHTO   C82 4830   6.200  -0.383   6.387 -0.6542  0.6034  0.2748
   12CHTO  H154 4831   6.231  -0.279   6.396  0.2387  0.5064 -1.4527
   12CHTO   C89 4832   6.178  -0.412   6.240  0.1505  0.4948  0.0341
   12CHTO   O59 4833   6.272  -0.348   6.159 -0.1087 -0.3125 -0.5879
   12CHTO  H137 4834   6.228  -0.299   6.093  0.0879  1.1439  0.3458
   12CHTO   O45 4835   6.490  -0.523   6.591  0.3534 -0.4323  0.5253
   12CHTO   C67 4836   6.489  -0.654   6.535  0.2648  0.7942  0.0239
   12CHTO  H124 4837   6.389  -0.697   6.539  0.1116  1.0620 -0.8902
   12CHTO   C65 4838   6.540  -0.657   6.387 -0.0306  0.1281  0.2903
   12CHTO  H122 4839   6.486  -0.577   6.337  0.9526 -0.2549 -1.4443
   12CHTO   O44 4840   6.504  -0.785   6.321 -0.6682 -0.4106 -0.3795
   12CHTO  H102 4841   6.583  -0.821   6.286 -1.5420 -1.0022 -1.7706
   12CHTO   C63 4842   6.686  -0.618   6.382  0.4589 -0.0300 -0.4949
   12CHTO  H120 4843   6.700  -0.525   6.438  0.4238 -0.4021  0.1305
   12CHTO   N11 4844   6.742  -0.587   6.243  0.0497 -0.6676 -0.3429
   12CHTO  H108 4845   6.823  -0.520   6.258 -0.3113 -0.5578  1.2250
   12CHTO  H109 4846   6.663  -0.525   6.206  0.8438  0.7534  0.3180
   12CHTO   C61 4847   6.781  -0.714   6.465  0.1224 -0.5553 -0.0591
   12CHTO  H118 4848   6.875  -0.659   6.478  0.6933 -1.7580  1.0039
   12CHTO   O40 4849   6.723  -0.737   6.597 -0.4355  0.2697 -0.1199
   12CHTO   C68 4850   6.580  -0.755   6.616 -0.3684  0.4151  0.3263
   12CHTO  H125 4851   6.554  -0.725   6.719  1.6452  0.7235  0.7518
   12CHTO   C72 4852   6.539  -0.903   6.596 -0.3024 -0.3766 -0.5866
   12CHTO   O48 4853   6.599  -1.002   6.684 -0.0560 -0.1114  0.4195
   12CHTO  H105 4854   6.544  -1.018   6.759 -2.5196  0.6083 -1.1802
   12CHTO   O38 4855   6.820  -0.835   6.402  0.2365  0.0900 -0.1249
   12CHTO   C55 4856   6.952  -0.888   6.431 -0.6070  0.5490 -0.2729
   12CHTO  H112 4857   6.961  -0.875   6.540  2.3642 -1.4058 -0.2347
   12CHTO   C56 4858   7.078  -0.818   6.351  0.6543  0.3148 -0.1514
   12CHTO  H113 4859   7.045  -0.822   6.247  0.3407 -2.9728  0.0163
   12CHTO   O42 4860   7.092  -0.685   6.405  0.2957 -0.2029 -0.2466
   12CHTO  H100 4861   7.008  -0.644   6.410 -0.1206 -1.1100  0.2321
   12CHTO   C57 4862   7.215  -0.902   6.362 -0.3494 -0.6669  0.0397
   12CHTO  H114 4863   7.244  -0.889   6.466 -2.5871  1.7553  0.4136
   12CHTO   N10 4864   7.319  -0.841   6.273  0.5081  0.4904  0.7136
   12CHTO  H106 4865   7.398  -0.904   6.236 -0.2703 -0.5052  0.7450
   12CHTO  H107 4866   7.267  -0.792   6.192 -0.0102  0.6875  1.1668
   12CHTO   C58 4867   7.182  -1.048   6.337  0.2705  0.7009  0.0083
   12CHTO  H115 4868   7.144  -1.060   6.233 -0.5675  3.4814 -0.0522
   12CHTO   O37 4869   7.086  -1.095   6.431  0.3222  0.4467  0.6960
   12CHTO   C59 4870   6.958  -1.039   6.406 -0.1595 -0.3579 -0.3093
   12CHTO  H116 4871   6.924  -1.058   6.305  0.2335  0.4295 -0.5954
   12CHTO   C70 4872   6.873  -1.112   6.510 -0.3929  0.0850  0.0731
   12CHTO   O46 4873   6.855  -1.248   6.485  0.1664  0.1525 -0.4842
   12CHTO  H103 4874   6.765  -1.273   6.477  1.0349 -3.1509 -0.6830
   12CHTO   O39 4875   7.327  -1.131   6.363  0.0619 -0.1401 -0.1504
   12CHTO   C60 4876   7.324  -1.273   6.317 -0.1092  0.1436  0.0436
   12CHTO  H117 4877   7.234  -1.331   6.335  0.4150 -1.1602 -1.4073
   12CHTO   C62 4878   7.353  -1.268   6.163  0.5383 -0.3374 -0.0223
   12CHTO  H119 4879   7.266  -1.209   6.129  1.0813  0.3447 -0.2416
   12CHTO   O43 4880   7.467  -1.183   6.132  0.2196  0.4661 -0.8407
   12CHTO  H101 4881   7.480  -1.205   6.042 -1.7549 -0.7590 -0.8673
   12CHTO   C66 4882   7.349  -1.418   6.101 -0.2210  0.3277 -0.1650
   12CHTO  H123 4883   7.251  -1.463   6.119  0.4297 -1.1842 -0.2818
   12CHTO   N12 4884   7.366  -1.427   5.951  0.8457 -0.3270  0.0820
   12CHTO  H110 4885   7.375  -1.327   5.911  0.5253 -0.4020 -0.1871
   12CHTO  H111 4886   7.279  -1.477   5.909  1.9489 -2.5143  0.3510
   12CHTO   C69 4887   7.460  -1.500   6.171  0.5445  0.2010 -0.3531
   12CHTO  H126 4888   7.560  -1.466   6.136  1.3991 -2.2376 -0.3602
   12CHTO   O41 4889   7.447  -1.482   6.329  0.3620  0.9099 -0.2241
   12CHTO   C64 4890   7.439  -1.345   6.384  0.6216  0.4760 -0.3270
   12CHTO  H121 4891   7.534  -1.289   6.378 -0.1451  1.7776 -0.6470
   12CHTO   C71 4892   7.414  -1.357   6.539  0.5857  0.0561  0.0957
   12CHTO   O47 4893   7.524  -1.398   6.608  0.3473  0.1785 -0.1581
   12CHTO  H104 4894   7.510  -1.407   6.701 -3.6806 -0.0261 -0.7139
   12CHTO   O34 4895   7.452  -1.654   6.143 -0.3636  0.0938  0.0642
   12CHTO   C49 4896   7.552  -1.767   6.174  0.4541 -0.2909  0.7893
   12CHTO   H91 4897   7.648  -1.745   6.128  0.2742  1.5297  1.2390
   12CHTO   C47 4898   7.482  -1.891   6.104 -0.4057 -0.2297  0.4520
   12CHTO   H89 4899   7.549  -1.977   6.126 -0.4324  0.0694  1.7448
   12CHTO   O33 4900   7.480  -1.860   5.969  0.5725  0.5068  0.1396
   12CHTO   H70 4901   7.569  -1.854   5.942 -0.0179  1.4418 -1.6562
   12CHTO   C45 4902   7.332  -1.920   6.174 -0.5574 -0.6358  0.4471
   12CHTO   H87 4903   7.256  -1.878   6.107  0.0993 -2.0202 -1.1999
   12CHTO    N8 4904   7.313  -2.067   6.185 -0.1405  0.3411  0.3163
   12CHTO   H75 4905   7.296  -2.115   6.280  0.1323  0.1947  0.2928
   12CHTO   H76 4906   7.393  -2.110   6.126 -0.8259 -0.3489 -0.1138
   12CHTO   C43 4907   7.326  -1.844   6.310 -0.0962  0.1365  0.4862
   12CHTO   H85 4908   7.300  -1.743   6.279 -0.2252 -0.2154 -0.5713
   12CHTO   O29 4909   7.449  -1.847   6.390 -0.2083  0.4360 -0.1310
   12CHTO   C50 4910   7.564  -1.787   6.323  0.0881 -0.3348 -0.6310
   12CHTO   H92 4911   7.604  -1.698   6.375 -0.7619 -1.2860  1.7196
   12CHTO   C54 4912   7.694  -1.865   6.368 -0.2289  0.0012 -1.3820
   12CHTO   O36 4913   7.707  -2.001   6.330  0.0763 -0.4746 -0.8573
   12CHTO   H72 4914   7.629  -2.045   6.301  2.2035 -2.9192 -3.1456
   12CHTO   O27 4915   7.211  -1.878   6.382 -0.0621  0.0814  0.2367
   12CHTO   C37 4916   7.166  -1.833   6.515 -0.0683  0.6760  0.0967
   12CHTO   H79 4917   7.226  -1.876   6.597  3.0050  1.2126 -1.8080
   12CHTO   C38 4918   7.186  -1.675   6.539 -0.5537  0.5462 -0.6198
   12CHTO   H80 4919   7.152  -1.618   6.452  0.2738 -0.5413 -1.6640
   12CHTO   O31 4920   7.326  -1.653   6.557 -0.4600 -0.6196 -0.2942
   12CHTO   H68 4921   7.369  -1.670   6.475 -1.4524 -0.3759 -0.8790
   12CHTO   C39 4922   7.106  -1.627   6.674 -0.4079 -0.1328 -0.4477
   12CHTO   H81 4923   7.159  -1.670   6.759 -0.4851  3.2060  1.3553
   12CHTO    N7 4924   7.105  -1.476   6.697 -0.0950  0.2139  0.6629
   12CHTO   H73 4925   7.102  -1.418   6.605  0.2811 -0.7160  0.0579
   12CHTO   H74 4926   7.174  -1.441   6.773 -0.6219 -0.8882  1.6612
   12CHTO   C40 4927   6.962  -1.683   6.669 -0.1820  0.3699  0.2215
   12CHTO   H82 4928   6.910  -1.641   6.583  0.2720  0.4836  0.0021
   12CHTO   O26 4929   6.975  -1.827   6.657 -0.1070 -0.1757 -0.0881
   12CHTO   C41 4930   7.021  -1.871   6.530  0.0042 -0.7662  0.0498
   12CHTO   H83 4931   6.957  -1.825   6.454 -3.2642  1.2068  3.8402
   12CHTO   C52 4932   7.001  -2.020   6.499 -0.0201  0.6213 -0.4639
   12CHTO   O35 4933   6.985  -2.048   6.365 -0.6308 -0.2711  0.0686
   12CHTO   H71 4934   7.013  -2.134   6.344  1.9255  0.7206 -0.7300
   12CHTO   O28 4935   6.884  -1.656   6.788 -0.0722  0.0990  0.0628
   12CHTO   C42 4936   6.738  -1.649   6.779  0.9720  0.0163  0.1305
   12CHTO   H84 4937   6.702  -1.690   6.873 -0.0955  3.5771  1.3621
   12CHTO   C44 4938   6.663  -1.727   6.666  0.3983 -0.7649  0.2036
   12CHTO   H86 4939   6.711  -1.705   6.571  1.5700 -1.1923  0.6786
   12CHTO   O32 4940   6.672  -1.867   6.683 -0.1056  0.1983 -0.2645
   12CHTO   H69 4941   6.725  -1.907   6.617  2.8545  2.1213  0.8329
   12CHTO   C48 4942   6.511  -1.682   6.642  0.5548 -0.3152 -0.0415
   12CHTO   H90 4943   6.448  -1.722   6.722  0.7752  1.9021  1.2799
   12CHTO    N9 4944   6.444  -1.733   6.521  0.0516  0.4593 -0.0267
   12CHTO   H77 4945   6.517  -1.765   6.448 -1.0907 -0.7757 -0.6509
   12CHTO   H78 4946   6.383  -1.819   6.546 -0.0155  0.3162 -0.6573
   12CHTO   C51 4947   6.495  -1.528   6.652 -0.2369 -0.1019 -0.2707
   12CHTO   H93 4948   6.554  -1.483   6.572  0.8757 -0.3428  0.4055
   12CHTO   O30 4949   6.552  -1.489   6.784  0.2666  0.1463 -0.5137
   12CHTO   C46 4950   6.697  -1.499   6.784 -0.2296 -0.1802  0.6662
   12CHTO   H88 4951   6.729  -1.439   6.699  0.0799  0.2558  1.0922
   12CHTO   C53 4952   6.742  -1.426   6.915 -0.1853  0.1058  0.3487
   12CHTO   O72 4953   6.884  -1.414   6.942 -0.1504 -0.9465 -0.4066
   12CHTO  H199 4954   6.919  -1.486   6.991  0.4521 -1.0333 -0.9550
   12CHTO   O22 4955   6.358  -1.495   6.664 -0.0968 -0.2718  0.3748
   12CHTO   C31 4956   6.283  -1.370   6.641  0.7293  0.6556 -0.3944
   12CHTO   H59 4957   6.177  -1.389   6.668  0.7569  1.7231  0.4596
   12CHTO   C29 4958   6.332  -1.255   6.731  0.2874 -0.8907  0.8038
   12CHTO   H57 4959   6.434  -1.225   6.704  0.3279 -1.1976  0.6132
   12CHTO   O21 4960   6.338  -1.302   6.864 -0.0671  0.3133  0.0233
   12CHTO   H37 4961   6.262  -1.277   6.913  0.2996 -0.5641  1.0439
   12CHTO   C27 4962   6.228  -1.137   6.705 -0.1092  0.2372 -0.7709
   12CHTO   H55 4963   6.128  -1.180   6.720  0.2442 -0.3800 -0.1804
   12CHTO    N5 4964   6.248  -1.024   6.798 -0.5184  0.1445 -0.1089
   12CHTO   H43 4965   6.182  -0.941   6.780 -2.9354 -1.7364 -0.1804
   12CHTO   H44 4966   6.350  -0.991   6.806  0.2529 -1.1319 -3.6309
   12CHTO   C25 4967   6.230  -1.091   6.557  0.5101 -0.7414 -0.3412
   12CHTO   H53 4968   6.334  -1.061   6.541  0.0612  0.6303 -0.7321
   12CHTO   O17 4969   6.197  -1.205   6.473 -0.2098 -0.3381  0.0021
   12CHTO   C32 4970   6.284  -1.315   6.487 -0.3595  0.2734 -0.5486
   12CHTO   H60 4971   6.386  -1.286   6.462 -0.8402  1.3491 -1.3242
   12CHTO   C36 4972   6.240  -1.424   6.388 -0.2693  0.3922 -0.1692
   12CHTO   O25 4973   6.235  -1.377   6.256 -0.2271  0.0041 -0.0917
   12CHTO   H40 4974   6.306  -1.418   6.211  1.4548  0.4698  2.0658
   12CHTO   O15 4975   6.127  -0.975   6.535 -0.0954  0.4265 -0.5257
   12CHTO   C19 4976   6.040  -0.933   6.428  0.2376  0.0566 -0.0991
   12CHTO   H47 4977   5.983  -0.848   6.468 -2.5712 -0.7529 -2.2110
   12CHTO   C20 4978   6.114  -0.880   6.302 -0.8140 -0.3699  0.8863
   12CHTO   H48 4979   6.173  -0.959   6.253 -0.8962  0.5487 -0.6973
   12CHTO   O19 4980   6.210  -0.784   6.349  0.5819  0.1065 -0.1550
   12CHTO   H35 4981   6.292  -0.786   6.305  0.2333  0.5473 -0.8165
   12CHTO   C21 4982   6.016  -0.815   6.198  0.0530  0.0696  0.2130
   12CHTO   H49 4983   5.959  -0.737   6.250 -1.7266 -0.0233 -1.5274
   12CHTO    N4 4984   6.085  -0.748   6.084  0.3565  0.0392 -0.6091
   12CHTO   H41 4985   6.105  -0.644   6.102 -0.3841 -0.1009  1.1062
   12CHTO   H42 4986   6.036  -0.761   5.988  0.2387  0.3378 -0.5914
   12CHTO   C22 4987   5.925  -0.936   6.158  0.3062  0.6453  0.1490
   12CHTO   H50 4988   5.991  -1.007   6.109  1.0078  0.7279  0.9539
   12CHTO   O14 4989   5.852  -0.996   6.269  0.6030  0.4114 -0.2334
   12CHTO   C23 4990   5.932  -1.036   6.379 -0.0951  0.5056  0.2856
   12CHTO   H51 4991   5.978  -1.134   6.357  1.0382  1.7005 -2.9892
   12CHTO   C34 4992   5.838  -1.063   6.497 -0.3332  0.1059  0.3486
   12CHTO   O23 4993   5.780  -1.191   6.489  0.1384 -0.0934  0.0999
   12CHTO   H38 4994   5.744  -1.206   6.574 -0.2747 -0.2117 -0.0935
   12CHTO   O16 4995   5.812  -0.885   6.084  0.6987  0.6260  0.4487
   12CHTO   C24 4996   5.720  -1.006   6.010 -0.4488 -0.2720  0.3759
   12CHTO   H52 4997   5.751  -1.106   6.039 -0.1044 -0.1390  0.4650
   12CHTO   C26 4998   5.746  -0.986   5.856  0.0707 -0.0986  0.4041
   12CHTO   H54 4999   5.722  -0.880   5.832  3.9007  0.6028 -0.7278
   12CHTO   O20 5000   5.884  -1.014   5.839 -0.6987 -0.1614 -0.1825
   12CHTO   H36 5001   5.913  -1.094   5.879 -2.7021 -0.7230  0.2365
   12CHTO   C30 5002   5.656  -1.084   5.766 -0.0493 -0.0796  0.5732
   12CHTO   H58 5003   5.695  -1.186   5.773 -0.3444 -0.2513 -0.1842
   12CHTO    N6 5004   5.669  -1.043   5.624 -0.1240 -0.2748  0.0325
   12CHTO   H45 5005   5.596  -1.092   5.560 -1.2353  1.8734 -0.4226
   12CHTO   H46 5006   5.651  -0.937   5.613 -1.9535 -0.9418 -4.6332
   12CHTO   C33 5007   5.507  -1.073   5.816  0.1257 -0.5436  0.2266
   12CHTO   H61 5008   5.476  -0.968   5.804  0.0893 -0.1558  3.3475
   12CHTO   O18 5009   5.505  -1.091   5.958  0.1695  0.0022  0.2448
   12CHTO   C28 5010   5.576  -0.996   6.031  0.6171  0.8787 -0.4288
   12CHTO   H56 5011   5.541  -0.894   6.013  0.0377  0.5605 -1.1229
   12CHTO   C35 5012   5.534  -1.016   6.177  0.4339 -0.5128 -0.2460
   12CHTO   O24 5013   5.394  -0.991   6.186 -0.0324  0.6302  0.1937
   12CHTO   H39 5014   5.363  -1.043   6.258  0.9442  0.1407  0.2665
   12CHTO    O9 5015   5.403  -1.157   5.752 -0.1096  0.4576 -0.5332
   12CHTO   C13 5016   5.427  -1.315   5.800  0.3172  0.1148  0.0155
   12CHTO   H26 5017   5.482  -1.316   5.897  0.7385  0.5932 -0.2102
   12CHTO   C11 5018   5.518  -1.391   5.684 -0.2904 -0.0801  0.2004
   12CHTO   H24 5019   5.624  -1.362   5.694 -0.1931 -1.4758  3.9834
   12CHTO    O8 5020   5.478  -1.350   5.552  0.0043  0.0564  0.2724
   12CHTO    H3 5021   5.491  -1.259   5.536  1.5509 -0.5574 -2.1641
   12CHTO    C9 5022   5.504  -1.541   5.709  0.1655  0.4834  0.3034
   12CHTO   H22 5023   5.510  -1.553   5.818  2.6167  2.4330  0.4092
   12CHTO    N2 5024   5.606  -1.633   5.642  0.0999 -0.1286  0.5842
   12CHTO   H10 5025   5.691  -1.646   5.707  0.0221 -3.0580  0.1379
   12CHTO   H11 5026   5.581  -1.726   5.594  0.7083 -0.5529  1.0886
   12CHTO    C7 5027   5.355  -1.588   5.683 -0.5448  0.4905  0.3294
   12CHTO   H20 5028   5.337  -1.683   5.738  1.6654 -0.6769 -0.8796
   12CHTO    O4 5029   5.263  -1.481   5.716  0.0794  0.1543  0.1284
   12CHTO   C14 5030   5.287  -1.392   5.829  0.2231 -0.2239  0.6843
   12CHTO   H27 5031   5.289  -1.441   5.929 -0.1856 -2.0099 -0.1658
   12CHTO   C18 5032   5.171  -1.284   5.843  0.5828 -0.2271  0.1761
   12CHTO   O13 5033   5.114  -1.253   5.713  0.0373 -0.0682 -0.4317
   12CHTO    H7 5034   5.074  -1.169   5.725 -2.3388 -1.5176  2.4216
   12CHTO    O2 5035   5.319  -1.625   5.517  0.1387 -0.0093  0.0640
   12CHTO    C1 5036   5.270  -1.756   5.487 -0.1576  0.4108 -0.6662
   12CHTO   H14 5037   5.282  -1.819   5.577  2.4822  3.2447  1.0678
   12CHTO    C2 5038   5.341  -1.839   5.364 -0.1143  0.1483  0.0157
   12CHTO   H15 5039   5.309  -1.804   5.265 -0.2512 -1.3030 -0.4569
   12CHTO    O6 5040   5.482  -1.832   5.380  0.4032 -0.4612 -0.4715
   12CHTO    H1 5041   5.503  -1.741   5.366 -0.8879 -0.3134 -1.5145
   12CHTO    C3 5042   5.282  -1.986   5.365 -0.1658  0.0763  0.3218
   12CHTO   H16 5043   5.301  -2.015   5.469 -1.7194  2.2709  1.2469
   12CHTO    N1 5044   5.349  -2.076   5.262 -0.6695 -0.1759 -0.4761
   12CHTO    H8 5045   5.350  -2.042   5.159  1.6367  0.8749 -0.1326
   12CHTO    H9 5046   5.448  -2.112   5.284 -0.8829 -0.3305  0.2489
   12CHTO    C4 5047   5.127  -1.980   5.346  0.4952 -0.0048  0.2723
   12CHTO   H17 5048   5.103  -1.966   5.240  0.1756 -2.1806  0.0314
   12CHTO    O1 5049   5.058  -1.885   5.426 -0.1379 -0.2615 -0.1416
   12CHTO    C5 5050   5.109  -1.754   5.449 -0.3028 -0.6248 -0.1032
   12CHTO   H18 5051   5.085  -1.693   5.362  0.8548  1.0210  0.7076
   12CHTO   C16 5052   5.028  -1.706   5.580 -0.5366  0.5840 -0.8016
   12CHTO   O11 5053   4.883  -1.698   5.564  0.1682 -0.0473  0.1703
   12CHTO    H5 5054   4.846  -1.621   5.603  1.7789  1.3444 -0.9999
   12CHTO    O3 5055   5.066  -2.108   5.366  1.1737  0.3641  0.0239
   12CHTO    C6 5056   4.943  -2.137   5.285 -1.3668 -0.8307  0.0489
   12CHTO   H19 5057   4.892  -2.044   5.258 -1.4267 -0.9191 -0.1431
   12CHTO    C8 5058   4.992  -2.210   5.152  0.2493 -0.0172  0.0608
   12CHTO   H21 5059   5.055  -2.293   5.184 -1.7448 -2.0141 -1.0939
   12CHTO    O7 5060   5.068  -2.115   5.070  0.6408  0.3306  0.1889
   12CHTO    H2 5061   5.129  -2.160   5.014 -0.2644 -1.9973  1.0164
   12CHTO   C12 5062   4.865  -2.271   5.071 -0.1101 -0.7207  0.3705
   12CHTO   H25 5063   4.817  -2.181   5.027 -0.8408 -1.4198 -0.2756
   12CHTO    N3 5064   4.906  -2.359   4.960 -0.6200 -0.9205 -0.6090
   12CHTO   H12 5065   5.007  -2.396   4.968 -0.4650 -0.1916  0.9178
   12CHTO   H13 5066   4.894  -2.319   4.860 -1.2771 -0.4140 -0.3302
   12CHTO   C15 5067   4.764  -2.346   5.167  0.3857  0.2474 -0.0406
   12CHTO   H28 5068   4.793  -2.446   5.199 -0.9967  0.0413  0.6169
   12CHTO   O10 5069   4.640  -2.368   5.100  0.3231  0.0272  0.4363
   12CHTO    H4 5070   4.598  -2.450   5.118 -1.4785  0.0275 -3.1501
   12CHTO    O5 5071   4.731  -2.254   5.275 -0.2222  0.0253  0.2437
   12CHTO   C10 5072   4.840  -2.227   5.363 -0.1396  0.5160  0.5958
   12CHTO   H23 5073   4.882  -2.325   5.388 -1.2144 -0.2511 -0.5451
   12CHTO   C17 5074   4.770  -2.156   5.479 -0.1145  0.4469  0.0605
   12CHTO   O12 5075   4.728  -2.025   5.447 -0.2511 -0.1151  0.3826
   12CHTO    H6 5076   4.641  -2.028   5.412  0.3571 -2.2850 -1.0999
   13CHTO  H203 5077   7.245   4.791   2.723 -0.2594 -1.3203  1.0974
   13CHTO   O82 5078   7.192   4.836   2.786 -0.1953 -0.2864  0.4326
   13CHTO  C123 5079   7.213   4.978   2.788 -0.4045  1.3341  0.7078
   13CHTO  H227 5080   7.319   5.003   2.780 -0.2743  1.1567  1.8199
   13CHTO   O77 5081   7.131   5.020   2.672 -0.1177 -0.6672 -0.7085
   13CHTO  C118 5082   7.142   5.163   2.650 -0.1523 -0.7148 -0.4456
   13CHTO  H222 5083   7.249   5.183   2.641 -0.1179 -1.6703 -2.4001
   13CHTO  C125 5084   7.071   5.205   2.512 -0.2617  0.5346  0.6755
   13CHTO   O84 5085   6.928   5.190   2.500  0.0880  0.1217 -0.2298
   13CHTO  H205 5086   6.896   5.123   2.558 -1.2261  2.5429  1.9803
   13CHTO  C114 5087   7.073   5.230   2.776 -0.8005  1.1591 -0.4201
   13CHTO  H218 5088   6.975   5.186   2.790  0.4261 -1.1702  1.2125
   13CHTO  C116 5089   7.156   5.196   2.903  0.4819  0.5313  0.7310
   13CHTO  H220 5090   7.257   5.243   2.896  1.1670 -1.3485 -3.3200
   13CHTO   O79 5091   7.091   5.263   3.014  0.3867  0.8724 -0.2360
   13CHTO  H201 5092   7.148   5.328   3.050  3.4503 -1.8559  0.0590
   13CHTO  C120 5093   7.164   5.040   2.926  0.2511  0.6469 -0.3699
   13CHTO  H224 5094   7.063   5.002   2.949 -0.0396  0.5481 -1.7956
   13CHTO   N21 5095   7.254   5.013   3.042  0.2768  0.1764  0.5793
   13CHTO  H211 5096   7.271   4.907   3.048 -0.0074  0.1335  0.6541
   13CHTO  H212 5097   7.204   5.048   3.132 -0.4141  1.5839 -0.3281
   13CHTO   O75 5098   7.075   5.367   2.741  0.2787 -0.3212  0.0153
   13CHTO  C112 5099   6.968   5.467   2.828 -0.1525  0.2531  0.7215
   13CHTO  H216 5100   7.030   5.514   2.905  0.6424  1.1960 -0.4755
   13CHTO   O73 5101   6.863   5.383   2.884 -0.3964 -0.0190  0.4002
   13CHTO  C113 5102   6.763   5.451   2.954 -0.3194  0.0793 -0.0884
   13CHTO  H217 5103   6.805   5.482   3.052  1.5391  1.0857 -1.1514
   13CHTO  C124 5104   6.660   5.352   2.994  0.5212 -0.1135  0.1354
   13CHTO   O83 5105   6.706   5.248   3.081  0.1547 -0.2561 -0.5880
   13CHTO  H204 5106   6.698   5.164   3.040 -2.3112 -0.4424  0.1609
   13CHTO  C109 5107   6.703   5.579   2.881 -0.1633  0.2247 -0.1089
   13CHTO  H213 5108   6.632   5.535   2.809  0.8627  0.2004 -1.1138
   13CHTO  C110 5109   6.812   5.669   2.817  0.1786 -0.4555  0.2937
   13CHTO  H214 5110   6.879   5.715   2.889  0.6154  2.5652 -1.9091
   13CHTO   O78 5111   6.758   5.777   2.742 -0.2417  0.0932  0.8001
   13CHTO  H200 5112   6.791   5.786   2.655 -1.3631 -0.6965  0.2813
   13CHTO  C111 5113   6.905   5.577   2.729 -0.7274 -0.0294 -0.4235
   13CHTO  H215 5114   6.840   5.522   2.659  0.6576  0.1775 -1.9030
   13CHTO   N19 5115   7.008   5.653   2.646 -0.1924 -0.4152  0.4570
   13CHTO  H207 5116   7.021   5.753   2.683  2.1891  0.5331 -2.7381
   13CHTO  H208 5117   7.104   5.604   2.657  0.0764  0.3360  1.6121
   13CHTO   O74 5118   6.629   5.661   2.978  0.3719  0.7764 -0.3527
   13CHTO  C115 5119   6.486   5.712   2.920 -0.5369 -0.0922  0.3215
   13CHTO  H219 5120   6.482   5.696   2.812 -1.1942 -1.1904  0.5027
   13CHTO   O76 5121   6.362   5.618   2.975  0.3207 -0.6776 -0.0316
   13CHTO  C122 5122   6.337   5.637   3.115  0.1385 -0.5249  0.6034
   13CHTO  H226 5123   6.418   5.589   3.170 -0.5108 -0.8605  1.2702
   13CHTO  C126 5124   6.207   5.553   3.155  0.0607  0.8369  0.3066
   13CHTO   O85 5125   6.102   5.550   3.055 -0.2664  0.3879  0.5173
   13CHTO  H206 5126   6.014   5.529   3.082 -0.8962  0.3710 -1.4324
   13CHTO  C121 5127   6.320   5.792   3.162 -0.2244  0.4508 -0.1211
   13CHTO  H225 5128   6.229   5.818   3.221  0.6445  0.4203  1.2573
   13CHTO   O81 5129   6.439   5.823   3.234 -0.2009 -0.3079  0.3994
   13CHTO  H202 5130   6.428   5.795   3.323  1.7273  0.6312  0.9572
   13CHTO  C119 5131   6.324   5.880   3.035 -1.1127  0.4401  0.2148
   13CHTO  H223 5132   6.246   5.839   2.971  0.1421 -0.6092 -0.6755
   13CHTO  C117 5133   6.466   5.864   2.959  0.2100  0.7421  0.1500
   13CHTO  H221 5134   6.562   5.892   3.004  0.2262  0.9325 -0.0032
   13CHTO   N20 5135   6.459   5.960   2.844  0.8948  0.6651  0.7557
   13CHTO  H209 5136   6.359   6.001   2.836 -0.0743 -1.7323  0.2025
   13CHTO  H210 5137   6.536   6.036   2.844  0.4245  1.1705 -1.0975
   13CHTO   O80 5138   6.277   6.024   3.060 -0.3585  0.5915 -0.5260
   13CHTO  C103 5139   6.122   6.073   3.000  0.2990 -0.3571  0.9266
   13CHTO  H190 5140   6.131   6.180   2.980 -1.0651 -0.3675  0.2463
   13CHTO  C101 5141   6.069   6.019   2.872 -0.7997 -0.0429  0.2255
   13CHTO  H188 5142   6.053   5.912   2.887  2.6433 -0.8500 -1.1696
   13CHTO   O68 5143   6.168   6.049   2.756 -0.0112  0.1928  0.6108
   13CHTO  H168 5144   6.128   6.089   2.682 -0.4055  0.8166  1.1522
   13CHTO   C99 5145   5.926   6.081   2.845  1.1013 -0.1277 -0.0804
   13CHTO  H186 5146   5.935   6.191   2.838  0.1122 -0.1783 -2.5913
   13CHTO   N17 5147   5.863   6.022   2.722  0.4248  0.0225  0.3407
   13CHTO  H174 5148   5.869   5.914   2.726  0.4555  0.0266  0.4394
   13CHTO  H175 5149   5.774   6.071   2.685  0.3914 -0.6829 -0.5294
   13CHTO   C97 5150   5.833   6.060   2.968 -0.1512 -0.4416 -0.4085
   13CHTO  H184 5151   5.803   5.954   2.974 -1.7102 -0.0021 -0.2423
   13CHTO   O64 5152   5.902   6.103   3.088 -0.6688 -0.3252  0.4687
   13CHTO  C104 5153   6.026   6.052   3.118 -0.6058  0.5596  0.6752
   13CHTO  H191 5154   6.023   5.947   3.147  2.0268  0.4414  0.6212
   13CHTO  C108 5155   6.076   6.125   3.242  0.0162  0.0205 -0.3203
   13CHTO   O71 5156   6.001   6.088   3.364  0.2963  0.6911  0.1368
   13CHTO  H171 5157   6.041   6.010   3.396 -2.3167 -0.9940 -0.5595
   13CHTO   O62 5158   5.715   6.140   2.962 -0.1665  0.1207 -0.4099
   13CHTO   C91 5159   5.598   6.086   3.028  1.2702 -0.0256  0.3957
   13CHTO  H178 5160   5.621   5.991   3.077  0.6786  0.1529  1.0366
   13CHTO   C92 5161   5.487   6.041   2.917  0.3237 -0.2075  0.7094
   13CHTO  H179 5162   5.482   6.114   2.835  0.0592 -2.1640 -1.0589
   13CHTO   O66 5163   5.529   5.919   2.853 -0.0166  0.0230  0.4255
   13CHTO  H166 5164   5.621   5.923   2.834 -0.3852  1.8138 -1.1798
   13CHTO   C93 5165   5.348   6.012   2.982 -0.2137 -0.0925 -0.5164
   13CHTO  H180 5166   5.343   5.909   3.021  1.0707  0.4016  0.9800
   13CHTO   N16 5167   5.238   6.040   2.882 -0.1441  0.1432  0.0672
   13CHTO  H172 5168   5.266   6.120   2.814 -2.9463  0.6089 -0.5911
   13CHTO  H173 5169   5.231   5.950   2.822 -0.7146  0.1129  0.1772
   13CHTO   C94 5170   5.315   6.111   3.102  0.1908  0.5016  0.2195
   13CHTO  H181 5171   5.300   6.214   3.070  0.4432  0.3886 -0.2629
   13CHTO   O61 5172   5.425   6.103   3.197  0.5008 -0.2368  0.2801
   13CHTO   C95 5173   5.538   6.175   3.145 -0.1399 -0.8427  0.3822
   13CHTO  H182 5174   5.501   6.266   3.098 -0.8847 -0.2446  2.0969
   13CHTO  C106 5175   5.640   6.205   3.266 -0.1282  0.5850 -0.4784
   13CHTO   O69 5176   5.564   6.266   3.371  0.4663  0.4065 -0.1909
   13CHTO  H169 5177   5.503   6.207   3.411  0.7298  0.0871 -0.2520
   13CHTO   O63 5178   5.164   6.046   3.169 -0.9857  0.4148  0.2054
   13CHTO   C96 5179   5.070   6.137   3.193  0.2844 -0.8363 -0.1256
   13CHTO  H183 5180   5.070   6.209   3.111 -0.3398  0.3450  0.8923
   13CHTO   C98 5181   5.102   6.215   3.327  0.3528 -0.3040 -0.6382
   13CHTO  H185 5182   5.205   6.251   3.332 -0.8463  3.4953 -1.1136
   13CHTO   O67 5183   5.029   6.333   3.337 -0.3453  0.4888  0.4241
   13CHTO  H167 5184   5.034   6.382   3.257  0.6037 -2.2430 -1.2587
   13CHTO  C102 5185   5.070   6.134   3.467 -0.3639  0.2140 -0.1296
   13CHTO  H189 5186   5.045   6.207   3.545  1.6024 -1.2685  1.9723
   13CHTO   N18 5187   5.182   6.059   3.527  0.0294 -0.5309  0.0460
   13CHTO  H176 5188   5.139   5.982   3.591  0.5765 -0.0006  1.0563
   13CHTO  H177 5189   5.244   6.129   3.580  0.2119 -1.8648  1.6341
   13CHTO  C105 5190   4.939   6.052   3.440  0.2965  0.8175  0.3856
   13CHTO  H192 5191   4.963   5.947   3.425 -2.6504  0.0542  0.7367
   13CHTO   O65 5192   4.860   6.100   3.329  0.0257 -0.7715 -0.1404
   13CHTO  C100 5193   4.921   6.066   3.203 -0.8504  0.2335 -0.7339
   13CHTO  H187 5194   4.924   5.957   3.193  0.7045  0.1829  0.1803
   13CHTO  C107 5195   4.822   6.108   3.096 -0.0950  0.2369  0.0119
   13CHTO   O70 5196   4.783   6.242   3.095 -0.0224 -0.2062 -0.6033
   13CHTO  H170 5197   4.692   6.250   3.117  0.2423 -2.0409  1.3130
   13CHTO   O57 5198   4.859   6.056   3.568 -0.0046  0.1222 -0.2416
   13CHTO   C85 5199   4.832   5.931   3.637  0.0711 -0.1248 -0.9753
   13CHTO  H157 5200   4.918   5.862   3.619 -0.4426 -1.1642  0.4821
   13CHTO   C83 5201   4.702   5.869   3.579 -0.5050 -0.5128  0.2098
   13CHTO  H155 5202   4.718   5.845   3.474  2.3724  0.9676  0.2634
   13CHTO   O56 5203   4.592   5.962   3.591 -0.1578 -0.5623 -0.3195
   13CHTO  H135 5204   4.574   5.992   3.678 -1.6427 -0.5704 -0.6208
   13CHTO   C81 5205   4.662   5.736   3.653  0.1225 -0.8431  0.5609
   13CHTO  H153 5206   4.748   5.671   3.638  1.9952  1.6645  0.1950
   13CHTO   N14 5207   4.546   5.671   3.594  0.0905  0.3682 -0.1521
   13CHTO  H141 5208   4.593   5.600   3.529 -0.3322  1.0757 -1.2610
   13CHTO  H142 5209   4.498   5.620   3.674 -1.3860  1.8841 -0.0210
   13CHTO   C79 5210   4.641   5.758   3.807 -0.9237 -0.8685 -0.1795
   13CHTO  H151 5211   4.631   5.657   3.846  1.1747 -0.6435  0.9903
   13CHTO   O52 5212   4.765   5.818   3.862 -0.4138  0.1329 -0.0860
   13CHTO   C86 5213   4.805   5.945   3.794 -0.1515 -0.3473 -0.1039
   13CHTO  H158 5214   4.718   6.012   3.809 -0.4610 -0.8159  0.1830
   13CHTO   C90 5215   4.932   6.012   3.861  0.8822  0.4708  0.3275
   13CHTO   O60 5216   4.895   6.054   3.994  0.0440  0.2185 -0.3321
   13CHTO  H138 5217   4.976   6.082   4.032 -0.2332  0.4842  0.0599
   13CHTO   O50 5218   4.529   5.847   3.840 -0.0829  0.4911 -0.3896
   13CHTO   C73 5219   4.400   5.891   3.890 -0.1953 -0.4754 -0.7628
   13CHTO  H145 5220   4.315   5.861   3.827 -0.3463 -2.8690  0.5290
   13CHTO   C74 5221   4.400   6.049   3.895 -0.5294  0.1947  0.0715
   13CHTO  H146 5222   4.418   6.085   3.792 -1.0650 -1.4720 -0.6124
   13CHTO   O54 5223   4.269   6.092   3.929 -0.1338 -0.4146  0.2328
   13CHTO  H133 5224   4.200   6.031   3.909  0.6980 -0.7277 -1.7069
   13CHTO   C75 5225   4.508   6.101   3.995  0.4112  0.2940 -0.3972
   13CHTO  H147 5226   4.601   6.059   3.955  0.6256  1.0817 -0.7221
   13CHTO   N13 5227   4.512   6.250   4.005  0.9002  0.3966 -0.2439
   13CHTO  H139 5228   4.415   6.297   4.007  0.6110  0.0527 -3.5282
   13CHTO  H140 5229   4.566   6.311   3.934 -2.0699  1.2987 -1.7955
   13CHTO   C76 5230   4.488   6.036   4.134  0.4240 -1.0027  0.4215
   13CHTO  H148 5231   4.401   6.084   4.180  0.9297  0.1918  0.1462
   13CHTO   O49 5232   4.473   5.895   4.135 -0.4214  0.1631  0.4170
   13CHTO   C77 5233   4.378   5.841   4.036 -0.3105  0.1368  0.0543
   13CHTO  H149 5234   4.277   5.862   4.071  0.7184  2.6196  1.6397
   13CHTO   C88 5235   4.389   5.687   4.061  0.3161  0.2075 -0.5006
   13CHTO   O58 5236   4.352   5.662   4.206 -0.8962 -0.5921 -0.4480
   13CHTO  H136 5237   4.399   5.588   4.239 -0.0442 -1.7397 -4.0284
   13CHTO   O51 5238   4.634   6.048   4.216 -0.8872 -0.7538 -0.0482
   13CHTO   C78 5239   4.617   6.023   4.350 -0.1829  0.7509 -0.1779
   13CHTO  H150 5240   4.520   5.973   4.373 -0.1313 -0.2940 -2.1222
   13CHTO   C80 5241   4.629   6.151   4.435 -0.1234  0.5204  0.0705
   13CHTO  H152 5242   4.703   6.219   4.386  0.7204 -0.9457 -0.7238
   13CHTO   O55 5243   4.506   6.225   4.422 -0.2888  0.2915  0.4461
   13CHTO  H134 5244   4.510   6.305   4.470 -0.6504  1.2585 -1.1057
   13CHTO   C84 5245   4.664   6.118   4.587 -0.1724  0.4394  0.1350
   13CHTO  H156 5246   4.575   6.075   4.631 -1.4305  1.7137 -1.1200
   13CHTO   N15 5247   4.696   6.238   4.675 -0.1997  0.1449 -0.1075
   13CHTO  H143 5248   4.612   6.269   4.734 -0.7977 -0.7207 -0.4873
   13CHTO  H144 5249   4.774   6.209   4.742 -1.4220  0.2108  1.3563
   13CHTO   C87 5250   4.775   6.004   4.596 -0.3016 -0.8302 -0.5217
   13CHTO  H159 5251   4.858   6.054   4.546  0.1737 -0.0453  1.0175
   13CHTO   O53 5252   4.736   5.882   4.519 -0.2194 -0.0147  0.3716
   13CHTO   C82 5253   4.727   5.919   4.380 -0.5176 -0.0128  0.4751
   13CHTO  H154 5254   4.825   5.950   4.343 -0.2606  1.0036  1.9569
   13CHTO   C89 5255   4.699   5.785   4.317 -0.4490  0.6379 -0.3592
   13CHTO   O59 5256   4.718   5.782   4.175 -0.6426 -0.0967 -0.1838
   13CHTO  H137 5257   4.717   5.691   4.154 -0.0152 -0.3575  0.8995
   13CHTO   O45 5258   4.818   5.969   4.747 -0.1529 -0.2239  0.4186
   13CHTO   C67 5259   4.963   5.965   4.763  0.5158 -0.0040  0.4971
   13CHTO  H124 5260   5.004   5.971   4.662  1.1296 -2.4594  0.5723
   13CHTO   C65 5261   5.011   6.090   4.846  0.5644  0.6970 -0.4711
   13CHTO  H122 5262   4.929   6.143   4.894  0.2771 -0.3503  0.2124
   13CHTO   O44 5263   5.077   6.179   4.758 -0.1096  0.8181  0.7453
   13CHTO  H102 5264   5.011   6.236   4.724  0.9584  2.7274  1.7964
   13CHTO   C63 5265   5.101   6.040   4.970  0.1492 -0.3130  0.5885
   13CHTO  H120 5266   5.032   5.986   5.035  0.0498 -1.6776 -0.6432
   13CHTO   N11 5267   5.153   6.139   5.066  0.0048  0.2074 -0.1854
   13CHTO  H108 5268   5.203   6.084   5.142  0.3618  0.4696 -0.2287
   13CHTO  H109 5269   5.210   6.206   5.005 -3.6229  1.6187 -2.2539
   13CHTO   C61 5270   5.209   5.939   4.925 -0.0757  0.3803 -0.0770
   13CHTO  H118 5271   5.264   5.900   5.012  0.8568  1.2600 -0.2667
   13CHTO   O40 5272   5.156   5.827   4.845  0.0907  0.7853 -0.4989
   13CHTO   C68 5273   5.008   5.823   4.823 -0.2680 -0.0168 -0.3409
   13CHTO  H125 5274   4.959   5.795   4.919  0.5257 -0.8504 -0.1728
   13CHTO   C72 5275   4.975   5.713   4.724 -0.0875 -0.2688  0.1886
   13CHTO   O48 5276   4.944   5.597   4.803 -0.0962 -0.0990  0.1909
   13CHTO  H105 5277   4.863   5.565   4.768  0.0429  0.2871 -0.4901
   13CHTO   O38 5278   5.306   6.006   4.838  0.4705 -0.3194  0.4320
   13CHTO   C55 5279   5.432   5.947   4.813  0.6890 -0.1933  0.3282
   13CHTO  H112 5280   5.425   5.839   4.795  0.2103 -0.1284  0.1197
   13CHTO   C56 5281   5.543   5.979   4.935  0.3929  0.8339  0.1694
   13CHTO  H113 5282   5.529   6.085   4.959  2.1348  1.0483  0.3189
   13CHTO   O42 5283   5.508   5.913   5.061 -0.1648 -0.1654  0.6260
   13CHTO  H100 5284   5.535   5.968   5.132 -0.7729  0.5548  0.3068
   13CHTO   C57 5285   5.686   5.937   4.890 -0.4708  0.4605  0.8932
   13CHTO  H114 5286   5.687   5.829   4.896 -0.4898  0.3154 -1.1591
   13CHTO   N10 5287   5.792   5.994   4.976 -0.2235  0.9533  0.1693
   13CHTO  H106 5288   5.756   5.980   5.077 -0.3659 -1.5199 -0.2136
   13CHTO  H107 5289   5.882   5.934   4.973 -0.2867  0.7553  1.6996
   13CHTO   C58 5290   5.712   5.976   4.740  0.3306 -0.1395 -0.0383
   13CHTO  H115 5291   5.744   6.083   4.736  3.2784 -0.9135  1.3910
   13CHTO   O37 5292   5.613   5.935   4.649  0.0992  0.1773  0.2938
   13CHTO   C59 5293   5.485   5.992   4.677  0.1999 -0.2993  0.3914
   13CHTO  H116 5294   5.490   6.100   4.665 -1.6060 -0.3431 -0.9906
   13CHTO   C70 5295   5.397   5.942   4.572  0.6971 -0.1307 -1.1832
   13CHTO   O46 5296   5.432   5.997   4.444  0.3175  0.8578 -0.0502
   13CHTO  H103 5297   5.503   5.960   4.396 -0.8197 -1.2159 -0.1710
   13CHTO   O39 5298   5.836   5.891   4.693 -0.0670 -0.3114  0.1034
   13CHTO   C60 5299   5.970   5.949   4.686 -0.5601 -0.5775  1.0752
   13CHTO  H117 5300   5.990   6.019   4.767  2.1995 -0.1740  0.1144
   13CHTO   C62 5301   6.076   5.834   4.710 -0.0472  0.5405 -0.4537
   13CHTO  H119 5302   6.059   5.799   4.815  1.8928  0.5967 -0.1055
   13CHTO   O43 5303   6.055   5.737   4.608 -0.0680  0.3309  0.0455
   13CHTO  H101 5304   6.094   5.656   4.639 -1.2709 -0.1570  0.2950
   13CHTO   C66 5305   6.232   5.890   4.712  0.2759  0.1519  0.3967
   13CHTO  H123 5306   6.236   5.970   4.786 -1.3590  0.0624  0.6099
   13CHTO   N12 5307   6.334   5.794   4.759 -0.3227 -0.0159  0.5383
   13CHTO  H110 5308   6.298   5.692   4.756  2.1305 -0.8527 -2.0517
   13CHTO  H111 5309   6.441   5.803   4.748 -0.3022  0.2655  0.9734
   13CHTO   C69 5310   6.263   5.941   4.562 -0.3101 -1.3982 -0.0054
   13CHTO  H126 5311   6.236   5.869   4.482 -1.7784 -1.9793  1.0142
   13CHTO   O41 5312   6.174   6.057   4.551 -0.7576  0.7323  0.0808
   13CHTO   C64 5313   6.011   6.016   4.548  0.1158  0.8007 -0.1943
   13CHTO  H121 5314   5.991   5.960   4.454 -2.3926  1.9169 -0.3847
   13CHTO   C71 5315   5.938   6.151   4.516  0.3826  0.3509 -0.0001
   13CHTO   O47 5316   5.919   6.250   4.622 -0.2806  0.1128 -0.1428
   13CHTO  H104 5317   5.833   6.281   4.599 -0.2812 -0.6015 -1.1298
   13CHTO   O34 5318   6.429   5.993   4.542 -0.6978  0.4667  0.6331
   13CHTO   C49 5319   6.511   6.091   4.467  0.9842 -0.7055 -0.1922
   13CHTO   H91 5320   6.550   6.046   4.375 -2.7082 -0.6910 -1.8756
   13CHTO   C47 5321   6.630   6.128   4.555 -0.5810  1.0538  0.0880
   13CHTO   H89 5322   6.682   6.212   4.505 -0.4194  1.0178  0.1944
   13CHTO   O33 5323   6.721   6.021   4.561  0.0117 -0.0606 -0.0723
   13CHTO   H70 5324   6.687   5.937   4.540 -0.6623  0.0055  0.7363
   13CHTO   C45 5325   6.573   6.175   4.701 -0.3649  0.8771  0.3911
   13CHTO   H87 5326   6.564   6.088   4.768 -0.6959  2.6879  2.7811
   13CHTO    N8 5327   6.666   6.267   4.775 -0.3936 -0.0417 -0.1173
   13CHTO   H75 5328   6.687   6.359   4.723  1.5166 -1.8231 -2.5916
   13CHTO   H76 5329   6.751   6.227   4.828 -0.2939  1.6965  1.0924
   13CHTO   C43 5330   6.425   6.238   4.682 -0.9205 -0.2377 -0.3344
   13CHTO   H85 5331   6.354   6.157   4.702 -0.1231 -0.5805  1.1514
   13CHTO   O29 5332   6.406   6.305   4.548 -0.0128  0.0646 -0.6065
   13CHTO   C50 5333   6.423   6.219   4.435  0.5076 -0.8169 -0.5408
   13CHTO   H92 5334   6.321   6.191   4.405  0.0169 -1.4861  1.6561
   13CHTO   C54 5335   6.469   6.293   4.303  0.2326 -0.3325  0.5883
   13CHTO   O36 5336   6.387   6.400   4.264 -0.0749 -0.7446  0.4207
   13CHTO   H72 5337   6.418   6.487   4.279  3.1481 -1.2798 -2.6084
   13CHTO   O27 5338   6.388   6.340   4.786  0.0416  0.1074 -0.3713
   13CHTO   C37 5339   6.251   6.377   4.806 -0.2331  0.1628 -0.4523
   13CHTO   H79 5340   6.185   6.329   4.733 -2.2724 -0.2949  1.6217
   13CHTO   C38 5341   6.196   6.326   4.942 -0.4551 -0.7669 -0.3976
   13CHTO   H80 5342   6.259   6.367   5.022  1.3930 -0.3050 -2.0509
   13CHTO   O31 5343   6.198   6.181   4.939 -0.0325  0.7161  0.3632
   13CHTO   H68 5344   6.282   6.146   4.960 -0.1515  0.0912 -0.1896
   13CHTO   C39 5345   6.051   6.379   4.960  0.3337 -0.6633  0.2051
   13CHTO   H81 5346   5.992   6.325   4.886 -1.3496 -0.6105  1.4928
   13CHTO    N7 5347   5.996   6.355   5.103 -0.0924  0.1420  0.0386
   13CHTO   H73 5348   5.915   6.414   5.142 -1.5813 -1.7020 -0.1978
   13CHTO   H74 5349   6.079   6.367   5.171  0.5281  2.2381 -1.0399
   13CHTO   C40 5350   6.036   6.538   4.934  0.0978  0.0095  0.5087
   13CHTO   H82 5351   6.076   6.601   5.013  0.9188 -1.9070  1.6585
   13CHTO   O26 5352   6.089   6.567   4.803  0.8379 -0.0296  0.5709
   13CHTO   C41 5353   6.232   6.532   4.787 -0.0748  0.1384  0.1076
   13CHTO   H83 5354   6.294   6.582   4.863  2.1885 -1.6536 -0.5024
   13CHTO   C52 5355   6.263   6.577   4.646  0.2628  0.3192 -0.0858
   13CHTO   O35 5356   6.403   6.606   4.648  0.3781  0.9305 -1.0544
   13CHTO   H71 5357   6.416   6.699   4.658  1.2872  0.7098 -0.0337
   13CHTO   O28 5358   5.900   6.589   4.910 -0.3630  0.0671 -0.4494
   13CHTO   C42 5359   5.840   6.713   4.963  0.5261  0.2854 -0.4352
   13CHTO   H84 5360   5.760   6.730   4.891 -0.2490 -1.5377 -0.0363
   13CHTO   C44 5361   5.931   6.832   4.957  0.0655 -0.8610 -0.2215
   13CHTO   H86 5362   6.015   6.820   5.026 -0.8758  2.5779  1.6560
   13CHTO   O32 5363   5.980   6.841   4.820 -0.1052  0.7751 -0.1533
   13CHTO   H69 5364   6.062   6.884   4.806 -0.0562  1.4179  2.0055
   13CHTO   C48 5365   5.853   6.966   4.996  0.1344 -0.0715 -0.1829
   13CHTO   H90 5366   5.776   6.990   4.923  1.4907  3.4037 -0.5269
   13CHTO    N9 5367   5.937   7.088   5.011 -0.5494 -0.5849 -0.3810
   13CHTO   H77 5368   5.937   7.144   4.919 -1.3557  0.1952  0.0743
   13CHTO   H78 5369   6.030   7.089   5.065 -0.6136 -0.1381 -0.2731
   13CHTO   C51 5370   5.773   6.938   5.120 -0.2827 -0.4998  0.0761
   13CHTO   H93 5371   5.833   6.942   5.211 -2.1381  1.0561  1.2740
   13CHTO   O30 5372   5.700   6.819   5.110  0.0160  0.3250 -0.1061
   13CHTO   C46 5373   5.779   6.703   5.103 -0.1933 -0.3852 -0.1938
   13CHTO   H88 5374   5.856   6.705   5.180  0.0290  1.1625 -0.4359
   13CHTO   C53 5375   5.696   6.572   5.131 -0.2705  0.1954 -0.2200
   13CHTO   O72 5376   5.591   6.552   5.035  0.1722  0.2121 -0.5679
   13CHTO  H199 5377   5.608   6.608   4.962  0.2034  0.0745 -0.6655
   13CHTO   O22 5378   5.665   7.040   5.124 -0.1679 -0.3205  0.2462
   13CHTO   C31 5379   5.618   7.082   5.262 -0.1701  0.0171  0.4551
   13CHTO   H59 5380   5.661   7.013   5.337  1.5852 -0.6248 -1.0963
   13CHTO   C29 5381   5.661   7.223   5.295 -0.3231  0.5567  0.5121
   13CHTO   H57 5382   5.622   7.294   5.221  0.1118 -1.1869 -1.4563
   13CHTO   O21 5383   5.807   7.220   5.281 -0.0282  0.0593 -0.1392
   13CHTO   H37 5384   5.837   7.306   5.257 -0.7044 -0.2132 -2.0810
   13CHTO   C27 5385   5.627   7.278   5.440 -0.4313 -0.1617  0.0574
   13CHTO   H55 5386   5.671   7.219   5.521 -1.7221  1.5848  2.0799
   13CHTO    N5 5387   5.660   7.423   5.464 -0.0642 -0.1535  0.8399
   13CHTO   H43 5388   5.696   7.474   5.376 -1.9947 -0.6368 -0.2739
   13CHTO   H44 5389   5.572   7.481   5.490  0.8842  2.0290 -0.6346
   13CHTO   C25 5390   5.473   7.252   5.465  0.2042  0.6457 -0.3023
   13CHTO   H53 5391   5.411   7.328   5.415 -0.7379 -1.2226 -2.0390
   13CHTO   O17 5392   5.431   7.122   5.412 -0.4701 -0.0285  0.2398
   13CHTO   C32 5393   5.461   7.081   5.283 -0.9458 -0.1640  0.1246
   13CHTO   H60 5394   5.408   7.141   5.209 -1.4781 -1.4661 -0.5554
   13CHTO   C36 5395   5.418   6.930   5.260  0.4307 -0.6950  0.6660
   13CHTO   O25 5396   5.281   6.926   5.227  0.4427  0.6081 -0.7036
   13CHTO   H40 5397   5.266   6.880   5.147 -1.6716  0.6027 -0.3362
   13CHTO   O15 5398   5.412   7.265   5.593 -0.6873 -0.1387  0.0629
   13CHTO   C19 5399   5.286   7.304   5.655 -0.3287 -0.2632 -0.0513
   13CHTO   H47 5400   5.311   7.309   5.762 -0.7070  1.0167 -0.0094
   13CHTO   C20 5401   5.233   7.442   5.611  0.3570  0.6690 -0.4331
   13CHTO   H48 5402   5.225   7.449   5.502 -0.9349 -1.0079 -0.4675
   13CHTO   O19 5403   5.332   7.541   5.642 -0.3089  0.5586 -0.5868
   13CHTO   H35 5404   5.298   7.625   5.616 -1.2419  0.0036 -1.1944
   13CHTO   C21 5405   5.089   7.472   5.671 -0.6435 -0.4374 -0.7496
   13CHTO   H49 5406   5.099   7.490   5.778 -1.3781 -1.4279 -0.5053
   13CHTO    N4 5407   5.035   7.601   5.617  0.5436 -0.6150 -0.5122
   13CHTO   H41 5408   4.976   7.595   5.527  0.6526 -1.2470 -0.5388
   13CHTO   H42 5409   5.108   7.681   5.608 -1.3668  1.3095  0.5379
   13CHTO   C22 5410   4.992   7.355   5.662  0.2781  0.2617 -0.5391
   13CHTO   H50 5411   4.954   7.349   5.560  0.3215 -2.6769 -0.4376
   13CHTO   O14 5412   5.064   7.235   5.700  0.6815  0.4820 -0.5524
   13CHTO   C23 5413   5.185   7.189   5.640 -0.1711 -0.1039  0.4155
   13CHTO   H51 5414   5.150   7.177   5.536 -1.9850 -1.7656  1.1717
   13CHTO   C34 5415   5.218   7.055   5.702  0.4517  0.0498  0.0532
   13CHTO   O23 5416   5.339   7.008   5.640  0.3607  0.3487 -0.6018
   13CHTO   H38 5417   5.416   7.046   5.679  2.4046 -2.0544 -2.1444
   13CHTO   O16 5418   4.874   7.374   5.741 -0.0771  0.6915  0.4365
   13CHTO   C24 5419   4.749   7.289   5.696  0.2389 -0.9163 -0.6658
   13CHTO   H52 5420   4.772   7.215   5.619  0.2395 -0.6945 -0.8767
   13CHTO   C26 5421   4.647   7.397   5.637 -0.2966  0.4533  0.6938
   13CHTO   H54 5422   4.622   7.465   5.721 -0.2530  0.8188  0.4110
   13CHTO   O20 5423   4.717   7.463   5.540  0.1277  0.0713  0.0868
   13CHTO   H36 5424   4.763   7.403   5.484 -1.9738 -2.2324  0.7329
   13CHTO   C30 5425   4.529   7.309   5.588  0.2486 -0.1551 -0.4279
   13CHTO   H58 5426   4.561   7.241   5.507  0.4291  0.5849 -0.9883
   13CHTO    N6 5427   4.435   7.409   5.531  0.2395  0.6542  0.6394
   13CHTO   H45 5428   4.483   7.455   5.445  0.1746 -1.4605 -0.5632
   13CHTO   H46 5429   4.409   7.491   5.596  2.9830  0.4821  2.0070
   13CHTO   C33 5430   4.469   7.226   5.702  0.8798  0.7944  0.0674
   13CHTO   H61 5431   4.417   7.291   5.774 -0.4181  1.4085 -1.3901
   13CHTO   O18 5432   4.568   7.145   5.771 -0.0694  0.0213 -0.0273
   13CHTO   C28 5433   4.691   7.213   5.814  0.1330 -0.4447 -0.8040
   13CHTO   H56 5434   4.673   7.285   5.894 -1.0764  0.0859 -1.5386
   13CHTO   C35 5435   4.791   7.104   5.870  0.2669 -0.2601 -0.6257
   13CHTO   O24 5436   4.838   6.999   5.782 -0.4552  0.4143  0.0206
   13CHTO   H39 5437   4.909   6.952   5.823  0.2004  2.7458  1.7025
   13CHTO    O9 5438   4.357   7.144   5.663 -0.4891 -0.6812  0.3129
   13CHTO   C13 5439   4.197   7.180   5.694 -0.3157  0.3119  0.8617
   13CHTO   H26 5440   4.181   7.276   5.748 -0.4165 -0.8669  2.9277
   13CHTO   C11 5441   4.152   7.051   5.774  0.3277  0.1894  0.1807
   13CHTO   H24 5442   4.205   7.061   5.870  0.7379 -1.1042  0.0936
   13CHTO    O8 5443   4.200   6.937   5.713  0.1878 -0.1756  0.1042
   13CHTO    H3 5444   4.259   6.897   5.774 -0.4569  0.8333  1.4290
   13CHTO    C9 5445   4.004   7.085   5.800  0.5026 -0.6245 -0.2814
   13CHTO   H22 5446   4.005   7.190   5.832  1.1145 -0.4698 -0.8069
   13CHTO    N2 5447   3.944   7.006   5.911 -0.1087  0.4268  0.4080
   13CHTO   H10 5448   3.988   6.910   5.930  0.2749  0.0286 -2.2955
   13CHTO   H11 5449   3.942   7.072   5.997 -2.9601  2.0869 -0.8242
   13CHTO    C7 5450   3.917   7.081   5.668  0.2199 -0.2283  0.9576
   13CHTO   H20 5451   3.817   7.115   5.702  0.1300 -1.0221  1.5059
   13CHTO    O4 5452   3.977   7.157   5.563  0.6318 -0.7035  0.2791
   13CHTO   C14 5453   4.121   7.199   5.556  0.5228  0.2460 -0.1327
   13CHTO   H27 5454   4.121   7.306   5.528  2.4786  0.3351  0.1865
   13CHTO   C18 5455   4.183   7.119   5.431 -0.2747  0.4375 -0.0970
   13CHTO   O13 5456   4.153   7.191   5.312 -0.0213  0.1593  0.7470
   13CHTO    H7 5457   4.151   7.134   5.237  1.0996  1.4617 -0.3013
   13CHTO    O2 5458   3.891   6.948   5.606  0.7738  0.1587  0.0802
   13CHTO    C1 5459   3.788   6.929   5.511 -0.4657  0.2886  0.1423
   13CHTO   H14 5460   3.770   7.014   5.441 -0.1392  0.5888  0.4194
   13CHTO    C2 5461   3.647   6.906   5.586  0.5628 -0.8167  0.9524
   13CHTO   H15 5462   3.671   6.834   5.666  0.8718  0.0405  1.6330
   13CHTO    O6 5463   3.595   7.034   5.634  0.0777 -0.3712 -0.3016
   13CHTO    H1 5464   3.575   7.091   5.562 -0.4651  0.5045  0.5351
   13CHTO    C3 5465   3.542   6.834   5.486 -0.0067 -0.6663 -0.2864
   13CHTO   H16 5466   3.507   6.919   5.425  0.1217 -0.4027  0.0038
   13CHTO    N1 5467   3.419   6.783   5.559 -0.2336 -0.0340  0.1854
   13CHTO    H8 5468   3.372   6.855   5.625  2.2047 -0.6635  2.7191
   13CHTO    H9 5469   3.445   6.695   5.616 -1.5074  0.3600  1.3901
   13CHTO    C4 5470   3.607   6.735   5.383  0.2687 -0.2109 -0.2502
   13CHTO   H17 5471   3.630   6.642   5.435  2.0497 -0.8757 -2.1886
   13CHTO    O1 5472   3.723   6.787   5.324  0.4606 -0.1241 -1.0135
   13CHTO    C5 5473   3.821   6.800   5.431 -0.5923 -0.3995 -0.5711
   13CHTO   H18 5474   3.816   6.715   5.498  0.1268 -0.2557 -0.3314
   13CHTO   C16 5475   3.954   6.799   5.352 -0.0057 -0.0484  0.3627
   13CHTO   O11 5476   3.978   6.903   5.254 -0.5583  0.4588  0.3124
   13CHTO    H5 5477   3.999   6.859   5.174 -1.1190  1.2668 -0.2772
   13CHTO    O3 5478   3.513   6.713   5.276 -0.2415 -0.2169 -0.3730
   13CHTO    C6 5479   3.507   6.582   5.207  0.1643 -0.2270  0.0077
   13CHTO   H19 5480   3.604   6.533   5.204 -0.0087 -0.8204  2.5419
   13CHTO    C8 5481   3.423   6.470   5.282 -0.3056 -0.3193  0.0065
   13CHTO   H21 5482   3.319   6.503   5.287 -0.4536 -0.8201  0.2681
   13CHTO    O7 5483   3.481   6.449   5.416  0.1226  0.0637  0.0790
   13CHTO    H2 5484   3.423   6.391   5.463 -2.3698  0.9799 -1.7668
   13CHTO   C12 5485   3.414   6.341   5.191  0.1892 -0.3515 -0.1930
   13CHTO   H25 5486   3.521   6.316   5.177  0.6049  0.4898  1.3460
   13CHTO    N3 5487   3.345   6.227   5.246  0.0354  0.1799  0.2690
   13CHTO   H12 5488   3.284   6.182   5.169 -0.1120  0.4300  0.2381
   13CHTO   H13 5489   3.275   6.258   5.323 -0.9638 -0.2577 -0.4499
   13CHTO   C15 5490   3.356   6.385   5.053 -0.4064 -0.1422  0.4232
   13CHTO   H28 5491   3.255   6.424   5.061 -0.1498  0.5783  0.1740
   13CHTO   O10 5492   3.344   6.271   4.944 -0.2441 -0.4510 -0.2595
   13CHTO    H4 5493   3.406   6.200   4.947 -1.2585 -1.3821 -0.9244
   13CHTO    O5 5494   3.438   6.478   4.985  0.4271 -0.3878 -0.2988
   13CHTO   C10 5495   3.451   6.603   5.057 -0.3616 -0.6005  0.0202
   13CHTO   H23 5496   3.355   6.653   5.051  1.0222  1.9222 -2.3908
   13CHTO   C17 5497   3.556   6.688   4.976 -0.2641  0.0127 -0.3699
   13CHTO   O12 5498   3.574   6.821   5.024 -0.1089 -0.2391  0.2968
   13CHTO    H6 5499   3.660   6.837   4.989 -0.5959 -2.2707 -1.9674
   14CHTO  H203 5500   5.145   6.472   3.904 -1.7842 -2.0778 -2.1610
   14CHTO   O82 5501   5.109   6.426   3.977 -0.0604  0.2332  0.2716
   14CHTO  C123 5502   5.192   6.327   4.036  0.0116  0.1010 -0.2010
   14CHTO  H227 5503   5.272   6.371   4.097  0.1199 -1.6395  0.9278
   14CHTO   O77 5504   5.101   6.255   4.125 -0.1894 -0.3813 -0.1297
   14CHTO  C118 5505   5.169   6.155   4.203 -0.1835  0.3719  0.0359
   14CHTO  H222 5506   5.249   6.200   4.263  1.3661 -3.1494  0.7527
   14CHTO  C125 5507   5.068   6.101   4.296 -0.2482  0.1426 -0.3527
   14CHTO   O84 5508   5.054   6.169   4.415 -0.3577  0.0315 -0.0612
   14CHTO  H205 5509   4.964   6.173   4.441 -0.7272 -0.7499 -1.1825
   14CHTO  C114 5510   5.221   6.044   4.113 -0.6678 -0.6999  0.5278
   14CHTO  H218 5511   5.139   6.002   4.055 -1.0647 -1.8570  1.8761
   14CHTO  C116 5512   5.328   6.104   4.015  0.0454 -0.0786 -0.0515
   14CHTO  H220 5513   5.408   6.148   4.078  0.2631 -0.3738 -0.1205
   14CHTO   O79 5514   5.377   5.999   3.920 -0.3154 -0.4312 -0.4368
   14CHTO  H201 5515   5.396   5.922   3.970  1.2490 -1.4121 -2.4898
   14CHTO  C120 5516   5.260   6.221   3.937  0.2579  0.3966 -0.7375
   14CHTO  H224 5517   5.175   6.178   3.880  0.7219 -1.6162  0.0371
   14CHTO   N21 5518   5.361   6.283   3.846  0.1728 -0.4993  0.2054
   14CHTO  H211 5519   5.422   6.353   3.901 -1.6606 -0.3078  2.0447
   14CHTO  H212 5520   5.318   6.327   3.757  0.1756 -2.0453 -0.5856
   14CHTO   O75 5521   5.281   5.939   4.201 -0.6910  0.9681 -0.1181
   14CHTO  C112 5522   5.225   5.772   4.141 -0.5621 -0.4597  0.2239
   14CHTO  H216 5523   5.306   5.698   4.151  1.9595  2.3418  1.0863
   14CHTO   O73 5524   5.188   5.786   4.003  0.5442  0.0850 -0.0361
   14CHTO  C113 5525   5.146   5.657   3.948  0.3423  0.1874  0.3262
   14CHTO  H217 5526   5.239   5.597   3.952 -0.3145 -0.9691 -1.1467
   14CHTO  C124 5527   5.119   5.684   3.799 -0.1172 -0.1720 -0.0750
   14CHTO   O83 5528   5.243   5.700   3.728  0.2941 -0.4455  0.0889
   14CHTO  H204 5529   5.230   5.692   3.635 -3.5809  0.9827  0.3939
   14CHTO  C109 5530   5.026   5.585   4.022  0.1594  0.1709 -0.7839
   14CHTO  H213 5531   4.935   5.644   4.004  0.0768  0.9631  1.9562
   14CHTO  C110 5532   5.055   5.581   4.174 -0.4220 -0.7469  0.1885
   14CHTO  H214 5533   5.138   5.512   4.187  0.1539 -0.3444 -1.3260
   14CHTO   O78 5534   4.947   5.522   4.247  0.1945 -0.4064 -0.1862
   14CHTO  H200 5535   4.867   5.565   4.224  1.0493  1.1834 -0.2917
   14CHTO  C111 5536   5.101   5.722   4.220 -0.1265  0.5049  0.2243
   14CHTO  H215 5537   5.019   5.792   4.198 -0.1496  0.2929 -0.3633
   14CHTO   N19 5538   5.132   5.735   4.365 -0.2734  0.3566  0.1508
   14CHTO  H207 5539   5.126   5.835   4.405 -0.4959  0.4030  0.0040
   14CHTO  H208 5540   5.084   5.654   4.419 -1.1436  1.4043  0.9661
   14CHTO   O74 5541   5.010   5.450   3.974  0.0127  0.1641  0.1949
   14CHTO  C115 5542   4.891   5.409   3.862  0.9324  0.0200 -0.1184
   14CHTO  H219 5543   4.853   5.495   3.806  1.4552  2.0301  2.5243
   14CHTO   O76 5544   4.949   5.315   3.738  0.3368  1.1685 -0.0696
   14CHTO  C122 5545   4.845   5.251   3.656 -0.1654 -0.1508  0.1448
   14CHTO  H226 5546   4.883   5.165   3.600  1.3728  0.4276  0.2690
   14CHTO  C126 5547   4.798   5.350   3.549 -0.4112  0.2233  0.2043
   14CHTO   O85 5548   4.910   5.398   3.472 -0.0061 -0.3490  0.0604
   14CHTO  H206 5549   4.870   5.460   3.413  0.0218  0.5857  1.0197
   14CHTO  C121 5550   4.720   5.197   3.733 -0.2784 -0.3889  0.4958
   14CHTO  H225 5551   4.646   5.160   3.659 -0.5364  1.8694 -0.4277
   14CHTO   O81 5552   4.755   5.077   3.803 -0.1779  0.0907 -0.0205
   14CHTO  H202 5553   4.803   5.101   3.879  0.2543 -1.1865  0.1179
   14CHTO  C119 5554   4.659   5.297   3.832 -0.0517 -0.4801 -0.5680
   14CHTO  H223 5555   4.625   5.386   3.779 -0.7194  0.7492  1.8235
   14CHTO  C117 5556   4.764   5.347   3.934  0.9171 -0.1393 -0.4351
   14CHTO  H221 5557   4.801   5.273   4.005 -1.6810 -0.8002  0.2852
   14CHTO   N20 5558   4.691   5.451   4.019  0.0958 -0.4075 -0.0020
   14CHTO  H209 5559   4.685   5.426   4.124  2.3209 -1.0550 -0.0118
   14CHTO  H210 5560   4.599   5.488   3.976  0.6447  1.2722  0.2159
   14CHTO   O80 5561   4.509   5.245   3.891 -0.2699  0.7449  0.2812
   14CHTO  C103 5562   4.386   5.317   3.843  0.1320  0.0486  0.4578
   14CHTO  H190 5563   4.397   5.425   3.831 -1.7486  0.4177  1.9774
   14CHTO  C101 5564   4.337   5.269   3.703 -0.2972 -0.0534 -0.0803
   14CHTO  H188 5565   4.340   5.160   3.691  1.4442 -0.3597  2.5850
   14CHTO   O68 5566   4.447   5.329   3.604 -0.4628 -0.0222  0.2812
   14CHTO  H168 5567   4.422   5.315   3.515 -0.3565 -0.1604  0.2737
   14CHTO   C99 5568   4.194   5.344   3.657 -0.3745  0.0085 -0.2561
   14CHTO  H186 5569   4.211   5.454   3.652 -0.5121 -0.0387 -2.0759
   14CHTO   N17 5570   4.150   5.300   3.521  0.4116  0.2843 -0.1755
   14CHTO  H174 5571   4.228   5.320   3.450 -1.5339  2.1116 -1.8658
   14CHTO  H175 5572   4.129   5.194   3.515  1.4419  0.1316 -1.3938
   14CHTO   C97 5573   4.091   5.319   3.774  0.3069 -0.4718  0.0698
   14CHTO  H184 5574   4.074   5.210   3.769  1.1379 -0.6928  1.6467
   14CHTO   O64 5575   4.148   5.356   3.900 -0.2768 -0.1190 -0.3756
   14CHTO  C104 5576   4.269   5.287   3.946  0.4547  0.1672 -0.0701
   14CHTO  H191 5577   4.265   5.178   3.952  1.3658 -0.2647 -5.1310
   14CHTO  C108 5578   4.296   5.339   4.091 -0.3626  0.5984 -0.1421
   14CHTO   O71 5579   4.201   5.274   4.174  0.9000 -0.2730  0.1085
   14CHTO  H171 5580   4.177   5.332   4.243 -2.4476 -0.4572 -0.7811
   14CHTO   O62 5581   3.969   5.392   3.741 -0.8244 -0.0177 -0.2068
   14CHTO   C91 5582   3.912   5.499   3.824  0.2008  0.1947 -0.2952
   14CHTO  H178 5583   3.892   5.469   3.927  0.4409  1.9234  0.2615
   14CHTO   C92 5584   3.772   5.526   3.768 -0.2077  0.2743 -0.1851
   14CHTO  H179 5585   3.720   5.430   3.764  1.2159 -0.5154 -0.2600
   14CHTO   O66 5586   3.698   5.616   3.851  0.3692 -0.1571 -0.0340
   14CHTO  H166 5587   3.607   5.600   3.838  0.4154  1.1959 -2.3804
   14CHTO   C93 5588   3.775   5.603   3.631  0.1936  0.1430  0.0093
   14CHTO  H180 5589   3.680   5.658   3.624  2.0404  3.4399  0.3300
   14CHTO   N16 5590   3.778   5.510   3.519  0.1033 -0.2806  0.2561
   14CHTO  H172 5591   3.722   5.420   3.545  2.1010 -1.6129  0.0371
   14CHTO  H173 5592   3.748   5.550   3.423  0.0252  1.7570  1.1018
   14CHTO   C94 5593   3.895   5.708   3.623  0.2500  0.0227 -0.5022
   14CHTO  H181 5594   3.982   5.664   3.574 -0.3443 -0.0010 -1.5713
   14CHTO   O61 5595   3.936   5.740   3.754 -0.2591 -0.1255  0.0636
   14CHTO   C95 5596   3.991   5.639   3.836 -0.9533  0.5422 -0.2903
   14CHTO  H182 5597   4.095   5.628   3.807 -1.3501 -1.3293 -1.0499
   14CHTO  C106 5598   4.005   5.694   3.988  0.0350 -0.1065 -0.1812
   14CHTO   O69 5599   3.878   5.750   4.038 -0.0870  0.8376 -0.0247
   14CHTO  H169 5600   3.872   5.758   4.132 -1.3000  1.9131 -0.1900
   14CHTO   O63 5601   3.856   5.846   3.571 -0.0209 -0.1672  0.4522
   14CHTO   C96 5602   3.981   5.949   3.532  1.0331 -0.6012 -0.0506
   14CHTO  H183 5603   3.947   6.015   3.452  3.3510 -0.7391 -1.2065
   14CHTO   C98 5604   4.108   5.881   3.471 -0.5302 -0.3501  0.6158
   14CHTO  H185 5605   4.148   5.812   3.546  0.4150  0.1393  0.5769
   14CHTO   O67 5606   4.067   5.805   3.359 -0.0152  0.4151  0.1025
   14CHTO  H167 5607   4.000   5.747   3.389 -0.6284  1.3150  0.4939
   14CHTO  C102 5608   4.225   5.983   3.432 -0.1289  0.4710 -0.2790
   14CHTO  H189 5609   4.185   6.038   3.345 -1.3108  0.4177  0.2152
   14CHTO   N18 5610   4.353   5.923   3.388 -0.9834  0.4674  0.2197
   14CHTO  H176 5611   4.357   5.898   3.283 -0.0724  0.2032  0.3154
   14CHTO  H177 5612   4.407   5.865   3.461  0.2054  1.8894  0.4761
   14CHTO  C105 5613   4.248   6.099   3.542 -0.0632  0.1688 -0.0592
   14CHTO  H192 5614   4.313   6.052   3.616 -0.1447 -2.1326 -1.3681
   14CHTO   O65 5615   4.116   6.142   3.585 -0.0254  0.5759  0.3018
   14CHTO  C100 5616   4.029   6.046   3.645  0.4374 -0.8402 -0.8146
   14CHTO  H187 5617   4.081   5.987   3.721  0.7392  0.9283  0.3971
   14CHTO  C107 5618   3.914   6.105   3.735  0.1152 -0.6136 -0.1295
   14CHTO   O70 5619   3.844   6.209   3.671  0.2273  0.0737 -0.4183
   14CHTO  H170 5620   3.885   6.293   3.672 -0.7457  0.5622 -0.5483
   14CHTO   O57 5621   4.319   6.231   3.473 -0.5464 -0.0875  0.3320
   14CHTO   C85 5622   4.462   6.247   3.476 -0.3772  0.6098  0.1134
   14CHTO  H157 5623   4.513   6.149   3.470 -0.1709  0.6838  0.6191
   14CHTO   C83 5624   4.499   6.313   3.618 -0.1515  0.0886  0.1070
   14CHTO  H155 5625   4.471   6.252   3.704  1.9847 -0.1538  0.6547
   14CHTO   O56 5626   4.421   6.433   3.630  0.4535 -0.2278  0.2329
   14CHTO  H135 5627   4.430   6.461   3.719 -0.6889 -0.9749  0.6043
   14CHTO   C81 5628   4.658   6.332   3.622 -0.0125 -0.6296  0.2645
   14CHTO  H153 5629   4.698   6.231   3.629  0.6173 -0.4863 -1.1531
   14CHTO   N14 5630   4.713   6.383   3.757  0.3564 -0.4731  0.3604
   14CHTO  H141 5631   4.648   6.453   3.804  1.2408  0.1931  0.6030
   14CHTO  H142 5632   4.723   6.296   3.819 -1.8809 -0.4801  0.7456
   14CHTO   C79 5633   4.719   6.408   3.498  0.4498  0.1358 -0.2315
   14CHTO  H151 5634   4.827   6.394   3.511  0.0835 -1.3196  1.4372
   14CHTO   O52 5635   4.668   6.359   3.372 -0.2778 -0.1569  0.0787
   14CHTO   C86 5636   4.523   6.348   3.363 -0.8139  0.1723  0.5599
   14CHTO  H158 5637   4.485   6.449   3.389  3.6351  2.7650 -2.2178
   14CHTO   C90 5638   4.478   6.327   3.215 -0.0567 -0.5463  0.1223
   14CHTO   O60 5639   4.550   6.421   3.131 -0.4147  0.5605  0.0987
   14CHTO  H138 5640   4.577   6.494   3.183 -0.3269 -0.5961  1.7155
   14CHTO   O50 5641   4.700   6.549   3.502 -0.1329  0.2947  0.0198
   14CHTO   C73 5642   4.728   6.687   3.482  0.3970 -0.3407  0.3431
   14CHTO  H145 5643   4.663   6.751   3.545 -1.3519 -2.9524  1.2533
   14CHTO   C74 5644   4.709   6.719   3.330 -0.7802  0.2430 -0.3882
   14CHTO  H146 5645   4.611   6.672   3.315 -0.7267 -1.1138  3.0051
   14CHTO   O54 5646   4.701   6.858   3.307 -0.6714 -0.2457 -0.8335
   14CHTO  H133 5647   4.690   6.893   3.220 -0.0717  0.5359 -0.5948
   14CHTO   C75 5648   4.824   6.646   3.239  0.3488 -0.0040 -0.3578
   14CHTO  H147 5649   4.811   6.537   3.238 -2.6181  0.3192 -1.5994
   14CHTO   N13 5650   4.811   6.680   3.094  0.5180  0.1306  0.2132
   14CHTO  H139 5651   4.707   6.665   3.067  0.5094 -3.4265  1.8362
   14CHTO  H140 5652   4.865   6.608   3.033 -0.0303  0.5408 -0.7718
   14CHTO   C76 5653   4.976   6.684   3.285  0.8019 -0.4509  0.0549
   14CHTO  H148 5654   4.994   6.788   3.260 -2.9184  0.5260  1.1807
   14CHTO   O49 5655   4.977   6.654   3.430  0.1218  0.4218 -0.1544
   14CHTO   C77 5656   4.884   6.719   3.515  0.8587 -0.3094 -0.1668
   14CHTO  H149 5657   4.898   6.826   3.501 -2.1386 -0.0779 -2.0247
   14CHTO   C88 5658   4.925   6.690   3.660  0.1221 -0.3379  0.0421
   14CHTO   O58 5659   4.834   6.753   3.758 -0.5182 -0.3722  0.4205
   14CHTO  H136 5660   4.840   6.700   3.835 -0.4862 -1.3128 -0.2328
   14CHTO   O51 5661   5.093   6.590   3.217  0.0617  0.5341  0.1430
   14CHTO   C78 5662   5.235   6.646   3.214 -0.1778 -0.2086 -0.0237
   14CHTO  H150 5663   5.249   6.743   3.265  0.7660  1.0763 -2.6415
   14CHTO   C80 5664   5.269   6.674   3.067  0.0639  0.1445 -0.5549
   14CHTO  H152 5665   5.280   6.572   3.025  1.0801  0.0931 -0.1794
   14CHTO   O55 5666   5.157   6.754   3.018 -0.3079  0.4516 -0.1774
   14CHTO  H134 5667   5.181   6.813   2.950 -0.7351  0.8737  0.0313
   14CHTO   C84 5668   5.405   6.746   3.057  0.1821 -0.1429 -0.2018
   14CHTO  H156 5669   5.405   6.829   3.128 -0.8704  1.1155 -1.6413
   14CHTO   N15 5670   5.437   6.804   2.921  0.0518 -0.1837  0.7781
   14CHTO  H143 5671   5.464   6.736   2.843  0.0737  1.2462 -0.4821
   14CHTO  H144 5672   5.516   6.877   2.930  2.4486 -2.4077 -1.6566
   14CHTO   C87 5673   5.500   6.641   3.121 -0.4054  0.7244  0.2441
   14CHTO  H159 5674   5.508   6.552   3.058 -1.0140  0.0690  1.0830
   14CHTO   O53 5675   5.465   6.601   3.270 -0.5733 -0.4744 -0.0435
   14CHTO   C82 5676   5.329   6.553   3.278 -0.6061 -0.3377 -0.6217
   14CHTO  H154 5677   5.324   6.453   3.235  2.9106 -0.1765 -1.5902
   14CHTO   C89 5678   5.296   6.538   3.426 -0.1118  0.2036  0.3749
   14CHTO   O59 5679   5.368   6.452   3.516 -0.0532 -0.0624  0.1720
   14CHTO  H137 5680   5.442   6.413   3.473 -1.7847 -2.5443 -0.6364
   14CHTO   O45 5681   5.642   6.705   3.128 -0.2287 -0.0647  0.1618
   14CHTO   C67 5682   5.750   6.615   3.153  0.1478 -0.5375  0.5275
   14CHTO  H124 5683   5.744   6.584   3.257 -0.5302 -1.4437  0.2281
   14CHTO   C65 5684   5.751   6.485   3.064 -0.0989  0.9029 -1.0155
   14CHTO  H122 5685   5.655   6.435   3.078  0.6399 -0.0573  0.8149
   14CHTO   O44 5686   5.850   6.397   3.108 -0.3440  0.2088 -0.2714
   14CHTO  H102 5687   5.827   6.310   3.081  0.4714 -0.6811  1.8066
   14CHTO   C63 5688   5.764   6.526   2.911  0.2429 -0.5437 -0.2095
   14CHTO  H120 5689   5.691   6.605   2.892 -0.2665 -0.4263  2.0856
   14CHTO   N11 5690   5.715   6.430   2.807 -0.8694 -0.5150 -0.1028
   14CHTO  H108 5691   5.689   6.338   2.856  1.7226 -0.0890  2.2112
   14CHTO  H109 5692   5.635   6.464   2.745  0.8709  1.5156 -1.3017
   14CHTO   C61 5693   5.901   6.590   2.891 -0.5039 -0.0840  0.1551
   14CHTO  H118 5694   5.892   6.638   2.793 -2.4825  0.5108  0.6002
   14CHTO   O40 5695   5.926   6.698   2.992 -0.1586 -0.2052 -0.4117
   14CHTO   C68 5696   5.882   6.687   3.132 -0.3964  0.2244  0.7083
   14CHTO  H125 5697   5.863   6.794   3.155 -0.5385  0.8110 -1.9264
   14CHTO   C72 5698   6.005   6.644   3.215  0.1458  0.3117  0.1849
   14CHTO   O48 5699   6.086   6.759   3.254  0.4258  0.4579 -0.2086
   14CHTO  H105 5700   6.173   6.735   3.280  1.4155  3.0418 -0.9213
   14CHTO   O38 5701   6.011   6.496   2.886  0.1871 -0.1909 -0.2288
   14CHTO   C55 5702   6.109   6.500   2.784 -0.0207  0.0810 -0.4090
   14CHTO  H112 5703   6.127   6.605   2.759 -0.1454  0.2782  0.3137
   14CHTO   C56 5704   6.069   6.411   2.650 -0.1023 -0.1389 -0.0596
   14CHTO  H113 5705   6.033   6.311   2.677 -1.4943  0.6389  1.0440
   14CHTO   O42 5706   5.958   6.475   2.587 -0.3634  0.4023 -0.0119
   14CHTO  H100 5707   5.934   6.453   2.499  1.1227  0.6369 -0.4850
   14CHTO   C57 5708   6.189   6.391   2.552  0.5686 -0.2203 -0.4035
   14CHTO  H114 5709   6.197   6.485   2.497  3.3672  0.3974  1.0051
   14CHTO   N10 5710   6.170   6.284   2.455  0.4369  0.1215  0.0900
   14CHTO  H106 5711   6.129   6.319   2.362 -1.9896 -0.5592  0.8667
   14CHTO  H107 5712   6.261   6.227   2.446  1.8142  2.5443 -1.7585
   14CHTO   C58 5713   6.323   6.369   2.626  0.3126 -0.3764  0.2095
   14CHTO  H115 5714   6.325   6.269   2.673 -0.8844  1.0110  3.3167
   14CHTO   O37 5715   6.343   6.451   2.737 -0.3377  0.6023 -0.0197
   14CHTO   C59 5716   6.237   6.433   2.829 -0.1220  0.0429 -0.0346
   14CHTO  H116 5717   6.215   6.329   2.852 -0.0020  0.0166 -0.0369
   14CHTO   C70 5718   6.275   6.500   2.964 -0.1377 -0.6512 -0.1886
   14CHTO   O46 5719   6.402   6.465   3.017 -0.2837  0.6055  0.3713
   14CHTO  H103 5720   6.475   6.505   2.973 -0.9110  0.0322 -1.2336
   14CHTO   O39 5721   6.451   6.397   2.523  0.3386 -0.6235  0.1368
   14CHTO   C60 5722   6.580   6.341   2.540 -0.3396  0.2143 -0.1984
   14CHTO  H117 5723   6.643   6.378   2.459  1.0009  1.4999  1.3832
   14CHTO   C62 5724   6.649   6.372   2.680  0.1308 -0.0960 -0.5473
   14CHTO  H119 5725   6.616   6.477   2.695 -1.4083 -0.7953  1.2251
   14CHTO   O43 5726   6.579   6.308   2.792  0.5773 -0.5384 -0.0467
   14CHTO  H101 5727   6.558   6.218   2.776  0.3026 -0.9572  2.4216
   14CHTO   C66 5728   6.808   6.336   2.662 -0.1146 -0.0943  0.0142
   14CHTO  H123 5729   6.840   6.392   2.574 -3.0066 -0.3550 -1.2633
   14CHTO   N12 5730   6.897   6.389   2.763  0.5193  0.7157 -0.0358
   14CHTO  H110 5731   6.995   6.350   2.740  0.8727  0.0243  2.5077
   14CHTO  H111 5732   6.888   6.496   2.761  0.4707  0.7072 -0.2268
   14CHTO   C69 5733   6.830   6.183   2.645  0.2283  0.1532  0.6088
   14CHTO  H126 5734   6.808   6.132   2.742  5.2154 -0.5004  1.5802
   14CHTO   O41 5735   6.724   6.119   2.529 -0.2586 -0.1883  0.1594
   14CHTO   C64 5736   6.566   6.188   2.522 -0.2026 -0.4118 -0.6045
   14CHTO  H121 5737   6.504   6.149   2.606  0.3420  0.0342  0.0094
   14CHTO   C71 5738   6.502   6.151   2.377  0.0146 -0.0326  0.7472
   14CHTO   O47 5739   6.594   6.186   2.273 -0.6338  0.4148  0.3067
   14CHTO  H104 5740   6.577   6.136   2.195  1.7449 -0.2404  0.1787
   14CHTO   O34 5741   6.985   6.144   2.613 -0.4127  0.2534  0.1088
   14CHTO   C49 5742   7.084   6.106   2.524 -0.4897 -0.4024  0.4250
   14CHTO   H91 5743   7.117   6.010   2.565 -1.3743 -0.5515  0.8066
   14CHTO   C47 5744   7.208   6.202   2.537 -0.0520 -0.0618 -0.4133
   14CHTO   H89 5745   7.279   6.147   2.471 -0.1768 -0.4852 -0.1976
   14CHTO   O33 5746   7.259   6.223   2.669  0.2410  0.2582 -0.0255
   14CHTO   H70 5747   7.284   6.140   2.704  0.5808 -0.1892 -1.3122
   14CHTO   C45 5748   7.175   6.348   2.473  0.4555  0.2270 -0.0864
   14CHTO   H87 5749   7.128   6.395   2.561 -1.9193 -2.7689  0.3343
   14CHTO    N8 5750   7.294   6.427   2.441 -0.2234  0.2999  0.2157
   14CHTO   H75 5751   7.383   6.380   2.480  1.3242  0.3908 -3.0000
   14CHTO   H76 5752   7.319   6.435   2.336  0.9605 -0.8253  0.4006
   14CHTO   C43 5753   7.061   6.332   2.363 -0.2817  0.1174  0.7022
   14CHTO   H85 5754   6.966   6.337   2.416 -0.0800  1.1913  0.9696
   14CHTO   O29 5755   7.075   6.209   2.293  1.0203 -0.3680 -0.3826
   14CHTO   C50 5756   7.046   6.093   2.374  0.1911 -0.4530 -0.4101
   14CHTO   H92 5757   6.939   6.069   2.360 -0.5679  1.6526  1.4388
   14CHTO   C54 5758   7.114   5.973   2.312  0.1119 -0.1916 -0.1674
   14CHTO   O36 5759   7.083   5.972   2.174 -0.4229  0.0675 -0.1347
   14CHTO   H72 5760   7.151   5.939   2.119 -0.4719 -2.3448  1.2034
   14CHTO   O27 5761   7.055   6.435   2.263 -0.2906  0.5690 -0.1793
   14CHTO   C37 5762   6.967   6.511   2.189  0.1775  0.3837 -0.4341
   14CHTO   H79 5763   7.013   6.561   2.103  3.0133 -0.6402  0.4324
   14CHTO   C38 5764   6.869   6.413   2.110  0.4970  0.8643 -0.5910
   14CHTO   H80 5765   6.817   6.344   2.178  0.9383  0.0402 -1.0816
   14CHTO   O31 5766   6.944   6.321   2.029 -0.0569 -0.6417  0.2575
   14CHTO   H68 5767   6.886   6.280   1.968 -0.8430  1.4270 -0.4377
   14CHTO   C39 5768   6.760   6.494   2.029  0.8718 -0.6280  0.1586
   14CHTO   H81 5769   6.802   6.555   1.949 -0.1980  0.4728  0.4084
   14CHTO    N7 5770   6.663   6.395   1.965 -0.3337 -0.4510 -0.5600
   14CHTO   H73 5771   6.719   6.359   1.881  3.0422  2.2433  0.3988
   14CHTO   H74 5772   6.570   6.447   1.943  0.4859  1.4203  0.2216
   14CHTO   C40 5773   6.696   6.601   2.129 -0.1989 -0.0971 -0.2959
   14CHTO   H82 5774   6.651   6.536   2.203 -0.3364 -0.4385 -0.6757
   14CHTO   O26 5775   6.792   6.688   2.186  0.4173  0.1734  0.1003
   14CHTO   C41 5776   6.889   6.609   2.280 -1.1462  0.2895  0.3155
   14CHTO   H83 5777   6.828   6.566   2.360 -0.3299  1.7692  1.7721
   14CHTO   C52 5778   6.985   6.720   2.350 -0.1200  0.5469 -0.1083
   14CHTO   O35 5779   6.905   6.806   2.421  0.0470 -0.4056  0.2934
   14CHTO   H71 5780   6.938   6.835   2.504  0.6288 -1.8719  0.5955
   14CHTO   O28 5781   6.584   6.680   2.076 -0.9283  0.5393 -0.2483
   14CHTO   C42 5782   6.508   6.774   2.150 -1.1646  0.7213 -0.4533
   14CHTO   H84 5783   6.422   6.796   2.087 -1.7298  1.7149  0.6441
   14CHTO   C44 5784   6.567   6.919   2.187  0.1691  0.1501  0.2109
   14CHTO   H86 5785   6.650   6.905   2.256 -1.3395  2.0673  2.4698
   14CHTO   O32 5786   6.631   6.986   2.076  0.2642  0.7565  0.2218
   14CHTO   H69 5787   6.702   7.043   2.098  0.8567  1.4703 -3.1721
   14CHTO   C48 5788   6.453   7.005   2.252  0.5511  0.3218 -0.0781
   14CHTO   H90 5789   6.376   7.020   2.177 -0.5224 -0.4355  0.8542
   14CHTO    N9 5790   6.502   7.146   2.277  0.2470 -0.2707  0.1717
   14CHTO   H77 5791   6.471   7.202   2.189 -0.0655 -0.2187  0.3159
   14CHTO   H78 5792   6.452   7.179   2.367 -2.7671  1.7499 -2.1101
   14CHTO   C51 5793   6.384   6.935   2.381 -0.4387 -0.3129  0.0024
   14CHTO   H93 5794   6.467   6.934   2.451 -1.0293 -2.1150  0.7017
   14CHTO   O30 5795   6.345   6.805   2.348 -0.4898  0.4695 -0.4604
   14CHTO   C46 5796   6.452   6.707   2.283  0.0992  0.1122 -0.0135
   14CHTO   H88 5797   6.533   6.702   2.355  0.2757 -1.1836 -0.2914
   14CHTO   C53 5798   6.385   6.563   2.257 -0.8322 -0.4266  0.3724
   14CHTO   O72 5799   6.255   6.575   2.189 -0.1266  0.3657  0.5562
   14CHTO  H199 5800   6.201   6.635   2.236  0.3963  0.4883  1.0082
   14CHTO   O22 5801   6.272   7.018   2.412  0.4348  0.1191  0.2686
   14CHTO   C31 5802   6.208   7.021   2.543 -0.1623 -0.2363 -1.4904
   14CHTO   H59 5803   6.100   7.004   2.527 -0.3485  1.2592 -1.9066
   14CHTO   C29 5804   6.252   6.927   2.659 -0.4930  0.6880 -0.3810
   14CHTO   H57 5805   6.358   6.943   2.684 -0.4370 -1.0130  0.5101
   14CHTO   O21 5806   6.239   6.794   2.615 -0.6808 -0.4712 -0.0886
   14CHTO   H37 5807   6.276   6.779   2.530  0.4547  1.6312  0.0186
   14CHTO   C27 5808   6.165   6.952   2.783  0.2992 -0.3122 -0.0887
   14CHTO   H55 5809   6.063   6.917   2.758  0.6985 -1.1422 -0.5778
   14CHTO    N5 5810   6.210   6.870   2.898  0.0582  0.0758 -0.4560
   14CHTO   H43 5811   6.142   6.786   2.910 -0.3910  0.8210  2.6019
   14CHTO   H44 5812   6.314   6.845   2.908  0.6350  0.8915 -3.8204
   14CHTO   C25 5813   6.160   7.102   2.822 -0.5142  0.6450 -0.3817
   14CHTO   H53 5814   6.251   7.138   2.872 -1.3317 -0.2691  1.8270
   14CHTO   O17 5815   6.136   7.190   2.709 -0.5106  1.1300  0.1369
   14CHTO   C32 5816   6.223   7.168   2.594  0.4006 -0.1719  0.2531
   14CHTO   H60 5817   6.328   7.185   2.617  0.5745 -0.5615 -0.2381
   14CHTO   C36 5818   6.180   7.272   2.502  0.2702  0.3672  0.2350
   14CHTO   O25 5819   6.043   7.265   2.458  0.7357  0.6286 -0.0015
   14CHTO   H40 5820   5.992   7.218   2.521  2.8252 -1.5230  0.1457
   14CHTO   O15 5821   6.029   7.132   2.931  0.2257 -0.3114 -0.2885
   14CHTO   C19 5822   5.982   7.097   3.064 -0.4805  0.5822  0.0456
   14CHTO   H47 5823   5.999   6.989   3.070  3.0051  1.1579  1.8360
   14CHTO   C20 5824   6.060   7.158   3.177  0.3016  0.7947  0.0297
   14CHTO   H48 5825   6.045   7.267   3.179  0.8983  0.9459 -2.5504
   14CHTO   O19 5826   6.193   7.111   3.150  0.5141  0.4326 -0.2609
   14CHTO   H35 5827   6.239   7.173   3.096  0.2254 -0.4064 -1.4978
   14CHTO   C21 5828   6.008   7.109   3.317  0.2731 -0.4975  0.3989
   14CHTO   H49 5829   6.020   7.000   3.321 -1.1498 -0.5920  2.5567
   14CHTO    N4 5830   6.071   7.162   3.439 -0.3003  0.0080  0.4644
   14CHTO   H41 5831   6.108   7.263   3.423  1.2320 -0.8385 -1.6145
   14CHTO   H42 5832   6.145   7.100   3.486  0.3368 -1.3094 -2.1637
   14CHTO   C22 5833   5.853   7.129   3.316  0.3718 -0.3921  0.3545
   14CHTO   H50 5834   5.825   7.234   3.310 -1.8116 -0.9947 -0.2879
   14CHTO   O14 5835   5.790   7.072   3.204 -0.1673 -0.1270 -0.5021
   14CHTO   C23 5836   5.831   7.120   3.077  0.1129  0.2088  0.0646
   14CHTO   H51 5837   5.804   7.225   3.063 -0.2701 -0.0187 -0.9196
   14CHTO   C34 5838   5.742   7.054   2.971 -0.1743  0.1880 -0.6258
   14CHTO   O23 5839   5.787   6.921   2.940 -0.4275 -0.2941  0.1354
   14CHTO   H38 5840   5.738   6.867   2.999 -0.2184  0.4864  1.0452
   14CHTO   O16 5841   5.777   7.068   3.422 -0.0641 -0.1578 -0.1136
   14CHTO   C24 5842   5.656   7.172   3.476 -0.0066 -0.1445  0.4926
   14CHTO   H52 5843   5.642   7.258   3.410  1.2982  0.6986  1.3064
   14CHTO   C26 5844   5.682   7.240   3.613  0.0123  0.4236  0.5013
   14CHTO   H54 5845   5.712   7.161   3.685 -2.0608  0.9435  1.9675
   14CHTO   O20 5846   5.802   7.313   3.598  0.0040 -0.2415  0.1471
   14CHTO   H36 5847   5.787   7.404   3.582  0.1518 -0.1390  0.5855
   14CHTO   C30 5848   5.561   7.324   3.666  0.2198 -1.6980 -1.1068
   14CHTO   H58 5849   5.550   7.417   3.609 -1.5965 -0.3336  1.3233
   14CHTO    N6 5850   5.580   7.376   3.806  0.2625 -0.2946 -0.1272
   14CHTO   H45 5851   5.488   7.414   3.848 -0.3559 -2.2752  0.3501
   14CHTO   H46 5852   5.620   7.296   3.867 -0.6638 -1.9405 -1.6188
   14CHTO   C33 5853   5.431   7.242   3.657 -1.2029 -0.4319 -0.7896
   14CHTO   H61 5854   5.434   7.150   3.717 -2.8280  1.0958  1.7362
   14CHTO   O18 5855   5.420   7.200   3.524  0.5487  0.7422 -0.3263
   14CHTO   C28 5856   5.519   7.096   3.481 -0.2727 -0.0413  0.7776
   14CHTO   H56 5857   5.527   7.015   3.553 -2.1940  0.1882  1.2674
   14CHTO   C35 5858   5.462   7.029   3.350 -0.3251  0.1963 -0.1300
   14CHTO   O24 5859   5.549   6.930   3.296 -0.0086  0.4573 -0.3577
   14CHTO   H39 5860   5.538   6.848   3.342  1.0159  0.0212 -0.8817
   14CHTO    O9 5861   5.317   7.313   3.704 -0.9076 -0.3459  0.3053
   14CHTO   C13 5862   5.173   7.221   3.698  0.1243 -0.1110 -0.0715
   14CHTO   H26 5863   5.188   7.147   3.617 -1.2968  0.3339 -0.7554
   14CHTO   C11 5864   5.047   7.315   3.674  0.3239 -0.5529 -0.4310
   14CHTO   H24 5865   5.055   7.352   3.571 -1.1866  0.3956 -0.2227
   14CHTO    O8 5866   5.052   7.422   3.764 -0.1153 -0.5780 -0.0787
   14CHTO    H3 5867   5.096   7.498   3.730  1.5622 -2.1715 -1.5564
   14CHTO    C9 5868   4.928   7.222   3.668 -0.0654  0.2304  0.3484
   14CHTO   H22 5869   4.959   7.142   3.599 -2.1715  1.0565 -1.6110
   14CHTO    N2 5870   4.803   7.285   3.624  0.4127 -0.0744  0.3664
   14CHTO   H10 5871   4.733   7.205   3.605 -0.9187  0.6516  2.0456
   14CHTO   H11 5872   4.764   7.341   3.708 -0.1456  0.3656 -0.1857
   14CHTO    C7 5873   4.912   7.149   3.810 -0.1035 -0.4833 -0.6144
   14CHTO   H20 5874   4.834   7.071   3.793 -0.4820 -0.4643  0.9865
   14CHTO    O4 5875   5.037   7.088   3.851  0.0240  0.1260  0.3443
   14CHTO   C14 5876   5.169   7.147   3.838  0.2390 -0.2384  0.7519
   14CHTO   H27 5877   5.237   7.060   3.829  0.8136  0.1096  1.6816
   14CHTO   C18 5878   5.203   7.222   3.970  0.0938  0.5874  0.0223
   14CHTO   O13 5879   5.337   7.228   4.001  0.3414  0.3879  0.1711
   14CHTO    H7 5880   5.349   7.220   4.093  0.3791  0.4111  0.1678
   14CHTO    O2 5881   4.867   7.256   3.921  0.5022  0.0360  0.1248
   14CHTO    C1 5882   4.777   7.199   4.024 -0.0435 -0.1162 -0.6570
   14CHTO   H14 5883   4.807   7.093   4.038  3.3015  1.2469  3.4671
   14CHTO    C2 5884   4.620   7.210   3.982 -1.3118 -0.2788  0.3896
   14CHTO   H15 5885   4.614   7.313   3.944  2.1443 -0.3129 -0.4177
   14CHTO    O6 5886   4.582   7.119   3.883  0.2994 -0.3057  0.0851
   14CHTO    H1 5887   4.506   7.151   3.839 -0.0894  1.3863  1.9149
   14CHTO    C3 5888   4.516   7.195   4.105  0.0048  0.4328 -0.1926
   14CHTO   H16 5889   4.511   7.088   4.133  1.4200  0.5298  0.4833
   14CHTO    N1 5890   4.377   7.237   4.072  0.2026 -0.4184  0.5370
   14CHTO    H8 5891   4.383   7.309   3.992 -2.8046 -0.8605 -0.1783
   14CHTO    H9 5892   4.327   7.290   4.151  1.5083 -0.5922  1.4759
   14CHTO    C4 5893   4.573   7.262   4.232  0.4894 -0.5255  0.6391
   14CHTO   H17 5894   4.563   7.370   4.227 -1.1979 -0.5411  3.0317
   14CHTO    O1 5895   4.704   7.219   4.258 -0.2952  0.2718 -0.6647
   14CHTO    C5 5896   4.799   7.269   4.164 -0.3588  0.2226 -0.3935
   14CHTO   H18 5897   4.779   7.376   4.154 -0.0106  0.3242  0.0079
   14CHTO   C16 5898   4.946   7.243   4.222 -0.1821 -0.3035  0.1767
   14CHTO   O11 5899   4.976   7.119   4.281  0.4709 -0.2859 -0.1323
   14CHTO    H5 5900   4.898   7.084   4.320  0.9037 -0.9417  0.1546
   14CHTO    O3 5901   4.487   7.233   4.345  0.0827  0.5738  0.0745
   14CHTO    C6 5902   4.547   7.183   4.473 -0.4161 -0.5496  0.4245
   14CHTO   H19 5903   4.599   7.089   4.454  0.7843  0.5738 -2.0517
   14CHTO    C8 5904   4.636   7.286   4.557 -0.2822  0.8659  0.1398
   14CHTO   H21 5905   4.583   7.381   4.564  0.8593  1.5602 -0.4831
   14CHTO    O7 5906   4.764   7.312   4.490  0.2607 -0.2926  0.0438
   14CHTO    H2 5907   4.789   7.251   4.423  1.7622  0.2328  0.1109
   14CHTO   C12 5908   4.665   7.215   4.693  0.0892  0.4365  0.1882
   14CHTO   H25 5909   4.701   7.116   4.657 -0.9331  0.6266 -1.3998
   14CHTO    N3 5910   4.764   7.287   4.782  0.1583 -0.1911  0.3827
   14CHTO   H12 5911   4.786   7.383   4.739  0.0589 -0.7145 -0.8676
   14CHTO   H13 5912   4.855   7.231   4.799  0.4416 -0.2607 -1.2250
   14CHTO   C15 5913   4.531   7.187   4.772  0.2122  0.1829  0.2857
   14CHTO   H28 5914   4.482   7.281   4.794 -0.6369  0.1760 -1.4448
   14CHTO   O10 5915   4.540   7.104   4.906 -0.1613 -0.1224 -0.1484
   14CHTO    H4 5916   4.456   7.124   4.943  0.8597  1.1232  1.5724
   14CHTO    O5 5917   4.455   7.096   4.688  0.3810  0.0276  0.3741
   14CHTO   C10 5918   4.425   7.144   4.556 -0.5915 -0.0257 -0.1947
   14CHTO   H23 5919   4.356   7.228   4.564 -0.6817  0.1665 -2.6402
   14CHTO   C17 5920   4.335   7.051   4.489  0.2534 -0.1092  0.3350
   14CHTO   O12 5921   4.200   7.035   4.544  0.2957  0.0629  0.5423
   14CHTO    H6 5922   4.182   7.095   4.614 -1.7489  1.1045 -0.8502
   15CHTO  H203 5923   5.393   5.868   3.311  0.4345  1.6896 -0.5944
   15CHTO   O82 5924   5.485   5.849   3.308  0.1960  0.3881  0.1909
   15CHTO  C123 5925   5.510   5.722   3.252  0.3450  0.3466 -0.0393
   15CHTO  H227 5926   5.476   5.645   3.323 -1.2067 -0.3004 -1.4507
   15CHTO   O77 5927   5.437   5.711   3.125  0.1380  0.4658  0.2279
   15CHTO  C118 5928   5.403   5.578   3.087  0.3886  0.1915  0.1197
   15CHTO  H222 5929   5.371   5.511   3.168 -0.5250  0.6819  0.1716
   15CHTO  C125 5930   5.291   5.577   2.975  0.0583 -0.3045 -0.4163
   15CHTO   O84 5931   5.226   5.453   2.964  0.3787 -0.2128  0.1539
   15CHTO  H205 5932   5.166   5.450   2.892  0.3376 -1.9638  0.2257
   15CHTO  C114 5933   5.540   5.526   3.041 -0.1878  0.5929 -0.3652
   15CHTO  H218 5934   5.570   5.583   2.953  3.2803  0.1269  0.4299
   15CHTO  C116 5935   5.660   5.549   3.148 -0.2942  0.3915 -0.6108
   15CHTO  H220 5936   5.649   5.475   3.230  1.9140  1.3412  0.5797
   15CHTO   O79 5937   5.777   5.511   3.071 -0.4849 -0.2899 -0.5677
   15CHTO  H201 5938   5.798   5.573   3.004 -0.7646  1.9056  1.3305
   15CHTO  C120 5939   5.654   5.698   3.203  0.0200  0.3409 -0.9592
   15CHTO  H224 5940   5.677   5.768   3.120 -1.9957  1.9223 -0.2133
   15CHTO   N21 5941   5.763   5.720   3.306 -0.1764  0.5051  0.2282
   15CHTO  H211 5942   5.794   5.821   3.285  0.6916  0.1402 -0.2863
   15CHTO  H212 5943   5.842   5.656   3.270  0.7987  1.1100  1.2714
   15CHTO   O75 5944   5.516   5.389   2.996 -0.4590  0.0373  0.0543
   15CHTO  C112 5945   5.561   5.269   3.090 -0.8578  0.2556  0.9962
   15CHTO  H216 5946   5.564   5.296   3.196  0.0990 -0.7836  1.2505
   15CHTO   O73 5947   5.692   5.233   3.044  0.2919 -0.0309 -0.0281
   15CHTO  C113 5948   5.752   5.137   3.122  0.3762  0.1631 -0.2429
   15CHTO  H217 5949   5.776   5.163   3.227  0.2442  1.3631 -0.5037
   15CHTO  C124 5950   5.890   5.141   3.049 -0.3196 -0.3002 -0.2543
   15CHTO   O83 5951   5.981   5.050   3.109 -0.3569 -0.3227 -0.3516
   15CHTO  H204 5952   6.051   5.022   3.054 -0.1420 -0.8162  0.1814
   15CHTO  C109 5953   5.676   5.004   3.101 -0.0469  0.4076 -0.1525
   15CHTO  H213 5954   5.671   4.980   2.994 -0.0784 -0.0341 -0.0546
   15CHTO  C110 5955   5.529   5.021   3.152  0.4688 -0.6478  0.2160
   15CHTO  H214 5956   5.522   5.053   3.256  0.8986 -2.1224  0.7138
   15CHTO   O78 5957   5.454   4.900   3.137 -0.0845  0.0338  0.2372
   15CHTO  H200 5958   5.471   4.847   3.061 -2.2513 -0.1608 -0.1259
   15CHTO  C111 5959   5.459   5.144   3.074 -0.4886  0.3024 -0.2094
   15CHTO  H215 5960   5.449   5.117   2.967 -1.2656  0.4298 -0.1729
   15CHTO   N19 5961   5.317   5.169   3.122 -0.4670  0.0582 -0.1657
   15CHTO  H207 5962   5.239   5.095   3.113 -0.4088  0.1984 -1.9614
   15CHTO  H208 5963   5.322   5.235   3.207 -0.9432 -0.5385  0.3335
   15CHTO   O74 5964   5.739   4.900   3.183  0.3071  0.2321 -0.4795
   15CHTO  C115 5965   5.742   4.767   3.129 -0.4044  0.1094 -0.5032
   15CHTO  H219 5966   5.653   4.739   3.072 -1.4507  0.3593  0.9824
   15CHTO   O76 5967   5.866   4.745   3.032  0.3511  0.3843  0.2962
   15CHTO  C122 5968   5.972   4.680   3.101 -0.7506 -0.5097  0.4718
   15CHTO  H226 5969   6.004   4.750   3.178  0.2305 -1.4791  0.9739
   15CHTO  C126 5970   6.098   4.660   3.010 -0.2053 -0.2368 -0.4117
   15CHTO   O85 5971   6.151   4.782   2.960  0.4289  0.0313 -0.5090
   15CHTO  H206 5972   6.208   4.805   3.031  0.1688  0.2076 -0.3562
   15CHTO  C121 5973   5.935   4.540   3.164  0.1402 -0.1017  0.2021
   15CHTO  H225 5974   5.965   4.455   3.100  0.6596  0.4049 -0.2354
   15CHTO   O81 5975   6.003   4.527   3.291  0.4775 -0.7467 -0.3377
   15CHTO  H202 5976   6.078   4.580   3.306 -0.3524  0.0912  0.8957
   15CHTO  C119 5977   5.783   4.533   3.188  0.6272 -0.9541  0.3069
   15CHTO  H223 5978   5.741   4.516   3.089 -2.1241 -0.2926  1.3390
   15CHTO  C117 5979   5.734   4.664   3.251  0.1044  0.1895  0.3496
   15CHTO  H221 5980   5.791   4.711   3.332  2.1527  1.2852 -1.6654
   15CHTO   N20 5981   5.598   4.658   3.303  0.9653 -0.3346  0.1334
   15CHTO  H209 5982   5.539   4.625   3.219  3.5899 -1.8912 -1.1633
   15CHTO  H210 5983   5.566   4.755   3.337  0.7834  0.9120 -3.3819
   15CHTO   O80 5984   5.740   4.390   3.259  0.5274  0.6097 -0.4811
   15CHTO  C103 5985   5.651   4.295   3.193 -0.2721 -0.1261 -0.7624
   15CHTO  H190 5986   5.620   4.215   3.260 -3.4780 -0.2429 -2.2734
   15CHTO  C101 5987   5.515   4.355   3.130  0.7043  0.1565 -0.6599
   15CHTO  H188 5988   5.526   4.448   3.074  0.1679  1.3806  1.2304
   15CHTO   O68 5989   5.419   4.383   3.251  0.0712 -0.7634  0.5330
   15CHTO  H168 5990   5.332   4.409   3.227  0.6385  1.3975  0.7820
   15CHTO   C99 5991   5.460   4.240   3.033  0.1847 -0.4654 -0.5797
   15CHTO  H186 5992   5.438   4.147   3.090 -1.8670  1.4166  1.8551
   15CHTO   N17 5993   5.321   4.276   2.978 -0.3009 -0.2475  0.0610
   15CHTO  H174 5994   5.254   4.317   3.052 -2.7360 -1.0623 -1.6427
   15CHTO  H175 5995   5.270   4.189   2.940 -1.3373  0.7434 -0.8331
   15CHTO   C97 5996   5.558   4.199   2.912 -0.0243 -0.0772 -0.3322
   15CHTO  H184 5997   5.570   4.293   2.857  2.6147 -1.4206 -2.1445
   15CHTO   O64 5998   5.681   4.154   2.971  0.8285  1.0569 -0.1702
   15CHTO  C104 5999   5.744   4.233   3.076 -0.2665 -0.0111 -0.1829
   15CHTO  H191 6000   5.802   4.314   3.032  0.8492 -0.5656  0.2451
   15CHTO  C108 6001   5.849   4.139   3.138 -0.1951 -0.0857  0.6374
   15CHTO   O71 6002   5.973   4.197   3.167  0.2471 -0.0644 -0.6335
   15CHTO  H171 6003   6.026   4.123   3.191 -0.5778 -0.7286 -0.8326
   15CHTO   O62 6004   5.515   4.087   2.823 -0.1491 -0.0589  0.2787
   15CHTO   C91 6005   5.467   4.119   2.692  0.0889 -0.3224  0.1992
   15CHTO  H178 6006   5.447   4.226   2.689 -1.3801 -0.5830  0.1284
   15CHTO   C92 6007   5.327   4.051   2.663  0.2845 -0.3505 -0.1729
   15CHTO  H179 6008   5.265   4.053   2.753 -0.2901  4.0701 -0.5661
   15CHTO   O66 6009   5.255   4.141   2.580 -0.0312 -0.3391 -0.3841
   15CHTO  H166 6010   5.162   4.138   2.592 -0.0180  1.0198  0.0990
   15CHTO   C93 6011   5.331   3.907   2.596 -0.4346 -0.0193  0.0801
   15CHTO  H180 6012   5.232   3.896   2.550 -0.1567 -1.2360 -0.2525
   15CHTO   N16 6013   5.353   3.795   2.694 -0.3504 -0.0028  0.3401
   15CHTO  H172 6014   5.270   3.776   2.760 -1.0910  0.9163 -0.3000
   15CHTO  H173 6015   5.377   3.711   2.631  1.4024 -0.4097  1.5250
   15CHTO   C94 6016   5.433   3.910   2.482 -0.1330  0.3551  0.4122
   15CHTO  H181 6017   5.516   3.842   2.500  1.1826  2.4333  2.2942
   15CHTO   O61 6018   5.488   4.041   2.463  0.5719 -0.3112  0.2957
   15CHTO   C95 6019   5.568   4.089   2.573  0.5205  0.0377 -0.0379
   15CHTO  H182 6020   5.637   4.014   2.611 -0.4942 -0.2335  1.3258
   15CHTO  C106 6021   5.651   4.213   2.521 -0.2162 -0.5048 -0.2249
   15CHTO   O69 6022   5.737   4.267   2.623  0.1795  0.4593 -0.9495
   15CHTO  H169 6023   5.761   4.351   2.591  2.6375 -0.0628 -0.6112
   15CHTO   O63 6024   5.350   3.866   2.353  0.3417  0.5632  0.4109
   15CHTO   C96 6025   5.424   3.832   2.213 -0.1062  0.0767  0.3054
   15CHTO  H183 6026   5.531   3.843   2.227  0.0453  1.3615 -1.8077
   15CHTO   C98 6027   5.372   3.914   2.090 -0.1438  0.2725  0.8120
   15CHTO  H185 6028   5.263   3.926   2.092  0.0869  2.3173  2.5199
   15CHTO   O67 6029   5.423   4.047   2.102 -0.7160  0.0913  0.3141
   15CHTO  H167 6030   5.381   4.087   2.176 -1.2474  0.1185 -0.0044
   15CHTO  C102 6031   5.428   3.857   1.942  0.6019 -0.0827  0.1012
   15CHTO  H189 6032   5.536   3.876   1.934  0.4263  0.5182 -0.8496
   15CHTO   N18 6033   5.362   3.917   1.816 -0.4709  0.3870 -0.1453
   15CHTO  H176 6034   5.256   3.901   1.815 -0.4169 -0.1065  0.7910
   15CHTO  H177 6035   5.394   4.016   1.789  0.3279  0.0368 -0.5320
   15CHTO  C105 6036   5.430   3.702   1.935  0.7419  0.1959  0.2535
   15CHTO  H192 6037   5.330   3.669   1.906  0.5666  2.0654 -1.4147
   15CHTO   O65 6038   5.477   3.651   2.063 -0.4025 -0.3867 -0.0499
   15CHTO  C100 6039   5.399   3.681   2.183 -0.3438  0.0145 -0.6764
   15CHTO  H187 6040   5.293   3.666   2.159 -0.4721  1.8002 -1.2656
   15CHTO  C107 6041   5.440   3.592   2.300  0.6825 -0.1414  0.7517
   15CHTO   O70 6042   5.375   3.467   2.279  0.1432  1.2254 -0.4916
   15CHTO  H170 6043   5.289   3.458   2.317  0.8969  0.1566  1.0208
   15CHTO   O57 6044   5.536   3.659   1.823  0.3611  0.3986  0.2436
   15CHTO   C85 6045   5.512   3.537   1.747 -0.4487  0.2962  0.5212
   15CHTO  H157 6046   5.434   3.482   1.803 -0.7876 -1.4102 -1.5472
   15CHTO   C83 6047   5.641   3.450   1.753  0.0905 -0.8964 -0.1331
   15CHTO  H155 6048   5.662   3.420   1.855  1.0802  0.8581  0.2024
   15CHTO   O56 6049   5.763   3.529   1.724 -0.0897  0.1188 -0.1305
   15CHTO  H135 6050   5.738   3.584   1.652 -0.0693  1.6729  1.0256
   15CHTO   C81 6051   5.613   3.325   1.668 -0.1956 -0.1741  1.0366
   15CHTO  H153 6052   5.521   3.277   1.702  0.3815 -2.4064 -0.4864
   15CHTO   N14 6053   5.708   3.218   1.687  0.0803 -0.1845 -0.5354
   15CHTO  H141 6054   5.796   3.255   1.736 -0.1113  0.0677 -0.3782
   15CHTO  H142 6055   5.671   3.132   1.739  2.7221 -0.7485  0.5052
   15CHTO   C79 6056   5.591   3.371   1.510 -0.2046 -0.2690 -0.5053
   15CHTO  H151 6057   5.566   3.280   1.456 -1.0983 -0.3807  0.0996
   15CHTO   O52 6058   5.471   3.452   1.513  0.4499  0.0125  0.2083
   15CHTO   C86 6059   5.468   3.566   1.606  0.2211 -0.1229  0.5637
   15CHTO  H158 6060   5.528   3.646   1.558 -0.6803 -0.3724 -1.0333
   15CHTO   C90 6061   5.325   3.616   1.608  0.1131  0.1381 -0.1735
   15CHTO   O60 6062   5.322   3.706   1.499 -0.0222 -0.0518 -0.0804
   15CHTO  H138 6063   5.291   3.792   1.521  1.8769  0.4757  0.6430
   15CHTO   O50 6064   5.707   3.439   1.464  0.1112  0.5884 -0.5182
   15CHTO   C73 6065   5.753   3.468   1.334 -0.0026 -0.3675 -0.1531
   15CHTO  H145 6066   5.706   3.557   1.290 -0.0440 -0.9048 -1.2078
   15CHTO   C74 6067   5.737   3.349   1.237  0.0047 -0.5096 -0.4137
   15CHTO  H146 6068   5.628   3.335   1.231 -0.1345  0.7849 -1.1391
   15CHTO   O54 6069   5.784   3.383   1.102 -0.3371  0.8002 -0.3948
   15CHTO  H133 6070   5.755   3.317   1.043  1.8856 -0.2211 -0.4048
   15CHTO   C75 6071   5.813   3.226   1.299 -0.3312  1.3590 -0.2193
   15CHTO  H147 6072   5.791   3.220   1.407  0.6529  1.6049 -0.0036
   15CHTO   N13 6073   5.785   3.096   1.231 -0.0990 -0.4654  0.1025
   15CHTO  H139 6074   5.730   3.113   1.140  1.6424  0.4331 -0.8166
   15CHTO  H140 6075   5.744   3.019   1.295 -1.7370 -1.1968 -1.7828
   15CHTO   C76 6076   5.973   3.269   1.308 -0.5369 -0.2789 -0.6610
   15CHTO  H148 6077   6.012   3.290   1.208 -1.1164 -2.0065 -1.2655
   15CHTO   O49 6078   5.992   3.392   1.383  0.5479  0.6634  0.3365
   15CHTO   C77 6079   5.905   3.501   1.349  0.0371  0.3144  0.1237
   15CHTO  H149 6080   5.933   3.534   1.249  0.5500 -1.5194 -0.3552
   15CHTO   C88 6081   5.921   3.615   1.453  0.0337 -0.7526 -0.4772
   15CHTO   O58 6082   6.045   3.685   1.440  0.1980  0.5904  0.3979
   15CHTO  H136 6083   6.041   3.775   1.415 -0.1416  0.5443  0.2894
   15CHTO   O51 6084   6.049   3.174   1.396 -0.0677 -0.5033  0.0831
   15CHTO   C78 6085   6.191   3.205   1.411 -0.8835 -0.4324 -0.1841
   15CHTO  H150 6086   6.209   3.310   1.380 -2.2934 -0.0871  0.1322
   15CHTO   C80 6087   6.283   3.115   1.323 -0.3968  0.0332  0.0711
   15CHTO  H152 6088   6.277   3.011   1.362 -0.3197  0.1970  0.5261
   15CHTO   O55 6089   6.235   3.117   1.189 -0.1387  0.3226  0.2903
   15CHTO  H134 6090   6.270   3.052   1.130 -0.1193 -0.2983  0.9850
   15CHTO   C84 6091   6.432   3.158   1.337  0.0383  0.5921  0.2804
   15CHTO  H156 6092   6.453   3.260   1.305  0.0585  0.5801  0.2550
   15CHTO   N15 6093   6.523   3.080   1.245  0.3379  0.5820 -0.2747
   15CHTO  H143 6094   6.493   3.077   1.142  0.6039  2.1340 -0.4019
   15CHTO  H144 6095   6.625   3.110   1.249  1.1590 -1.7883 -1.7398
   15CHTO   C87 6096   6.467   3.139   1.492  0.0843 -0.3881  0.1251
   15CHTO  H159 6097   6.474   3.034   1.520  1.5440  0.1690  1.9007
   15CHTO   O53 6098   6.377   3.219   1.571  0.2133  0.1268 -0.4523
   15CHTO   C82 6099   6.237   3.182   1.554  0.0717  0.2089 -0.0263
   15CHTO  H154 6100   6.240   3.077   1.583  1.6029  0.2892  0.1568
   15CHTO   C89 6101   6.149   3.250   1.658  0.1272  0.3310  0.2591
   15CHTO   O59 6102   6.164   3.187   1.787  0.5170 -0.1498 -0.0583
   15CHTO  H137 6103   6.212   3.236   1.851 -0.3864 -1.0047  1.3077
   15CHTO   O45 6104   6.615   3.205   1.531  1.1929  0.4449 -0.2236
   15CHTO   C67 6105   6.658   3.232   1.665 -0.5210  0.3003  0.0576
   15CHTO  H124 6106   6.590   3.291   1.727 -1.3006 -1.0480  0.5048
   15CHTO   C65 6107   6.676   3.094   1.743  0.9201 -0.5856 -0.7844
   15CHTO  H122 6108   6.684   3.012   1.672  2.0915  0.9241 -2.4225
   15CHTO   O44 6109   6.551   3.068   1.813 -0.5386 -0.0949  0.4900
   15CHTO  H102 6110   6.542   3.141   1.871 -0.1067  0.5076 -0.1895
   15CHTO   C63 6111   6.805   3.084   1.830  0.3042  0.1370  0.6006
   15CHTO  H120 6112   6.891   3.076   1.763  0.9995  0.1727  1.4861
   15CHTO   N11 6113   6.823   2.972   1.917  0.7351 -0.0273  1.1583
   15CHTO  H108 6114   6.909   2.984   1.980  0.2552  0.1326  1.7889
   15CHTO  H109 6115   6.749   2.972   1.994 -0.6532  3.5373 -0.0743
   15CHTO   C61 6116   6.826   3.227   1.906  0.1088 -0.2118  0.4012
   15CHTO  H118 6117   6.916   3.231   1.969 -0.6458  0.4277  1.4616
   15CHTO   O40 6118   6.833   3.343   1.808  0.2027  0.4375  0.4123
   15CHTO   C68 6119   6.793   3.308   1.671  0.1331  0.3437  0.8194
   15CHTO  H125 6120   6.862   3.232   1.629 -0.9861 -0.6278  0.7237
   15CHTO   C72 6121   6.801   3.439   1.580 -0.3988 -0.1487 -0.6312
   15CHTO   O48 6122   6.934   3.476   1.544  0.4619  0.3336  0.1542
   15CHTO  H105 6123   6.993   3.470   1.617  1.6445 -1.0776 -0.9121
   15CHTO   O38 6124   6.711   3.236   1.995 -0.0457 -0.1593 -0.0103
   15CHTO   C55 6125   6.682   3.366   2.059  0.2205 -0.5391  0.1174
   15CHTO  H112 6126   6.715   3.452   1.999 -1.6010 -0.1345 -0.3354
   15CHTO   C56 6127   6.765   3.361   2.204  0.1622  0.4608  0.3130
   15CHTO  H113 6128   6.730   3.273   2.261 -0.5701  0.5804  0.0641
   15CHTO   O42 6129   6.906   3.344   2.182 -0.1356  0.2030  0.4322
   15CHTO  H100 6130   6.947   3.351   2.266  0.4208  1.7477  0.0467
   15CHTO   C57 6131   6.729   3.488   2.279 -0.2933  0.4246 -0.0882
   15CHTO  H114 6132   6.776   3.567   2.221  0.8862  0.7530  1.2839
   15CHTO   N10 6133   6.784   3.497   2.420 -0.0042 -0.1251  0.2341
   15CHTO  H106 6134   6.804   3.601   2.442 -1.1696 -0.3383  2.5077
   15CHTO  H107 6135   6.876   3.443   2.437  1.1716  0.0812 -4.7231
   15CHTO   C58 6136   6.574   3.512   2.282 -1.1222  0.5635 -0.2054
   15CHTO  H115 6137   6.535   3.446   2.362  1.9395  2.6544  3.1531
   15CHTO   O37 6138   6.505   3.504   2.156  0.6607  0.4281 -0.5000
   15CHTO   C59 6139   6.530   3.376   2.096 -0.8417  0.0892  0.6038
   15CHTO  H116 6140   6.503   3.292   2.161  0.8192 -0.9110  0.0312
   15CHTO   C70 6141   6.453   3.348   1.964  0.8808  0.8537 -0.2882
   15CHTO   O46 6142   6.314   3.361   1.960  0.2802 -0.3102 -0.1960
   15CHTO  H103 6143   6.282   3.315   2.035  0.1648  0.6433  0.3584
   15CHTO   O39 6144   6.549   3.665   2.299 -0.2258  0.3250 -0.2705
   15CHTO   C60 6145   6.452   3.696   2.399  0.2456  0.2107 -0.3539
   15CHTO  H117 6146   6.365   3.632   2.385 -0.1152  0.5056  0.5405
   15CHTO   C62 6147   6.491   3.673   2.547  0.1105 -0.0227 -0.3586
   15CHTO  H119 6148   6.488   3.564   2.567 -0.4030 -0.3045 -1.8972
   15CHTO   O43 6149   6.614   3.741   2.571  0.2203 -0.2050 -0.1607
   15CHTO  H101 6150   6.677   3.691   2.618  2.2484  0.9247 -1.6014
   15CHTO   C66 6151   6.370   3.722   2.644  0.7321  0.0379  0.2142
   15CHTO  H123 6152   6.279   3.672   2.610  0.6154 -0.1430  0.7863
   15CHTO   N12 6153   6.386   3.684   2.786  0.6186  0.0289  0.3212
   15CHTO  H110 6154   6.295   3.720   2.832  0.7304 -1.4357  1.7134
   15CHTO  H111 6155   6.466   3.743   2.829  2.2977 -2.6445  0.9661
   15CHTO   C69 6156   6.344   3.874   2.618 -0.2373  0.9599  0.2429
   15CHTO  H126 6157   6.444   3.915   2.643  0.2784  0.4718 -0.9712
   15CHTO   O41 6158   6.304   3.892   2.466  0.5567 -0.2455  0.0757
   15CHTO   C64 6159   6.408   3.844   2.370  0.2008 -0.6144  1.0011
   15CHTO  H121 6160   6.505   3.896   2.391  1.7390 -3.2831  0.7405
   15CHTO   C71 6161   6.371   3.856   2.224  0.6412 -0.7174 -0.3234
   15CHTO   O47 6162   6.251   3.788   2.192  0.5385  0.0305 -0.2076
   15CHTO  H104 6163   6.174   3.829   2.228  1.3321 -0.2995  1.9637
   15CHTO   O34 6164   6.247   3.926   2.706 -0.3886  0.2687 -0.1906
   15CHTO   C49 6165   6.163   4.014   2.768 -1.0057  0.1067 -0.3601
   15CHTO   H91 6166   6.226   4.061   2.843  1.2740  0.2765 -2.3157
   15CHTO   C47 6167   6.043   3.932   2.822  0.6296  0.5671  0.3927
   15CHTO   H89 6168   5.983   4.007   2.877 -1.0391 -0.9022  0.6377
   15CHTO   O33 6169   6.084   3.831   2.919 -0.0799  0.4172  0.2626
   15CHTO   H70 6170   6.128   3.882   2.985  1.8074  0.7443 -1.2005
   15CHTO   C45 6171   5.950   3.864   2.705  0.2367 -0.4333  0.0945
   15CHTO   H87 6172   5.993   3.767   2.676 -0.4005 -0.1978 -1.7082
   15CHTO    N8 6173   5.813   3.836   2.745 -0.3487  0.1856 -0.3426
   15CHTO   H75 6174   5.810   3.792   2.844  2.6143  0.1306 -0.2151
   15CHTO   H76 6175   5.751   3.924   2.748  0.0899  0.6273 -3.2226
   15CHTO   C43 6176   5.979   3.951   2.579  0.9184  0.1273  0.4970
   15CHTO   H85 6177   6.073   3.914   2.538  0.7932  1.1131 -0.6993
   15CHTO   O29 6178   5.984   4.088   2.609  0.5843  0.0543  0.1489
   15CHTO   C50 6179   6.102   4.129   2.673 -0.5734 -0.7256 -0.0754
   15CHTO   H92 6180   6.182   4.161   2.604  0.5467 -0.7133  1.2197
   15CHTO   C54 6181   6.073   4.257   2.760 -0.1208  0.6293 -0.2466
   15CHTO   O36 6182   6.064   4.369   2.679  0.8295  0.1536 -0.7120
   15CHTO   H72 6183   5.992   4.368   2.619 -0.7576 -1.9798  1.1371
   15CHTO   O27 6184   5.890   3.932   2.461 -0.1707 -0.0928  0.1500
   15CHTO   C37 6185   5.893   3.886   2.328 -0.4084  0.1569  0.6174
   15CHTO   H79 6186   6.000   3.886   2.303 -0.3107 -1.2171  0.9805
   15CHTO   C38 6187   5.856   3.742   2.307  0.4001 -0.6246  0.1633
   15CHTO   H80 6188   5.756   3.727   2.350  0.2838  0.5056  0.2894
   15CHTO   O31 6189   5.945   3.656   2.378 -0.2050 -0.2762 -0.2016
   15CHTO   H68 6190   6.030   3.649   2.340  0.3724 -0.7618  1.1613
   15CHTO   C39 6191   5.847   3.700   2.157  0.2439 -0.5550  0.0605
   15CHTO   H81 6192   5.946   3.689   2.113 -0.5695 -1.3717 -1.5928
   15CHTO    N7 6193   5.793   3.562   2.127 -0.3261 -0.1238  0.7312
   15CHTO   H73 6194   5.836   3.510   2.042  0.6137  0.9476  0.5441
   15CHTO   H74 6195   5.773   3.491   2.206 -0.4624 -1.9598 -0.9267
   15CHTO   C40 6196   5.776   3.800   2.066  0.4190 -0.6845  0.6171
   15CHTO   H82 6197   5.668   3.794   2.078  0.5935  0.2620  2.9645
   15CHTO   O26 6198   5.813   3.937   2.098  0.0139 -0.3254 -0.5011
   15CHTO   C41 6199   5.805   3.973   2.235  0.9023  0.4850  0.0959
   15CHTO   H83 6200   5.700   3.967   2.266  0.6035 -0.1320 -1.0253
   15CHTO   C52 6201   5.856   4.111   2.236  0.0225 -0.7818 -0.0339
   15CHTO   O35 6202   5.773   4.216   2.135 -0.5764 -0.2345 -0.1602
   15CHTO   H71 6203   5.693   4.169   2.122 -0.3910 -0.8037  0.7268
   15CHTO   O28 6204   5.802   3.773   1.920 -0.5085 -0.1004  0.3220
   15CHTO   C42 6205   5.906   3.810   1.822  0.0417  0.1807 -0.4960
   15CHTO   H84 6206   5.889   3.730   1.750 -1.3313  2.6301 -3.0109
   15CHTO   C44 6207   6.060   3.799   1.864 -0.1431  0.4625 -0.2588
   15CHTO   H86 6208   6.085   3.867   1.945 -0.9878  0.3483  0.1010
   15CHTO   O32 6209   6.083   3.666   1.916  0.3526  0.0989 -0.2674
   15CHTO   H69 6210   6.081   3.661   2.010  3.1998  0.2093 -0.1482
   15CHTO   C48 6211   6.163   3.831   1.743  0.3811  0.6862 -0.4804
   15CHTO   H90 6212   6.170   3.743   1.680 -1.4767 -1.1816  1.7951
   15CHTO    N9 6213   6.307   3.837   1.787 -0.4212 -0.1125 -0.5442
   15CHTO   H77 6214   6.326   3.739   1.826 -0.6397 -0.7790 -2.0988
   15CHTO   H78 6215   6.370   3.851   1.700 -0.5493 -2.3655 -1.0128
   15CHTO   C51 6216   6.122   3.967   1.668 -0.4624 -0.6791  1.2341
   15CHTO   H93 6217   6.129   4.044   1.745  1.5534  0.2101  0.2140
   15CHTO   O30 6218   5.989   3.954   1.622 -0.6411 -0.2173 -0.1965
   15CHTO   C46 6219   5.885   3.943   1.754  1.0034  0.8997  0.4143
   15CHTO   H88 6220   5.907   4.027   1.820 -0.3756  1.5572  0.0469
   15CHTO   C53 6221   5.751   3.955   1.690 -0.6210  0.4456  0.1052
   15CHTO   O72 6222   5.723   3.847   1.606  0.1655 -0.2301  0.3657
   15CHTO  H199 6223   5.630   3.832   1.612 -0.1189  0.5891 -1.6860
   15CHTO   O22 6224   6.201   3.990   1.542  0.2766  0.4504 -0.3162
   15CHTO   C31 6225   6.225   4.121   1.478 -0.2872  0.8141  0.2728
   15CHTO   H59 6226   6.268   4.096   1.379 -2.5191 -0.4444 -0.4047
   15CHTO   C29 6227   6.096   4.204   1.451 -0.2370  0.4071  0.1045
   15CHTO   H57 6228   6.034   4.210   1.542 -0.1880  1.1711  0.0906
   15CHTO   O21 6229   6.008   4.138   1.356  0.6362  0.3156 -0.5608
   15CHTO   H37 6230   5.969   4.063   1.397  0.2068  0.9829  0.2675
   15CHTO   C27 6231   6.125   4.355   1.406  0.2334 -0.0418  0.3717
   15CHTO   H55 6232   6.179   4.359   1.310 -0.7790  0.2575 -0.1887
   15CHTO    N5 6233   6.009   4.451   1.402  0.0487  0.0672  0.1156
   15CHTO   H43 6234   5.910   4.417   1.431 -1.4712  3.5144 -0.7629
   15CHTO   H44 6235   6.011   4.521   1.320  1.2119 -0.5351 -0.3693
   15CHTO   C25 6236   6.227   4.415   1.513  0.1654 -0.9729 -0.9637
   15CHTO   H53 6237   6.180   4.420   1.612 -0.1556 -0.8855 -1.1205
   15CHTO   O17 6238   6.346   4.328   1.513  0.0599 -0.0804  0.0184
   15CHTO   C32 6239   6.335   4.194   1.558  0.9392  0.0392  0.1113
   15CHTO   H60 6240   6.304   4.192   1.663 -0.8234 -0.4336 -0.4033
   15CHTO   C36 6241   6.470   4.118   1.550  0.0022  0.1455 -0.8022
   15CHTO   O25 6242   6.566   4.182   1.642  0.1621  0.2145 -0.1510
   15CHTO   H40 6243   6.534   4.198   1.729  1.5803 -1.2186  0.6378
   15CHTO   O15 6244   6.273   4.566   1.491 -0.1743  0.0938  0.0545
   15CHTO   C19 6245   6.290   4.666   1.592  0.6876 -0.6834  0.4066
   15CHTO   H47 6246   6.364   4.734   1.548 -0.1519  0.2133  0.3648
   15CHTO   C20 6247   6.156   4.742   1.623 -1.1180 -0.7652  0.6802
   15CHTO   H48 6248   6.083   4.674   1.668 -0.1135 -3.5292 -1.6981
   15CHTO   O19 6249   6.099   4.792   1.498  0.0366  0.2566  0.8292
   15CHTO   H35 6250   6.163   4.800   1.430  0.1242 -1.1440  0.7321
   15CHTO   C21 6251   6.186   4.863   1.721  0.6288 -0.5415  0.0185
   15CHTO   H49 6252   6.252   4.931   1.666  0.4464  0.4142  0.9736
   15CHTO    N4 6253   6.064   4.942   1.751 -0.8700 -0.1332 -0.1306
   15CHTO   H41 6254   5.974   4.911   1.701 -1.6420 -1.6629  2.1434
   15CHTO   H42 6255   6.072   5.050   1.745 -2.1407  0.0058  0.7323
   15CHTO   C22 6256   6.258   4.804   1.844  0.2156  0.4990  0.1718
   15CHTO   H50 6257   6.190   4.735   1.894  0.0461  0.6147  0.1016
   15CHTO   O14 6258   6.373   4.731   1.803  0.1331  0.2790  0.5053
   15CHTO   C23 6259   6.352   4.620   1.722  0.7191  0.1550  0.0143
   15CHTO   H51 6260   6.289   4.544   1.771  1.9680 -1.3365 -0.6241
   15CHTO   C34 6261   6.487   4.549   1.705 -0.2621  0.5584 -0.0724
   15CHTO   O23 6262   6.584   4.601   1.609 -0.2831 -0.4822 -0.2092
   15CHTO   H38 6263   6.669   4.575   1.636  1.0609  2.3709 -1.4839
   15CHTO   O16 6264   6.302   4.903   1.936 -0.6011 -0.1808  0.2140
   15CHTO   C24 6265   6.325   4.848   2.084  0.2352  0.1348  0.4106
   15CHTO   H52 6266   6.297   4.743   2.093 -3.4936  0.8726 -1.3746
   15CHTO   C26 6267   6.240   4.935   2.179  0.7586 -0.7458 -0.3507
   15CHTO   H54 6268   6.253   5.041   2.148 -1.0386 -0.5876 -0.6545
   15CHTO   O20 6269   6.098   4.907   2.163  0.1702  0.3637  0.3348
   15CHTO   H36 6270   6.061   4.916   2.077  0.7657 -1.2534 -0.1126
   15CHTO   C30 6271   6.287   4.912   2.328  0.1586 -0.1356  0.4357
   15CHTO   H58 6272   6.247   4.816   2.364  3.8866 -1.8391  0.2282
   15CHTO    N6 6273   6.233   5.011   2.425 -0.0733 -0.4140  0.3851
   15CHTO   H45 6274   6.268   5.110   2.400  0.4102 -1.1720 -2.1462
   15CHTO   H46 6275   6.126   5.013   2.411  0.1100 -1.3655 -1.4412
   15CHTO   C33 6276   6.443   4.910   2.345  0.1461 -0.2722 -0.2122
   15CHTO   H61 6277   6.482   5.013   2.342 -1.7280  0.4412 -0.5814
   15CHTO   O18 6278   6.505   4.827   2.243 -0.2576 -0.4793  0.3277
   15CHTO   C28 6279   6.481   4.868   2.112 -0.6645  0.3803  0.3070
   15CHTO   H56 6280   6.505   4.974   2.104  0.3438  0.1553  0.2733
   15CHTO   C35 6281   6.579   4.793   2.015  0.1804 -0.7029 -0.1666
   15CHTO   O24 6282   6.710   4.791   2.073 -0.0384 -0.5448 -0.1456
   15CHTO   H39 6283   6.736   4.881   2.080 -0.6183 -0.3944  0.1607
   15CHTO    O9 6284   6.479   4.864   2.474  0.0579 -0.0414 -0.8446
   15CHTO   C13 6285   6.625   4.892   2.506 -0.0244  0.0021  0.1709
   15CHTO   H26 6286   6.652   4.986   2.454  2.0981 -0.0460  1.1322
   15CHTO   C11 6287   6.712   4.771   2.460  0.0044  0.5185  0.0935
   15CHTO   H24 6288   6.708   4.766   2.350  0.5804  2.0513 -0.0080
   15CHTO    O8 6289   6.662   4.643   2.512 -0.0784  0.0504 -0.1914
   15CHTO    H3 6290   6.647   4.651   2.605  1.7383  3.0483 -0.0992
   15CHTO    C9 6291   6.858   4.804   2.511 -0.1452 -0.0730 -0.0502
   15CHTO   H22 6292   6.889   4.899   2.464 -0.7478  0.5200  0.7222
   15CHTO    N2 6293   6.968   4.716   2.471 -1.1049 -0.6345  0.3689
   15CHTO   H10 6294   6.958   4.624   2.527 -0.5208 -0.6845  0.3993
   15CHTO   H11 6295   6.950   4.697   2.366 -0.4234  0.6538  0.0089
   15CHTO    C7 6296   6.862   4.819   2.662  0.0121  0.4151  0.5628
   15CHTO   H20 6297   6.968   4.846   2.683  0.2929 -1.6695  1.9573
   15CHTO    O4 6298   6.776   4.929   2.703 -0.1426 -0.4070  0.1569
   15CHTO   C14 6299   6.636   4.930   2.657  0.0024  0.3631 -0.1053
   15CHTO   H27 6300   6.591   5.031   2.665 -1.9267 -0.3476 -1.6518
   15CHTO   C18 6301   6.554   4.843   2.753  0.4433 -0.2117 -0.9127
   15CHTO   O13 6302   6.543   4.892   2.882  0.2575  0.1940 -0.3331
   15CHTO    H7 6303   6.465   4.945   2.883 -0.1080 -0.3551  1.9433
   15CHTO    O2 6304   6.817   4.681   2.736  0.7081  0.1175  0.2670
   15CHTO    C1 6305   6.921   4.617   2.816  0.3308 -0.0614  0.3141
   15CHTO   H14 6306   7.021   4.662   2.801  0.5664 -1.1587 -1.5638
   15CHTO    C2 6307   6.935   4.464   2.793  0.3846 -0.7701  0.1534
   15CHTO   H15 6308   6.835   4.422   2.813  0.4391  0.4591  3.3412
   15CHTO    O6 6309   6.973   4.450   2.656 -0.3474  0.1209  0.0394
   15CHTO    H1 6310   6.898   4.447   2.600 -0.7651  0.6839  0.5537
   15CHTO    C3 6311   7.033   4.402   2.893  0.5248  0.5240  0.3071
   15CHTO   H16 6312   7.133   4.434   2.863  0.5585 -1.1215 -1.4697
   15CHTO    N1 6313   7.029   4.250   2.887 -0.2758  0.2826  0.0113
   15CHTO    H8 6314   6.928   4.214   2.897 -0.2522  0.4391  0.9057
   15CHTO    H9 6315   7.089   4.210   2.968 -0.9332 -0.2566  0.2353
   15CHTO    C4 6316   7.010   4.453   3.039 -0.2375 -0.1033 -0.2071
   15CHTO   H17 6317   6.924   4.405   3.084  0.0218 -1.5423 -1.2314
   15CHTO    O1 6318   6.999   4.592   3.042 -0.5260 -0.5474 -0.0043
   15CHTO    C5 6319   6.889   4.644   2.966  0.1074  0.2366 -0.6241
   15CHTO   H18 6320   6.806   4.587   3.007  1.3984 -0.0681  1.6132
   15CHTO   C16 6321   6.871   4.788   2.991 -0.2894  0.1918  0.8249
   15CHTO   O11 6322   6.802   4.802   3.113  0.1712 -0.3477  0.3749
   15CHTO    H5 6323   6.817   4.886   3.153  1.1234 -0.4569  0.2595
   15CHTO    O3 6324   7.133   4.433   3.119  0.2799  0.1461 -0.2721
   15CHTO    C6 6325   7.120   4.400   3.262 -0.4673 -0.4440  0.1761
   15CHTO   H19 6326   7.017   4.386   3.294 -0.9449  1.1140 -0.6093
   15CHTO    C8 6327   7.195   4.266   3.276 -0.2330 -0.0422 -0.6557
   15CHTO   H21 6328   7.293   4.283   3.231  0.4699  0.6269  1.1144
   15CHTO    O7 6329   7.122   4.168   3.198 -0.0547 -0.4348 -0.2788
   15CHTO    H2 6330   7.031   4.174   3.217  0.3779  1.8206  1.2334
   15CHTO   C12 6331   7.206   4.225   3.428  0.4342 -0.1078 -0.5530
   15CHTO   H25 6332   7.102   4.206   3.461  0.1582  1.0067 -0.7550
   15CHTO    N3 6333   7.294   4.101   3.434  0.7359 -0.2742  0.1582
   15CHTO   H12 6334   7.393   4.120   3.395  0.6854 -1.1773 -0.4300
   15CHTO   H13 6335   7.308   4.050   3.528 -4.5126 -1.7951  0.2821
   15CHTO   C15 6336   7.260   4.351   3.502  0.8105 -0.6876  0.1103
   15CHTO   H28 6337   7.356   4.381   3.458 -0.3943  1.5055 -1.0781
   15CHTO   O10 6338   7.272   4.335   3.646  0.0999 -0.0936  0.6140
   15CHTO    H4 6339   7.311   4.255   3.674 -0.9343 -1.5864 -2.0207
   15CHTO    O5 6340   7.182   4.469   3.484  0.4063 -0.0149 -0.0176
   15CHTO   C10 6341   7.180   4.514   3.348  0.4612 -0.1291  0.4867
   15CHTO   H23 6342   7.277   4.550   3.313  0.7028  1.2160  2.4274
   15CHTO   C17 6343   7.093   4.638   3.347 -0.8392  0.4435  0.2620
   15CHTO   O12 6344   7.140   4.741   3.267 -0.0020  0.4989 -0.2200
   15CHTO    H6 6345   7.113   4.818   3.311  2.0019  0.4328  1.1731
   16CHTO  H203 6346   5.722   4.598   1.587  1.1506  0.2770 -1.6565
   16CHTO   O82 6347   5.786   4.540   1.623  0.1105  0.1670  0.1085
   16CHTO  C123 6348   5.787   4.519   1.765  0.2241  1.1006 -0.3919
   16CHTO  H227 6349   5.705   4.454   1.800  2.4735 -1.3169  0.4988
   16CHTO   O77 6350   5.918   4.453   1.770  0.6351 -0.1902 -0.1654
   16CHTO  C118 6351   5.951   4.397   1.901 -0.3887  0.5988  0.1323
   16CHTO  H222 6352   5.875   4.337   1.952 -1.0224  0.4756 -0.9472
   16CHTO  C125 6353   6.075   4.297   1.883 -0.2878  0.1952 -0.6000
   16CHTO   O84 6354   6.103   4.195   1.990 -0.3435 -0.0986  0.3994
   16CHTO  H205 6355   6.193   4.179   1.969 -0.5876  2.5858 -3.0620
   16CHTO  C114 6356   5.981   4.523   1.988 -0.3692  0.5548 -0.5432
   16CHTO  H218 6357   6.065   4.576   1.944 -0.6631  2.3779  1.0197
   16CHTO  C116 6358   5.853   4.605   1.999 -0.1657  0.6978  0.0273
   16CHTO  H220 6359   5.780   4.534   2.045  3.8475 -3.6753  0.0480
   16CHTO   O79 6360   5.875   4.712   2.090 -0.5428  0.4494  0.5923
   16CHTO  H201 6361   5.924   4.782   2.052  0.3572 -0.9043 -0.8076
   16CHTO  C120 6362   5.803   4.648   1.854 -0.4506 -0.2713 -0.7498
   16CHTO  H224 6363   5.893   4.705   1.822 -0.1602 -1.0361 -1.3125
   16CHTO   N21 6364   5.688   4.742   1.855 -0.3095  0.5067 -0.3030
   16CHTO  H211 6365   5.717   4.844   1.876 -1.6752  0.8050  0.1458
   16CHTO  H212 6366   5.634   4.730   1.762 -1.5197 -2.2011  0.6825
   16CHTO   O75 6367   6.019   4.462   2.115  0.0687 -0.1835  0.4960
   16CHTO  C112 6368   6.144   4.510   2.176  0.4651  0.1316  0.0552
   16CHTO  H216 6369   6.156   4.617   2.157 -1.0253  0.3066 -0.0001
   16CHTO   O73 6370   6.245   4.431   2.116 -0.2641  0.6130 -0.1082
   16CHTO  C113 6371   6.378   4.423   2.163 -0.3740 -0.2230 -0.3604
   16CHTO  H217 6372   6.424   4.522   2.144 -1.2865  0.2398 -0.2036
   16CHTO  C124 6373   6.460   4.319   2.083 -0.0370  0.3023 -0.3753
   16CHTO   O83 6374   6.462   4.340   1.943  0.4123  0.3122 -0.0558
   16CHTO  H204 6375   6.391   4.288   1.912  0.3696  2.2312 -3.4068
   16CHTO  C109 6376   6.397   4.401   2.318 -0.3533  0.4870  0.4541
   16CHTO  H213 6377   6.361   4.298   2.337 -0.8842  0.4654 -0.6604
   16CHTO  C110 6378   6.291   4.503   2.386 -0.0996 -0.1186 -0.1349
   16CHTO  H214 6379   6.326   4.604   2.364 -0.9649  0.5732  1.5248
   16CHTO   O78 6380   6.286   4.471   2.526  0.0947 -0.0749 -0.0077
   16CHTO  H200 6381   6.289   4.555   2.569 -1.1893  1.2437 -2.3999
   16CHTO  C111 6382   6.145   4.484   2.328  0.5978 -1.0807 -0.3744
   16CHTO  H215 6383   6.119   4.379   2.347 -0.7130 -0.3327  2.3026
   16CHTO   N19 6384   6.044   4.564   2.402 -0.1058  0.2382  0.5831
   16CHTO  H207 6385   5.938   4.546   2.389 -0.2753  1.1088  0.7382
   16CHTO  H208 6386   6.060   4.670   2.408 -1.1293  0.2949  3.0140
   16CHTO   O74 6387   6.535   4.410   2.365  0.4943 -0.5348  0.3995
   16CHTO  C115 6388   6.620   4.259   2.390 -0.4155  0.3842 -0.3246
   16CHTO  H219 6389   6.559   4.171   2.371  5.0427 -3.6380 -0.4787
   16CHTO   O76 6390   6.746   4.243   2.276  0.2277  0.3761 -0.4239
   16CHTO  C122 6391   6.829   4.125   2.294  0.2020 -0.0177 -0.1492
   16CHTO  H226 6392   6.919   4.139   2.234  0.0026 -1.0999 -0.7013
   16CHTO  C126 6393   6.762   3.996   2.250  0.3033  0.1909  0.0210
   16CHTO   O85 6394   6.835   3.871   2.271 -0.1630 -0.7576  0.4375
   16CHTO  H206 6395   6.828   3.817   2.195  0.5255 -2.1151  1.3145
   16CHTO  C121 6396   6.883   4.114   2.443  0.1962 -0.6277 -0.5414
   16CHTO  H225 6397   6.938   4.018   2.457  1.0344  0.1142  1.4034
   16CHTO   O81 6398   6.983   4.213   2.471  0.1814  0.0319 -0.2265
   16CHTO  H202 6399   7.038   4.241   2.400  2.8074  1.6419  2.3166
   16CHTO  C119 6400   6.765   4.119   2.541 -0.2111  0.0617  0.1860
   16CHTO  H223 6401   6.699   4.034   2.526 -0.8943  0.6457 -0.1423
   16CHTO  C117 6402   6.675   4.246   2.536 -0.4388  0.1615 -0.0826
   16CHTO  H221 6403   6.728   4.338   2.560  2.3488 -0.5066 -3.3176
   16CHTO   N20 6404   6.551   4.241   2.626 -0.1802 -0.0171  0.4632
   16CHTO  H209 6405   6.585   4.259   2.727  1.9165  2.9815 -0.7150
   16CHTO  H210 6406   6.482   4.159   2.614  0.6396 -0.3749 -2.0100
   16CHTO   O80 6407   6.810   4.091   2.693 -0.0641 -0.3971 -0.7718
   16CHTO  C103 6408   6.782   3.965   2.752 -0.2003 -0.1691 -0.3234
   16CHTO  H190 6409   6.684   3.928   2.719  0.8174 -0.4939 -3.1532
   16CHTO  C101 6410   6.891   3.851   2.738  0.6155 -0.1220 -0.2968
   16CHTO  H188 6411   6.983   3.879   2.789  0.7037 -2.7877  1.1102
   16CHTO   O68 6412   6.904   3.807   2.572  0.0135 -0.0314 -0.0778
   16CHTO  H168 6413   6.923   3.885   2.523 -1.0277  0.4948  0.3206
   16CHTO   C99 6414   6.840   3.718   2.821 -0.6851 -0.3172 -0.7086
   16CHTO  H186 6415   6.742   3.684   2.782 -2.2326  1.7678  1.2787
   16CHTO   N17 6416   6.939   3.608   2.812  0.4516 -0.0881 -0.1421
   16CHTO  H174 6417   6.891   3.511   2.807 -2.2531  1.2312 -0.1805
   16CHTO  H175 6418   7.021   3.610   2.882 -0.4176  0.5572  0.8757
   16CHTO   C97 6419   6.816   3.758   2.977  0.2317  0.0480  0.2196
   16CHTO  H184 6420   6.912   3.787   3.023 -0.0700  0.8849  0.3279
   16CHTO   O64 6421   6.713   3.864   2.978  0.2456  0.2850 -0.2341
   16CHTO  C104 6422   6.765   3.981   2.916 -0.1837 -0.2040 -0.3201
   16CHTO  H191 6423   6.866   4.003   2.949  0.2241  1.7755 -2.7755
   16CHTO  C108 6424   6.679   4.095   2.957  0.3029 -0.1017  0.4462
   16CHTO   O71 6425   6.539   4.067   2.928 -0.0418  0.5286  0.1561
   16CHTO  H171 6426   6.500   4.152   2.925  1.5369  1.2525 -0.1906
   16CHTO   O62 6427   6.760   3.648   3.051 -0.2233  0.2684 -0.0202
   16CHTO   C91 6428   6.785   3.639   3.193 -0.5175  0.6050  0.3258
   16CHTO  H178 6429   6.890   3.611   3.200 -0.8128 -1.7381 -3.4821
   16CHTO   C92 6430   6.715   3.518   3.261 -0.1317  0.2406 -0.3913
   16CHTO  H179 6431   6.730   3.419   3.216  0.5641  1.0088 -1.8874
   16CHTO   O66 6432   6.782   3.498   3.387 -0.1441 -0.2635  0.3359
   16CHTO  H166 6433   6.730   3.442   3.442 -1.0512 -0.8352 -1.0860
   16CHTO   C93 6434   6.561   3.545   3.284 -0.4983  0.1867 -0.4750
   16CHTO  H180 6435   6.536   3.479   3.368  3.6563  0.4622  1.0768
   16CHTO   N16 6436   6.481   3.509   3.166  0.3607  0.0483  0.3572
   16CHTO  H172 6437   6.529   3.544   3.076  0.1818  1.0337  0.6448
   16CHTO  H173 6438   6.374   3.526   3.166  0.1498 -1.1686  0.5396
   16CHTO   C94 6439   6.537   3.696   3.334 -0.4442  0.5411  0.2572
   16CHTO  H181 6440   6.504   3.764   3.256 -1.9933 -0.4368  0.0433
   16CHTO   O61 6441   6.662   3.757   3.381  0.4273  0.2142 -0.1271
   16CHTO   C95 6442   6.758   3.769   3.278  0.7840  0.1297  0.0808
   16CHTO  H182 6443   6.733   3.854   3.215 -0.3916 -0.6839 -0.5606
   16CHTO  C106 6444   6.895   3.817   3.338 -0.0209  0.1337  0.1722
   16CHTO   O69 6445   6.972   3.723   3.407  0.0201 -0.3367  0.2046
   16CHTO  H169 6446   6.942   3.637   3.430 -2.9587  1.0639  1.8206
   16CHTO   O63 6447   6.441   3.698   3.454  0.1156  0.2693  0.0468
   16CHTO   C96 6448   6.298   3.641   3.455 -0.5105  0.3845 -0.5953
   16CHTO  H183 6449   6.309   3.535   3.435 -0.6504  0.4110 -0.8152
   16CHTO   C98 6450   6.193   3.687   3.346 -0.2862 -0.4038 -0.7429
   16CHTO  H185 6451   6.239   3.677   3.246  4.1181  1.6223  0.9492
   16CHTO   O67 6452   6.083   3.595   3.346 -0.0197  0.3929 -0.2990
   16CHTO  H167 6453   6.061   3.580   3.256  1.2397  0.8358 -0.6951
   16CHTO  C102 6454   6.130   3.827   3.375  0.3702 -0.6159  0.3922
   16CHTO  H189 6455   6.035   3.819   3.321  1.1951  0.2078 -1.2050
   16CHTO   N18 6456   6.198   3.946   3.316  0.3559 -0.1180  0.0197
   16CHTO  H176 6457   6.146   3.981   3.228 -1.6469 -1.0476  0.8048
   16CHTO  H177 6458   6.304   3.928   3.311  0.2265 -1.5065  1.6781
   16CHTO  C105 6459   6.097   3.842   3.525 -0.2784 -0.6437  0.2495
   16CHTO  H192 6460   6.151   3.924   3.573  0.4670 -0.6412 -0.6002
   16CHTO   O65 6461   6.108   3.723   3.599  0.2490 -0.5173  0.2104
   16CHTO  C100 6462   6.232   3.660   3.605 -0.8625 -0.1487 -0.0156
   16CHTO  H187 6463   6.300   3.719   3.668  1.2985  1.7328 -3.9044
   16CHTO  C107 6464   6.226   3.520   3.670  0.4691  0.8477 -0.1558
   16CHTO   O70 6465   6.107   3.447   3.635  0.7521  0.5410 -0.2128
   16CHTO  H170 6466   6.127   3.358   3.616 -1.6605 -0.2011  0.6010
   16CHTO   O57 6467   5.937   3.892   3.525 -0.4651  0.9694 -0.2617
   16CHTO   C85 6468   5.897   4.028   3.499 -0.4996 -0.2835  0.6536
   16CHTO  H157 6469   5.942   4.054   3.401 -0.9229  0.8463  0.7511
   16CHTO   C83 6470   5.970   4.127   3.591 -0.1457 -0.6618 -0.3000
   16CHTO  H155 6471   6.075   4.127   3.564 -0.1849 -2.7576 -0.5638
   16CHTO   O56 6472   5.964   4.076   3.724  0.0242  0.3805 -0.4661
   16CHTO  H135 6473   6.003   4.115   3.800  0.4970  3.5983 -2.3016
   16CHTO   C81 6474   5.911   4.273   3.573  0.0198  0.1077 -0.0388
   16CHTO  H153 6475   5.934   4.300   3.469  1.5100  0.4239  0.3667
   16CHTO   N14 6476   5.980   4.371   3.655 -0.3305 -0.2611  0.1442
   16CHTO  H141 6477   5.911   4.445   3.691 -0.1944 -0.4896  0.9004
   16CHTO  H142 6478   6.042   4.344   3.739 -1.3635 -0.3745  0.8883
   16CHTO   C79 6479   5.753   4.279   3.590 -0.2588 -0.1648  0.0714
   16CHTO  H151 6480   5.723   4.380   3.562 -0.2529  0.2331  1.4547
   16CHTO   O52 6481   5.695   4.179   3.500  0.2073  0.1107 -0.0704
   16CHTO   C86 6482   5.743   4.042   3.504 -0.4678  0.0661 -0.0448
   16CHTO  H158 6483   5.694   4.010   3.599 -0.2700  1.3864  0.5126
   16CHTO   C90 6484   5.669   3.963   3.392 -0.0404 -0.0295 -0.5754
   16CHTO   O60 6485   5.528   3.969   3.399  0.0641 -0.4498 -0.0383
   16CHTO  H138 6486   5.487   3.886   3.414 -1.9073  0.5179  0.1859
   16CHTO   O50 6487   5.703   4.266   3.724 -0.4604  0.6011 -0.1730
   16CHTO   C73 6488   5.621   4.252   3.841  0.5238 -0.9624 -0.4846
   16CHTO  H145 6489   5.664   4.199   3.927  1.3639  2.9471  1.6297
   16CHTO   C74 6490   5.492   4.173   3.801 -0.0095 -0.7575  0.0792
   16CHTO  H146 6491   5.540   4.082   3.761  1.2113 -0.4109  0.7461
   16CHTO   O54 6492   5.415   4.147   3.924 -0.0178  0.6798  0.3349
   16CHTO  H133 6493   5.452   4.068   3.960  1.0962  0.3337 -1.4697
   16CHTO   C75 6494   5.413   4.250   3.691 -0.1435 -0.7293  0.7055
   16CHTO  H147 6495   5.482   4.285   3.613  0.2822 -0.2122  1.3098
   16CHTO   N13 6496   5.300   4.180   3.623 -0.7806  0.5589 -0.0572
   16CHTO  H139 6497   5.343   4.081   3.620 -0.0989  0.8187  0.9385
   16CHTO  H140 6498   5.291   4.219   3.523 -1.8370 -1.3406 -0.7221
   16CHTO   C76 6499   5.364   4.387   3.764  0.1375 -0.8976 -0.4823
   16CHTO  H148 6500   5.307   4.351   3.849  0.2548  1.5148  0.6350
   16CHTO   O49 6501   5.483   4.462   3.809 -1.0888 -0.8669 -0.7610
   16CHTO   C77 6502   5.571   4.389   3.897 -0.1635  0.8543 -0.1164
   16CHTO  H149 6503   5.518   4.377   3.992 -0.2755 -0.4732 -0.3387
   16CHTO   C88 6504   5.697   4.471   3.944  0.1590 -0.1027 -0.2004
   16CHTO   O58 6505   5.746   4.554   3.827  0.5705  0.8243 -0.2048
   16CHTO  H136 6506   5.766   4.486   3.766 -0.1082 -0.7523  1.2842
   16CHTO   O51 6507   5.266   4.480   3.660 -0.7203  0.0233 -0.7195
   16CHTO   C78 6508   5.239   4.627   3.693 -0.0262  0.3454  0.6000
   16CHTO  H150 6509   5.334   4.680   3.717 -0.3394  1.7314 -1.0922
   16CHTO   C80 6510   5.146   4.648   3.812  1.0181  0.4561  0.0183
   16CHTO  H152 6511   5.047   4.610   3.778  2.9338 -3.0843 -1.8171
   16CHTO   O55 6512   5.191   4.570   3.926 -0.2465 -0.1549 -0.1958
   16CHTO  H134 6513   5.121   4.570   3.989  0.1277  1.9194  0.2529
   16CHTO   C84 6514   5.138   4.800   3.835  0.0838 -0.6479 -0.6094
   16CHTO  H156 6515   5.239   4.833   3.859  0.2998 -0.4060 -1.8441
   16CHTO   N15 6516   5.051   4.822   3.955  0.0240  0.1121  0.0356
   16CHTO  H143 6517   4.959   4.769   3.941 -0.1829  0.4953 -0.0431
   16CHTO  H144 6518   5.028   4.926   3.965 -0.2785  0.0258  0.2292
   16CHTO   C87 6519   5.086   4.877   3.711 -0.2155 -0.7408  1.4505
   16CHTO  H159 6520   4.980   4.860   3.690 -0.2416  0.8775  0.1324
   16CHTO   O53 6521   5.160   4.835   3.579 -0.0179  0.0323 -0.2831
   16CHTO   C82 6522   5.184   4.695   3.564  0.2367  0.8585 -0.6195
   16CHTO  H154 6523   5.088   4.653   3.533 -0.7879 -0.1071  3.5089
   16CHTO   C89 6524   5.288   4.668   3.449  0.2300 -0.5126 -0.1283
   16CHTO   O59 6525   5.242   4.708   3.320 -0.3058  0.0004  0.3549
   16CHTO  H137 6526   5.306   4.750   3.266  1.8918 -2.8060  0.6347
   16CHTO   O45 6527   5.104   5.056   3.744  0.2710 -0.4717  0.1798
   16CHTO   C67 6528   5.227   5.103   3.698  0.6675 -0.2802  0.3860
   16CHTO  H124 6529   5.293   5.016   3.690 -0.9460 -1.4930  0.1522
   16CHTO   C65 6530   5.212   5.177   3.554  0.2236 -0.2804  0.0458
   16CHTO  H122 6531   5.105   5.195   3.547  0.3131  0.6576  1.1237
   16CHTO   O44 6532   5.249   5.081   3.447  0.0756  0.2129  0.8994
   16CHTO  H102 6533   5.173   5.038   3.415 -2.7309  3.0392  3.3985
   16CHTO   C63 6534   5.289   5.311   3.551 -0.5693 -0.3634 -0.6560
   16CHTO  H120 6535   5.239   5.379   3.620  1.6357  0.1141  0.5141
   16CHTO   N11 6536   5.302   5.387   3.430  0.3086 -0.5456  0.3722
   16CHTO  H108 6537   5.220   5.352   3.369 -1.3334  0.7835  1.7695
   16CHTO  H109 6538   5.290   5.493   3.435  0.7562 -0.4146 -1.0671
   16CHTO   C61 6539   5.431   5.285   3.623 -1.1394 -0.3133  0.1638
   16CHTO  H118 6540   5.483   5.382   3.621  3.2369 -2.4311  2.5892
   16CHTO   O40 6541   5.422   5.251   3.761 -0.1430  0.0910 -0.4420
   16CHTO   C68 6542   5.295   5.195   3.803 -0.8269  0.6880 -0.5607
   16CHTO  H125 6543   5.244   5.291   3.822 -1.8845 -0.3968  2.3909
   16CHTO   C72 6544   5.301   5.126   3.940 -0.5366  0.3796 -0.5987
   16CHTO   O48 6545   5.303   5.209   4.059 -0.7871 -0.3181  0.7314
   16CHTO  H105 6546   5.221   5.197   4.103 -0.7963 -2.6354  0.1179
   16CHTO   O38 6547   5.505   5.189   3.547 -0.6004 -0.3136 -0.2783
   16CHTO   C55 6548   5.639   5.175   3.583 -0.0676 -0.1300 -0.2391
   16CHTO  H112 6549   5.644   5.189   3.692  0.7763 -0.5071 -0.2203
   16CHTO   C56 6550   5.732   5.281   3.505 -0.2031 -0.0959 -0.5364
   16CHTO  H113 6551   5.698   5.280   3.401 -0.1713  1.7673 -0.5832
   16CHTO   O42 6552   5.712   5.418   3.544  0.7284 -0.3788 -0.8579
   16CHTO  H100 6553   5.636   5.441   3.493  1.5269  1.2459 -1.3453
   16CHTO   C57 6554   5.890   5.254   3.520 -0.4464  0.3655  0.5297
   16CHTO  H114 6555   5.904   5.269   3.627 -3.3285 -1.8985  1.3030
   16CHTO   N10 6556   5.972   5.340   3.434 -0.1755  0.0307 -0.3812
   16CHTO  H106 6557   5.966   5.331   3.327  3.2444  2.1421 -0.8415
   16CHTO  H107 6558   5.953   5.442   3.463 -1.9959 -1.0340  2.4183
   16CHTO   C58 6559   5.922   5.106   3.496  0.5136  0.1347  0.2896
   16CHTO  H115 6560   5.890   5.080   3.393  0.3596 -0.7118  0.5472
   16CHTO   O37 6561   5.843   5.038   3.595 -0.0200 -0.1293  0.4459
   16CHTO   C59 6562   5.700   5.035   3.561 -0.3975 -0.5580  0.5494
   16CHTO  H116 6563   5.685   5.016   3.455  0.2492  0.9215  0.1778
   16CHTO   C70 6564   5.638   4.932   3.659  0.1852 -0.0193  0.2518
   16CHTO   O46 6565   5.706   4.801   3.651 -0.3273  0.5510 -0.1851
   16CHTO  H103 6566   5.712   4.780   3.560 -1.5235 -0.6196 -0.0124
   16CHTO   O39 6567   6.080   5.076   3.515 -0.2461  0.2843  0.2521
   16CHTO   C60 6568   6.138   4.986   3.414 -1.0363  0.4202  0.5179
   16CHTO  H117 6569   6.073   4.979   3.327 -1.2192 -0.6856  0.7286
   16CHTO   C62 6570   6.264   5.057   3.353 -0.2455  0.0911  0.6572
   16CHTO  H119 6571   6.240   5.161   3.322  5.1007  1.2968  0.0054
   16CHTO   O43 6572   6.358   5.079   3.461  0.4965  0.5388 -0.5139
   16CHTO  H101 6573   6.319   5.132   3.527 -0.2985  0.7808 -1.1822
   16CHTO   C66 6574   6.323   4.976   3.227 -0.1804  0.5795 -0.4604
   16CHTO  H123 6575   6.242   4.968   3.153 -0.3308  2.6441 -0.5476
   16CHTO   N12 6576   6.439   5.038   3.160  0.6181  0.3531 -0.5667
   16CHTO  H110 6577   6.433   5.020   3.054 -0.3868 -1.7082 -0.1666
   16CHTO  H111 6578   6.525   4.994   3.207 -1.4002 -2.2495  0.8353
   16CHTO   C69 6579   6.348   4.834   3.274  0.4568 -0.3919 -0.2395
   16CHTO  H126 6580   6.420   4.847   3.358 -0.6270  1.6448  0.4042
   16CHTO   O41 6581   6.214   4.759   3.353 -0.1838 -0.0142  0.3028
   16CHTO   C64 6582   6.158   4.841   3.460 -0.2482  1.0509 -0.4885
   16CHTO  H121 6583   6.217   4.842   3.554  0.2536  1.2109 -0.8024
   16CHTO   C71 6584   6.020   4.778   3.492  0.3711 -0.0100 -0.4711
   16CHTO   O47 6585   6.035   4.668   3.578  0.2354  0.9329  0.1740
   16CHTO  H104 6586   5.955   4.623   3.596  1.6600 -1.2615  1.1786
   16CHTO   O34 6587   6.408   4.737   3.142  0.4240 -0.5412  0.3328
   16CHTO   C49 6588   6.517   4.619   3.163  0.0711 -0.6528 -0.3003
   16CHTO   H91 6589   6.605   4.644   3.105 -0.3234 -0.2114 -0.7182
   16CHTO   C47 6590   6.464   4.489   3.102  0.5312  0.3801 -0.0251
   16CHTO   H89 6591   6.548   4.417   3.111 -0.4229 -0.8465 -0.6559
   16CHTO   O33 6592   6.435   4.515   2.968  0.0817 -0.9840  0.3212
   16CHTO   H70 6593   6.474   4.447   2.916  0.0274 -1.3951  0.8215
   16CHTO   C45 6594   6.347   4.437   3.187  0.6213 -0.1156 -0.4711
   16CHTO   H87 6595   6.269   4.514   3.176 -0.5490 -1.3010 -0.5190
   16CHTO    N8 6596   6.292   4.314   3.129  0.2014  0.0759 -0.1231
   16CHTO   H75 6597   6.364   4.242   3.094  2.7853  2.3686  0.3553
   16CHTO   H76 6598   6.244   4.339   3.035  0.5550 -0.4191 -0.4386
   16CHTO   C43 6599   6.395   4.409   3.345 -0.0866  0.0032  0.0101
   16CHTO   H85 6600   6.304   4.393   3.404  0.8960  0.9424  1.8569
   16CHTO   O29 6601   6.462   4.523   3.394 -0.0854 -1.0897 -0.0950
   16CHTO   C50 6602   6.556   4.596   3.313  0.0559 -0.4000  0.2453
   16CHTO   H92 6603   6.581   4.697   3.349  1.5980 -0.6976  0.0649
   16CHTO   C54 6604   6.702   4.536   3.324  0.1306  0.0506 -0.9967
   16CHTO   O36 6605   6.764   4.601   3.440  0.4303 -0.4358  0.2311
   16CHTO   H72 6606   6.858   4.593   3.435  0.5297  0.7085  0.1759
   16CHTO   O27 6607   6.477   4.298   3.370  0.2745  0.3165  0.0472
   16CHTO   C37 6608   6.528   4.242   3.490  0.5325  0.5469 -0.2614
   16CHTO   H79 6609   6.594   4.320   3.529  0.2169  1.2539 -1.1272
   16CHTO   C38 6610   6.415   4.212   3.602 -0.0212  0.4724 -0.2320
   16CHTO   H80 6611   6.331   4.167   3.547 -1.8273  1.9347  1.2842
   16CHTO   O31 6612   6.369   4.334   3.662 -0.6766 -0.4931  0.0393
   16CHTO   H68 6613   6.440   4.368   3.713  0.3353 -2.3832 -0.0564
   16CHTO   C39 6614   6.456   4.114   3.726 -0.2208 -0.6729  0.5975
   16CHTO   H81 6615   6.508   4.181   3.795 -1.9396 -0.2872  1.5569
   16CHTO    N7 6616   6.338   4.072   3.809 -0.3596  0.3951  0.8176
   16CHTO   H73 6617   6.280   4.159   3.836  1.7866  1.2725  2.7027
   16CHTO   H74 6618   6.383   4.033   3.899  1.1769 -0.2625 -0.2002
   16CHTO   C40 6619   6.539   3.997   3.676  0.3979 -0.0639  0.0846
   16CHTO   H82 6620   6.482   3.914   3.634 -0.0248  0.0307  0.4522
   16CHTO   O26 6621   6.641   4.042   3.581  0.1983 -0.0988 -0.0950
   16CHTO   C41 6622   6.601   4.113   3.458 -0.4002  0.1024 -0.3124
   16CHTO   H83 6623   6.535   4.051   3.396  0.1689 -1.4830  0.6313
   16CHTO   C52 6624   6.713   4.160   3.363 -0.6747 -0.2463 -0.1893
   16CHTO   O35 6625   6.854   4.194   3.429 -0.7358 -0.5123  0.0414
   16CHTO   H71 6626   6.912   4.221   3.360  0.4941 -1.3826  0.7061
   16CHTO   O28 6627   6.637   3.963   3.776 -0.3001 -0.7004 -0.4511
   16CHTO   C42 6628   6.658   3.831   3.834  0.2329 -0.0805 -0.0721
   16CHTO   H84 6629   6.751   3.849   3.887 -0.1491  1.6138  0.0580
   16CHTO   C44 6630   6.686   3.710   3.740  0.2009  0.5171 -0.2244
   16CHTO   H86 6631   6.605   3.710   3.667  0.0940 -0.5074 -0.1153
   16CHTO   O32 6632   6.803   3.739   3.659  0.1342  0.2590  0.3813
   16CHTO   H69 6633   6.820   3.675   3.594 -0.2829  1.5959 -1.0697
   16CHTO   C48 6634   6.689   3.564   3.811  0.4880 -0.1289 -0.0906
   16CHTO   H90 6635   6.785   3.546   3.857  1.4159  2.2967 -0.9722
   16CHTO    N9 6636   6.691   3.453   3.704 -0.1337  0.0727 -0.1019
   16CHTO   H77 6637   6.600   3.395   3.699 -0.0589 -0.1850  1.3520
   16CHTO   H78 6638   6.711   3.492   3.605  1.6089  2.0059  0.9713
   16CHTO   C51 6639   6.570   3.558   3.910  0.0136  0.3597  0.0446
   16CHTO   H93 6640   6.475   3.565   3.857  1.4965  0.2519 -2.7293
   16CHTO   O30 6641   6.595   3.670   3.999  0.0086 -0.2931  0.0574
   16CHTO   C46 6642   6.558   3.795   3.942 -0.0507 -0.4899  0.0922
   16CHTO   H88 6643   6.460   3.785   3.894 -1.7000 -0.9807  3.4059
   16CHTO   C53 6644   6.545   3.901   4.054  0.6286 -0.3930 -0.3046
   16CHTO   O72 6645   6.654   3.902   4.148 -0.1529  0.5889  0.1791
   16CHTO  H199 6646   6.628   3.961   4.215 -0.1890 -1.4729  2.0145
   16CHTO   O22 6647   6.593   3.438   3.988  0.3402  0.1560 -0.4535
   16CHTO   C31 6648   6.497   3.404   4.097  0.2684 -0.1358 -0.2972
   16CHTO   H59 6649   6.536   3.312   4.146  0.4376  0.7410  1.2431
   16CHTO   C29 6650   6.484   3.512   4.210  0.2309  0.1615 -0.3677
   16CHTO   H57 6651   6.446   3.598   4.155  0.8391 -1.0983 -2.8275
   16CHTO   O21 6652   6.615   3.545   4.247 -0.2101  0.1354 -0.1269
   16CHTO   H37 6653   6.671   3.471   4.264 -2.3261 -1.3655  0.4995
   16CHTO   C27 6654   6.382   3.465   4.327  0.3795  0.2603  0.2732
   16CHTO   H55 6655   6.429   3.383   4.382 -1.2546 -0.6113  0.3823
   16CHTO    N5 6656   6.354   3.579   4.417  0.1764  0.4789  0.2507
   16CHTO   H43 6657   6.448   3.619   4.454 -0.5859  2.2583  0.3373
   16CHTO   H44 6658   6.285   3.551   4.495 -0.3539  1.1668  0.0385
   16CHTO   C25 6659   6.252   3.431   4.251  0.1836  0.6006 -0.7187
   16CHTO   H53 6660   6.219   3.520   4.196  3.0197  1.0418 -1.7692
   16CHTO   O17 6661   6.278   3.329   4.154 -0.4184  0.3077  0.6388
   16CHTO   C32 6662   6.362   3.362   4.041 -0.0237 -0.5416  0.0912
   16CHTO   H60 6663   6.322   3.451   3.992  1.3507 -0.5391 -1.0466
   16CHTO   C36 6664   6.368   3.237   3.950 -0.1434 -0.5500 -0.4976
   16CHTO   O25 6665   6.416   3.264   3.818 -0.1387  0.5033  0.1406
   16CHTO   H40 6666   6.426   3.190   3.761 -1.0987  0.1655  0.4065
   16CHTO   O15 6667   6.148   3.352   4.346  0.4572 -0.0423  0.2826
   16CHTO   C19 6668   6.038   3.394   4.437 -0.0762  0.3671 -0.5125
   16CHTO   H47 6669   6.089   3.455   4.513  0.6729  0.1544 -0.8471
   16CHTO   C20 6670   5.921   3.482   4.377  0.3073 -0.2506 -0.0010
   16CHTO   H48 6671   5.878   3.441   4.285  1.4883  1.4506 -1.3340
   16CHTO   O19 6672   5.974   3.610   4.333 -0.6971  0.1910  0.7053
   16CHTO   H35 6673   5.961   3.670   4.403 -1.1940 -0.2181  0.9648
   16CHTO   C21 6674   5.814   3.513   4.487 -0.6248  0.0028 -0.0145
   16CHTO   H49 6675   5.862   3.579   4.559  1.7862 -1.8772  0.1778
   16CHTO    N4 6676   5.696   3.586   4.439  0.3628 -0.0376  0.1021
   16CHTO   H41 6677   5.640   3.521   4.373 -0.6383 -0.6951  1.6006
   16CHTO   H42 6678   5.728   3.669   4.378 -0.6818  0.6554  0.4851
   16CHTO   C22 6679   5.773   3.386   4.568  0.1787 -0.7420 -0.5568
   16CHTO   H50 6680   5.720   3.324   4.496  1.2164 -0.5638 -1.4963
   16CHTO   O14 6681   5.894   3.316   4.615 -0.5308 -0.2810 -0.3201
   16CHTO   C23 6682   5.982   3.271   4.506 -0.3143  0.1553 -0.6163
   16CHTO   H51 6683   5.917   3.212   4.440 -0.5076 -1.2852  0.8303
   16CHTO   C34 6684   6.092   3.181   4.569 -0.0766 -0.0285 -0.2620
   16CHTO   O23 6685   6.058   3.040   4.577  0.2366 -0.3970 -0.0322
   16CHTO   H38 6686   5.969   3.029   4.605 -0.1906 -0.5707 -1.4264
   16CHTO   O16 6687   5.696   3.409   4.686  0.8587  0.0146 -0.5981
   16CHTO   C24 6688   5.585   3.298   4.731  0.1727  0.7459 -0.1373
   16CHTO   H52 6689   5.582   3.216   4.659  1.3057  0.2650  0.3584
   16CHTO   C26 6690   5.450   3.363   4.744 -0.0901 -0.3266 -0.5784
   16CHTO   H54 6691   5.467   3.455   4.805  2.4753  0.1346 -1.9046
   16CHTO   O20 6692   5.407   3.401   4.611 -0.0412  0.3797 -0.3251
   16CHTO   H36 6693   5.375   3.489   4.605 -2.6664 -0.6044 -1.6888
   16CHTO   C30 6694   5.348   3.271   4.812  0.3030  0.2860 -0.6844
   16CHTO   H58 6695   5.340   3.186   4.743 -2.1039  0.0917 -0.2213
   16CHTO    N6 6696   5.210   3.324   4.812 -0.0189  0.2240  0.6036
   16CHTO   H45 6697   5.195   3.352   4.708  2.6159 -2.5606 -0.5733
   16CHTO   H46 6698   5.191   3.409   4.876  3.3844  1.3328  0.2550
   16CHTO   C33 6699   5.399   3.216   4.950  0.2104  0.3477 -0.1697
   16CHTO   H61 6700   5.424   3.302   5.015 -2.0546  1.9475 -1.3478
   16CHTO   O18 6701   5.520   3.148   4.918  0.3507  0.2584  0.5210
   16CHTO   C28 6702   5.629   3.233   4.865 -0.5235 -0.1620  0.0295
   16CHTO   H56 6703   5.648   3.307   4.943 -0.8191 -0.8414  0.7576
   16CHTO   C35 6704   5.743   3.131   4.838  0.1266  0.0717 -0.6728
   16CHTO   O24 6705   5.805   3.086   4.957 -0.1263 -0.0268 -0.6120
   16CHTO   H39 6706   5.868   3.150   4.984 -1.3288  0.9324 -0.0448
   16CHTO    O9 6707   5.304   3.134   5.024  0.1850 -0.0253  0.0812
   16CHTO   C13 6708   5.341   3.101   5.198 -0.6186 -0.2484 -0.0766
   16CHTO   H26 6709   5.249   3.104   5.259  0.2541  2.1152  1.2168
   16CHTO   C11 6710   5.449   3.203   5.253  0.0333 -0.1071  0.3691
   16CHTO   H24 6711   5.410   3.304   5.235 -0.7137 -0.3883  0.3815
   16CHTO    O8 6712   5.574   3.200   5.189 -0.1801  0.0684  0.6121
   16CHTO    H3 6713   5.568   3.190   5.096 -0.9321 -1.4950  0.8108
   16CHTO    C9 6714   5.448   3.175   5.402  0.2670  0.5497 -0.4929
   16CHTO   H22 6715   5.342   3.161   5.429  0.5608  0.0372  0.3993
   16CHTO    N2 6716   5.492   3.290   5.487  0.4619  0.8240  0.6425
   16CHTO   H10 6717   5.423   3.369   5.512 -0.2351  1.0470 -1.8770
   16CHTO   H11 6718   5.589   3.321   5.454  0.4943  1.2398  1.1099
   16CHTO    C7 6719   5.523   3.028   5.423  0.9150  0.2778 -1.1293
   16CHTO   H20 6720   5.501   3.009   5.530  0.2716 -2.8905 -1.7739
   16CHTO    O4 6721   5.448   2.927   5.352 -0.2698  0.3979 -0.4780
   16CHTO   C14 6722   5.383   2.947   5.225  0.4536 -0.4886 -0.8819
   16CHTO   H27 6723   5.292   2.885   5.218 -0.6216  0.9478  0.1140
   16CHTO   C18 6724   5.487   2.889   5.126 -0.0704  0.4073 -0.1048
   16CHTO   O13 6725   5.437   2.886   4.991  0.1108 -0.1935 -0.4817
   16CHTO    H7 6726   5.369   2.821   4.980  0.7090 -0.6854 -1.3610
   16CHTO    O2 6727   5.688   3.020   5.376 -0.2829  0.3427  0.1623
   16CHTO    C1 6728   5.780   2.953   5.464 -0.2194  0.3357  0.5644
   16CHTO   H14 6729   5.737   2.857   5.499  1.8597 -0.5548  0.7044
   16CHTO    C2 6730   5.809   3.035   5.588  0.1132  0.6686 -0.6941
   16CHTO   H15 6731   5.830   3.135   5.548  0.7889  1.4134  1.4945
   16CHTO    O6 6732   5.691   3.049   5.671 -0.1996 -0.9061  0.3330
   16CHTO    H1 6733   5.715   3.066   5.761 -0.3583 -3.5780  0.9420
   16CHTO    C3 6734   5.938   2.982   5.670  0.3105 -0.4516  0.1364
   16CHTO   H16 6735   5.917   2.892   5.730  0.9232 -0.2220  0.6976
   16CHTO    N1 6736   5.976   3.103   5.758  0.4341  0.0439  0.4600
   16CHTO    H8 6737   5.902   3.107   5.837 -0.3022 -0.0365 -0.2099
   16CHTO    H9 6738   5.972   3.192   5.698 -0.1310 -0.5757 -0.4455
   16CHTO    C4 6739   6.053   2.945   5.575 -1.0540  0.6142  0.2914
   16CHTO   H17 6740   6.100   3.032   5.530 -2.0830  0.8469 -0.3397
   16CHTO    O1 6741   6.007   2.855   5.481  0.1792  0.5124  0.0715
   16CHTO    C5 6742   5.910   2.919   5.393  0.1723 -0.6736  0.8562
   16CHTO   H18 6743   5.953   3.013   5.357 -1.5255  0.2988  1.3021
   16CHTO   C16 6744   5.870   2.828   5.276 -0.6472 -0.0166  0.0946
   16CHTO   O11 6745   5.821   2.709   5.328  0.3147 -0.2365 -0.3638
   16CHTO    H5 6746   5.744   2.678   5.284  1.8046  0.0902 -3.3396
   16CHTO    O3 6747   6.163   2.874   5.640  0.5073  0.1434 -0.2455
   16CHTO    C6 6748   6.240   2.769   5.565 -1.1141  0.1198 -0.1224
   16CHTO   H19 6749   6.207   2.761   5.462  3.6487 -1.5217 -1.6170
   16CHTO    C8 6750   6.389   2.808   5.564 -0.2089  0.5575 -0.5638
   16CHTO   H21 6751   6.413   2.832   5.667 -1.3101 -2.1488  0.3569
   16CHTO    O7 6752   6.405   2.920   5.480  0.3174 -0.4106 -0.5792
   16CHTO    H2 6753   6.420   2.995   5.534  0.9725 -1.7474  1.1366
   16CHTO   C12 6754   6.476   2.685   5.504  0.1152 -0.5174 -0.0146
   16CHTO   H25 6755   6.442   2.668   5.400  1.3578  1.2462 -0.7089
   16CHTO    N3 6756   6.618   2.720   5.499 -0.5344  0.2190  0.3145
   16CHTO   H12 6757   6.670   2.679   5.413 -1.7160 -0.9843  0.1510
   16CHTO   H13 6758   6.671   2.668   5.578 -1.9860  0.4064  1.4154
   16CHTO   C15 6759   6.444   2.559   5.587  0.6790 -0.9253  0.2396
   16CHTO   H28 6760   6.467   2.576   5.692 -1.6749 -2.3482  1.0445
   16CHTO   O10 6761   6.525   2.426   5.536 -0.6962  0.0649 -0.5946
   16CHTO    H4 6762   6.585   2.405   5.606 -1.3259  1.2970  0.3491
   16CHTO    O5 6763   6.303   2.529   5.588  0.3034 -0.5610 -0.0015
   16CHTO   C10 6764   6.213   2.631   5.637 -0.1326 -0.1963  0.2551
   16CHTO   H23 6765   6.233   2.647   5.743  1.6079  1.5622 -0.3025
   16CHTO   C17 6766   6.072   2.583   5.612  0.1194  0.1755 -0.4499
   16CHTO   O12 6767   6.061   2.453   5.667  0.2999 -0.4645  0.2624
   16CHTO    H6 6768   5.970   2.432   5.664 -0.2967  1.8559  0.6534
   17CHTO  H203 6769   5.628   4.771   5.979  0.8354 -0.2269  0.4008
   17CHTO   O82 6770   5.656   4.774   6.068  0.3660 -1.0172  0.5714
   17CHTO  C123 6771   5.689   4.907   6.107  0.4197  0.3911 -0.5864
   17CHTO  H227 6772   5.621   4.979   6.060  2.6459  1.0218 -2.9025
   17CHTO   O77 6773   5.669   4.896   6.251  0.7127 -0.0706  0.0026
   17CHTO  C118 6774   5.701   5.014   6.324 -0.3134 -0.4840  0.1295
   17CHTO  H222 6775   5.643   5.098   6.285  0.8522  0.8752  1.2815
   17CHTO  C125 6776   5.661   4.984   6.475  0.2975  0.6685  0.0407
   17CHTO   O84 6777   5.662   4.852   6.528  0.1996 -0.2306 -0.0874
   17CHTO  H205 6778   5.590   4.833   6.585 -1.7456 -1.8406 -2.9533
   17CHTO  C114 6779   5.848   5.052   6.310  0.1944 -0.3533 -0.0941
   17CHTO  H218 6780   5.904   4.967   6.350 -0.5650 -1.0357 -0.4545
   17CHTO  C116 6781   5.883   5.076   6.160  0.3529 -0.8975  0.3908
   17CHTO  H220 6782   5.819   5.155   6.116  0.7799 -0.4587  0.5457
   17CHTO   O79 6783   6.022   5.115   6.159  0.1404  0.2080  0.3730
   17CHTO  H201 6784   6.038   5.145   6.071 -1.8822  2.4615  0.7373
   17CHTO  C120 6785   5.840   4.947   6.078 -0.1536  0.1000 -0.0373
   17CHTO  H224 6786   5.901   4.862   6.116 -0.4333  0.4253  1.1597
   17CHTO   N21 6787   5.857   4.962   5.940 -0.4458  0.7516  0.2170
   17CHTO  H211 6788   5.869   4.868   5.889 -1.0637  0.3042  0.9002
   17CHTO  H212 6789   5.771   5.019   5.909 -0.8204  0.2281  0.2872
   17CHTO   O75 6790   5.868   5.163   6.397 -0.2958  0.0873  0.2948
   17CHTO  C112 6791   5.841   5.342   6.340 -0.2557  0.5606 -0.3366
   17CHTO  H216 6792   5.733   5.351   6.321 -0.1938 -0.5320 -1.2338
   17CHTO   O73 6793   5.918   5.369   6.218  0.2517  0.3751  0.0650
   17CHTO  C113 6794   5.895   5.503   6.170 -0.0370 -0.4296 -0.3673
   17CHTO  H217 6795   5.785   5.519   6.174  0.3223  1.6944  4.1205
   17CHTO  C124 6796   5.938   5.517   6.022 -0.3689 -0.0323 -0.0714
   17CHTO   O83 6797   6.073   5.490   6.023 -0.0947 -0.2293  0.0887
   17CHTO  H204 6798   6.084   5.488   5.930  0.5686  2.3842  0.0626
   17CHTO  C109 6799   5.954   5.611   6.272  0.4125  0.9914 -0.3349
   17CHTO  H213 6800   6.060   5.588   6.289  0.0907 -0.1712  0.1854
   17CHTO  C110 6801   5.874   5.589   6.408 -0.4151  0.2801 -0.2644
   17CHTO  H214 6802   5.769   5.613   6.397 -0.2162  1.0058 -0.6253
   17CHTO   O78 6803   5.929   5.679   6.509  0.1159  0.2586 -0.8333
   17CHTO  H200 6804   5.860   5.708   6.566  0.3174  1.0210 -0.9708
   17CHTO  C111 6805   5.879   5.442   6.459 -0.2953 -0.3625 -0.0142
   17CHTO  H215 6806   5.978   5.421   6.501 -0.6915  0.6000  1.4621
   17CHTO   N19 6807   5.784   5.415   6.574  0.3721  0.0422 -0.7283
   17CHTO  H207 6808   5.815   5.452   6.670 -3.5713 -0.8784  0.9792
   17CHTO  H208 6809   5.690   5.467   6.565  1.1850  1.5688 -0.5775
   17CHTO   O74 6810   5.936   5.742   6.229  0.1822 -0.0029 -0.0954
   17CHTO  C115 6811   6.057   5.848   6.274  0.7169  0.3340  0.2439
   17CHTO  H219 6812   6.130   5.800   6.340  0.2471 -0.5852  0.1084
   17CHTO   O76 6813   6.135   5.895   6.150  0.3073 -0.1462  0.0809
   17CHTO  C122 6814   6.053   5.949   6.049 -0.0465  0.2764  0.0871
   17CHTO  H226 6815   5.990   5.874   6.001 -0.8045 -1.0805  3.0900
   17CHTO  C126 6816   6.151   6.002   5.937 -0.5470 -0.4701  0.0997
   17CHTO   O85 6817   6.077   6.047   5.823 -0.1692 -0.3873  0.0744
   17CHTO  H206 6818   6.035   6.130   5.839 -0.8476 -0.4284 -1.3498
   17CHTO  C121 6819   5.967   6.065   6.105  0.9204  0.0964 -0.1003
   17CHTO  H225 6820   5.974   6.155   6.041  1.8242 -0.7472 -1.2079
   17CHTO   O81 6821   5.826   6.033   6.093 -0.1693  0.7109  0.1845
   17CHTO  H202 6822   5.772   6.104   6.064 -0.1148  0.5391 -0.3463
   17CHTO  C119 6823   5.997   6.103   6.252 -0.1452 -0.2050  0.0525
   17CHTO  H223 6824   6.101   6.133   6.263 -0.6999  0.8343  2.6880
   17CHTO  C117 6825   5.993   5.969   6.347 -0.6432  0.0992  0.2316
   17CHTO  H221 6826   5.892   5.935   6.371 -0.0777 -1.0412  0.9976
   17CHTO   N20 6827   6.059   5.994   6.487 -0.3610  0.4261  0.3885
   17CHTO  H209 6828   5.977   6.004   6.557 -0.2598 -0.1151  0.5900
   17CHTO  H210 6829   6.119   5.906   6.508  1.3784  1.6849  0.8825
   17CHTO   O80 6830   5.923   6.225   6.305  0.0086 -0.4252  0.1864
   17CHTO  C103 6831   6.018   6.341   6.362 -0.3217  0.4396  0.5021
   17CHTO  H190 6832   6.095   6.318   6.435 -1.0044 -2.1498  0.4467
   17CHTO  C101 6833   6.090   6.432   6.253  0.0781 -0.2219 -0.0814
   17CHTO  H188 6834   6.023   6.452   6.170 -0.6630 -2.4856 -0.0617
   17CHTO   O68 6835   6.225   6.350   6.192 -0.0291  0.3997  0.2093
   17CHTO  H168 6836   6.206   6.351   6.100 -0.1235 -0.9294  0.2145
   17CHTO   C99 6837   6.140   6.566   6.312 -0.6833  0.3274 -0.0106
   17CHTO  H186 6838   6.224   6.555   6.385 -1.0946  0.9481  0.5541
   17CHTO   N17 6839   6.183   6.660   6.203 -0.3021 -0.4090  0.0706
   17CHTO  H174 6840   6.213   6.619   6.108 -0.3844  2.2804 -1.1765
   17CHTO  H175 6841   6.126   6.750   6.186  0.2764  0.2391  1.4666
   17CHTO   C97 6842   6.023   6.630   6.397  0.0977  0.4827  0.4996
   17CHTO  H184 6843   5.944   6.670   6.332 -1.2259  0.0652  1.8202
   17CHTO   O64 6844   5.973   6.539   6.494  0.4942  0.1933  0.2519
   17CHTO  C104 6845   5.908   6.426   6.434  0.4775 -1.2298 -0.5375
   17CHTO  H191 6846   5.832   6.455   6.362  0.1409 -1.0222 -0.1010
   17CHTO  C108 6847   5.835   6.354   6.551 -0.4735  0.0444  0.2236
   17CHTO   O71 6848   5.750   6.432   6.636  0.2440  1.0056  0.0765
   17CHTO  H171 6849   5.756   6.395   6.722 -0.0282  0.3073 -0.2016
   17CHTO   O62 6850   6.082   6.738   6.476 -0.4207  0.8579 -0.3303
   17CHTO   C91 6851   5.981   6.839   6.503  0.0736  0.3387  0.0214
   17CHTO  H178 6852   5.878   6.822   6.473  0.0103  2.3712 -0.9897
   17CHTO   C92 6853   6.012   6.970   6.425 -0.2834 -0.9083  0.2766
   17CHTO  H179 6854   6.036   6.945   6.321  0.5717  0.0022  0.2503
   17CHTO   O66 6855   5.895   7.057   6.415 -0.3162 -0.6625 -0.3447
   17CHTO  H166 6856   5.883   7.091   6.329 -2.1717  0.3124  0.2523
   17CHTO   C93 6857   6.133   7.051   6.489 -0.1788  0.2988 -0.7423
   17CHTO  H180 6858   6.131   7.151   6.443  0.8418  0.8518  0.3868
   17CHTO   N16 6859   6.267   6.992   6.459 -0.5573 -1.0728 -0.1594
   17CHTO  H172 6860   6.256   6.926   6.374 -0.0677  0.2862 -1.2954
   17CHTO  H173 6861   6.319   6.946   6.542 -1.4655 -0.5003  0.7304
   17CHTO   C94 6862   6.114   7.062   6.644  0.2115  0.2230 -0.2014
   17CHTO  H181 6863   6.189   7.014   6.706 -0.7279 -0.9907  0.0091
   17CHTO   O61 6864   5.989   7.009   6.699  0.1417 -0.5446 -0.0499
   17CHTO   C95 6865   5.956   6.875   6.654 -0.8231  0.4876 -0.3906
   17CHTO  H182 6866   6.015   6.810   6.718 -0.7217  0.3305 -0.6463
   17CHTO  C106 6867   5.805   6.858   6.694 -0.5442 -0.2851  0.1501
   17CHTO   O69 6868   5.774   6.714   6.676 -0.7566  0.4039  0.2099
   17CHTO  H169 6869   5.797   6.664   6.752 -2.3947 -2.7011 -1.2363
   17CHTO   O63 6870   6.125   7.224   6.682  0.2005  0.0124 -0.3568
   17CHTO   C96 6871   6.020   7.292   6.771 -0.1543 -0.0639  0.8206
   17CHTO  H183 6872   5.943   7.216   6.785  0.3226 -0.4976  1.1427
   17CHTO   C98 6873   5.960   7.421   6.722  0.6015  0.2271  0.1783
   17CHTO  H185 6874   6.044   7.488   6.697  2.0242 -1.6292 -0.0789
   17CHTO   O67 6875   5.899   7.382   6.595  0.3956 -0.2455 -0.1987
   17CHTO  H167 6876   5.965   7.369   6.529  0.8154  1.4856 -0.1557
   17CHTO  C102 6877   5.857   7.489   6.826  0.3896  0.1176  0.0663
   17CHTO  H189 6878   5.765   7.429   6.823 -0.2914  0.8365  3.6139
   17CHTO   N18 6879   5.820   7.621   6.778 -0.3742  0.1309  0.1415
   17CHTO  H176 6880   5.913   7.675   6.763 -0.8851  1.2080  0.7927
   17CHTO  H177 6881   5.757   7.632   6.691  0.2475  0.6956 -0.2410
   17CHTO  C105 6882   5.910   7.476   6.975  0.2420  0.2155  0.3911
   17CHTO  H192 6883   5.981   7.555   7.000  0.4957  0.6347 -1.5644
   17CHTO   O65 6884   5.975   7.357   7.008 -0.3054 -0.0681  0.8562
   17CHTO  C100 6885   6.084   7.325   6.915 -0.3813 -0.3369  0.2019
   17CHTO  H187 6886   6.156   7.408   6.924  0.9229 -1.5001  0.6428
   17CHTO  C107 6887   6.155   7.207   6.985  0.0473  0.0512  0.2225
   17CHTO   O70 6888   6.081   7.089   7.018 -0.4679  0.2546  0.7491
   17CHTO  H170 6889   6.144   7.019   7.025  0.5728  1.0088 -0.7737
   17CHTO   O57 6890   5.772   7.493   7.058 -0.8706  0.3713 -0.2676
   17CHTO   C85 6891   5.739   7.608   7.140  0.3537  0.5547 -0.2593
   17CHTO  H157 6892   5.782   7.695   7.087  1.7435  0.9642  1.4611
   17CHTO   C83 6893   5.821   7.610   7.276  0.5220  0.1010  0.0839
   17CHTO  H155 6894   5.927   7.611   7.249  0.3852 -1.8738 -0.6038
   17CHTO   O56 6895   5.809   7.480   7.340  0.3642 -0.6180  0.0541
   17CHTO  H135 6896   5.860   7.413   7.298  1.7824  1.2089 -1.2516
   17CHTO   C81 6897   5.781   7.733   7.360  0.2189  0.5700  0.0982
   17CHTO  H153 6898   5.820   7.817   7.303 -0.3839 -0.4719 -1.8718
   17CHTO   N14 6899   5.856   7.732   7.493 -0.1492  0.3661 -0.1064
   17CHTO  H141 6900   5.951   7.779   7.478  1.1404 -2.0862  0.1638
   17CHTO  H142 6901   5.803   7.771   7.578  1.1967  3.2731 -0.5470
   17CHTO   C79 6902   5.624   7.755   7.377 -1.2282  0.7848 -0.5844
   17CHTO  H151 6903   5.610   7.859   7.406  0.2909  1.1578 -1.1432
   17CHTO   O52 6904   5.552   7.740   7.252  0.3415 -0.1351  0.2146
   17CHTO   C86 6905   5.588   7.624   7.163 -0.2074  0.2307 -0.1582
   17CHTO  H158 6906   5.555   7.532   7.215  0.3547  1.0240  1.6277
   17CHTO   C90 6907   5.505   7.623   7.033 -0.4800  0.4078 -0.6784
   17CHTO   O60 6908   5.368   7.588   7.066 -0.3312  0.5110  0.1472
   17CHTO  H138 6909   5.301   7.605   7.003 -0.6603  2.7875  1.0606
   17CHTO   O50 6910   5.571   7.679   7.494  0.0075 -0.3270  0.0238
   17CHTO   C73 6911   5.481   7.658   7.596  1.3186 -0.5127 -0.4159
   17CHTO  H145 6912   5.479   7.747   7.661 -1.7658 -1.3057  0.6864
   17CHTO   C74 6913   5.537   7.537   7.678 -0.4448 -0.5399 -0.4285
   17CHTO  H146 6914   5.636   7.560   7.719 -2.2712  4.3819  1.5167
   17CHTO   O54 6915   5.450   7.524   7.787 -0.6824  0.3745  0.1725
   17CHTO  H133 6916   5.384   7.461   7.767  0.9455 -2.0022  1.7988
   17CHTO   C75 6917   5.538   7.412   7.581 -0.7898 -0.0559 -0.2306
   17CHTO  H147 6918   5.604   7.436   7.496  1.0916 -0.7145  1.0064
   17CHTO   N13 6919   5.589   7.290   7.647 -0.2515 -0.1075  0.7750
   17CHTO  H139 6920   5.593   7.204   7.582 -0.4948  0.3486  0.1480
   17CHTO  H140 6921   5.695   7.296   7.667  0.2104 -1.3512 -1.0998
   17CHTO   C76 6922   5.388   7.386   7.517 -0.0394 -0.2384 -0.0289
   17CHTO  H148 6923   5.330   7.359   7.605  2.6798 -1.6032  1.4231
   17CHTO   O49 6924   5.332   7.512   7.461 -0.1759 -0.0990 -0.6764
   17CHTO   C77 6925   5.332   7.628   7.539 -0.1492  0.3952 -0.2784
   17CHTO  H149 6926   5.263   7.606   7.619  0.1659  0.7364  0.0922
   17CHTO   C88 6927   5.266   7.747   7.467  0.9440  0.5602 -0.0437
   17CHTO   O58 6928   5.275   7.865   7.548 -0.1164  0.3203 -0.1976
   17CHTO  H136 6929   5.204   7.921   7.523 -1.6529 -0.7388  1.6280
   17CHTO   O51 6930   5.385   7.283   7.416 -0.7454 -0.3861 -0.1170
   17CHTO   C78 6931   5.245   7.217   7.390 -0.7858  0.0827  0.0347
   17CHTO  H150 6932   5.171   7.298   7.375  0.6165  1.1985 -0.9973
   17CHTO   C80 6933   5.197   7.124   7.502 -0.1897 -0.1949 -0.1171
   17CHTO  H152 6934   5.278   7.049   7.517  2.5189  2.4833 -0.9407
   17CHTO   O55 6935   5.182   7.193   7.626  0.0849  0.0656 -0.0141
   17CHTO  H134 6936   5.142   7.134   7.688 -1.9604  2.2953  0.8820
   17CHTO   C84 6937   5.068   7.055   7.454 -0.2418 -0.4330 -0.2886
   17CHTO  H156 6938   4.993   7.133   7.443  0.9288  0.7684  0.1075
   17CHTO   N15 6939   5.004   6.965   7.559  0.2104 -0.1633 -0.3734
   17CHTO  H143 6940   5.069   6.967   7.644 -0.9057  2.9958  0.4659
   17CHTO  H144 6941   4.909   7.001   7.592  1.0130  1.9613 -0.3234
   17CHTO   C87 6942   5.092   6.978   7.324 -0.4243 -0.2295 -0.0295
   17CHTO  H159 6943   5.172   6.905   7.339  1.0314  0.8026 -2.5568
   17CHTO   O53 6944   5.132   7.078   7.221  0.5900 -0.7869  0.1415
   17CHTO   C82 6945   5.258   7.142   7.253 -0.3155  0.2462 -0.4085
   17CHTO  H154 6946   5.335   7.065   7.257  0.0095  0.4428 -2.2140
   17CHTO   C89 6947   5.294   7.234   7.136 -0.4409 -0.4746 -0.0073
   17CHTO   O59 6948   5.337   7.166   7.016  0.8619  0.6755 -0.2114
   17CHTO  H137 6949   5.395   7.098   7.043  1.0217  1.6800  2.0626
   17CHTO   O45 6950   4.942   6.897   7.271 -0.2689  1.2013 -0.0074
   17CHTO   C67 6951   4.972   6.778   7.204 -0.4395 -0.0381  0.2912
   17CHTO  H124 6952   5.024   6.706   7.268  2.4917  1.6758 -0.1202
   17CHTO   C65 6953   4.835   6.723   7.160  0.1487  0.0156 -0.3256
   17CHTO  H122 6954   4.768   6.733   7.246 -1.1661  0.4004 -1.3883
   17CHTO   O44 6955   4.843   6.582   7.130  0.6064  0.3059  0.4706
   17CHTO  H102 6956   4.806   6.516   7.185  0.2005 -0.4654 -0.7083
   17CHTO   C63 6957   4.776   6.807   7.042  0.6847  0.0984 -0.1353
   17CHTO  H120 6958   4.768   6.911   7.074  0.9431  0.2297 -0.4946
   17CHTO   N11 6959   4.632   6.771   7.009 -0.0710 -0.1691  0.1537
   17CHTO  H108 6960   4.585   6.829   6.932  0.1721 -0.4105 -0.1753
   17CHTO  H109 6961   4.617   6.666   6.994  2.7405 -0.3707 -1.7189
   17CHTO   C61 6962   4.874   6.806   6.918  0.1434 -0.6930 -0.3528
   17CHTO  H118 6963   4.830   6.883   6.852  2.7972  0.2496 -1.1122
   17CHTO   O40 6964   5.002   6.857   6.956  0.5940 -0.1694  0.8377
   17CHTO   C68 6965   5.065   6.799   7.078  0.3254 -0.0171  0.4040
   17CHTO  H125 6966   5.139   6.876   7.108 -1.3442  1.4470  0.7980
   17CHTO   C72 6967   5.145   6.662   7.042  1.0123 -0.1061  0.5120
   17CHTO   O48 6968   5.239   6.684   6.940  0.4712 -0.7347 -0.4051
   17CHTO  H105 6969   5.298   6.614   6.918  2.0593  1.0555 -2.0397
   17CHTO   O38 6970   4.891   6.675   6.853  0.0502 -0.2619 -0.6412
   17CHTO   C55 6971   4.918   6.665   6.715  0.3785 -0.1226  0.2428
   17CHTO  H112 6972   4.988   6.581   6.714  0.9922  0.3730  0.7734
   17CHTO   C56 6973   4.982   6.795   6.650 -0.9560 -0.1747  0.1728
   17CHTO  H113 6974   4.930   6.888   6.677 -1.6534 -0.1726 -1.1292
   17CHTO   O42 6975   5.113   6.818   6.700  0.3435  0.7548 -0.0571
   17CHTO  H100 6976   5.151   6.891   6.655  1.8683 -1.1574 -1.9625
   17CHTO   C57 6977   4.985   6.772   6.492 -0.1166 -0.0993 -0.5997
   17CHTO  H114 6978   5.045   6.681   6.482 -0.6806 -0.6372  0.7503
   17CHTO   N10 6979   5.040   6.889   6.424  0.1706  0.1382  0.6334
   17CHTO  H106 6980   5.118   6.925   6.489  2.2965  0.2927 -1.9176
   17CHTO  H107 6981   5.087   6.849   6.336  0.9994 -0.5923  1.4089
   17CHTO   C58 6982   4.840   6.733   6.448 -0.7458 -0.0917  0.3392
   17CHTO  H115 6983   4.769   6.810   6.485  0.6218  0.6909  1.3978
   17CHTO   O37 6984   4.809   6.609   6.500 -0.1060  0.0208  0.3719
   17CHTO   C59 6985   4.787   6.616   6.648  0.4924  0.6145  0.0101
   17CHTO  H116 6986   4.706   6.684   6.676 -1.2701 -2.1867  1.9915
   17CHTO   C70 6987   4.744   6.474   6.697 -0.6166 -0.0354  0.1607
   17CHTO   O46 6988   4.613   6.443   6.647  0.0745  0.8738  0.3909
   17CHTO  H103 6989   4.589   6.355   6.672  3.0255 -0.0872  0.0784
   17CHTO   O39 6990   4.834   6.707   6.288  0.5664 -0.1155  0.1948
   17CHTO   C60 6991   4.696   6.707   6.249 -0.8700  0.4019  0.1594
   17CHTO  H117 6992   4.630   6.718   6.335  0.1471  2.1154  0.7588
   17CHTO   C62 6993   4.665   6.824   6.151 -0.7309  0.7885 -0.2443
   17CHTO  H119 6994   4.689   6.912   6.213 -1.8885  1.0171 -0.1117
   17CHTO   O43 6995   4.759   6.820   6.046  0.1625  0.2384  0.3658
   17CHTO  H101 6996   4.837   6.870   6.062 -0.5982  1.8719 -0.8116
   17CHTO   C66 6997   4.512   6.816   6.100 -0.9117  0.0686  0.6709
   17CHTO  H123 6998   4.449   6.855   6.179 -2.9927 -2.7336  0.4791
   17CHTO   N12 6999   4.475   6.903   5.983 -0.6805 -0.1290 -0.7972
   17CHTO  H110 7000   4.544   6.896   5.900 -0.8548  0.9344 -1.0321
   17CHTO  H111 7001   4.462   7.007   6.007  0.4327 -0.2786  0.5325
   17CHTO   C69 7002   4.465   6.670   6.076 -0.7299 -0.0423  0.7760
   17CHTO  H126 7003   4.487   6.637   5.972 -2.1919 -0.2563  0.5262
   17CHTO   O41 7004   4.521   6.562   6.163  0.5999  0.1161  0.5286
   17CHTO   C64 7005   4.664   6.568   6.177  0.8764  0.2680 -0.0816
   17CHTO  H121 7006   4.718   6.558   6.081 -0.8170 -0.5922 -0.9842
   17CHTO   C71 7007   4.695   6.439   6.261  0.2951  0.1012 -0.7979
   17CHTO   O47 7008   4.602   6.424   6.377  0.6012  0.8885 -0.1582
   17CHTO  H104 7009   4.547   6.349   6.387  0.4076  1.0577  0.0702
   17CHTO   O34 7010   4.306   6.672   6.081 -0.0056  0.7835  0.1256
   17CHTO   C49 7011   4.158   6.728   6.091  0.0959  0.3992 -0.3200
   17CHTO   H91 7012   4.139   6.775   5.994  1.4566 -2.5540 -2.1052
   17CHTO   C47 7013   4.143   6.836   6.203 -0.1296 -0.0663  0.3472
   17CHTO   H89 7014   4.039   6.875   6.201  0.7127  2.2109 -0.1874
   17CHTO   O33 7015   4.226   6.952   6.187 -0.1133  0.0021 -0.0352
   17CHTO   H70 7016   4.314   6.931   6.164  0.1996  0.6171  0.5743
   17CHTO   C45 7017   4.174   6.767   6.344 -0.1489  0.9001  0.2701
   17CHTO   H87 7018   4.283   6.773   6.352 -0.0867 -1.0790  1.1041
   17CHTO    N8 7019   4.106   6.844   6.448  0.3221  0.1087 -0.7517
   17CHTO   H75 7020   4.161   6.809   6.535  3.9812  2.0550 -2.1461
   17CHTO   H76 7021   4.006   6.805   6.444 -0.7482  2.3554  2.4076
   17CHTO   C43 7022   4.143   6.607   6.343 -0.5087  0.4609 -0.1653
   17CHTO   H85 7023   4.241   6.578   6.306 -0.6014 -1.5281  1.0404
   17CHTO   O29 7024   4.030   6.577   6.248 -0.3030  0.2500 -0.0826
   17CHTO   C50 7025   4.044   6.622   6.111  0.2859 -0.5368  0.2901
   17CHTO   H92 7026   4.078   6.532   6.057  2.2656  0.4302 -0.1272
   17CHTO   C54 7027   3.910   6.652   6.051 -0.4168 -0.0112  0.4911
   17CHTO   O36 7028   3.824   6.739   6.132  0.0232  0.7221  0.4970
   17CHTO   H72 7029   3.754   6.767   6.077 -0.3500  1.0714  1.1426
   17CHTO   O27 7030   4.141   6.542   6.471 -0.4222 -0.0064 -0.2623
   17CHTO   C37 7031   4.231   6.443   6.523  0.3960 -0.2641 -0.1985
   17CHTO   H79 7032   4.327   6.432   6.470 -0.3890  0.7529 -1.8436
   17CHTO   C38 7033   4.261   6.478   6.674  0.3612 -0.5550  0.0926
   17CHTO   H80 7034   4.171   6.517   6.724  2.1059  1.3411  1.8409
   17CHTO   O31 7035   4.351   6.593   6.676 -0.4692  0.9099 -0.0798
   17CHTO   H68 7036   4.400   6.592   6.755 -1.4440 -0.3323  0.5220
   17CHTO   C39 7037   4.310   6.356   6.756 -0.0066  0.2945  0.1442
   17CHTO   H81 7038   4.411   6.351   6.717 -0.5584 -0.7324 -1.1788
   17CHTO    N7 7039   4.305   6.374   6.904 -0.5627 -0.7729  0.5170
   17CHTO   H73 7040   4.205   6.389   6.942 -1.4116 -0.0373 -1.8930
   17CHTO   H74 7041   4.357   6.464   6.934 -1.0539 -0.3846  0.2203
   17CHTO   C40 7042   4.230   6.224   6.722 -0.3359  0.7159  0.2533
   17CHTO   H82 7043   4.133   6.215   6.771 -0.5565 -2.9722 -0.6805
   17CHTO   O26 7044   4.219   6.206   6.574 -0.7910 -0.5775  0.0021
   17CHTO   C41 7045   4.148   6.311   6.519 -0.1657 -0.6057 -0.0014
   17CHTO   H83 7046   4.057   6.326   6.580  0.8765  1.3921  1.1195
   17CHTO   C52 7047   4.101   6.267   6.382 -0.8100 -0.0705  0.4077
   17CHTO   O35 7048   4.214   6.227   6.283 -0.3262 -0.2084  0.1335
   17CHTO   H71 7049   4.172   6.194   6.206  1.7684  0.3525 -1.2657
   17CHTO   O28 7050   4.307   6.106   6.761  0.2786 -0.5085 -0.3288
   17CHTO   C42 7051   4.451   6.076   6.748  0.1273  0.7913  0.6454
   17CHTO   H84 7052   4.447   5.968   6.764 -0.0849  0.4846 -1.3743
   17CHTO   C44 7053   4.543   6.138   6.853  0.6219  0.2595 -0.2507
   17CHTO   H86 7054   4.553   6.246   6.835  0.2294  0.1982 -0.8780
   17CHTO   O32 7055   4.484   6.120   6.981 -0.0975 -0.7994 -0.0957
   17CHTO   H69 7056   4.459   6.031   6.993 -2.0842 -0.0317  1.6991
   17CHTO   C48 7057   4.694   6.088   6.845  0.3531 -0.0899  0.4491
   17CHTO   H90 7058   4.703   5.981   6.864  0.3130 -0.5643 -2.0436
   17CHTO    N9 7059   4.779   6.154   6.955  0.2454  0.3724 -0.2409
   17CHTO   H77 7060   4.717   6.170   7.042  3.2790 -1.8281  2.4478
   17CHTO   H78 7061   4.811   6.247   6.910  1.5504 -0.0382 -0.1911
   17CHTO   C51 7062   4.750   6.115   6.700 -0.3586 -1.2431  0.4453
   17CHTO   H93 7063   4.746   6.223   6.687 -0.9928 -1.4663 -1.2725
   17CHTO   O30 7064   4.657   6.045   6.619  0.0463  0.4173 -0.4676
   17CHTO   C46 7065   4.513   6.093   6.606  0.3584  0.1531 -0.8176
   17CHTO   H88 7066   4.507   6.194   6.566  1.3020  0.4154 -0.3117
   17CHTO   C53 7067   4.452   5.998   6.505  0.0426 -0.2247  0.0276
   17CHTO   O72 7068   4.526   6.001   6.379  0.4988  0.0338  0.0371
   17CHTO  H199 7069   4.578   5.924   6.373 -1.2461 -1.2616  1.0649
   17CHTO   O22 7070   4.887   6.083   6.676 -0.0910  0.3178  0.0497
   17CHTO   C31 7071   4.967   6.097   6.554  0.0175 -0.4986 -0.3103
   17CHTO   H59 7072   5.061   6.042   6.575  0.0990  0.7817  2.9473
   17CHTO   C29 7073   4.908   6.046   6.418  0.0266  0.7519  0.0077
   17CHTO   H57 7074   4.807   6.087   6.406 -1.1921 -1.5916  1.8545
   17CHTO   O21 7075   4.889   5.907   6.454 -0.0030  0.0258 -0.4880
   17CHTO   H37 7076   4.832   5.863   6.394 -2.9208  4.1387 -1.0204
   17CHTO   C27 7077   4.986   6.066   6.283 -0.3164 -0.0773 -0.5940
   17CHTO   H55 7078   5.081   6.011   6.289  0.5164  1.3724 -0.2646
   17CHTO    N5 7079   4.906   6.029   6.161  0.3813  0.3046  0.3271
   17CHTO   H43 7080   4.808   6.074   6.156  0.0371 -0.6873 -2.2103
   17CHTO   H44 7081   4.916   5.923   6.148  1.2695  0.3224  0.7905
   17CHTO   C25 7082   5.025   6.218   6.282  0.3928  0.0743  0.2295
   17CHTO   H53 7083   4.941   6.289   6.285  0.4058  0.1137 -0.3333
   17CHTO   O17 7084   5.097   6.245   6.412  0.4327 -0.7748  0.2521
   17CHTO   C32 7085   5.023   6.244   6.538 -0.0773  0.2789  0.4714
   17CHTO   H60 7086   4.938   6.311   6.526 -0.4802  0.3238  3.2296
   17CHTO   C36 7087   5.119   6.294   6.655 -0.7700  0.2978  0.0787
   17CHTO   O25 7088   5.056   6.289   6.787 -0.9667  0.2773  0.4150
   17CHTO   H40 7089   4.966   6.308   6.768 -1.0818 -0.4065  0.2373
   17CHTO   O15 7090   5.121   6.253   6.167 -0.3043  0.6791 -0.0279
   17CHTO   C19 7091   5.157   6.387   6.120  0.1812  0.5703  0.3845
   17CHTO   H47 7092   5.248   6.360   6.064  0.7699  0.2580  1.4780
   17CHTO   C20 7093   5.051   6.451   6.024  0.0053  0.0519 -0.4829
   17CHTO   H48 7094   4.956   6.474   6.076 -0.0990  2.2845 -1.6010
   17CHTO   O19 7095   5.026   6.359   5.915 -0.3136  0.2075 -0.1457
   17CHTO   H35 7096   4.935   6.341   5.905  0.5921 -4.4713 -0.8754
   17CHTO   C21 7097   5.103   6.587   5.966 -0.0234  0.1820  0.0893
   17CHTO   H49 7098   5.196   6.560   5.916 -0.0535 -1.4404  0.8727
   17CHTO    N4 7099   5.005   6.652   5.869 -0.8483  0.1599 -0.3585
   17CHTO   H41 7100   5.052   6.735   5.819 -0.7384  0.4453  0.2158
   17CHTO   H42 7101   4.918   6.685   5.924 -0.1221 -0.2316  1.0703
   17CHTO   C22 7102   5.150   6.680   6.076  0.3679  0.5749 -0.5811
   17CHTO   H50 7103   5.068   6.723   6.133  0.8741  1.7949 -0.7734
   17CHTO   O14 7104   5.239   6.616   6.161 -0.0179  0.6007  0.5375
   17CHTO   C23 7105   5.195   6.497   6.226  0.0707 -0.2276 -0.0712
   17CHTO   H51 7106   5.112   6.527   6.291 -0.6776  1.2311 -1.6427
   17CHTO   C34 7107   5.318   6.455   6.305  0.2693 -0.1588  0.2166
   17CHTO   O23 7108   5.316   6.527   6.432  0.0542  0.4112  0.3143
   17CHTO   H38 7109   5.339   6.463   6.496 -1.3678 -0.0590  0.3858
   17CHTO   O16 7110   5.214   6.797   6.017  0.0470 -0.2730 -0.3136
   17CHTO   C24 7111   5.264   6.905   6.121 -0.2904  0.7241 -0.1672
   17CHTO   H52 7112   5.239   6.878   6.223 -1.0077 -1.4498 -0.8758
   17CHTO   C26 7113   5.187   7.030   6.083 -0.2493 -0.8059 -0.0514
   17CHTO   H54 7114   5.220   7.056   5.980 -0.6304  0.0381  0.0329
   17CHTO   O20 7115   5.046   7.002   6.092 -0.2977 -0.3105  0.6064
   17CHTO   H36 7116   5.015   6.969   6.010  1.1498  2.5084 -1.1318
   17CHTO   C30 7117   5.227   7.147   6.171  0.3617 -0.9869  0.3587
   17CHTO   H58 7118   5.195   7.135   6.276  0.1646  0.2685  0.4526
   17CHTO    N6 7119   5.170   7.280   6.121 -0.5748  0.0313 -0.2132
   17CHTO   H45 7120   5.140   7.340   6.206  0.2967 -0.5375  0.4963
   17CHTO   H46 7121   5.247   7.334   6.068  0.0221 -1.3794 -0.8075
   17CHTO   C33 7122   5.379   7.172   6.189  0.2688  0.2052 -0.3079
   17CHTO   H61 7123   5.425   7.229   6.107  1.6928 -0.3511  0.0970
   17CHTO   O18 7124   5.450   7.045   6.200 -0.2350 -0.3762 -0.2356
   17CHTO   C28 7125   5.418   6.937   6.113 -0.8023 -0.3376 -0.7396
   17CHTO   H56 7126   5.447   6.965   6.012  0.8591  0.3610 -0.0914
   17CHTO   C35 7127   5.509   6.812   6.140  0.2956 -0.0807  0.5748
   17CHTO   O24 7128   5.481   6.698   6.053 -0.0076  0.1346 -0.8037
   17CHTO   H39 7129   5.416   6.722   5.990  1.6203  2.0900 -1.8031
   17CHTO    O9 7130   5.404   7.257   6.300  0.2185  0.1273 -0.0507
   17CHTO   C13 7131   5.548   7.267   6.358  0.1876 -0.6388 -0.0525
   17CHTO   H26 7132   5.618   7.239   6.277 -1.7388  1.5987 -2.6209
   17CHTO   C11 7133   5.562   7.171   6.489  0.3317 -0.2101  0.3701
   17CHTO   H24 7134   5.644   7.101   6.469 -0.6727 -1.0299 -0.9639
   17CHTO    O8 7135   5.439   7.094   6.486 -0.0539 -0.1893  0.3340
   17CHTO    H3 7136   5.375   7.114   6.551 -3.1322 -0.7674 -2.3886
   17CHTO    C9 7137   5.612   7.247   6.620  0.4787 -0.2396  0.5558
   17CHTO   H22 7138   5.719   7.267   6.609  0.3528 -0.2941 -0.9129
   17CHTO    N2 7139   5.607   7.156   6.740  0.4841 -0.6651  0.1119
   17CHTO   H10 7140   5.681   7.183   6.814  1.5386  1.7121 -1.7316
   17CHTO   H11 7141   5.614   7.053   6.709  1.0364 -0.3908 -0.6676
   17CHTO    C7 7142   5.534   7.379   6.626 -0.4913  0.7481  0.5665
   17CHTO   H20 7143   5.564   7.424   6.723  1.4405 -3.0394  1.8414
   17CHTO    O4 7144   5.588   7.464   6.524  0.0976  0.2579 -0.0285
   17CHTO   C14 7145   5.595   7.421   6.391  0.1734  0.0970 -0.1425
   17CHTO   H27 7146   5.704   7.422   6.367  0.6249 -0.5648  1.7417
   17CHTO   C18 7147   5.527   7.535   6.311  0.5587  0.2302 -0.3678
   17CHTO   O13 7148   5.518   7.515   6.167 -0.5335 -0.5348  0.1861
   17CHTO    H7 7149   5.456   7.451   6.139  1.6913 -0.8220 -4.4350
   17CHTO    O2 7150   5.374   7.352   6.597  0.0395 -0.3640 -0.2283
   17CHTO    C1 7151   5.293   7.373   6.715 -0.2641 -0.1559  1.0737
   17CHTO   H14 7152   5.354   7.371   6.807  0.0744 -1.2468  0.8310
   17CHTO    C2 7153   5.177   7.255   6.718  0.1885 -0.2994  0.4437
   17CHTO   H15 7154   5.136   7.237   6.618 -1.3092  1.1440  0.7704
   17CHTO    O6 7155   5.243   7.132   6.750  0.1106  0.4923  0.5100
   17CHTO    H1 7156   5.246   7.133   6.844 -1.8508 -1.3740  0.6611
   17CHTO    C3 7157   5.055   7.285   6.816 -0.1991  0.0620 -0.3387
   17CHTO   H16 7158   5.094   7.272   6.918  3.0931 -1.6653 -1.7334
   17CHTO    N1 7159   4.936   7.196   6.795  0.4754 -0.2938 -0.0378
   17CHTO    H8 7160   4.979   7.098   6.783 -0.9911 -0.7439 -1.8149
   17CHTO    H9 7161   4.873   7.226   6.712 -0.0292  0.7145  0.6870
   17CHTO    C4 7162   5.022   7.440   6.801  0.3291 -0.2061 -0.3999
   17CHTO   H17 7163   4.979   7.461   6.703 -1.3648  1.3062  0.6316
   17CHTO    O1 7164   5.136   7.528   6.815  0.6825 -0.0421  0.0621
   17CHTO    C5 7165   5.227   7.511   6.701  0.4867  0.6654  0.7507
   17CHTO   H18 7166   5.160   7.512   6.615 -1.0508  1.3841  1.9349
   17CHTO   C16 7167   5.318   7.629   6.696 -0.0910  0.3334  0.2667
   17CHTO   O11 7168   5.244   7.749   6.676  0.3338 -0.3308 -0.4945
   17CHTO    H5 7169   5.188   7.735   6.602 -1.6676 -0.3002  0.9966
   17CHTO    O3 7170   4.931   7.473   6.912  0.3499  0.2041 -0.5115
   17CHTO    C6 7171   4.877   7.607   6.904 -0.0941 -0.1520 -0.8012
   17CHTO   H19 7172   4.921   7.669   6.826  0.9339  0.1472  0.0180
   17CHTO    C8 7173   4.727   7.620   6.861 -0.7639 -0.0867  0.0331
   17CHTO   H21 7174   4.665   7.562   6.930 -2.7197  1.4693 -0.3595
   17CHTO    O7 7175   4.726   7.564   6.730  0.1367  0.3261 -0.5389
   17CHTO    H2 7176   4.800   7.590   6.679  0.1938 -1.2479 -1.2809
   17CHTO   C12 7177   4.678   7.771   6.874  0.2430 -0.0779  0.9819
   17CHTO   H25 7178   4.738   7.830   6.802  3.2071 -2.5128  1.3567
   17CHTO    N3 7179   4.539   7.793   6.834  0.1462 -0.1252  0.2831
   17CHTO   H12 7180   4.500   7.706   6.782 -0.2787  0.0797  0.2535
   17CHTO   H13 7181   4.539   7.884   6.776 -0.0336 -0.6410 -0.5386
   17CHTO   C15 7182   4.709   7.825   7.018  0.2307 -0.9023 -0.3073
   17CHTO   H28 7183   4.662   7.766   7.097  0.6779  0.3354  0.9246
   17CHTO   O10 7184   4.683   7.986   7.035  0.4975  0.4366  0.0543
   17CHTO    H4 7185   4.657   8.029   6.956 -1.4968 -0.1400  0.3831
   17CHTO    O5 7186   4.851   7.811   7.040 -0.1257 -0.4828  0.3182
   17CHTO   C10 7187   4.902   7.677   7.040 -0.2695  1.5689 -0.1618
   17CHTO   H23 7188   4.849   7.614   7.111 -0.1029  1.6703  0.0533
   17CHTO   C17 7189   5.050   7.679   7.084  0.5044 -0.6317  0.3868
   17CHTO   O12 7190   5.123   7.758   6.990 -0.1726  0.0232 -0.5000
   17CHTO    H6 7191   5.115   7.722   6.904  0.4470  1.0031 -0.9766
   18CHTO  H203 7192   6.123   8.534   1.479 -0.0622 -0.7744 -0.3159
   18CHTO   O82 7193   6.114   8.508   1.389  0.0167 -0.6906 -0.3479
   18CHTO  C123 7194   6.159   8.376   1.361  0.7332 -0.2515  0.1114
   18CHTO  H227 7195   6.102   8.306   1.424  0.7891  1.3798  2.0190
   18CHTO   O77 7196   6.115   8.362   1.225 -0.3696  0.2821  0.2894
   18CHTO  C118 7197   6.141   8.233   1.167 -0.5155 -0.3985 -0.2037
   18CHTO  H222 7198   6.101   8.157   1.235  0.8167 -1.6167 -0.7488
   18CHTO  C125 7199   6.062   8.236   1.025  0.4600 -0.0646 -0.0942
   18CHTO   O84 7200   6.049   8.114   0.952  0.7537 -0.7115 -0.2419
   18CHTO  H205 7201   6.003   8.045   0.996  3.2562 -0.6760  2.6252
   18CHTO  C114 7202   6.293   8.217   1.154 -0.1251  0.7652 -0.4007
   18CHTO  H218 7203   6.332   8.289   1.082 -0.0991 -0.4004 -1.5615
   18CHTO  C116 7204   6.363   8.226   1.286  0.1076  0.2519  0.0401
   18CHTO  H220 7205   6.335   8.133   1.341  1.9774  0.0554  0.7036
   18CHTO   O79 7206   6.508   8.217   1.277 -0.3549  0.0613  0.4829
   18CHTO  H201 7207   6.538   8.251   1.195  1.7764  0.5878  1.4379
   18CHTO  C120 7208   6.312   8.349   1.370  0.4908  0.4351 -0.2026
   18CHTO  H224 7209   6.361   8.440   1.329 -0.3112  1.0378  0.1528
   18CHTO   N21 7210   6.349   8.329   1.512  0.0103  0.3879  0.2034
   18CHTO  H211 7211   6.282   8.259   1.560  0.5944 -0.1501  0.2479
   18CHTO  H212 7212   6.446   8.281   1.510 -0.6761 -1.0750  0.9627
   18CHTO   O75 7213   6.297   8.083   1.088 -0.2302 -0.0192 -0.3931
   18CHTO  C112 7214   6.419   8.042   1.027  0.2121 -0.1829  0.1825
   18CHTO  H216 7215   6.495   8.023   1.104  1.8282  0.0381 -1.3480
   18CHTO   O73 7216   6.463   8.142   0.933 -0.8134 -0.1671  0.0218
   18CHTO  C113 7217   6.596   8.134   0.880 -0.0996  0.6718  0.1996
   18CHTO  H217 7218   6.672   8.149   0.960  0.7525  1.6039 -0.7898
   18CHTO  C124 7219   6.609   8.257   0.787 -0.3069 -0.1304 -0.0518
   18CHTO   O83 7220   6.742   8.286   0.741 -0.1016 -0.0836 -0.2692
   18CHTO  H204 7221   6.798   8.321   0.808 -0.1709 -0.1901 -0.1557
   18CHTO  C109 7222   6.604   7.993   0.809 -0.0749 -0.0163 -0.1166
   18CHTO  H213 7223   6.541   8.000   0.719 -0.5077 -0.3279  0.1592
   18CHTO  C110 7224   6.561   7.875   0.901  0.0306  0.6458  0.9325
   18CHTO  H214 7225   6.627   7.882   0.988  0.7472 -0.2225  0.4689
   18CHTO   O78 7226   6.567   7.756   0.826 -0.0523 -0.1837  0.5186
   18CHTO  H200 7227   6.522   7.689   0.874 -1.0883 -0.3910 -0.7165
   18CHTO  C111 7228   6.412   7.910   0.950  0.3389 -0.2988  0.5149
   18CHTO  H215 7229   6.351   7.927   0.860 -1.6715  0.8605  2.0531
   18CHTO   N19 7230   6.346   7.803   1.029 -0.7853 -0.4421 -0.3284
   18CHTO  H207 7231   6.243   7.826   1.050 -0.6410 -1.3158  1.4791
   18CHTO  H208 7232   6.341   7.704   0.986 -0.9024  0.2963 -2.0697
   18CHTO   O74 7233   6.744   7.972   0.767 -0.1434  0.4405 -0.2382
   18CHTO  C115 7234   6.732   7.889   0.610 -0.0044  0.1427 -0.3756
   18CHTO  H219 7235   6.638   7.833   0.603 -0.6340  0.7242  2.5557
   18CHTO   O76 7236   6.722   8.001   0.488 -0.2016 -0.2724  0.3500
   18CHTO  C122 7237   6.844   8.068   0.485  0.3868 -0.2959  0.3295
   18CHTO  H226 7238   6.851   8.134   0.572  2.2685 -0.5403  0.3827
   18CHTO  C126 7239   6.845   8.170   0.366  0.3783 -0.1583  0.4754
   18CHTO   O85 7240   6.793   8.114   0.241  0.7959 -0.3353 -0.6214
   18CHTO  H206 7241   6.773   8.182   0.180  1.3055  1.1096  0.7729
   18CHTO  C121 7242   6.980   7.980   0.475  0.3950  0.1235  0.2148
   18CHTO  H225 7243   7.048   8.001   0.390 -1.1881 -1.0494 -1.3497
   18CHTO   O81 7244   7.058   8.005   0.591 -0.5006  0.9385 -0.1168
   18CHTO  H202 7245   7.037   7.948   0.662  2.6252 -0.6009 -0.3583
   18CHTO  C119 7246   6.943   7.830   0.468  0.5865 -0.1251  0.0033
   18CHTO  H223 7247   6.884   7.821   0.376  0.8082 -1.6740 -0.0029
   18CHTO  C117 7248   6.858   7.801   0.593 -0.3382 -0.2654  0.0179
   18CHTO  H221 7249   6.913   7.822   0.685  1.5113 -2.0092 -0.6578
   18CHTO   N20 7250   6.820   7.655   0.603  0.3963 -0.2070  0.4544
   18CHTO  H209 7251   6.853   7.602   0.691  0.6250  0.9099  1.0553
   18CHTO  H210 7252   6.864   7.599   0.521 -0.4942  0.9841 -0.8576
   18CHTO   O80 7253   7.081   7.730   0.428 -0.0762  0.3595 -1.1437
   18CHTO  C103 7254   7.076   7.626   0.306  0.4490 -0.3735  0.2200
   18CHTO  H190 7255   7.180   7.607   0.280  0.7514  0.0307  1.1274
   18CHTO  C101 7256   7.014   7.482   0.320  0.5324  0.0323 -0.0610
   18CHTO  H188 7257   6.908   7.484   0.346  0.2388 -2.5623 -0.9039
   18CHTO   O68 7258   7.095   7.399   0.428  0.2688  0.2210 -0.2316
   18CHTO  H168 7259   7.184   7.426   0.439  0.7462 -1.2141 -0.5885
   18CHTO   C99 7260   7.017   7.405   0.180 -0.1310 -0.1688  0.3935
   18CHTO  H186 7261   7.123   7.390   0.152 -0.2829 -0.2310 -0.1486
   18CHTO   N17 7262   6.942   7.268   0.193 -0.8026 -0.6042  0.3870
   18CHTO  H174 7263   6.951   7.210   0.103  1.9572  0.5802 -0.1447
   18CHTO  H175 7264   6.982   7.218   0.279  0.8865 -1.1282 -0.6826
   18CHTO   C97 7265   6.958   7.493   0.064 -0.6907 -0.4033 -0.4818
   18CHTO  H184 7266   6.850   7.502   0.083 -0.7482 -0.5101 -0.7709
   18CHTO   O64 7267   7.028   7.622   0.064 -0.2303  0.4923  0.5196
   18CHTO  C104 7268   7.008   7.697   0.180  0.2024  0.1866 -0.0940
   18CHTO  H191 7269   6.901   7.707   0.198  0.2931  0.0457  0.5104
   18CHTO  C108 7270   7.066   7.842   0.167 -0.2278  0.3219  0.0065
   18CHTO   O71 7271   6.987   7.951   0.114  0.1670  0.1728  0.5286
   18CHTO  H171 7272   6.922   7.978   0.177 -1.0700 -1.9411  0.2018
   18CHTO   O62 7273   6.975   7.457  -0.070  0.2399 -0.1604 -0.2544
   18CHTO   C91 7274   6.876   7.489  -0.173 -0.4495 -0.0726  0.2988
   18CHTO  H178 7275   6.777   7.473  -0.129 -0.1763  0.0883  0.9856
   18CHTO   C92 7276   6.896   7.400  -0.305 -0.8708 -0.6231  0.4071
   18CHTO  H179 7277   7.001   7.409  -0.338 -1.2329 -1.1748 -0.9243
   18CHTO   O66 7278   6.882   7.272  -0.253 -0.5099 -0.2805 -0.7144
   18CHTO  H166 7279   6.968   7.242  -0.231 -0.9941 -0.6163  0.7883
   18CHTO   C93 7280   6.794   7.431  -0.418 -0.1263  0.1000  0.1359
   18CHTO  H180 7281   6.695   7.392  -0.391  0.1248 -0.1212  0.7297
   18CHTO   N16 7282   6.823   7.361  -0.546 -0.0247 -0.1278  0.0610
   18CHTO  H172 7283   6.830   7.424  -0.634 -2.0376  1.7071  1.1534
   18CHTO  H173 7284   6.752   7.282  -0.558 -0.0946  0.1759 -1.6854
   18CHTO   C94 7285   6.782   7.592  -0.440 -0.0525  0.2336 -0.1297
   18CHTO  H181 7286   6.810   7.620  -0.542  0.1530 -3.3263 -1.0995
   18CHTO   O61 7287   6.862   7.674  -0.350 -0.4056 -0.0704 -0.0452
   18CHTO   C95 7288   6.875   7.642  -0.207  0.2659  0.1213  0.3660
   18CHTO  H182 7289   6.968   7.684  -0.169  1.6251 -0.3961 -2.2768
   18CHTO  C106 7290   6.757   7.731  -0.134 -0.3003 -0.0677 -0.3902
   18CHTO   O69 7291   6.750   7.713   0.006  0.1930  0.1516 -0.5856
   18CHTO  H169 7292   6.688   7.775   0.042 -0.3388 -0.1324 -1.0044
   18CHTO   O63 7293   6.637   7.623  -0.427 -0.1385  0.0318  0.6491
   18CHTO   C96 7294   6.563   7.697  -0.559 -0.4630  0.0194  1.0787
   18CHTO  H183 7295   6.456   7.710  -0.543 -1.2386 -1.7067 -2.1958
   18CHTO   C98 7296   6.590   7.628  -0.696 -0.7006 -0.5705  0.2034
   18CHTO  H185 7297   6.699   7.627  -0.711 -0.6865 -2.5590  0.3447
   18CHTO   O67 7298   6.546   7.493  -0.702  0.0361  0.2170 -0.6816
   18CHTO  H167 7299   6.453   7.489  -0.715  0.1043 -0.2372 -1.0289
   18CHTO  C102 7300   6.524   7.717  -0.818 -0.1947 -0.2062 -0.3741
   18CHTO  H189 7301   6.419   7.723  -0.787  0.4639  1.9454  1.5306
   18CHTO   N18 7302   6.536   7.665  -0.952 -0.2476 -0.5672  0.0199
   18CHTO  H176 7303   6.451   7.618  -1.001 -1.6131 -0.0752  1.8531
   18CHTO  H177 7304   6.621   7.599  -0.964  1.3020  1.3602  0.1636
   18CHTO  C105 7305   6.568   7.868  -0.813  0.1147  0.1998  0.6367
   18CHTO  H192 7306   6.669   7.877  -0.855 -0.1856 -0.6994 -0.3042
   18CHTO   O65 7307   6.569   7.918  -0.679  0.2512 -0.3195 -0.2778
   18CHTO  C100 7308   6.628   7.842  -0.574  0.6902  0.0270  0.0103
   18CHTO  H187 7309   6.736   7.833  -0.593  0.5081 -3.0735  0.2178
   18CHTO  C107 7310   6.613   7.931  -0.442  0.4000 -0.4432  0.3649
   18CHTO   O70 7311   6.657   8.062  -0.469 -0.1287 -0.1722 -0.6123
   18CHTO  H170 7312   6.646   8.122  -0.398  0.9981 -0.3307 -0.3102
   18CHTO   O57 7313   6.464   7.961  -0.912 -0.0806 -0.3039 -0.1847
   18CHTO   C85 7314   6.507   8.096  -0.950 -0.1263  0.0894  0.4560
   18CHTO  H157 7315   6.618   8.104  -0.951 -0.1253 -0.0331 -0.5994
   18CHTO   C83 7316   6.470   8.195  -0.838 -0.8366  0.4328  0.3171
   18CHTO  H155 7317   6.534   8.165  -0.755 -4.4854 -1.4624  2.5607
   18CHTO   O56 7318   6.338   8.172  -0.794 -0.3266  0.1288  0.1987
   18CHTO  H135 7319   6.338   8.116  -0.719 -0.0332  0.6805  0.6158
   18CHTO   C81 7320   6.500   8.346  -0.882 -0.4495  0.3478 -0.0255
   18CHTO  H153 7321   6.607   8.348  -0.901 -0.2919  0.4228  0.8595
   18CHTO   N14 7322   6.476   8.434  -0.765  0.1245 -0.4668  0.0041
   18CHTO  H141 7323   6.555   8.429  -0.694  0.5792 -2.7562 -0.6092
   18CHTO  H142 7324   6.470   8.532  -0.806  0.4704 -0.8343 -0.9516
   18CHTO   C79 7325   6.424   8.381  -1.016  0.1302 -0.2447 -0.2326
   18CHTO  H151 7326   6.457   8.481  -1.045 -0.1853 -0.7548 -2.4059
   18CHTO   O52 7327   6.468   8.284  -1.121  0.2949 -0.1404  0.0068
   18CHTO   C86 7328   6.443   8.144  -1.087  0.1078 -0.7174 -0.1400
   18CHTO  H158 7329   6.333   8.137  -1.077  0.3177 -2.5787  1.3239
   18CHTO   C90 7330   6.483   8.050  -1.198  0.2246 -0.2808 -0.2679
   18CHTO   O60 7331   6.619   8.077  -1.246  0.1290 -0.4664 -0.0119
   18CHTO  H138 7332   6.654   8.149  -1.196  1.8067 -0.9604 -0.4377
   18CHTO   O50 7333   6.282   8.381  -1.008 -0.1917 -0.2449 -0.3700
   18CHTO   C73 7334   6.168   8.426  -1.087  0.0254  0.7082 -0.6714
   18CHTO  H145 7335   6.167   8.407  -1.195 -0.3221 -2.1371 -0.2022
   18CHTO   C74 7336   6.145   8.584  -1.073  0.1541  0.5291  0.1451
   18CHTO  H146 7337   6.231   8.636  -1.117 -0.6200  0.5695 -1.3181
   18CHTO   O54 7338   6.030   8.632  -1.156 -0.8494  0.1857  0.2690
   18CHTO  H133 7339   6.054   8.638  -1.247 -1.4403 -1.0420  0.0065
   18CHTO   C75 7340   6.128   8.615  -0.917 -0.5037  0.4640 -0.4051
   18CHTO  H147 7341   6.226   8.588  -0.875 -0.3190  2.4322  0.5144
   18CHTO   N13 7342   6.116   8.759  -0.897  0.9148  0.3830  0.1526
   18CHTO  H139 7343   6.109   8.778  -0.791  0.0701 -0.2041  0.2044
   18CHTO  H140 7344   6.027   8.798  -0.943 -0.2731  2.1597  3.7664
   18CHTO   C76 7345   6.001   8.530  -0.858  0.0908  0.0167  0.2177
   18CHTO  H148 7346   5.909   8.565  -0.905  0.2529 -0.9345 -0.8145
   18CHTO   O49 7347   6.023   8.387  -0.888  0.2057 -0.2888  0.2238
   18CHTO   C77 7348   6.036   8.359  -1.025 -0.1773  0.4270  0.2518
   18CHTO  H149 7349   5.951   8.406  -1.074 -2.4657 -2.0577  1.6666
   18CHTO   C88 7350   6.033   8.207  -1.042 -0.2369  0.5984 -0.3216
   18CHTO   O58 7351   6.074   8.172  -1.181  0.3936 -0.5194  0.0491
   18CHTO  H136 7352   6.103   8.083  -1.187 -0.4860 -0.9546  1.8570
   18CHTO   O51 7353   5.989   8.553  -0.710  0.0603 -0.3880  0.5011
   18CHTO   C78 7354   5.864   8.470  -0.630 -0.4786 -0.1939  0.3099
   18CHTO  H150 7355   5.824   8.390  -0.696 -0.7147  1.8316 -2.0655
   18CHTO   C80 7356   5.746   8.573  -0.602 -0.0895 -0.4640  0.5196
   18CHTO  H152 7357   5.788   8.664  -0.556  2.7738 -2.3637  1.8587
   18CHTO   O55 7358   5.676   8.595  -0.728 -0.2495 -0.4094 -0.8512
   18CHTO  H134 7359   5.623   8.672  -0.717 -2.3973 -2.0907  0.9083
   18CHTO   C84 7360   5.647   8.513  -0.492  0.2334 -0.2985 -0.6004
   18CHTO  H156 7361   5.591   8.430  -0.535 -1.5720  0.8202 -0.4481
   18CHTO   N15 7362   5.540   8.596  -0.443  0.2144  0.1510 -0.3841
   18CHTO  H143 7363   5.574   8.682  -0.389  0.9677 -0.0661 -0.4972
   18CHTO  H144 7364   5.484   8.531  -0.379  0.9095  1.0580  1.1803
   18CHTO   C87 7365   5.726   8.463  -0.367  0.1289 -0.4688  0.2167
   18CHTO  H159 7366   5.780   8.546  -0.322  1.6921 -0.3306 -1.8428
   18CHTO   O53 7367   5.837   8.356  -0.413  1.1706  0.0280 -0.3335
   18CHTO   C82 7368   5.935   8.415  -0.505 -0.6296 -0.0380 -0.0034
   18CHTO  H154 7369   5.986   8.494  -0.451 -1.8382  0.4347  0.4842
   18CHTO   C89 7370   6.030   8.308  -0.551 -0.3504 -0.2155 -0.1666
   18CHTO   O59 7371   6.135   8.284  -0.450  0.2983 -0.0777  0.2138
   18CHTO  H137 7372   6.119   8.206  -0.400 -0.7926  1.3502  2.1854
   18CHTO   O45 7373   5.626   8.374  -0.247 -0.0709  0.0965 -0.6235
   18CHTO   C67 7374   5.669   8.402  -0.112 -0.5659  0.5905 -0.1863
   18CHTO  H124 7375   5.770   8.442  -0.106 -0.1531 -0.4543  0.0138
   18CHTO   C65 7376   5.571   8.516  -0.052 -0.1199  0.2066  0.2142
   18CHTO  H122 7377   5.471   8.501  -0.093 -0.0318  1.9191 -0.7091
   18CHTO   O44 7378   5.621   8.646  -0.090  0.5554  0.1573  0.1959
   18CHTO  H102 7379   5.682   8.679  -0.027  1.3818 -0.6967 -0.1444
   18CHTO   C63 7380   5.533   8.485   0.098  0.0265 -0.2108 -0.7343
   18CHTO  H120 7381   5.474   8.394   0.100  1.6148 -1.2332  0.8545
   18CHTO   N11 7382   5.444   8.580   0.166 -0.1949 -0.8282  0.0960
   18CHTO  H108 7383   5.341   8.570   0.139 -0.4763  2.5581 -0.3118
   18CHTO  H109 7384   5.474   8.677   0.131  0.4871 -0.5047  1.5496
   18CHTO   C61 7385   5.663   8.446   0.172 -0.9543 -0.1985 -0.3866
   18CHTO  H118 7386   5.631   8.413   0.272 -3.5560  1.0740 -0.7388
   18CHTO   O40 7387   5.731   8.332   0.112  0.2303 -0.0579  0.2766
   18CHTO   C68 7388   5.674   8.284  -0.018  0.4118 -0.2117  0.4792
   18CHTO  H125 7389   5.575   8.238  -0.003  0.0376  0.4940  0.1941
   18CHTO   C72 7390   5.765   8.174  -0.063 -0.1861  0.0668  0.1961
   18CHTO   O48 7391   5.729   8.118  -0.191 -0.2785 -0.8180 -0.4791
   18CHTO  H105 7392   5.762   8.032  -0.209  2.7699  0.3840 -0.9550
   18CHTO   O38 7393   5.756   8.557   0.173  0.6337  0.0413  0.0360
   18CHTO   C55 7394   5.876   8.552   0.257 -0.0900  0.1224 -0.2518
   18CHTO  H112 7395   5.885   8.455   0.306  0.5078  0.4833  0.3550
   18CHTO   C56 7396   5.875   8.672   0.361  0.1630 -0.6441 -0.1926
   18CHTO  H113 7397   5.872   8.762   0.297  0.1227  0.8054  1.8153
   18CHTO   O42 7398   5.754   8.672   0.434 -0.4959 -0.3520  0.4424
   18CHTO  H100 7399   5.757   8.741   0.497  2.2701 -0.4935  0.5608
   18CHTO   C57 7400   6.007   8.667   0.448  0.0244 -0.2615 -0.0202
   18CHTO  H114 7401   5.990   8.567   0.486 -2.2693 -0.9708 -2.7770
   18CHTO   N10 7402   6.018   8.778   0.545  0.2200 -0.3086 -0.3743
   18CHTO  H106 7403   5.985   8.757   0.646 -1.4601  1.8135 -0.4342
   18CHTO  H107 7404   6.119   8.815   0.549 -0.0016  0.6155 -2.6646
   18CHTO   C58 7405   6.143   8.665   0.366 -0.2280 -0.6319  0.4333
   18CHTO  H115 7406   6.169   8.770   0.344  0.1042 -0.5293  1.3161
   18CHTO   O37 7407   6.130   8.590   0.245 -0.5945  0.1021 -0.7458
   18CHTO   C59 7408   6.006   8.578   0.177  0.1769 -0.0545  0.1110
   18CHTO  H116 7409   5.979   8.663   0.114 -0.8396 -0.2047  0.3505
   18CHTO   C70 7410   6.033   8.451   0.094  0.1733  0.4928  0.0770
   18CHTO   O46 7411   6.053   8.338   0.175 -0.0290  0.3994 -0.0665
   18CHTO  H103 7412   6.018   8.263   0.130  1.5735  0.4517 -1.4212
   18CHTO   O39 7413   6.275   8.615   0.449  0.4795  0.1646 -0.1160
   18CHTO   C60 7414   6.276   8.470   0.454  0.7877  0.1790 -0.3022
   18CHTO  H117 7415   6.180   8.429   0.424  1.9864 -0.1431 -3.9305
   18CHTO   C62 7416   6.384   8.419   0.349 -0.5095 -0.7061  0.9863
   18CHTO  H119 7417   6.364   8.466   0.251  3.1913  0.2403  0.6229
   18CHTO   O43 7418   6.518   8.464   0.393  0.2308  0.3483 -0.3612
   18CHTO  H101 7419   6.584   8.413   0.349 -1.2653 -1.7393 -0.2299
   18CHTO   C66 7420   6.382   8.260   0.338  0.5714 -0.0753 -0.5951
   18CHTO  H123 7421   6.278   8.230   0.322  0.0132  1.6469 -0.3372
   18CHTO   N12 7422   6.453   8.203   0.228 -0.1542 -0.2290  1.2305
   18CHTO  H110 7423   6.436   8.264   0.141  2.4027 -1.2393 -0.0310
   18CHTO  H111 7424   6.559   8.204   0.250 -0.3543  1.7952  2.2290
   18CHTO   C69 7425   6.422   8.196   0.477 -0.3305  0.1307  0.2235
   18CHTO  H126 7426   6.528   8.221   0.498  0.2086 -1.4536 -0.5073
   18CHTO   O41 7427   6.317   8.263   0.596 -0.8055  0.1907 -0.4702
   18CHTO   C64 7428   6.305   8.415   0.600 -0.0211  0.1356  0.4957
   18CHTO  H121 7429   6.400   8.463   0.632  0.1182 -0.4160  0.9258
   18CHTO   C71 7430   6.199   8.463   0.704  0.1051  0.2086  0.1850
   18CHTO   O47 7431   6.221   8.601   0.732 -0.1128 -0.0982 -0.1264
   18CHTO  H104 7432   6.306   8.608   0.769  0.9986 -2.6843 -1.9979
   18CHTO   O34 7433   6.423   8.025   0.468  0.8589  0.2668 -0.2239
   18CHTO   C49 7434   6.364   7.884   0.458  0.5843 -0.3906  0.0942
   18CHTO   H91 7435   6.443   7.813   0.482  1.0896 -0.0895 -0.6566
   18CHTO   C47 7436   6.309   7.857   0.317 -0.1773  0.2268  0.7639
   18CHTO   H89 7437   6.281   7.750   0.308  0.4388  0.3364 -3.2086
   18CHTO   O33 7438   6.405   7.877   0.212  0.1317  0.6822  0.5337
   18CHTO   H70 7439   6.356   7.878   0.132 -1.5286  0.4546  1.5288
   18CHTO   C45 7440   6.174   7.946   0.281 -0.5061  0.1417 -0.1788
   18CHTO   H87 7441   6.202   8.036   0.224  2.4931  0.2029  1.2703
   18CHTO    N8 7442   6.076   7.868   0.202  0.3535  0.1808  0.1495
   18CHTO   H75 7443   6.077   7.772   0.253 -0.4502  0.3933  0.5776
   18CHTO   H76 7444   6.109   7.848   0.101 -0.8807  0.8931 -0.4092
   18CHTO   C43 7445   6.109   7.995   0.418 -0.5856 -0.6973 -0.5006
   18CHTO   H85 7446   6.168   8.080   0.453 -1.6946 -0.9407  2.0441
   18CHTO   O29 7447   6.115   7.889   0.517 -0.0693  0.8326 -0.5399
   18CHTO   C50 7448   6.252   7.859   0.567 -0.3136  0.6548 -0.0760
   18CHTO   H92 7449   6.290   7.906   0.658 -0.0515  1.8749 -0.8069
   18CHTO   C54 7450   6.254   7.712   0.617  0.2509 -0.1952 -0.2656
   18CHTO   O36 7451   6.220   7.603   0.527  0.8960  0.2664  0.5304
   18CHTO   H72 7452   6.238   7.516   0.555  0.0446 -0.0035  0.2446
   18CHTO   O27 7453   5.980   8.060   0.412  0.0279 -0.7664 -0.7527
   18CHTO   C37 7454   5.869   8.110   0.495 -0.8562 -0.4883 -0.2956
   18CHTO   H79 7455   5.844   8.041   0.577 -1.9251  2.8743  2.3836
   18CHTO   C38 7456   5.913   8.240   0.572 -0.3358  0.2891  0.0106
   18CHTO   H80 7457   5.952   8.313   0.500  1.1559  0.2831  0.7854
   18CHTO   O31 7458   6.020   8.194   0.660 -0.1268  0.5048 -0.2677
   18CHTO   H68 7459   6.080   8.266   0.667  1.3297 -0.7931  0.9326
   18CHTO   C39 7460   5.799   8.301   0.655 -0.2252  0.0921  0.0021
   18CHTO   H81 7461   5.790   8.230   0.737  0.1360 -2.1321 -1.8366
   18CHTO    N7 7462   5.845   8.428   0.729  0.6379 -0.1397 -0.5859
   18CHTO   H73 7463   5.763   8.472   0.784 -0.5525 -1.3364 -1.3754
   18CHTO   H74 7464   5.924   8.409   0.800 -0.6305  2.5181  1.6855
   18CHTO   C40 7465   5.666   8.317   0.579  0.2738 -0.0751 -0.0852
   18CHTO   H82 7466   5.660   8.404   0.513  0.0852  0.8739  1.1459
   18CHTO   O26 7467   5.644   8.194   0.510  0.8397 -0.0883  0.1070
   18CHTO   C41 7468   5.742   8.144   0.416 -0.0201 -0.4426 -0.3754
   18CHTO   H83 7469   5.768   8.218   0.340  1.1585 -0.9475 -0.4665
   18CHTO   C52 7470   5.681   8.022   0.346 -0.1842  0.3268 -0.2401
   18CHTO   O35 7471   5.731   8.006   0.222  0.1259  0.3631 -0.0960
   18CHTO   H71 7472   5.724   7.925   0.175 -1.3583  0.5434 -0.2099
   18CHTO   O28 7473   5.562   8.333   0.673 -0.3815  0.1113  0.0545
   18CHTO   C42 7474   5.414   8.357   0.654 -0.2562 -0.4227  0.2082
   18CHTO   H84 7475   5.377   8.390   0.752  1.7488 -1.2177  1.2535
   18CHTO   C44 7476   5.340   8.221   0.625  0.7232 -0.6545  0.1223
   18CHTO   H86 7477   5.381   8.185   0.531  1.7008  3.0187 -0.9331
   18CHTO   O32 7478   5.380   8.135   0.739  0.1869  0.3840  0.1740
   18CHTO   H69 7479   5.473   8.130   0.741  0.2540  1.1928 -0.3896
   18CHTO   C48 7480   5.180   8.234   0.596 -0.7126 -0.2477  0.0585
   18CHTO   H90 7481   5.149   8.268   0.695 -0.2623  1.6532 -0.4163
   18CHTO    N9 7482   5.109   8.105   0.565 -0.0588 -0.0018  0.1195
   18CHTO   H77 7483   5.052   8.112   0.474 -0.1796 -2.9087 -0.0594
   18CHTO   H78 7484   5.186   8.030   0.553  1.5407  1.8093 -1.1990
   18CHTO   C51 7485   5.165   8.345   0.486 -0.7512  0.6423  0.2522
   18CHTO   H93 7486   5.227   8.310   0.403 -0.5760 -1.8680  1.3684
   18CHTO   O30 7487   5.216   8.468   0.543 -0.0369  0.5637 -0.1966
   18CHTO   C46 7488   5.368   8.467   0.554 -0.5031 -0.3063  0.9351
   18CHTO   H88 7489   5.404   8.448   0.453 -2.0716  0.9541  0.1086
   18CHTO   C53 7490   5.416   8.607   0.605  0.2453 -0.2168 -0.1683
   18CHTO   O72 7491   5.378   8.712   0.517  0.4156  0.6274  0.0459
   18CHTO  H199 7492   5.389   8.700   0.425 -0.1185  0.8666 -0.0504
   18CHTO   O22 7493   5.027   8.369   0.444 -0.3552  0.9563 -0.2206
   18CHTO   C31 7494   5.002   8.410   0.304  0.0678 -0.3644 -0.5185
   18CHTO   H59 7495   4.891   8.412   0.289 -0.1888 -2.7354  0.8830
   18CHTO   C29 7496   5.059   8.553   0.273 -0.6623 -0.9623 -0.7837
   18CHTO   H57 7497   5.163   8.563   0.307 -1.2484  0.1694  0.7409
   18CHTO   O21 7498   4.982   8.653   0.347 -0.4971 -0.6297  0.1211
   18CHTO   H37 7499   5.043   8.722   0.367 -0.6979 -0.6821  0.9226
   18CHTO   C27 7500   5.053   8.584   0.119 -0.6801 -0.1828  0.0941
   18CHTO   H55 7501   4.945   8.591   0.098 -1.1505  0.9549  2.7840
   18CHTO    N5 7502   5.128   8.710   0.084 -0.1033 -0.1626  0.3993
   18CHTO   H43 7503   5.225   8.720   0.130  0.5953  1.1868 -1.3366
   18CHTO   H44 7504   5.071   8.800   0.101 -0.1866 -0.4997  1.9771
   18CHTO   C25 7505   5.115   8.461   0.043 -0.3585 -1.1454  0.1181
   18CHTO   H53 7506   5.219   8.445   0.074  0.4960  1.1867 -1.4281
   18CHTO   O17 7507   5.029   8.346   0.074  0.7534 -0.2784 -0.1335
   18CHTO   C32 7508   5.045   8.296   0.208  0.1444  0.3773 -0.4418
   18CHTO   H60 7509   5.151   8.272   0.222 -0.9978 -3.3098  2.7255
   18CHTO   C36 7510   4.958   8.167   0.226  0.4310 -0.5590  0.0302
   18CHTO   O25 7511   5.007   8.061   0.143 -0.2267  0.0088  0.7712
   18CHTO   H40 7512   4.934   8.024   0.098  1.4317 -0.1749 -1.8610
   18CHTO   O15 7513   5.133   8.460  -0.124  0.0311 -0.1257  0.3104
   18CHTO   C19 7514   5.172   8.361  -0.224  0.3355  0.1131  0.2197
   18CHTO   H47 7515   5.088   8.290  -0.226 -0.6147  1.2619 -0.8158
   18CHTO   C20 7516   5.176   8.416  -0.369 -0.0542 -0.0207  0.1212
   18CHTO   H48 7517   5.238   8.507  -0.374 -2.8834  2.0773  1.3611
   18CHTO   O19 7518   5.036   8.460  -0.382  0.3713 -0.0351  0.1977
   18CHTO   H35 7519   5.042   8.552  -0.364 -2.7405  0.3862 -0.7811
   18CHTO   C21 7520   5.203   8.304  -0.475 -0.2894  0.6161 -0.0010
   18CHTO   H49 7521   5.124   8.230  -0.474  0.8862 -0.7269 -2.3309
   18CHTO    N4 7522   5.213   8.337  -0.620  0.6602  0.5032 -0.2553
   18CHTO   H41 7523   5.249   8.251  -0.676 -0.6099 -0.6381  0.6585
   18CHTO   H42 7524   5.114   8.363  -0.654  0.1466 -1.7025 -0.5428
   18CHTO   C22 7525   5.336   8.242  -0.422 -0.0138  0.4515  0.1820
   18CHTO   H50 7526   5.414   8.318  -0.423 -0.6918  1.1580 -1.7146
   18CHTO   O14 7527   5.307   8.177  -0.299  0.1566 -0.3509 -0.5085
   18CHTO   C23 7528   5.297   8.273  -0.192 -0.6015 -0.1227  0.9568
   18CHTO   H51 7529   5.389   8.333  -0.190 -2.0201  2.3562 -2.6371
   18CHTO   C34 7530   5.276   8.189  -0.063  0.4291  0.3583  0.3931
   18CHTO   O23 7531   5.356   8.072  -0.048 -0.1326  0.1506 -0.1998
   18CHTO   H38 7532   5.357   8.050   0.043  0.6095  0.0251 -0.2387
   18CHTO   O16 7533   5.383   8.127  -0.498 -0.5336  0.3286  0.0149
   18CHTO   C24 7534   5.547   8.079  -0.492  0.0571  0.3821  0.2206
   18CHTO   H52 7535   5.603   8.147  -0.428 -0.5375  1.2570 -0.1749
   18CHTO   C26 7536   5.598   8.100  -0.633  0.5656  0.8537  0.4938
   18CHTO   H54 7537   5.545   8.031  -0.702  0.3396  0.4646  1.0461
   18CHTO   O20 7538   5.574   8.236  -0.659  0.4409  0.3717 -0.4387
   18CHTO   H36 7539   5.481   8.244  -0.646  0.6082 -1.4546  2.4400
   18CHTO   C30 7540   5.749   8.077  -0.646 -0.5286  0.0001 -0.1544
   18CHTO   H58 7541   5.803   8.162  -0.602  0.1070  0.0824 -1.0801
   18CHTO    N6 7542   5.793   8.073  -0.790  0.1584 -0.0300 -0.4325
   18CHTO   H45 7543   5.899   8.065  -0.808  0.6752  1.0750  1.8814
   18CHTO   H46 7544   5.736   7.998  -0.841 -0.8712  0.3792  0.1089
   18CHTO   C33 7545   5.789   7.950  -0.566  0.0001 -0.5127  0.5991
   18CHTO   H61 7546   5.770   7.859  -0.624 -1.4047  0.5993 -0.7182
   18CHTO   O18 7547   5.718   7.940  -0.434  0.2106  0.0224  0.6712
   18CHTO   C28 7548   5.581   7.938  -0.445  1.0384  0.0995  0.4665
   18CHTO   H56 7549   5.544   7.863  -0.515  1.3559  0.3810 -0.0085
   18CHTO   C35 7550   5.513   7.907  -0.308 -0.2959  0.1823  0.2517
   18CHTO   O24 7551   5.546   7.776  -0.266 -0.0130  0.4181  0.3072
   18CHTO   H39 7552   5.491   7.728  -0.324  0.4433  2.2174 -1.6816
   18CHTO    O9 7553   5.937   7.946  -0.551  0.5522  0.5304 -0.0744
   18CHTO   C13 7554   6.009   7.798  -0.590  0.0868 -0.1844 -0.2253
   18CHTO   H26 7555   5.990   7.789  -0.699 -1.8429 -1.0892  0.1635
   18CHTO   C11 7556   5.950   7.675  -0.513  0.4092  0.7075  0.9048
   18CHTO   H24 7557   5.855   7.655  -0.565 -0.5840 -0.6716  3.1597
   18CHTO    O8 7558   5.928   7.701  -0.371 -0.6712 -0.2079  0.0994
   18CHTO    H3 7559   5.853   7.756  -0.358 -0.7178  0.1632 -1.6018
   18CHTO    C9 7560   6.039   7.554  -0.545  0.0331 -0.5544  0.6582
   18CHTO   H22 7561   6.053   7.548  -0.654 -1.6289 -0.2524  0.4222
   18CHTO    N2 7562   5.983   7.419  -0.506 -0.0594 -0.3681 -0.3513
   18CHTO   H10 7563   5.890   7.415  -0.561 -0.1384 -0.5158 -0.2088
   18CHTO   H11 7564   5.968   7.407  -0.400  2.8592 -1.1772  0.0164
   18CHTO    C7 7565   6.183   7.593  -0.478  0.4125 -0.0855 -0.3115
   18CHTO   H20 7566   6.257   7.543  -0.544  0.3392  1.2124 -1.3992
   18CHTO    O4 7567   6.221   7.736  -0.481 -0.2265  0.4391 -0.0463
   18CHTO   C14 7568   6.159   7.807  -0.588 -0.4827  0.0768  0.6364
   18CHTO   H27 7569   6.201   7.763  -0.680 -0.4751  0.7078  0.3367
   18CHTO   C18 7570   6.212   7.942  -0.577 -1.0847  0.5703 -0.8731
   18CHTO   O13 7571   6.200   7.995  -0.439  0.0839  0.2996  0.3434
   18CHTO    H7 7572   6.214   8.087  -0.428  1.0395  0.1617  0.3177
   18CHTO    O2 7573   6.186   7.540  -0.326 -0.8693  0.2883 -0.2024
   18CHTO    C1 7574   6.314   7.529  -0.270  0.1194 -0.4453 -0.3256
   18CHTO   H14 7575   6.382   7.598  -0.324 -0.2222 -2.5790 -3.5687
   18CHTO    C2 7576   6.377   7.392  -0.282 -0.1301 -0.2627 -0.3612
   18CHTO   H15 7577   6.300   7.322  -0.245 -0.9860  0.1310 -1.3713
   18CHTO    O6 7578   6.408   7.365  -0.417  0.3572  0.2423  0.1185
   18CHTO    H1 7579   6.362   7.286  -0.441  3.4473 -2.1071  1.6025
   18CHTO    C3 7580   6.500   7.377  -0.182  0.3082 -0.2640  0.9495
   18CHTO   H16 7581   6.594   7.426  -0.212  0.4457 -0.4649  1.0514
   18CHTO    N1 7582   6.539   7.230  -0.162  0.0770 -0.1059 -0.1029
   18CHTO    H8 7583   6.491   7.188  -0.075  1.6068  1.0098  1.3082
   18CHTO    H9 7584   6.647   7.233  -0.154  0.0572  2.0971 -0.3656
   18CHTO    C4 7585   6.466   7.436  -0.044  0.7766  0.1016 -0.2312
   18CHTO   H17 7586   6.389   7.374   0.002  0.3503  2.4760  2.3608
   18CHTO    O1 7587   6.428   7.572  -0.055 -0.0819 -0.2565 -0.6037
   18CHTO    C5 7588   6.301   7.577  -0.123 -0.4646 -0.0971  0.0475
   18CHTO   H18 7589   6.230   7.521  -0.062  0.1402  1.0989  1.9042
   18CHTO   C16 7590   6.260   7.730  -0.110 -0.0818 -0.3807  0.8227
   18CHTO   O11 7591   6.118   7.756  -0.124 -0.2562  0.2329 -0.5531
   18CHTO    H5 7592   6.071   7.700  -0.064  1.6753  2.2491  2.9671
   18CHTO    O3 7593   6.579   7.438   0.049 -0.1439 -0.5604 -0.1952
   18CHTO    C6 7594   6.551   7.410   0.190 -0.3701  0.1443  0.1394
   18CHTO   H19 7595   6.446   7.428   0.212  0.6533  3.7137  2.6166
   18CHTO    C8 7596   6.579   7.263   0.229  0.2328  0.2271 -0.0789
   18CHTO   H21 7597   6.683   7.247   0.199 -0.0034 -0.9224 -0.3107
   18CHTO    O7 7598   6.477   7.183   0.156  0.2041 -0.1784 -0.3438
   18CHTO    H2 7599   6.497   7.092   0.153  2.0977  0.1886  0.3651
   18CHTO   C12 7600   6.567   7.236   0.386 -0.4749 -0.4972  0.1766
   18CHTO   H25 7601   6.462   7.234   0.423 -0.2397  1.4501  0.9803
   18CHTO    N3 7602   6.606   7.096   0.411 -0.1764  0.5120 -0.2728
   18CHTO   H12 7603   6.708   7.086   0.376  0.3499  0.8757  1.0999
   18CHTO   H13 7604   6.618   7.078   0.517 -0.0175 -0.2581 -0.4146
   18CHTO   C15 7605   6.657   7.343   0.464  0.0987 -0.2853 -0.4926
   18CHTO   H28 7606   6.761   7.339   0.434 -0.5448 -2.3442 -2.6363
   18CHTO   O10 7607   6.645   7.340   0.606 -0.0941  0.0037 -0.5003
   18CHTO    H4 7608   6.703   7.407   0.638 -1.1007 -0.4132  2.3280
   18CHTO    O5 7609   6.607   7.472   0.427  0.0041  0.0190 -0.0173
   18CHTO   C10 7610   6.627   7.503   0.290 -0.4383 -0.2159 -0.0203
   18CHTO   H23 7611   6.733   7.499   0.265 -0.3948  2.1222 -0.3008
   18CHTO   C17 7612   6.584   7.647   0.258 -0.7250  0.3176 -0.3215
   18CHTO   O12 7613   6.661   7.755   0.307  0.4461 -0.1619 -0.4561
   18CHTO    H6 7614   6.650   7.769   0.399 -0.4544  0.1465 -0.6084
   19CHTO  H203 7615   6.354   9.041   1.283  0.6795  1.6619  2.0915
   19CHTO   O82 7616   6.326   9.110   1.226  0.4897  0.2182  0.3838
   19CHTO  C123 7617   6.182   9.104   1.194  0.1274  0.4921 -0.0409
   19CHTO  H227 7618   6.154   9.197   1.143 -0.7172  0.5283  0.4961
   19CHTO   O77 7619   6.176   8.988   1.103  0.6191  0.0185  0.0867
   19CHTO  C118 7620   6.046   8.957   1.050  0.3561 -0.1077  0.0272
   19CHTO  H222 7621   6.022   9.037   0.977  0.2556 -0.5958 -0.4778
   19CHTO  C125 7622   6.045   8.819   0.965  0.0925  0.4308  0.2827
   19CHTO   O84 7623   6.103   8.716   1.047 -0.3262 -0.3235 -0.2285
   19CHTO  H205 7624   6.130   8.660   0.978  0.4132 -1.0256  0.6253
   19CHTO  C114 7625   5.938   8.944   1.163 -1.1969 -0.4906 -0.0345
   19CHTO  H218 7626   5.955   8.856   1.224 -1.6245 -0.4671  0.1223
   19CHTO  C116 7627   5.936   9.062   1.254  0.3995 -0.3792 -0.9537
   19CHTO  H220 7628   5.898   9.155   1.207 -0.5584 -0.7629 -0.9585
   19CHTO   O79 7629   5.845   9.029   1.358  0.1413  0.1585 -0.5348
   19CHTO  H201 7630   5.823   9.099   1.417 -0.1714 -1.0534  0.8251
   19CHTO  C120 7631   6.080   9.085   1.310 -0.2412  0.1718 -0.2982
   19CHTO  H224 7632   6.106   8.991   1.363 -2.1062 -0.8768 -1.1965
   19CHTO   N21 7633   6.086   9.197   1.408 -0.1355  0.3938 -0.8628
   19CHTO  H211 7634   6.044   9.279   1.353 -0.7944 -0.7302 -2.0718
   19CHTO  H212 7635   6.187   9.223   1.432 -0.1255  1.1377 -1.7066
   19CHTO   O75 7636   5.809   8.928   1.095  0.4157  0.0568  0.4159
   19CHTO  C112 7637   5.706   8.799   1.165 -0.0191 -0.1462 -0.0591
   19CHTO  H216 7638   5.684   8.819   1.271  0.3117  0.6702 -0.1372
   19CHTO   O73 7639   5.772   8.672   1.149 -0.3135 -0.1974  0.4487
   19CHTO  C113 7640   5.705   8.571   1.221 -0.7751  0.4035 -0.5136
   19CHTO  H217 7641   5.688   8.611   1.323 -1.8449  0.9599 -0.8999
   19CHTO  C124 7642   5.792   8.449   1.239  0.2061  0.8093 -1.0164
   19CHTO   O83 7643   5.738   8.339   1.307  0.1606  0.2989  0.2727
   19CHTO  H204 7644   5.748   8.339   1.400 -1.4323  2.5789  0.4855
   19CHTO  C109 7645   5.573   8.543   1.143 -0.1911  0.4554  0.1288
   19CHTO  H213 7646   5.604   8.510   1.043  0.2818  0.4395  0.2814
   19CHTO  C110 7647   5.483   8.668   1.134 -0.3384  0.4197 -0.0948
   19CHTO  H214 7648   5.436   8.689   1.230 -0.9826  1.0349 -0.5446
   19CHTO   O78 7649   5.367   8.643   1.053  0.0929 -0.5355 -0.1616
   19CHTO  H200 7650   5.319   8.576   1.097  0.6858 -1.5027 -0.9719
   19CHTO  C111 7651   5.570   8.790   1.088 -0.2674  0.9423  0.5915
   19CHTO  H215 7652   5.600   8.776   0.983 -0.0068  0.9038  0.6711
   19CHTO   N19 7653   5.503   8.925   1.083 -0.3012 -0.4544 -0.1566
   19CHTO  H207 7654   5.475   8.964   1.179 -1.9253  0.7630 -1.0951
   19CHTO  H208 7655   5.573   8.995   1.038  0.0962  0.4232  1.7708
   19CHTO   O74 7656   5.512   8.426   1.211 -0.2315  0.1980  0.0055
   19CHTO  C115 7657   5.442   8.327   1.119 -0.1607 -0.2248 -0.3885
   19CHTO  H219 7658   5.377   8.381   1.050 -0.2502  1.3224  0.8689
   19CHTO   O76 7659   5.543   8.249   1.034 -1.0269  0.2035 -0.2934
   19CHTO  C122 7660   5.589   8.128   1.091  0.2673 -0.0556  0.1843
   19CHTO  H226 7661   5.640   8.161   1.181  0.2305 -1.3593  0.6848
   19CHTO  C126 7662   5.698   8.067   0.994  0.3934  0.3222  0.1909
   19CHTO   O85 7663   5.642   8.019   0.867 -0.1645  0.1250  0.0250
   19CHTO  H206 7664   5.621   7.928   0.877  2.9655 -0.7623 -0.6741
   19CHTO  C121 7665   5.476   8.022   1.108 -0.4895 -0.4031  0.0282
   19CHTO  H225 7666   5.469   7.966   1.013  1.6168  0.4398 -0.6497
   19CHTO   O81 7667   5.501   7.934   1.216 -0.1807 -0.5082  0.4596
   19CHTO  H202 7668   5.429   7.875   1.225 -1.0017  0.7032  2.2571
   19CHTO  C119 7669   5.339   8.092   1.145  0.3665  0.6455 -0.0311
   19CHTO  H223 7670   5.285   8.101   1.051 -1.7960 -1.1405  1.0016
   19CHTO  C117 7671   5.356   8.234   1.207 -0.3784 -0.3030  0.1646
   19CHTO  H221 7672   5.403   8.243   1.305 -0.2804  1.3281 -0.0267
   19CHTO   N20 7673   5.223   8.300   1.230 -0.5981 -0.0803 -0.1174
   19CHTO  H209 7674   5.151   8.233   1.274 -0.3482  0.0969  0.5807
   19CHTO  H210 7675   5.241   8.386   1.293  1.7787 -0.4149 -0.2737
   19CHTO   O80 7676   5.228   7.984   1.221 -0.4352 -0.0599 -0.1332
   19CHTO  C103 7677   5.172   7.860   1.146 -0.3022 -0.1706  0.9573
   19CHTO  H190 7678   5.232   7.834   1.058 -1.7677  0.9767 -0.4152
   19CHTO  C101 7679   5.147   7.730   1.230  0.1590 -0.7434  0.5616
   19CHTO  H188 7680   5.079   7.760   1.311 -0.8255 -0.4929 -0.3413
   19CHTO   O68 7681   5.279   7.681   1.272  0.4476  0.4004 -0.0249
   19CHTO  H168 7682   5.313   7.615   1.215  1.0953  0.5687  0.1538
   19CHTO   C99 7683   5.079   7.619   1.140  0.4923 -1.2807  0.0934
   19CHTO  H186 7684   5.160   7.600   1.066 -0.6785 -0.3865 -1.4445
   19CHTO   N17 7685   5.041   7.489   1.210  0.2139  0.2127  0.4322
   19CHTO  H174 7686   5.066   7.491   1.315 -2.3905 -1.8427  1.1548
   19CHTO  H175 7687   5.094   7.408   1.161  0.6122  0.3385  0.6517
   19CHTO   C97 7688   4.957   7.673   1.058  0.0381  0.2270 -0.5540
   19CHTO  H184 7689   4.876   7.685   1.132 -0.5614 -1.7224 -0.8788
   19CHTO   O64 7690   4.985   7.796   0.992 -0.0022 -0.1084 -0.7476
   19CHTO  C104 7691   5.028   7.899   1.083  0.0504  0.3009  0.3629
   19CHTO  H191 7692   4.959   7.909   1.166  0.0227 -2.0599  0.6506
   19CHTO  C108 7693   5.017   8.026   0.996 -1.0123 -0.3527  0.1397
   19CHTO   O71 7694   4.884   8.051   0.958 -0.0603  0.0255 -0.1690
   19CHTO  H171 7695   4.859   7.985   0.896 -2.3888  0.4375  0.2969
   19CHTO   O62 7696   4.923   7.582   0.947  0.7740 -0.1933  0.9470
   19CHTO   C91 7697   4.794   7.615   0.892  0.1975  0.2603 -0.1030
   19CHTO  H178 7698   4.755   7.704   0.941 -0.4150  0.2444 -0.5556
   19CHTO   C92 7699   4.694   7.492   0.940 -0.6517  0.1777  0.2831
   19CHTO  H179 7700   4.702   7.485   1.049 -1.6038 -3.4299  0.1948
   19CHTO   O66 7701   4.560   7.533   0.916  0.3311 -0.4455 -0.2114
   19CHTO  H166 7702   4.491   7.478   0.948  0.0261 -0.0495 -0.1836
   19CHTO   C93 7703   4.722   7.360   0.868 -0.4395 -0.4485  0.3962
   19CHTO  H180 7704   4.636   7.293   0.885 -1.2090 -0.2874 -2.5712
   19CHTO   N16 7705   4.842   7.294   0.931  0.2064  0.0284  0.1866
   19CHTO  H172 7706   4.889   7.231   0.857  0.8873 -1.0697  1.5205
   19CHTO  H173 7707   4.803   7.240   1.016 -0.2695  3.0393  1.9700
   19CHTO   C94 7708   4.742   7.377   0.715  0.1822 -0.3390 -0.0604
   19CHTO  H181 7709   4.847   7.370   0.688  1.2469 -0.1978  3.6756
   19CHTO   O61 7710   4.717   7.512   0.677 -0.2666 -0.0028 -0.2330
   19CHTO   C95 7711   4.803   7.610   0.732 -0.7857 -0.0752  0.1892
   19CHTO  H182 7712   4.903   7.597   0.690 -0.6262  0.5942  0.3482
   19CHTO  C106 7713   4.768   7.755   0.675 -0.1692 -0.2950  0.1503
   19CHTO   O69 7714   4.870   7.858   0.698 -0.4334 -0.5891  1.2708
   19CHTO  H169 7715   4.904   7.845   0.785  0.8445 -1.7761  0.6253
   19CHTO   O63 7716   4.650   7.293   0.634 -0.2506 -0.0468  0.0168
   19CHTO   C96 7717   4.706   7.195   0.553  0.6966  0.7290  0.2758
   19CHTO  H183 7718   4.785   7.146   0.611 -1.2143  1.2856  3.4958
   19CHTO   C98 7719   4.762   7.265   0.422 -0.2322  0.0293  0.4878
   19CHTO  H185 7720   4.827   7.349   0.450 -1.5844  1.2391  0.0369
   19CHTO   O67 7721   4.849   7.171   0.361 -0.7400 -0.5904  0.4424
   19CHTO  H167 7722   4.903   7.125   0.422  0.9890  0.6032 -0.1805
   19CHTO  C102 7723   4.647   7.309   0.326 -0.2898  0.1205 -0.3766
   19CHTO  H189 7724   4.695   7.340   0.232  0.1526 -3.2283 -1.3228
   19CHTO   N18 7725   4.560   7.425   0.367 -0.3832  0.0604  0.2131
   19CHTO  H176 7726   4.615   7.496   0.428 -0.1175  1.3603 -1.4899
   19CHTO  H177 7727   4.482   7.384   0.429 -0.6807 -0.0949 -0.2583
   19CHTO  C105 7728   4.561   7.184   0.288 -0.2568 -0.4771  0.0470
   19CHTO  H192 7729   4.457   7.218   0.282  0.7215  2.6747  0.1381
   19CHTO   O65 7730   4.577   7.071   0.379 -0.6634 -0.6774 -0.3388
   19CHTO  C100 7731   4.593   7.097   0.522 -0.4807  0.1211 -0.4312
   19CHTO  H187 7732   4.499   7.137   0.563  0.1621  1.0169  0.1966
   19CHTO  C107 7733   4.611   6.958   0.599  0.2257  0.1045  0.5625
   19CHTO   O70 7734   4.651   6.966   0.738 -0.3966 -0.0671 -0.0204
   19CHTO  H170 7735   4.661   7.055   0.763  0.1495  0.1614 -1.0413
   19CHTO   O57 7736   4.605   7.143   0.139  0.1914 -0.5648  0.4523
   19CHTO   C85 7737   4.510   7.126   0.037  0.1197  1.2177  0.3732
   19CHTO  H157 7738   4.412   7.103   0.083 -0.9694  0.7339 -2.1010
   19CHTO   C83 7739   4.557   6.994  -0.037  0.4319  0.7892  0.2039
   19CHTO  H155 7740   4.544   6.907   0.027 -0.1424 -0.4992 -1.6167
   19CHTO   O56 7741   4.694   7.004  -0.085 -0.0208 -0.1069  0.5388
   19CHTO  H135 7742   4.746   6.947  -0.032  0.1295 -0.0533  0.4512
   19CHTO   C81 7743   4.460   6.973  -0.161  0.1852  0.1863 -0.9474
   19CHTO  H153 7744   4.363   6.942  -0.123  0.4793 -0.0491 -0.3808
   19CHTO   N14 7745   4.493   6.850  -0.237  0.0008 -0.1692  0.1368
   19CHTO  H141 7746   4.515   6.772  -0.167 -1.5149 -0.4386  0.3269
   19CHTO  H142 7747   4.413   6.815  -0.299  1.2939  0.8485 -2.1769
   19CHTO   C79 7748   4.446   7.100  -0.262  0.1503 -0.5947  0.6319
   19CHTO  H151 7749   4.367   7.077  -0.333  1.4637 -1.5043 -0.5618
   19CHTO   O52 7750   4.412   7.217  -0.184  0.0928 -0.1264 -0.2045
   19CHTO   C86 7751   4.492   7.249  -0.060 -0.4455  0.6040  0.0364
   19CHTO  H158 7752   4.595   7.276  -0.091  1.0548 -1.7085  2.6861
   19CHTO   C90 7753   4.434   7.374   0.007  0.0110 -0.3232 -0.1947
   19CHTO   O60 7754   4.444   7.497  -0.064  0.0579  0.5362 -0.8453
   19CHTO  H138 7755   4.420   7.567  -0.007 -2.7589  0.1971 -1.5125
   19CHTO   O50 7756   4.569   7.128  -0.336  0.1253  0.3640  0.1983
   19CHTO   C73 7757   4.612   7.182  -0.467  0.8541  0.0556  0.3036
   19CHTO  H145 7758   4.599   7.114  -0.552  0.9362  0.8377 -0.3478
   19CHTO   C74 7759   4.767   7.207  -0.439  0.4394 -0.1593 -0.7320
   19CHTO  H146 7760   4.815   7.114  -0.406 -0.3760 -0.5493 -0.6490
   19CHTO   O54 7761   4.833   7.231  -0.567  0.1266 -0.6383  0.1595
   19CHTO  H133 7762   4.926   7.235  -0.551  0.3275 -1.3922 -0.7770
   19CHTO   C75 7763   4.784   7.325  -0.339 -0.6416 -0.4206 -0.1926
   19CHTO  H147 7764   4.742   7.303  -0.239 -3.7048 -0.3257 -1.4072
   19CHTO   N13 7765   4.927   7.365  -0.318  0.2912  0.3894 -0.3144
   19CHTO  H139 7766   4.933   7.416  -0.223 -1.3990 -1.7667  0.9979
   19CHTO  H140 7767   5.008   7.293  -0.315  0.4259  0.5900  1.0545
   19CHTO   C76 7768   4.704   7.456  -0.393  0.0512  0.7272  0.2702
   19CHTO  H148 7769   4.745   7.483  -0.491 -0.9981  0.0241 -0.3698
   19CHTO   O49 7770   4.562   7.416  -0.410  0.1589  0.3678 -0.0790
   19CHTO   C77 7771   4.546   7.314  -0.510 -0.9639  0.4228  0.1494
   19CHTO  H149 7772   4.593   7.357  -0.599  2.5321  1.0253  2.2031
   19CHTO   C88 7773   4.398   7.287  -0.548  0.6618  0.4641 -0.1755
   19CHTO   O58 7774   4.392   7.240  -0.690  0.2497  0.2403 -0.1483
   19CHTO  H136 7775   4.426   7.152  -0.695 -0.0065  0.1191  0.2968
   19CHTO   O51 7776   4.700   7.575  -0.283  0.3494  0.3361 -0.9845
   19CHTO   C78 7777   4.760   7.732  -0.334 -0.7381  1.1823  0.1021
   19CHTO  H150 7778   4.785   7.743  -0.442  1.4223 -1.9259  0.2032
   19CHTO   C80 7779   4.883   7.772  -0.252 -0.1948 -0.4143  0.3806
   19CHTO  H152 7780   4.859   7.755  -0.145 -0.0818  0.9649  0.6358
   19CHTO   O55 7781   4.997   7.687  -0.296 -0.0535  0.4441  0.0533
   19CHTO  H134 7782   5.076   7.737  -0.292  0.3301 -0.1657  0.1122
   19CHTO   C84 7783   4.915   7.920  -0.266 -0.0030 -0.2122  0.6423
   19CHTO  H156 7784   4.940   7.938  -0.370 -0.8877 -2.3592  0.0356
   19CHTO   N15 7785   5.030   7.969  -0.190  0.1363 -0.1881  0.2864
   19CHTO  H143 7786   5.027   7.954  -0.084  1.4723 -0.6959  0.2693
   19CHTO  H144 7787   5.051   8.073  -0.206  2.4556 -0.4378  1.4880
   19CHTO   C87 7788   4.791   8.008  -0.245 -0.1566  0.0351 -0.1813
   19CHTO  H159 7789   4.756   8.002  -0.142 -2.6147 -0.1618 -1.0109
   19CHTO   O53 7790   4.681   7.951  -0.369 -0.0698 -0.0198  0.0177
   19CHTO   C82 7791   4.640   7.826  -0.323  0.0265 -0.0261  0.4256
   19CHTO  H154 7792   4.612   7.831  -0.218 -1.5536  1.6161 -0.0606
   19CHTO   C89 7793   4.517   7.768  -0.401 -0.0165 -0.1680  0.0394
   19CHTO   O59 7794   4.531   7.786  -0.542  0.2054 -0.4624 -0.2008
   19CHTO  H137 7795   4.529   7.698  -0.573 -0.5469 -0.0340 -1.3897
   19CHTO   O45 7796   4.806   8.172  -0.265 -0.5145  0.2071 -0.1337
   19CHTO   C67 7797   4.690   8.254  -0.247  0.5693 -0.4257 -0.0142
   19CHTO  H124 7798   4.602   8.195  -0.224 -0.0217  1.1382  1.8303
   19CHTO   C65 7799   4.703   8.346  -0.123  0.2856 -0.6855  0.1373
   19CHTO  H122 7800   4.811   8.364  -0.127  0.3637 -0.9326  1.0041
   19CHTO   O44 7801   4.674   8.267  -0.004 -0.1244  0.5925 -0.9420
   19CHTO  H102 7802   4.729   8.300   0.065 -0.9511  0.9504 -0.4460
   19CHTO   C63 7803   4.630   8.483  -0.141  0.0769 -0.3969 -0.5039
   19CHTO  H120 7804   4.688   8.542  -0.212 -0.3418 -2.7281 -2.8510
   19CHTO   N11 7805   4.647   8.568  -0.019 -0.1577  0.2072  0.1998
   19CHTO  H108 7806   4.616   8.521   0.071  2.4172  1.6900  1.9297
   19CHTO  H109 7807   4.744   8.612  -0.028  0.6266 -1.8169 -2.0161
   19CHTO   C61 7808   4.491   8.461  -0.211  0.1785  0.0612  0.0168
   19CHTO  H118 7809   4.442   8.559  -0.222  2.3900  1.0565 -1.1927
   19CHTO   O40 7810   4.515   8.410  -0.355  0.2286  0.5523  0.4248
   19CHTO   C68 7811   4.647   8.345  -0.368  0.4890  0.2839  0.0342
   19CHTO  H125 7812   4.723   8.425  -0.382  0.1850  0.9106  1.8318
   19CHTO   C72 7813   4.655   8.257  -0.493 -0.4261 -0.1658 -0.1525
   19CHTO   O48 7814   4.635   8.344  -0.604  0.0468  0.4329  0.0082
   19CHTO  H105 7815   4.544   8.335  -0.624 -0.2127 -0.1808  1.3877
   19CHTO   O38 7816   4.408   8.375  -0.132 -0.1010  0.5143  0.0147
   19CHTO   C55 7817   4.281   8.326  -0.191  0.2613 -0.4231  0.1284
   19CHTO  H112 7818   4.293   8.317  -0.300 -2.5799  0.1129 -0.2841
   19CHTO   C56 7819   4.162   8.425  -0.156 -0.2336  0.1308  0.2237
   19CHTO  H113 7820   4.163   8.435  -0.046 -0.0444  0.1262  0.2213
   19CHTO   O42 7821   4.191   8.557  -0.202 -0.0352 -0.2222 -0.3881
   19CHTO  H100 7822   4.280   8.575  -0.176 -0.5397  0.5845  0.8350
   19CHTO   C57 7823   4.027   8.361  -0.210  0.1375 -0.6552 -0.2683
   19CHTO  H114 7824   4.027   8.353  -0.319  1.5801 -1.8776 -0.1939
   19CHTO   N10 7825   3.907   8.438  -0.181 -0.7001 -0.2258  0.0290
   19CHTO  H106 7826   3.833   8.407  -0.252  0.3598  1.5378 -1.9195
   19CHTO  H107 7827   3.876   8.420  -0.079 -1.5294  2.6540  0.3479
   19CHTO   C58 7828   4.009   8.220  -0.151  0.6018  0.3663  0.1841
   19CHTO  H115 7829   3.994   8.227  -0.042 -3.3591 -0.8844 -0.2001
   19CHTO   O37 7830   4.126   8.145  -0.183 -0.5098 -0.4404  0.1169
   19CHTO   C59 7831   4.247   8.186  -0.122  0.2331 -0.6668  0.2368
   19CHTO  H116 7832   4.236   8.176  -0.014 -2.0611 -0.2191  0.0725
   19CHTO   C70 7833   4.360   8.083  -0.155  0.2262  0.0982  0.3813
   19CHTO   O46 7834   4.395   8.071  -0.294 -0.7633 -0.4001 -0.2790
   19CHTO  H103 7835   4.324   8.043  -0.349 -2.2816  1.9900  0.4083
   19CHTO   O39 7836   3.873   8.144  -0.215  0.1636  0.8412 -0.1856
   19CHTO   C60 7837   3.873   8.090  -0.346  0.0168 -0.6304  0.1135
   19CHTO  H117 7838   3.938   8.154  -0.405  0.4481 -0.3933  0.8470
   19CHTO   C62 7839   3.932   7.948  -0.359  0.0502  0.3119  0.2340
   19CHTO  H119 7840   4.033   7.950  -0.314  0.1002 -1.9587  0.2952
   19CHTO   O43 7841   3.848   7.860  -0.277 -0.6040 -0.3227 -0.5419
   19CHTO  H101 7842   3.853   7.872  -0.184  1.1067 -1.1490 -0.5041
   19CHTO   C66 7843   3.938   7.905  -0.510 -0.2276  0.0605 -0.8264
   19CHTO  H123 7844   3.999   7.982  -0.557  2.5417 -0.4667  1.7420
   19CHTO   N12 7845   4.009   7.781  -0.535 -0.1437 -0.4490  0.0256
   19CHTO  H110 7846   4.087   7.803  -0.607  0.3511  1.2415  1.0513
   19CHTO  H111 7847   4.056   7.731  -0.452 -0.0266 -0.4974 -0.0693
   19CHTO   C69 7848   3.800   7.904  -0.574 -0.0525 -0.4016  0.6738
   19CHTO  H126 7849   3.731   7.833  -0.524  0.3118 -0.0032  1.7799
   19CHTO   O41 7850   3.748   8.052  -0.568  0.2210 -0.2068  0.2274
   19CHTO   C64 7851   3.735   8.096  -0.422  0.1106 -0.4842 -0.4210
   19CHTO  H121 7852   3.670   8.021  -0.371 -0.9279  0.2786 -0.6043
   19CHTO   C71 7853   3.660   8.233  -0.413  0.3484  0.1827 -0.0624
   19CHTO   O47 7854   3.520   8.219  -0.457 -0.0605  0.0228 -0.8136
   19CHTO  H104 7855   3.461   8.222  -0.383  0.3798 -0.9216 -0.4130
   19CHTO   O34 7856   3.799   7.867  -0.737  0.3655  0.0419  0.0921
   19CHTO   C49 7857   3.681   7.803  -0.832  0.4338 -0.0524  0.4804
   19CHTO   H91 7858   3.583   7.844  -0.810  0.2166 -0.4166  0.1944
   19CHTO   C47 7859   3.686   7.650  -0.804  0.4247  0.7111 -0.2511
   19CHTO   H89 7860   3.602   7.614  -0.867 -0.8128  0.6522  1.4155
   19CHTO   O33 7861   3.649   7.625  -0.667 -0.0433  0.7036  0.1273
   19CHTO   H70 7862   3.604   7.544  -0.652 -0.4815  0.5833 -1.7784
   19CHTO   C45 7863   3.819   7.580  -0.851 -0.0396 -0.4773 -0.2468
   19CHTO   H87 7864   3.882   7.571  -0.762  1.0806  0.2241 -0.9618
   19CHTO    N8 7865   3.782   7.448  -0.903  0.0923  0.0537 -0.5335
   19CHTO   H75 7866   3.739   7.456  -1.002 -0.3621 -0.2970 -0.3720
   19CHTO   H76 7867   3.707   7.396  -0.844 -1.5876  0.4793 -2.2527
   19CHTO   C43 7868   3.904   7.679  -0.949  0.3236  0.4046 -0.3362
   19CHTO   H85 7869   3.952   7.749  -0.881  0.2026  0.6953 -0.5524
   19CHTO   O29 7870   3.816   7.745  -1.038  0.8493 -0.0887 -0.1400
   19CHTO   C50 7871   3.714   7.831  -0.985  0.6757  0.7843 -0.0466
   19CHTO   H92 7872   3.725   7.940  -0.998 -1.9535  0.8780 -2.1576
   19CHTO   C54 7873   3.583   7.805  -1.060 -0.4548  0.1193 -0.2276
   19CHTO   O36 7874   3.596   7.836  -1.197  0.1745 -0.2101 -0.0167
   19CHTO   H72 7875   3.644   7.916  -1.206 -1.9150  1.1165  0.3605
   19CHTO   O27 7876   4.006   7.606  -1.019 -0.0789 -0.4321  0.0867
   19CHTO   C37 7877   4.145   7.622  -1.032 -0.8561 -0.2937  0.1918
   19CHTO   H79 7878   4.180   7.529  -1.080 -1.8506 -0.6262  0.0991
   19CHTO   C38 7879   4.180   7.746  -1.123  0.4181  0.1658  0.0798
   19CHTO   H80 7880   4.118   7.831  -1.089  1.3466  0.7240  0.3915
   19CHTO   O31 7881   4.149   7.702  -1.257  0.1125 -0.7344 -0.0307
   19CHTO   H68 7882   4.215   7.729  -1.317 -1.0450  2.2212 -0.0365
   19CHTO   C39 7883   4.334   7.791  -1.121  0.0566 -0.3101  0.4828
   19CHTO   H81 7884   4.389   7.719  -1.182 -2.9730 -1.3944 -1.0934
   19CHTO    N7 7885   4.370   7.922  -1.190 -1.2045 -0.6320  0.3379
   19CHTO   H73 7886   4.297   8.002  -1.189 -0.2376  0.2658  3.3820
   19CHTO   H74 7887   4.409   7.906  -1.289  0.6295  0.4519  0.8597
   19CHTO   C40 7888   4.387   7.784  -0.977 -0.0347 -0.1685  0.4776
   19CHTO   H82 7889   4.356   7.873  -0.923 -0.8057 -0.5016  0.5898
   19CHTO   O26 7890   4.351   7.665  -0.907  0.6468  0.8138 -0.5519
   19CHTO   C41 7891   4.210   7.638  -0.894 -0.0440 -0.1906 -0.1521
   19CHTO   H83 7892   4.165   7.727  -0.848  1.0099  0.6191 -0.6625
   19CHTO   C52 7893   4.209   7.520  -0.799  0.1972 -0.0449  0.1564
   19CHTO   O35 7894   4.225   7.555  -0.669  0.2973 -0.8222  0.2828
   19CHTO   H71 7895   4.313   7.584  -0.653 -0.0225 -0.8370  2.0651
   19CHTO   O28 7896   4.537   7.776  -0.983  0.8394  0.3558 -0.6919
   19CHTO   C42 7897   4.635   7.826  -0.889 -0.2170  0.5824 -0.0899
   19CHTO   H84 7898   4.583   7.845  -0.795 -1.7882  0.5457 -0.9377
   19CHTO   C44 7899   4.692   7.966  -0.929  0.0402 -0.3637  0.2890
   19CHTO   H86 7900   4.735   7.965  -1.029 -0.2770  0.8331  0.1311
   19CHTO   O32 7901   4.575   8.047  -0.933 -0.2295 -0.1762  0.2531
   19CHTO   H69 7902   4.527   8.025  -1.010  2.1129 -5.4591  0.1010
   19CHTO   C48 7903   4.804   8.009  -0.823  0.4034 -0.1348  0.6775
   19CHTO   H90 7904   4.755   8.010  -0.726 -0.4100 -1.4716  0.2926
   19CHTO    N9 7905   4.848   8.148  -0.853 -0.2498 -0.3766 -0.3483
   19CHTO   H77 7906   4.929   8.171  -0.785 -0.5229  1.7242 -0.7133
   19CHTO   H78 7907   4.766   8.214  -0.829 -0.7756 -1.0331 -0.3066
   19CHTO   C51 7908   4.914   7.900  -0.824  0.2701 -0.1483  0.6182
   19CHTO   H93 7909   4.937   7.883  -0.929 -0.0835  1.9436  0.1838
   19CHTO   O30 7910   4.851   7.790  -0.761  0.2212  0.0359 -0.1551
   19CHTO   C46 7911   4.752   7.724  -0.860  0.7122 -0.3224  0.2080
   19CHTO   H88 7912   4.809   7.705  -0.951  1.1886  0.8377  0.2633
   19CHTO   C53 7913   4.701   7.596  -0.789 -0.6383 -0.2049  0.3712
   19CHTO   O72 7914   4.806   7.492  -0.756  0.0651  0.0554 -0.7478
   19CHTO  H199 7915   4.874   7.521  -0.698 -2.3236  1.8788  1.2046
   19CHTO   O22 7916   5.040   7.921  -0.751 -0.2794  0.3684  0.4607
   19CHTO   C31 7917   5.161   7.855  -0.816  0.9315  0.9554 -0.2333
   19CHTO   H59 7918   5.124   7.770  -0.878 -1.7903  0.1442  2.3238
   19CHTO   C29 7919   5.245   7.946  -0.912 -0.5597  0.0085  0.1860
   19CHTO   H57 7920   5.287   8.024  -0.847 -0.7460 -0.0572  0.3877
   19CHTO   O21 7921   5.164   8.019  -1.002 -0.1799 -0.6792  0.1026
   19CHTO   H37 7922   5.177   8.112  -0.998 -0.0918 -0.6933  0.1414
   19CHTO   C27 7923   5.364   7.859  -0.967 -0.7387 -0.5133 -0.4562
   19CHTO   H55 7924   5.321   7.788  -1.038 -2.0271 -1.7589  1.5392
   19CHTO    N5 7925   5.455   7.947  -1.041 -0.7376  0.3896 -0.0063
   19CHTO   H43 7926   5.463   8.041  -0.988  0.5851  0.8689 -1.0383
   19CHTO   H44 7927   5.462   7.936  -1.148  1.3591  1.4639 -0.0138
   19CHTO   C25 7928   5.444   7.782  -0.853  0.1074 -0.1266 -0.0852
   19CHTO   H53 7929   5.508   7.854  -0.800  0.0162  0.0996 -0.2827
   19CHTO   O17 7930   5.350   7.705  -0.774 -0.7018 -0.7048  0.4376
   19CHTO   C32 7931   5.252   7.793  -0.713  0.1189 -0.0735  0.0435
   19CHTO   H60 7932   5.297   7.873  -0.654 -0.4557  0.3000 -0.0226
   19CHTO   C36 7933   5.168   7.711  -0.608 -0.5052  0.1436 -0.4618
   19CHTO   O25 7934   5.093   7.606  -0.674  0.3120  0.5096 -0.0537
   19CHTO   H40 7935   5.006   7.641  -0.680  0.0182 -0.3752 -1.1556
   19CHTO   O15 7936   5.552   7.688  -0.937  0.6278  0.4938 -0.1542
   19CHTO   C19 7937   5.641   7.583  -0.893  0.3192  0.3232  0.1815
   19CHTO   H47 7938   5.641   7.601  -0.785 -1.5990 -1.2124  0.4787
   19CHTO   C20 7939   5.586   7.439  -0.914 -0.2645  0.4634 -0.4725
   19CHTO   H48 7940   5.566   7.419  -1.020  2.5476 -2.4136 -0.5452
   19CHTO   O19 7941   5.455   7.430  -0.846  0.1256 -0.2982  0.1621
   19CHTO   H35 7942   5.399   7.489  -0.892  0.5032 -1.0931 -1.3452
   19CHTO   C21 7943   5.680   7.323  -0.856 -0.3008  0.7559  0.2685
   19CHTO   H49 7944   5.683   7.330  -0.747 -1.2457  0.5600  0.3116
   19CHTO    N4 7945   5.618   7.198  -0.892  0.5583  0.4243 -1.1453
   19CHTO   H41 7946   5.694   7.122  -0.885  0.5145  0.5320  0.5283
   19CHTO   H42 7947   5.538   7.171  -0.826  0.6508  1.9010 -0.4108
   19CHTO   C22 7948   5.817   7.347  -0.911 -0.0825  0.3352  0.4766
   19CHTO   H50 7949   5.811   7.328  -1.019 -1.8601 -0.3791  0.6920
   19CHTO   O14 7950   5.859   7.481  -0.886 -1.0083  0.2067  0.0217
   19CHTO   C23 7951   5.782   7.589  -0.944  0.8501  0.5391 -0.7718
   19CHTO   H51 7952   5.787   7.581  -1.054  0.7961  0.5433 -0.7743
   19CHTO   C34 7953   5.849   7.725  -0.915  0.1847  0.1208 -0.2475
   19CHTO   O23 7954   5.986   7.731  -0.960  0.0662  0.4420 -0.1821
   19CHTO   H38 7955   5.990   7.678  -1.038 -2.0638 -1.7377  1.1039
   19CHTO   O16 7956   5.911   7.260  -0.841  0.6119 -0.0308  0.1763
   19CHTO   C24 7957   5.954   7.107  -0.899  0.4271  0.6682  0.8289
   19CHTO   H52 7958   6.060   7.086  -0.889  0.6697  2.2406  1.6801
   19CHTO   C26 7959   5.937   7.102  -1.054  0.0158  0.5152  0.1033
   19CHTO   H54 7960   5.835   7.137  -1.080 -0.1951 -0.5099 -0.4578
   19CHTO   O20 7961   6.025   7.204  -1.098  0.2121  0.3004  0.0481
   19CHTO   H36 7962   5.995   7.287  -1.067 -2.5893 -1.1632  1.3915
   19CHTO   C30 7963   5.960   6.962  -1.114 -0.0662  0.4432 -0.1772
   19CHTO   H58 7964   6.066   6.934  -1.108 -0.4598 -0.6558  2.1924
   19CHTO    N6 7965   5.931   6.958  -1.259  0.4282  0.0390  0.0221
   19CHTO   H45 7966   5.976   6.866  -1.294 -0.1556  0.1708 -1.0862
   19CHTO   H46 7967   5.980   7.043  -1.303  0.1033  0.3609  0.2786
   19CHTO   C33 7968   5.889   6.857  -1.026  0.7920  0.3823 -0.0722
   19CHTO   H61 7969   5.781   6.877  -1.030  1.1560  2.4227 -0.1620
   19CHTO   O18 7970   5.933   6.867  -0.887 -0.2416  0.7013 -0.0207
   19CHTO   C28 7971   5.882   6.986  -0.823  0.8642  0.4109 -0.1116
   19CHTO   H56 7972   5.774   6.995  -0.834  0.6141 -1.5559  0.5389
   19CHTO   C35 7973   5.909   6.978  -0.675  0.0097 -0.2228  0.2140
   19CHTO   O24 7974   5.831   7.076  -0.602 -0.0303  0.2076 -0.2485
   19CHTO   H39 7975   5.743   7.046  -0.585  0.8317 -1.7269  0.8788
   19CHTO    O9 7976   5.907   6.722  -1.077 -0.2508 -0.5205  0.3872
   19CHTO   C13 7977   5.766   6.651  -1.187 -0.1583  0.1556 -0.0470
   19CHTO   H26 7978   5.777   6.680  -1.294  0.7900 -0.8436 -0.2408
   19CHTO   C11 7979   5.632   6.694  -1.128 -0.2915 -0.6641 -0.1118
   19CHTO   H24 7980   5.609   6.800  -1.147  0.0111 -0.9440 -2.1385
   19CHTO    O8 7981   5.633   6.694  -0.989 -0.1969 -0.0218 -0.8239
   19CHTO    H3 7982   5.711   6.733  -0.956 -0.5189 -0.0309 -0.0434
   19CHTO    C9 7983   5.527   6.598  -1.183  0.0438  0.3541 -0.0955
   19CHTO   H22 7984   5.539   6.600  -1.293  2.0373 -2.3499  0.0103
   19CHTO    N2 7985   5.386   6.654  -1.174  0.0499 -0.2480  0.2708
   19CHTO   H10 7986   5.378   6.738  -1.241  0.5466  0.9512  1.6848
   19CHTO   H11 7987   5.317   6.577  -1.203  2.0351 -1.9138 -0.1225
   19CHTO    C7 7988   5.553   6.454  -1.134  0.1345 -0.4429 -0.2949
   19CHTO   H20 7989   5.490   6.381  -1.190 -2.4099  0.8205  0.8211
   19CHTO    O4 7990   5.691   6.411  -1.135  1.0920 -0.2355 -0.3614
   19CHTO   C14 7991   5.790   6.495  -1.190  0.8334  0.4441  0.5489
   19CHTO   H27 7992   5.791   6.469  -1.298  1.1609  0.3825  0.5669
   19CHTO   C18 7993   5.920   6.454  -1.129 -0.1267  0.2798  0.0273
   19CHTO   O13 7994   5.973   6.324  -1.179 -0.7843  0.7009  0.0514
   19CHTO    H7 7995   5.915   6.251  -1.169  0.1021 -0.0018  0.1395
   19CHTO    O2 7996   5.512   6.442  -0.978 -0.1322  0.8937  0.7264
   19CHTO    C1 7997   5.496   6.308  -0.939  0.2379  0.1523 -0.0802
   19CHTO   H14 7998   5.569   6.244  -0.993 -0.6548  0.3715 -1.5796
   19CHTO    C2 7999   5.350   6.242  -0.961 -0.5122 -0.4204 -0.7715
   19CHTO   H15 8000   5.279   6.316  -0.920  0.5996  0.6793 -0.8224
   19CHTO    O6 8001   5.315   6.225  -1.100 -0.0674 -0.4722  0.0367
   19CHTO    H1 8002   5.393   6.197  -1.144  0.3207 -1.1120  1.1145
   19CHTO    C3 8003   5.349   6.111  -0.873 -0.0664  0.7879  0.3060
   19CHTO   H16 8004   5.415   6.043  -0.928 -1.0962 -0.3500  0.4602
   19CHTO    N1 8005   5.220   6.033  -0.859  0.0654 -0.1369 -0.1880
   19CHTO    H8 8006   5.186   5.999  -0.956  0.9840  1.5038 -1.0966
   19CHTO    H9 8007   5.138   6.090  -0.818  2.1706  3.5680 -0.9273
   19CHTO    C4 8008   5.414   6.118  -0.728  0.0319  0.1634 -0.0712
   19CHTO   H17 8009   5.343   6.168  -0.662  0.3594  1.3882 -0.6336
   19CHTO    O1 8010   5.539   6.192  -0.726  0.0457  0.6485 -0.0834
   19CHTO    C5 8011   5.541   6.320  -0.789 -0.4611  0.1569 -0.4038
   19CHTO   H18 8012   5.465   6.379  -0.738  0.6511  0.8813  0.4365
   19CHTO   C16 8013   5.688   6.359  -0.755  0.1024 -0.2031 -0.7346
   19CHTO   O11 8014   5.718   6.499  -0.784  0.0315 -0.1328 -0.4511
   19CHTO    H5 8015   5.698   6.557  -0.713 -0.0797  0.6470 -1.1250
   19CHTO    O3 8016   5.449   5.982  -0.690 -0.9591 -1.0495  0.3271
   19CHTO    C6 8017   5.402   5.945  -0.559  0.3412 -0.7657 -0.1739
   19CHTO   H19 8018   5.328   6.009  -0.510  1.2204  0.8741 -0.9439
   19CHTO    C8 8019   5.336   5.799  -0.574 -0.0162  0.0014  0.8675
   19CHTO   H21 8020   5.400   5.742  -0.641 -1.8979 -1.1972  0.0499
   19CHTO    O7 8021   5.205   5.829  -0.629  0.3250  0.4284 -0.2333
   19CHTO    H2 8022   5.204   5.792  -0.715 -0.1829 -0.3473  0.0942
   19CHTO   C12 8023   5.319   5.722  -0.433  0.2881 -0.2189  0.1186
   19CHTO   H25 8024   5.249   5.787  -0.376 -0.3312  0.4168 -1.3513
   19CHTO    N3 8025   5.250   5.591  -0.449  0.0543 -0.9732 -0.1671
   19CHTO   H12 8026   5.301   5.521  -0.514 -1.3454 -0.5323 -1.7825
   19CHTO   H13 8027   5.237   5.549  -0.351  3.5650  0.0963  0.8399
   19CHTO   C15 8028   5.455   5.721  -0.360  0.2800 -0.3268 -0.6059
   19CHTO   H28 8029   5.536   5.670  -0.412 -0.3858 -2.0894  0.0849
   19CHTO   O10 8030   5.449   5.637  -0.209 -0.8476  0.1633 -0.2718
   19CHTO    H4 8031   5.517   5.671  -0.153 -0.8612  0.7327 -0.5967
   19CHTO    O5 8032   5.499   5.860  -0.339 -0.5267 -0.0143  0.0494
   19CHTO   C10 8033   5.516   5.936  -0.459 -0.2391  0.2468  0.3388
   19CHTO   H23 8034   5.592   5.878  -0.512 -0.8680 -0.6128  0.3599
   19CHTO   C17 8035   5.568   6.075  -0.419  0.5146  0.3727  0.2476
   19CHTO   O12 8036   5.473   6.165  -0.358  0.3303 -0.1364  0.0196
   19CHTO    H6 8037   5.452   6.235  -0.417  2.1438 -0.1390 -0.6702
   20CHTO  H203 8038   5.516   1.840   6.545  0.9456  0.4331 -0.3517
   20CHTO   O82 8039   5.471   1.919   6.521  0.1425  0.0236 -0.2106
   20CHTO  C123 8040   5.375   1.970   6.622  0.3103  0.3000 -0.5227
   20CHTO  H227 8041   5.341   1.882   6.680  0.1033  1.1888  0.7191
   20CHTO   O77 8042   5.462   2.054   6.697  0.1347 -0.5600  0.2660
   20CHTO  C118 8043   5.375   2.113   6.801  1.3872  0.1817 -0.1671
   20CHTO  H222 8044   5.310   2.050   6.864  0.6753  0.8395 -0.2487
   20CHTO  C125 8045   5.476   2.175   6.899  0.2858  0.5230 -0.0086
   20CHTO   O84 8046   5.553   2.272   6.825 -0.8422  0.2805  0.1016
   20CHTO  H205 8047   5.626   2.298   6.878 -0.4590  1.1279 -0.8238
   20CHTO  C114 8048   5.279   2.217   6.739  0.1981  0.0617 -0.0034
   20CHTO  H218 8049   5.335   2.292   6.682  0.2218  1.2216  1.4991
   20CHTO  C116 8050   5.180   2.151   6.641 -0.4897 -0.6351  0.5288
   20CHTO  H220 8051   5.107   2.088   6.695 -1.2875  0.3745  0.6545
   20CHTO   O79 8052   5.099   2.250   6.570  0.3578  0.0790 -0.5415
   20CHTO  H201 8053   5.153   2.313   6.527 -0.2672  1.4949  0.7059
   20CHTO  C120 8054   5.262   2.060   6.543 -0.3037 -0.8761  0.3557
   20CHTO  H224 8055   5.299   2.130   6.465  1.2445 -0.2824  1.5902
   20CHTO   N21 8056   5.167   1.971   6.464  0.0919 -0.4187  0.1977
   20CHTO  H211 8057   5.079   1.958   6.526  0.0126 -0.8163  0.0014
   20CHTO  H212 8058   5.214   1.875   6.448 -1.9900 -1.7983  2.0697
   20CHTO   O75 8059   5.213   2.282   6.846 -0.3933  0.6880  0.1735
   20CHTO  C112 8060   5.216   2.440   6.829  0.1855  0.1735 -0.3602
   20CHTO  H216 8061   5.232   2.459   6.722 -0.8647 -1.2242 -0.7736
   20CHTO   O73 8062   5.326   2.487   6.914  0.3160  0.4894  0.1381
   20CHTO  C113 8063   5.342   2.625   6.924 -0.1087 -0.3922 -0.1554
   20CHTO  H217 8064   5.372   2.669   6.826  2.6971  0.2850  0.9540
   20CHTO  C124 8065   5.461   2.654   7.014  0.5857  0.2858 -0.9313
   20CHTO   O83 8066   5.575   2.574   6.985  0.6804  0.5115  0.3682
   20CHTO  H204 8067   5.640   2.633   6.951  0.9556 -1.7792 -3.3350
   20CHTO  C109 8068   5.219   2.702   6.983  0.2606  0.0761 -0.5582
   20CHTO  H213 8069   5.212   2.669   7.088 -1.2925 -0.1918 -0.7324
   20CHTO  C110 8070   5.099   2.669   6.891 -0.4207  0.2106 -0.6308
   20CHTO  H214 8071   5.107   2.716   6.793 -2.1776 -0.2934 -1.0343
   20CHTO   O78 8072   4.982   2.721   6.949 -0.2898  0.1616  0.7690
   20CHTO  H200 8073   4.909   2.727   6.891 -0.8974  1.6110  1.6496
   20CHTO  C111 8074   5.082   2.509   6.879  0.2710  0.4273  0.6892
   20CHTO  H215 8075   5.047   2.473   6.977  0.5924  0.2112  0.7230
   20CHTO   N19 8076   4.976   2.475   6.784 -0.2126 -0.2692  0.4537
   20CHTO  H207 8077   4.885   2.531   6.798 -0.0646  0.2793 -0.6890
   20CHTO  H208 8078   5.011   2.478   6.682 -2.2562 -2.8452 -0.3658
   20CHTO   O74 8079   5.233   2.848   6.971  0.2783 -0.4272  0.3973
   20CHTO  C115 8080   5.201   2.927   7.106  0.1749  0.4377 -0.5042
   20CHTO  H219 8081   5.170   2.863   7.189  1.4026 -1.4558 -1.4560
   20CHTO   O76 8082   5.314   2.999   7.153  0.0952 -0.4655 -0.2671
   20CHTO  C122 8083   5.359   3.107   7.064 -0.6827 -0.3418 -0.0344
   20CHTO  H226 8084   5.427   3.056   6.995  2.4746  0.5048  2.3065
   20CHTO  C126 8085   5.447   3.213   7.145 -0.0726 -0.1537 -0.4168
   20CHTO   O85 8086   5.535   3.274   7.042 -0.1499 -0.3815 -0.0688
   20CHTO  H206 8087   5.611   3.228   7.014  0.4912 -0.2589  1.4676
   20CHTO  C121 8088   5.251   3.179   6.979 -0.5087  0.1091  0.4920
   20CHTO  H225 8089   5.268   3.286   6.956  1.9164 -0.3675 -0.0942
   20CHTO   O81 8090   5.240   3.118   6.847  0.9920 -0.4437 -0.1841
   20CHTO  H202 8091   5.188   3.177   6.795  1.0203 -0.1175  0.1555
   20CHTO  C119 8092   5.116   3.172   7.057  0.5014 -0.2350  0.0054
   20CHTO  H223 8093   5.134   3.215   7.155 -0.3053 -0.5282  0.2895
   20CHTO  C117 8094   5.075   3.018   7.079 -0.3106 -0.2268  0.4389
   20CHTO  H221 8095   5.030   2.982   6.987  1.2370 -2.0817  0.3675
   20CHTO   N20 8096   4.965   3.000   7.184  0.5791  0.0124  0.8088
   20CHTO  H209 8097   4.883   3.069   7.173 -0.1224 -1.0506 -0.8136
   20CHTO  H210 8098   5.007   3.015   7.282  0.2122 -0.2787  1.0123
   20CHTO   O80 8099   4.994   3.263   6.999 -0.3444  0.2353 -0.3369
   20CHTO  C103 8100   5.017   3.448   6.985  0.4209  0.3238 -0.5613
   20CHTO  H190 8101   4.923   3.504   6.988 -0.3145 -0.9744  1.2835
   20CHTO  C101 8102   5.130   3.514   7.074  0.0650  0.4999  0.2272
   20CHTO  H188 8103   5.222   3.456   7.072 -0.2717 -0.0050 -0.8496
   20CHTO   O68 8104   5.073   3.500   7.229 -0.6813  0.3581  0.0231
   20CHTO  H168 8105   5.068   3.406   7.238  1.8960  0.1468 -0.3056
   20CHTO   C99 8106   5.170   3.664   7.025 -0.1655 -0.1861  0.2172
   20CHTO  H186 8107   5.092   3.742   7.028 -0.1119 -0.0692 -1.1706
   20CHTO   N17 8108   5.293   3.731   7.092 -0.5015 -0.4602 -0.1897
   20CHTO  H174 8109   5.301   3.825   7.038 -0.7290 -1.6281 -2.3345
   20CHTO  H175 8110   5.285   3.748   7.198  0.0701  1.0365 -0.3769
   20CHTO   C97 8111   5.204   3.656   6.869  0.8339 -0.1383  0.7872
   20CHTO  H184 8112   5.289   3.587   6.862 -2.0414 -3.5406 -3.0666
   20CHTO   O64 8113   5.088   3.601   6.808  0.3406 -0.1499  0.2714
   20CHTO  C104 8114   5.074   3.463   6.837  0.3663  0.8224  0.3211
   20CHTO  H191 8115   5.165   3.404   6.831 -0.4306 -0.4246  0.4767
   20CHTO  C108 8116   4.978   3.410   6.725  0.1225 -0.0910 -0.5461
   20CHTO   O71 8117   4.860   3.486   6.722 -0.2584 -0.0828  0.6695
   20CHTO  H171 8118   4.790   3.442   6.766  1.9113  0.6208  5.1003
   20CHTO   O62 8119   5.222   3.785   6.805  0.8693 -0.1148 -0.0775
   20CHTO   C91 8120   5.231   3.807   6.661  0.1597 -0.9488 -0.1996
   20CHTO  H178 8121   5.185   3.723   6.608  0.7538 -1.3942 -0.0197
   20CHTO   C92 8122   5.375   3.817   6.608 -0.1544  0.0385  0.3639
   20CHTO  H179 8123   5.426   3.904   6.652  0.1339  0.2300 -0.3422
   20CHTO   O66 8124   5.445   3.692   6.643 -0.1107 -0.1973  0.1839
   20CHTO  H166 8125   5.503   3.657   6.578  0.2123  0.6594  0.0036
   20CHTO   C93 8126   5.366   3.828   6.451  0.5277 -0.4137  0.3020
   20CHTO  H180 8127   5.327   3.730   6.420  1.1560 -0.1721 -1.3353
   20CHTO   N16 8128   5.499   3.842   6.388 -0.5134 -0.7920 -0.7955
   20CHTO  H172 8129   5.554   3.749   6.394  1.3778  0.3664  0.4670
   20CHTO  H173 8130   5.553   3.924   6.432 -0.3792 -0.9188 -0.7212
   20CHTO   C94 8131   5.266   3.932   6.395  0.1538 -0.9206  0.0817
   20CHTO  H181 8132   5.291   4.034   6.422 -0.6415 -0.2863 -1.5250
   20CHTO   O61 8133   5.137   3.920   6.465 -0.0127  0.0432  0.1864
   20CHTO   C95 8134   5.141   3.926   6.611 -0.9576 -0.3364  0.4548
   20CHTO  H182 8135   5.187   4.020   6.643 -2.2913 -0.0223  1.5484
   20CHTO  C106 8136   4.998   3.916   6.671 -0.4368 -0.6106 -0.2309
   20CHTO   O69 8137   4.905   4.007   6.620  0.0865  0.3530 -0.1331
   20CHTO  H169 8138   4.915   4.009   6.527  2.0402  0.4107  0.0615
   20CHTO   O63 8139   5.236   3.908   6.240 -0.0414 -0.7571  0.6609
   20CHTO   C96 8140   5.159   3.766   6.207 -0.1608 -0.5120 -0.2541
   20CHTO  H183 8141   5.145   3.703   6.295  3.2668  0.1293  0.8215
   20CHTO   C98 8142   5.226   3.679   6.095 -0.3371 -0.0971 -0.2959
   20CHTO  H185 8143   5.329   3.652   6.123 -0.7405 -0.8874  0.4655
   20CHTO   O67 8144   5.163   3.552   6.098 -0.0018  0.1112  0.1884
   20CHTO  H167 8145   5.070   3.563   6.091 -0.2568 -0.5322  2.1049
   20CHTO  C102 8146   5.204   3.741   5.948  0.0158 -0.3716 -0.0027
   20CHTO  H189 8147   5.238   3.665   5.876 -0.9040 -1.7102  0.9511
   20CHTO   N18 8148   5.291   3.858   5.922 -0.1245 -0.1210  0.1272
   20CHTO  H176 8149   5.275   3.911   5.830  1.0623 -0.0703 -0.0636
   20CHTO  H177 8150   5.277   3.932   5.999  1.7064  1.2100 -0.7685
   20CHTO  C105 8151   5.050   3.763   5.928 -0.0117 -0.2976  0.5442
   20CHTO  H192 8152   5.025   3.866   5.900 -1.0846 -0.3260  1.3440
   20CHTO   O65 8153   4.971   3.732   6.048 -0.1563 -0.4524  0.5655
   20CHTO  C100 8154   5.011   3.808   6.159  0.4745 -0.6984  0.2336
   20CHTO  H187 8155   5.007   3.915   6.133 -0.4806 -1.0849 -1.3076
   20CHTO  C107 8156   4.906   3.782   6.274  0.2603 -0.0507 -0.3701
   20CHTO   O70 8157   4.895   3.649   6.320  0.6222 -0.6519 -0.4874
   20CHTO  H170 8158   4.900   3.653   6.413 -0.7131  1.6359 -0.4667
   20CHTO   O57 8159   5.015   3.659   5.809 -0.1022  0.1457 -0.3097
   20CHTO   C85 8160   4.910   3.700   5.712 -0.3076 -0.2422  0.1513
   20CHTO  H157 8161   4.855   3.777   5.771  0.0064 -0.6325  0.9657
   20CHTO   C83 8162   4.810   3.588   5.689 -0.7936 -0.4043 -0.2553
   20CHTO  H155 8163   4.754   3.567   5.781 -3.4889 -2.6461 -2.3132
   20CHTO   O56 8164   4.881   3.465   5.653  0.0946 -0.6602 -0.1283
   20CHTO  H135 8165   4.911   3.481   5.565 -0.4493 -1.2136 -0.4232
   20CHTO   C81 8166   4.705   3.632   5.581  0.7748  0.1406  0.6172
   20CHTO  H153 8167   4.651   3.713   5.630 -1.0925 -1.5186  1.3914
   20CHTO   N14 8168   4.601   3.527   5.571  0.2425 -0.2792  0.2145
   20CHTO  H141 8169   4.505   3.558   5.536  0.3453 -1.6045 -1.2938
   20CHTO  H142 8170   4.639   3.452   5.505  0.5243 -0.2137  0.3013
   20CHTO   C79 8171   4.769   3.681   5.441  0.1080  1.0028 -0.5822
   20CHTO  H151 8172   4.689   3.719   5.378 -3.8592 -2.9463  1.7502
   20CHTO   O52 8173   4.857   3.787   5.468 -0.1628 -0.2336  0.0558
   20CHTO   C86 8174   4.959   3.759   5.575 -0.2920 -0.7897  0.5494
   20CHTO  H158 8175   5.035   3.695   5.525 -0.7667  0.4298 -1.8343
   20CHTO   C90 8176   5.038   3.886   5.613  0.0263 -1.0908  0.6801
   20CHTO   O60 8177   5.111   3.927   5.500  0.5481  0.3155  0.2088
   20CHTO  H138 8178   5.133   4.018   5.505 -0.9831  0.7470 -0.3795
   20CHTO   O50 8179   4.839   3.568   5.380 -0.2065  0.1872  0.3989
   20CHTO   C73 8180   4.905   3.559   5.255  0.4327  0.5590 -0.4365
   20CHTO  H145 8181   4.942   3.659   5.228 -1.6000  2.1651  2.4109
   20CHTO   C74 8182   4.815   3.508   5.145 -1.1936  0.2602  0.2495
   20CHTO  H146 8183   4.733   3.581   5.146 -3.0437 -1.7673 -0.4900
   20CHTO   O54 8184   4.892   3.526   5.023 -0.7178  0.3148  0.3914
   20CHTO  H133 8185   4.838   3.523   4.947  2.1246 -1.6371 -1.6860
   20CHTO   C75 8186   4.764   3.359   5.173  0.2593 -0.5268  0.2685
   20CHTO  H147 8187   4.702   3.364   5.264 -0.2262  1.6609 -0.1372
   20CHTO   N13 8188   4.687   3.302   5.058  0.3887  0.1177 -0.7590
   20CHTO  H139 8189   4.729   3.205   5.036 -2.3534 -0.8228 -2.1380
   20CHTO  H140 8190   4.583   3.298   5.087  0.3362  1.1577 -0.7962
   20CHTO   C76 8191   4.902   3.264   5.212 -0.6226 -0.6700  0.7981
   20CHTO  H148 8192   4.953   3.244   5.119  2.7315  0.9117  2.2074
   20CHTO   O49 8193   4.994   3.329   5.304  0.0017  0.2607  0.0586
   20CHTO   C77 8194   5.028   3.462   5.264  0.1450 -0.0898  0.2874
   20CHTO  H149 8195   5.073   3.454   5.165 -1.7642 -2.8516 -0.3926
   20CHTO   C88 8196   5.146   3.504   5.352 -0.1468 -0.0176 -0.0745
   20CHTO   O58 8197   5.203   3.631   5.314  0.3050  0.5079  0.0306
   20CHTO  H136 8198   5.273   3.660   5.369  0.0075 -0.5103  0.9438
   20CHTO   O51 8199   4.850   3.139   5.266 -0.7105 -0.0303  0.0316
   20CHTO   C78 8200   4.945   3.030   5.234 -0.4856 -0.1996  0.1424
   20CHTO  H150 8201   5.049   3.065   5.213  0.0604 -2.0741 -0.3131
   20CHTO   C80 8202   4.903   2.954   5.109  0.3044  1.1765  0.2330
   20CHTO  H152 8203   4.795   2.927   5.112  0.8444 -1.1280 -0.0230
   20CHTO   O55 8204   4.930   3.040   4.998  0.0238  0.1666  0.6783
   20CHTO  H134 8205   4.973   2.994   4.929  0.7486 -0.1253  1.3135
   20CHTO   C84 8206   4.976   2.810   5.097 -0.0185 -0.9414  0.8235
   20CHTO  H156 8207   5.076   2.845   5.073 -0.9661  0.7185 -0.8911
   20CHTO   N15 8208   4.926   2.732   4.977  0.3116 -0.5696 -1.0066
   20CHTO  H143 8209   4.887   2.638   5.011 -0.3843 -0.4768 -1.5324
   20CHTO  H144 8210   4.846   2.794   4.942  1.5145  2.6397  1.6630
   20CHTO   C87 8211   4.968   2.737   5.228  0.6730 -0.6882 -0.0301
   20CHTO  H159 8212   4.863   2.716   5.248  0.2202  2.5809  1.2613
   20CHTO   O53 8213   5.035   2.824   5.332 -0.3328  0.6186  0.8028
   20CHTO   C82 8214   4.959   2.938   5.366  0.1489  0.9900  0.4526
   20CHTO  H154 8215   4.862   2.910   5.407 -0.3426  2.1050  0.0484
   20CHTO   C89 8216   5.040   3.008   5.483  1.1147 -0.0268 -0.9347
   20CHTO   O59 8217   5.072   2.923   5.595  0.5668  0.0376 -0.2011
   20CHTO  H137 8218   4.996   2.875   5.622 -0.1245  0.0661 -2.0512
   20CHTO   O45 8219   5.052   2.599   5.216  0.4650  0.4739 -0.8446
   20CHTO   C67 8220   5.037   2.516   5.335  0.1616  0.2053 -0.5581
   20CHTO  H124 8221   4.997   2.575   5.417  1.7378 -0.2020  0.5079
   20CHTO   C65 8222   4.939   2.398   5.303  0.1291  0.0113 -0.3301
   20CHTO  H122 8223   4.946   2.398   5.194  2.5513 -0.5339 -0.1998
   20CHTO   O44 8224   4.808   2.441   5.340  0.1508 -0.1840  0.2793
   20CHTO  H102 8225   4.807   2.505   5.408 -1.6607 -1.1459  1.1969
   20CHTO   C63 8226   4.990   2.267   5.355 -0.4120 -0.3338 -0.2522
   20CHTO  H120 8227   5.073   2.234   5.293  0.4285 -0.4622  0.9388
   20CHTO   N11 8228   4.900   2.146   5.345  0.2574  0.3650 -0.1967
   20CHTO  H108 8229   4.799   2.174   5.321  0.1067  1.0703  1.2080
   20CHTO  H109 8230   4.932   2.084   5.264 -0.7312 -0.8667  0.3478
   20CHTO   C61 8231   5.041   2.285   5.503  0.0239  0.1395  0.4719
   20CHTO  H118 8232   5.074   2.185   5.533  1.2151  0.7569  1.2509
   20CHTO   O40 8233   5.152   2.377   5.514 -0.6421 -0.5870  0.0520
   20CHTO   C68 8234   5.173   2.458   5.393  0.1087  0.1691 -0.6884
   20CHTO  H125 8235   5.225   2.389   5.323  1.6422  0.0745  0.5204
   20CHTO   C72 8236   5.269   2.576   5.432 -0.3581  0.2622  0.5115
   20CHTO   O48 8237   5.315   2.665   5.329 -0.0893  0.1910 -0.4148
   20CHTO  H105 8238   5.251   2.731   5.313  0.8559  1.1585 -0.2459
   20CHTO   O38 8239   4.935   2.323   5.595 -0.4864 -0.3195 -0.3279
   20CHTO   C55 8240   4.966   2.361   5.731 -0.9952  0.0499 -0.5509
   20CHTO  H112 8241   5.074   2.382   5.733 -0.8604 -0.6855  1.3599
   20CHTO   C56 8242   4.932   2.236   5.822 -0.6783 -0.6413 -0.4525
   20CHTO  H113 8243   4.831   2.199   5.798 -0.8124 -0.7615  0.2993
   20CHTO   O42 8244   5.015   2.124   5.784 -0.2669 -0.4584 -0.2278
   20CHTO  H100 8245   5.000   2.050   5.840 -1.2101 -0.6342 -0.7030
   20CHTO   C57 8246   4.951   2.278   5.972  0.5251 -0.4376  0.4051
   20CHTO  H114 8247   5.057   2.297   5.989  0.5594 -0.8947  0.6855
   20CHTO   N10 8248   4.907   2.173   6.070 -0.4462  0.6657 -0.7402
   20CHTO  H106 8249   4.908   2.076   6.023 -2.3739  0.9608 -1.4619
   20CHTO  H107 8250   4.810   2.188   6.117  1.1340  1.2792  2.4840
   20CHTO   C58 8251   4.874   2.407   5.998  0.0833  0.1435 -0.5126
   20CHTO  H115 8252   4.767   2.382   6.008  0.3949 -0.6917  0.9310
   20CHTO   O37 8253   4.905   2.509   5.901 -0.1810 -0.1236  0.5083
   20CHTO   C59 8254   4.883   2.481   5.762 -0.7980  0.1803 -0.2633
   20CHTO  H116 8255   4.777   2.465   5.743 -0.4409 -2.2447 -0.3727
   20CHTO   C70 8256   4.933   2.613   5.698  0.0756  0.1240  0.5074
   20CHTO   O46 8257   4.861   2.722   5.760 -0.1454 -0.0147 -0.1459
   20CHTO  H103 8258   4.920   2.763   5.820  0.7757 -0.2859 -0.8498
   20CHTO   O39 8259   4.927   2.474   6.135 -0.1702  0.4758  0.3301
   20CHTO   C60 8260   4.840   2.580   6.192 -0.5577  0.0799 -0.2487
   20CHTO  H117 8261   4.780   2.623   6.113 -1.0897  1.2355  0.7799
   20CHTO   C62 8262   4.740   2.517   6.292  0.1982 -0.3816 -0.7055
   20CHTO  H119 8263   4.694   2.439   6.228 -0.0229  0.7600 -1.9491
   20CHTO   O43 8264   4.821   2.460   6.392  0.1108  0.3781 -0.5860
   20CHTO  H101 8265   4.821   2.366   6.392 -1.6911  0.3464 -0.5480
   20CHTO   C66 8266   4.629   2.629   6.335  0.1405  0.3957 -0.1707
   20CHTO  H123 8267   4.582   2.670   6.245 -0.7084  0.2341  0.1984
   20CHTO   N12 8268   4.529   2.568   6.429  0.2311 -0.1268 -0.0688
   20CHTO  H110 8269   4.588   2.537   6.514  0.4984  1.2823  0.2736
   20CHTO  H111 8270   4.460   2.643   6.466 -0.3678 -0.7900  0.1665
   20CHTO   C69 8271   4.704   2.748   6.405  0.7092  0.7455  0.6691
   20CHTO  H126 8272   4.753   2.696   6.490  1.3757 -1.7392 -1.1694
   20CHTO   O41 8273   4.821   2.819   6.319 -0.1685 -0.4440  0.5704
   20CHTO   C64 8274   4.919   2.694   6.265 -0.2071  0.0518  0.3451
   20CHTO  H121 8275   4.972   2.650   6.351  2.0224 -2.1253 -2.0717
   20CHTO   C71 8276   5.029   2.766   6.183 -0.2619  0.7999 -0.2891
   20CHTO   O47 8277   5.004   2.835   6.060  0.2812  0.2184  0.6022
   20CHTO  H104 8278   4.998   2.927   6.073 -2.1671  0.2850 -0.6860
   20CHTO   O34 8279   4.600   2.866   6.459  0.4434  0.6452 -0.6331
   20CHTO   C49 8280   4.606   2.951   6.583  0.0413 -0.4887  0.4157
   20CHTO   H91 8281   4.559   2.896   6.664 -1.0384 -1.0242 -0.5704
   20CHTO   C47 8282   4.524   3.083   6.555 -0.2037 -0.4588 -0.5112
   20CHTO   H89 8283   4.530   3.137   6.652  1.3113  0.3952 -1.0710
   20CHTO   O33 8284   4.384   3.061   6.518  0.0863 -0.7569 -0.1347
   20CHTO   H70 8285   4.379   3.016   6.436  1.1259  0.5369 -0.9284
   20CHTO   C45 8286   4.598   3.173   6.442 -0.7313  0.4051  0.8071
   20CHTO   H87 8287   4.540   3.158   6.350  1.4742  0.3088 -0.6075
   20CHTO    N8 8288   4.590   3.319   6.482 -0.1250 -0.1397  0.6303
   20CHTO   H75 8289   4.616   3.387   6.401 -0.1841 -0.6233  0.2027
   20CHTO   H76 8290   4.490   3.345   6.516 -0.3154 -0.6845  0.4841
   20CHTO   C43 8291   4.745   3.117   6.411  0.1615 -1.0880  0.1606
   20CHTO   H85 8292   4.734   3.026   6.350  0.2913  0.3232 -2.0238
   20CHTO   O29 8293   4.818   3.090   6.529  0.4146  0.5605  0.3197
   20CHTO   C50 8294   4.756   2.990   6.605  0.5674 -0.3081  0.2973
   20CHTO   H92 8295   4.815   2.898   6.595  2.5679  1.0022 -0.2759
   20CHTO   C54 8296   4.783   3.026   6.761 -0.2097  0.3023  0.3797
   20CHTO   O36 8297   4.745   2.934   6.861  0.4921 -0.2546  0.3955
   20CHTO   H72 8298   4.654   2.949   6.878  0.8977  1.2025  1.4208
   20CHTO   O27 8299   4.818   3.202   6.311 -0.2138  0.0307  0.1527
   20CHTO   C37 8300   4.890   3.155   6.199  0.7982 -0.0313 -0.1688
   20CHTO   H79 8301   4.912   3.047   6.207  1.0970  0.0706  0.3538
   20CHTO   C38 8302   4.812   3.173   6.056 -0.7203 -0.6742  0.8266
   20CHTO   H80 8303   4.771   3.275   6.055  0.0918 -0.3473 -2.3685
   20CHTO   O31 8304   4.710   3.075   6.060 -0.0065  0.6772 -0.1033
   20CHTO   H68 8305   4.745   2.990   6.081 -0.0211  0.8907  0.8071
   20CHTO   C39 8306   4.907   3.136   5.935 -0.3892  0.3225 -0.3657
   20CHTO   H81 8307   4.919   3.028   5.924  0.0562  0.3161  0.1797
   20CHTO    N7 8308   4.844   3.171   5.803  0.4250 -0.1926  0.3861
   20CHTO   H73 8309   4.885   3.114   5.721 -1.0781 -0.2180 -0.3661
   20CHTO   H74 8310   4.737   3.162   5.815  0.5711 -1.0073  1.1071
   20CHTO   C40 8311   5.052   3.198   5.948  0.0108  0.0512  0.0826
   20CHTO   H82 8312   5.052   3.303   5.918  0.4022 -0.2049 -0.8049
   20CHTO   O26 8313   5.104   3.184   6.086  0.3450 -0.2463  0.1587
   20CHTO   C41 8314   5.020   3.235   6.192  0.3795  0.8041  0.0877
   20CHTO   H83 8315   5.006   3.342   6.173  1.2262  1.1434  1.2922
   20CHTO   C52 8316   5.105   3.218   6.323  0.3741 -1.4823 -0.3023
   20CHTO   O35 8317   5.053   3.252   6.434  0.4734  0.2243 -0.5488
   20CHTO   H71 8318   5.010   3.179   6.474 -0.9900  0.2480 -2.0279
   20CHTO   O28 8319   5.151   3.122   5.871  0.1963 -0.0993  0.3492
   20CHTO   C42 8320   5.295   3.151   5.861  0.1087  0.1499  0.5573
   20CHTO   H84 8321   5.320   3.099   5.768 -2.1148 -2.4396  1.3526
   20CHTO   C44 8322   5.378   3.080   5.971 -0.0108 -0.3054 -0.3726
   20CHTO   H86 8323   5.345   3.111   6.070  1.8224 -0.7619  0.3942
   20CHTO   O32 8324   5.349   2.939   5.957  0.2637  0.3073  0.5153
   20CHTO   H69 8325   5.357   2.899   6.041 -0.4522  0.7967  0.8160
   20CHTO   C48 8326   5.537   3.094   5.964 -0.6732 -0.0870 -0.2230
   20CHTO   H90 8327   5.580   3.046   5.877  0.6791  2.4794 -1.0163
   20CHTO    N9 8328   5.604   3.033   6.078  0.2512 -0.2150 -0.1783
   20CHTO   H77 8329   5.539   3.002   6.159 -0.7608  0.9579 -0.5302
   20CHTO   H78 8330   5.667   2.953   6.041 -0.5959  0.0934 -2.3396
   20CHTO   C51 8331   5.559   3.253   5.940  0.4753 -0.6332 -0.3263
   20CHTO   H93 8332   5.528   3.312   6.026  2.3685  0.3960 -0.3303
   20CHTO   O30 8333   5.479   3.290   5.822  0.2016 -0.0763 -0.2452
   20CHTO   C46 8334   5.335   3.292   5.848  0.3626 -0.0850 -0.7431
   20CHTO   H88 8335   5.315   3.346   5.941  0.9594  0.6930 -1.0638
   20CHTO   C53 8336   5.255   3.346   5.721  0.4670  1.0053  0.5234
   20CHTO   O72 8337   5.281   3.487   5.701  0.3800 -0.0299  0.4686
   20CHTO  H199 8338   5.371   3.508   5.714  1.1355 -1.4732 -1.9334
   20CHTO   O22 8339   5.696   3.283   5.904  0.3769 -0.2922 -0.9407
   20CHTO   C31 8340   5.759   3.412   5.929 -0.0755 -0.5928 -0.2101
   20CHTO   H59 8341   5.856   3.418   5.875 -0.1471 -1.8314 -0.4792
   20CHTO   C29 8342   5.667   3.526   5.873 -0.0209 -0.2426 -0.0295
   20CHTO   H57 8343   5.562   3.530   5.904 -0.0563  3.3793 -0.4550
   20CHTO   O21 8344   5.657   3.502   5.731 -0.2679 -0.7675 -0.3977
   20CHTO   H37 8345   5.737   3.489   5.684  1.3506 -0.6283  2.2568
   20CHTO   C27 8346   5.734   3.665   5.908  0.3977  0.4058  0.5481
   20CHTO   H55 8347   5.833   3.673   5.861  1.0794  2.7046  2.2764
   20CHTO    N5 8348   5.660   3.780   5.861  0.1300  0.6272  0.6188
   20CHTO   H43 8349   5.594   3.750   5.781  1.6196  0.1419 -0.4342
   20CHTO   H44 8350   5.603   3.828   5.940 -0.0107 -0.3863  1.1368
   20CHTO   C25 8351   5.765   3.679   6.062  0.2344 -0.4976 -0.4373
   20CHTO   H53 8352   5.675   3.677   6.124  0.5504 -0.0366  0.0399
   20CHTO   O17 8353   5.847   3.569   6.096 -0.3141 -1.0942  0.1914
   20CHTO   C32 8354   5.787   3.441   6.085  0.6884  0.0641  0.1742
   20CHTO   H60 8355   5.689   3.438   6.134  0.8690 -0.2986  0.5182
   20CHTO   C36 8356   5.867   3.325   6.142 -0.1417 -0.0440  0.2385
   20CHTO   O25 8357   5.881   3.328   6.283 -0.3867 -0.7169 -0.8159
   20CHTO   H40 8358   5.806   3.300   6.332  0.8861 -1.8391  0.5410
   20CHTO   O15 8359   5.839   3.818   6.089  0.2071  0.5636 -0.0111
   20CHTO   C19 8360   5.957   3.906   6.149  0.8973 -0.0516  0.1629
   20CHTO   H47 8361   5.978   3.964   6.058 -0.2521 -2.5911 -1.8141
   20CHTO   C20 8362   5.918   3.992   6.271 -0.4542  0.1098  0.4561
   20CHTO   H48 8363   5.884   3.932   6.357 -0.7773  0.2926  0.4524
   20CHTO   O19 8364   5.800   4.073   6.245 -0.3124 -0.0936  0.8063
   20CHTO   H35 8365   5.719   4.029   6.228 -0.3127  1.0460 -2.4466
   20CHTO   C21 8366   6.039   4.086   6.323 -0.4801  0.3044 -0.0924
   20CHTO   H49 8367   6.064   4.155   6.242  1.5510 -1.3925 -0.9503
   20CHTO    N4 8368   6.003   4.167   6.447 -0.1604  0.1660  0.3471
   20CHTO   H41 8369   5.915   4.222   6.417  1.0211  2.3617  0.7769
   20CHTO   H42 8370   5.975   4.095   6.522 -0.3703  1.1109  1.1789
   20CHTO   C22 8371   6.159   3.993   6.329  0.6418 -0.4795  0.4178
   20CHTO   H50 8372   6.128   3.930   6.412 -3.6364  0.2910 -0.4351
   20CHTO   O14 8373   6.186   3.924   6.204  0.4610  0.0937  0.3904
   20CHTO   C23 8374   6.083   3.831   6.176 -0.0752 -0.0281  0.3410
   20CHTO   H51 8375   6.079   3.768   6.266  2.5784  2.0110  1.9942
   20CHTO   C34 8376   6.139   3.750   6.065  0.1422  1.0748  0.4192
   20CHTO   O23 8377   6.273   3.700   6.079  0.4157  0.2115 -0.1556
   20CHTO   H38 8378   6.302   3.701   5.990  0.3433 -0.0861 -0.1810
   20CHTO   O16 8379   6.273   4.079   6.348  0.1789 -0.4791  0.0059
   20CHTO   C24 8380   6.408   3.984   6.407 -0.0853 -0.7953 -0.1931
   20CHTO   H52 8381   6.395   3.877   6.392 -0.9318 -0.6149 -0.7912
   20CHTO   C26 8382   6.435   4.017   6.561  0.0846  0.4420  0.9359
   20CHTO   H54 8383   6.453   4.126   6.568  2.2876  0.0279  2.1559
   20CHTO   O20 8384   6.320   4.004   6.644  0.2134 -0.2703 -0.0057
   20CHTO   H36 8385   6.308   4.079   6.698 -1.1512 -0.6324  0.2015
   20CHTO   C30 8386   6.555   3.934   6.609 -0.0503  0.5993 -0.5957
   20CHTO   H58 8387   6.510   3.853   6.669 -1.7552  2.0833  0.2095
   20CHTO    N6 8388   6.642   4.020   6.701  0.4365 -0.4873  0.0805
   20CHTO   H45 8389   6.573   4.059   6.775  0.2521  1.2148 -0.9456
   20CHTO   H46 8390   6.715   3.963   6.757  0.3511  0.7893  1.5301
   20CHTO   C33 8391   6.639   3.867   6.493  0.3935  0.4449 -0.0246
   20CHTO   H61 8392   6.741   3.860   6.532 -0.6454 -0.1352  2.6857
   20CHTO   O18 8393   6.631   3.937   6.367  0.0525  0.5909 -0.0894
   20CHTO   C28 8394   6.528   4.026   6.326  0.5967  0.5189  0.4121
   20CHTO   H56 8395   6.551   4.131   6.341  2.5164 -0.0045  1.3344
   20CHTO   C35 8396   6.515   4.005   6.172 -0.0637 -0.1640  0.6076
   20CHTO   O24 8397   6.638   4.021   6.100 -0.5058  0.3321 -0.0939
   20CHTO   H39 8398   6.631   4.062   6.015  1.2356  0.5898 -0.1253
   20CHTO    O9 8399   6.593   3.735   6.475  0.7230  0.6883  0.4837
   20CHTO   C13 8400   6.684   3.621   6.389  0.4539 -0.4304  0.4514
   20CHTO   H26 8401   6.793   3.644   6.397  0.2784 -0.4116  3.3151
   20CHTO   C11 8402   6.635   3.629   6.244  0.1443 -0.3949  0.1187
   20CHTO   H24 8403   6.688   3.717   6.204 -0.7174 -1.1328 -2.7658
   20CHTO    O8 8404   6.489   3.643   6.237  0.2163  0.2761 -0.1118
   20CHTO    H3 8405   6.462   3.724   6.276  0.5179  0.2328  0.1872
   20CHTO    C9 8406   6.687   3.508   6.161  0.6075  0.2067 -0.4294
   20CHTO   H22 8407   6.797   3.511   6.174  0.8143 -3.0952 -0.9785
   20CHTO    N2 8408   6.663   3.514   6.012  0.4531  0.3419 -0.1112
   20CHTO   H10 8409   6.698   3.428   5.957 -1.9269  1.2198 -3.1065
   20CHTO   H11 8410   6.710   3.603   5.973 -2.4272  1.5131 -1.0137
   20CHTO    C7 8411   6.626   3.370   6.216  0.0505 -0.2611  0.3471
   20CHTO   H20 8412   6.704   3.291   6.207  0.7506  0.5494 -0.7770
   20CHTO    O4 8413   6.582   3.386   6.352 -0.5882  0.2937  0.0355
   20CHTO   C14 8414   6.650   3.475   6.442  0.2337  0.1152 -0.7242
   20CHTO   H27 8415   6.743   3.420   6.467 -0.9965 -1.0124  1.4338
   20CHTO   C18 8416   6.563   3.470   6.568  0.0508 -0.6425 -0.0792
   20CHTO   O13 8417   6.622   3.553   6.668  0.2020 -0.1811  0.3117
   20CHTO    H7 8418   6.560   3.614   6.703  0.3267  0.2285 -0.1866
   20CHTO    O2 8419   6.501   3.299   6.121 -0.6622 -1.2559  0.8647
   20CHTO    C1 8420   6.437   3.192   6.178  0.5100 -0.0753  0.0049
   20CHTO   H14 8421   6.453   3.198   6.288 -1.8939  0.6954  0.3392
   20CHTO    C2 8422   6.474   3.053   6.132 -0.1978 -0.6545 -0.0451
   20CHTO   H15 8423   6.450   3.049   6.025  1.8021 -2.5015 -0.4512
   20CHTO    O6 8424   6.616   3.036   6.153  0.0672 -0.0620  0.0235
   20CHTO    H1 8425   6.641   2.946   6.149  1.7907  0.3952  0.2021
   20CHTO    C3 8426   6.391   2.940   6.210 -0.2359 -0.5279 -0.4634
   20CHTO   H16 8427   6.401   2.969   6.316 -1.7428  2.7449 -1.1696
   20CHTO    N1 8428   6.440   2.802   6.189 -0.4949  0.6187  0.4822
   20CHTO    H8 8429   6.511   2.779   6.267  0.2091  0.5553 -0.1705
   20CHTO    H9 8430   6.493   2.794   6.095 -3.3561 -1.7448 -1.0274
   20CHTO    C4 8431   6.233   2.960   6.176 -0.0765 -0.1983  0.2557
   20CHTO   H17 8432   6.221   2.950   6.068  3.7268 -0.9019 -0.1966
   20CHTO    O1 8433   6.198   3.095   6.207  0.6578  0.5987 -1.1127
   20CHTO    C5 8434   6.283   3.207   6.167  0.1139  0.3733 -0.6639
   20CHTO   H18 8435   6.263   3.217   6.060 -1.2105 -0.5923 -0.5230
   20CHTO   C16 8436   6.232   3.340   6.230 -0.2719  0.2039  0.1615
   20CHTO   O11 8437   6.250   3.350   6.377 -0.0828  0.0325 -0.2932
   20CHTO    H5 8438   6.176   3.388   6.422  1.0608  0.1317  1.5716
   20CHTO    O3 8439   6.139   2.883   6.251 -0.4705 -0.4255  0.0666
   20CHTO    C6 8440   6.009   2.853   6.185 -0.7269  0.3346  0.6694
   20CHTO   H19 8441   5.973   2.946   6.141 -0.1396  0.5420  0.6188
   20CHTO    C8 8442   6.006   2.730   6.079  0.1806  0.8175 -0.2180
   20CHTO   H21 8443   6.033   2.640   6.134 -1.7252  0.8967  0.9118
   20CHTO    O7 8444   6.091   2.759   5.966 -0.4022  0.0765  0.0687
   20CHTO    H2 8445   6.067   2.845   5.939  0.4750  0.1242 -0.5557
   20CHTO   C12 8446   5.853   2.710   6.039 -0.4860 -0.4467  0.2204
   20CHTO   H25 8447   5.823   2.804   5.988  3.8403  0.3202 -1.0650
   20CHTO    N3 8448   5.829   2.599   5.933  0.3566 -0.1820 -0.1607
   20CHTO   H12 8449   5.890   2.627   5.848  1.5993 -1.3760  0.3157
   20CHTO   H13 8450   5.722   2.597   5.919  0.1775  1.9694  0.7645
   20CHTO   C15 8451   5.769   2.692   6.166 -0.5045  0.0148 -0.4974
   20CHTO   H28 8452   5.805   2.597   6.205  1.2301  0.4141 -1.0854
   20CHTO   O10 8453   5.624   2.702   6.135  0.3210  0.3120 -0.8545
   20CHTO    H4 8454   5.586   2.623   6.169 -0.2774  2.2677  3.3112
   20CHTO    O5 8455   5.779   2.793   6.265  0.0225  0.2166  0.0306
   20CHTO   C10 8456   5.915   2.815   6.306  0.1147 -0.5069  0.6416
   20CHTO   H23 8457   5.936   2.726   6.365 -0.6299 -0.1683  1.4248
   20CHTO   C17 8458   5.886   2.921   6.418 -0.1193 -0.8269  0.0704
   20CHTO   O12 8459   5.831   3.043   6.377  0.4282  0.1075  0.1378
   20CHTO    H6 8460   5.778   3.087   6.440 -0.2858  2.1535 -1.8522
   21GLOH   H03 8461   7.909   4.453   0.210  4.4631 -1.1715 -0.3300
   21GLOH    O1 8462   7.892   4.439   0.115  0.1084 -0.2442  0.2180
   21GLOH    C1 8463   7.959   4.318   0.074  0.1375  0.1775  0.5248
   21GLOH   H02 8464   8.067   4.332   0.084 -0.0438  0.4087  2.2722
   21GLOH   H08 8465   7.934   4.300  -0.030  0.1135  0.3040  0.5083
   21GLOH    C2 8466   7.922   4.197   0.162 -0.3335  0.1580 -0.0432
   21GLOH   H04 8467   7.974   4.111   0.119  0.7484 -0.7990  3.1108
   21GLOH    O2 8468   7.985   4.226   0.291 -0.0733 -0.4748  0.1591
   21GLOH   H05 8469   7.942   4.305   0.328  0.9712  0.0180  0.3482
   21GLOH    C3 8470   7.766   4.170   0.173 -0.2195 -0.1324 -0.4082
   21GLOH   H06 8471   7.719   4.253   0.226  1.1124  0.3379  0.0871
   21GLOH   H07 8472   7.766   4.084   0.239 -2.1285  0.8218  0.8627
   21GLOH    O3 8473   7.705   4.141   0.044 -0.2205 -0.5686  0.0553
   21GLOH   H01 8474   7.623   4.092   0.061  0.0731 -0.6277  1.3455
   22GLOH   H03 8475   7.691   5.775   3.121 -1.6307 -0.9861  1.4005
   22GLOH    O1 8476   7.720   5.689   3.085  0.0584  0.3249 -0.4700
   22GLOH    C1 8477   7.809   5.631   3.179  0.1860  0.1780  0.7337
   22GLOH   H02 8478   7.778   5.528   3.201  0.3896 -0.6594 -2.6396
   22GLOH   H08 8479   7.819   5.692   3.268  0.2447  0.7426  0.3402
   22GLOH    C2 8480   7.949   5.625   3.119  0.4927 -0.2528  0.0142
   22GLOH   H04 8481   7.980   5.730   3.104  1.3514 -0.6727 -1.2802
   22GLOH    O2 8482   8.045   5.568   3.203 -0.2806 -0.2740 -1.1058
   22GLOH   H05 8483   8.130   5.598   3.167 -1.5055  2.3448 -1.8926
   22GLOH    C3 8484   7.940   5.551   2.977 -0.3571 -0.0483 -0.3633
   22GLOH   H06 8485   7.916   5.445   2.988  2.2300 -0.9603 -2.7675
   22GLOH   H07 8486   8.038   5.563   2.931 -0.7048 -2.7271 -1.9302
   22GLOH    O3 8487   7.846   5.609   2.887  0.5180  0.1851  0.2680
   22GLOH   H01 8488   7.774   5.641   2.946 -0.0567  1.3240 -1.0313
   23GLOH   H03 8489   7.791   6.106   0.160  0.1060  1.6333  0.8485
   23GLOH    O1 8490   7.836   6.183   0.120  0.8119  0.4612 -0.6908
   23GLOH    C1 8491   7.738   6.280   0.135 -0.8017 -0.1732 -0.1263
   23GLOH   H02 8492   7.792   6.366   0.174  1.0099 -1.3634  0.0800
   23GLOH   H08 8493   7.660   6.247   0.203 -2.3147  0.1938 -1.6486
   23GLOH    C2 8494   7.680   6.336   0.002  0.3838  0.1089  0.5778
   23GLOH   H04 8495   7.637   6.248  -0.049  2.6251 -0.0643 -1.0767
   23GLOH    O2 8496   7.569   6.425   0.022  0.2987  0.0317  0.6405
   23GLOH   H05 8497   7.530   6.428   0.111 -1.1110  1.3227  0.0108
   23GLOH    C3 8498   7.787   6.399  -0.093  0.1950  0.8180 -0.2891
   23GLOH   H06 8499   7.858   6.461  -0.039 -0.0915  2.0324 -1.2822
   23GLOH   H07 8500   7.734   6.473  -0.153 -0.7867  1.2566  1.0810
   23GLOH    O3 8501   7.857   6.300  -0.161  0.1644 -0.4391 -0.2016
   23GLOH   H01 8502   7.926   6.275  -0.097 -0.8406 -0.3566  0.9242
   24GLOH   H03 8503   1.465   1.358   6.023 -0.5697  0.4524  0.9686
   24GLOH    O1 8504   1.430   1.425   5.962 -0.4468 -0.4132 -0.0738
   24GLOH    C1 8505   1.475   1.396   5.825  0.4217  0.8655  0.8956
   24GLOH   H02 8506   1.423   1.458   5.751 -2.2874  1.1169  2.9172
   24GLOH   H08 8507   1.433   1.298   5.803  1.7733  0.3814  0.4226
   24GLOH    C2 8508   1.625   1.415   5.790 -0.2740 -0.0606  0.7653
   24GLOH   H04 8509   1.634   1.416   5.681 -0.3614 -0.2746  0.7538
   24GLOH    O2 8510   1.679   1.538   5.836 -0.0281  0.0350  0.0806
   24GLOH   H05 8511   1.600   1.595   5.840  0.3580  0.7355 -1.6835
   24GLOH    C3 8512   1.710   1.297   5.843 -0.3081  0.1839  0.1509
   24GLOH   H06 8513   1.691   1.303   5.950 -1.8933 -1.1053 -0.0366
   24GLOH   H07 8514   1.817   1.320   5.839 -0.3293  0.4023  0.8028
   24GLOH    O3 8515   1.680   1.171   5.782 -0.6857  0.4870 -0.2819
   24GLOH   H01 8516   1.707   1.184   5.689 -0.1754 -1.7214 -0.4547
   25GLOH   H03 8517   0.117   3.292   3.258  0.4936  2.0964  3.5667
   25GLOH    O1 8518   0.020   3.302   3.256  0.1658 -0.7707 -0.2344
   25GLOH    C1 8519  -0.006   3.420   3.337 -0.7668 -0.1437 -0.1439
   25GLOH   H02 8520  -0.110   3.452   3.336 -1.4900 -2.3924 -0.4105
   25GLOH   H08 8521   0.051   3.504   3.297 -2.2442 -0.1820 -2.4217
   25GLOH    C2 8522   0.041   3.405   3.480  0.1060 -0.4768  0.2280
   25GLOH   H04 8523   0.017   3.304   3.515 -3.4363  0.0695 -0.4355
   25GLOH    O2 8524   0.186   3.420   3.490 -0.0376 -0.3572  0.2127
   25GLOH   H05 8525   0.224   3.411   3.579  2.1892  0.3871 -0.6188
   25GLOH    C3 8526  -0.045   3.484   3.582 -0.3334 -0.4719 -0.1089
   25GLOH   H06 8527  -0.019   3.590   3.581 -0.9926 -0.3080  0.0729
   25GLOH   H07 8528  -0.015   3.458   3.683  1.6431  1.5028 -0.1449
   25GLOH    O3 8529  -0.183   3.457   3.571 -0.2311  0.3414 -0.2556
   25GLOH   H01 8530  -0.222   3.544   3.550 -0.5495 -0.0335 -1.2832
   26GLOH   H03 8531   6.692   1.246   3.629 -3.6642  1.2825 -2.2581
   26GLOH    O1 8532   6.755   1.297   3.575 -0.4047  0.1580  0.2700
   26GLOH    C1 8533   6.787   1.222   3.454 -0.3741 -0.7802 -0.3926
   26GLOH   H02 8534   6.838   1.286   3.382 -0.6516  1.1263  1.0912
   26GLOH   H08 8535   6.689   1.203   3.408  0.1150 -0.4516 -1.5877
   26GLOH    C2 8536   6.862   1.094   3.472 -0.2113 -0.1861 -0.2145
   26GLOH   H04 8537   6.802   1.029   3.538  0.2791  1.4964  1.9583
   26GLOH    O2 8538   6.868   1.034   3.343 -0.1047  0.0934 -0.0353
   26GLOH   H05 8539   6.777   1.018   3.314  0.5428 -0.8976 -1.5384
   26GLOH    C3 8540   6.996   1.119   3.549 -0.0338  0.3173  0.2858
   26GLOH   H06 8541   7.076   1.163   3.488  0.2810  0.6011  0.9041
   26GLOH   H07 8542   7.024   1.021   3.587 -1.3117 -0.5637 -1.0044
   26GLOH    O3 8543   6.980   1.200   3.666 -0.0374 -0.0231  0.1955
   26GLOH   H01 8544   6.905   1.258   3.643  0.0559 -0.7944 -2.1482
   27GLOH   H03 8545   3.391   3.213   4.832  1.8715 -1.0405 -0.7081
   27GLOH    O1 8546   3.435   3.253   4.910  0.0352 -0.1047 -0.1237
   27GLOH    C1 8547   3.574   3.267   4.895 -0.4924 -0.7134 -0.0464
   27GLOH   H02 8548   3.606   3.360   4.848 -0.1917 -0.1477  1.2500
   27GLOH   H08 8549   3.601   3.187   4.826 -0.5049 -0.7306 -0.0315
   27GLOH    C2 8550   3.643   3.247   5.027 -0.4890  0.7498 -0.2470
   27GLOH   H04 8551   3.617   3.147   5.065 -0.6821 -0.0958 -2.4773
   27GLOH    O2 8552   3.781   3.228   4.995 -0.6427 -0.5428  0.6329
   27GLOH   H05 8553   3.798   3.281   4.916  1.2303 -1.3741  0.4581
   27GLOH    C3 8554   3.606   3.346   5.140 -0.4334  0.3592  0.0515
   27GLOH   H06 8555   3.637   3.449   5.122 -0.4785  0.8428  2.5876
   27GLOH   H07 8556   3.650   3.311   5.233 -0.0756 -0.1268 -0.3041
   27GLOH    O3 8557   3.463   3.340   5.144  0.0910  0.3539  0.1496
   27GLOH   H01 8558   3.427   3.326   5.054 -0.1427 -1.1327  0.4638
   28GLOH   H03 8559   5.664   1.719   5.600 -0.7843 -0.0618 -0.8122
   28GLOH    O1 8560   5.612   1.644   5.634  0.3418 -0.6657 -0.4083
   28GLOH    C1 8561   5.702   1.547   5.690  0.2976 -0.3160  0.0387
   28GLOH   H02 8562   5.643   1.472   5.742  3.2913 -2.0961  1.0419
   28GLOH   H08 8563   5.762   1.588   5.772 -1.1837  1.3242  0.3158
   28GLOH    C2 8564   5.809   1.496   5.588  0.0213 -0.4988  0.6161
   28GLOH   H04 8565   5.758   1.463   5.496  0.4716  0.2314  0.0971
   28GLOH    O2 8566   5.903   1.595   5.553  0.1993  0.0169  0.4143
   28GLOH   H05 8567   5.869   1.683   5.530  1.3337  1.1421  2.8401
   28GLOH    C3 8568   5.877   1.375   5.644 -0.4796  0.8877  0.5297
   28GLOH   H06 8569   5.944   1.408   5.724  0.8460  0.6882 -0.4840
   28GLOH   H07 8570   5.946   1.340   5.567 -2.2768 -2.5382  0.3714
   28GLOH    O3 8571   5.779   1.280   5.697 -0.2111 -0.0846  0.6033
   28GLOH   H01 8572   5.729   1.254   5.617  2.3264  2.1468 -1.8296
   29GLOH   H03 8573   4.022   7.412   3.697  0.6552  0.0224  0.9541
   29GLOH    O1 8574   3.976   7.328   3.679  0.0258  0.5516  0.0477
   29GLOH    C1 8575   4.079   7.247   3.606 -0.5511  0.7418  0.0835
   29GLOH   H02 8576   4.175   7.263   3.656 -0.7793  0.1036  0.7293
   29GLOH   H08 8577   4.092   7.283   3.504  2.3463 -1.7223 -0.4978
   29GLOH    C2 8578   4.063   7.096   3.616  0.3919  0.0796  0.0423
   29GLOH   H04 8579   3.971   7.071   3.562 -0.1732  2.2740 -0.0649
   29GLOH    O2 8580   4.170   7.026   3.551  0.6071 -0.3870 -1.0761
   29GLOH   H05 8581   4.250   7.081   3.551  1.1590 -1.1278  1.8768
   29GLOH    C3 8582   4.047   7.059   3.766  0.0680 -0.3565  0.2976
   29GLOH   H06 8583   4.126   7.110   3.820 -0.9587  2.1163 -0.4932
   29GLOH   H07 8584   4.048   6.951   3.782  0.1554 -0.2762  0.8298
   29GLOH    O3 8585   3.924   7.107   3.819  0.3617 -0.4602 -0.0445
   29GLOH   H01 8586   3.910   7.191   3.773  0.8740  0.5976  1.6854
   30GLOH   H03 8587   7.445   6.660   6.635  1.3680  0.7122 -0.1635
   30GLOH    O1 8588   7.433   6.712   6.717 -0.0442 -0.3428  0.3157
   30GLOH    C1 8589   7.432   6.848   6.679 -1.0119 -1.0401  0.1812
   30GLOH   H02 8590   7.415   6.916   6.763 -1.1563  1.3760 -1.7388
   30GLOH   H08 8591   7.361   6.861   6.597 -0.4902 -1.0451 -0.2796
   30GLOH    C2 8592   7.570   6.885   6.631 -0.8709  0.1822  0.5821
   30GLOH   H04 8593   7.614   6.807   6.567  0.7359 -0.4349  2.3758
   30GLOH    O2 8594   7.578   7.014   6.565 -0.6167  0.1735 -0.6094
   30GLOH   H05 8595   7.669   7.031   6.537 -0.4640  2.6082  1.1600
   30GLOH    C3 8596   7.654   6.901   6.760 -0.1199 -0.8377 -0.0892
   30GLOH   H06 8597   7.600   6.967   6.828  0.7207 -3.4326  3.2309
   30GLOH   H07 8598   7.751   6.945   6.736  0.7199 -1.3005  2.2753
   30GLOH    O3 8599   7.671   6.777   6.816 -0.1621  0.6273  0.5080
   30GLOH   H01 8600   7.582   6.739   6.804 -0.8757  2.1343  1.0044
   31GLOH   H03 8601   4.140   0.266   4.166  0.4402  0.7445  1.6087
   31GLOH    O1 8602   4.220   0.287   4.116  0.2880  0.0837  1.0756
   31GLOH    C1 8603   4.274   0.417   4.145  0.0351 -0.2053 -0.5215
   31GLOH   H02 8604   4.365   0.435   4.087  1.7011 -2.7048  1.2010
   31GLOH   H08 8605   4.287   0.416   4.253  0.8523  0.6963 -0.6092
   31GLOH    C2 8606   4.165   0.530   4.122  0.5432  0.5007 -0.5925
   31GLOH   H04 8607   4.078   0.511   4.187  0.4463  2.4759 -0.1058
   31GLOH    O2 8608   4.215   0.652   4.166 -0.6024 -0.2431  0.3651
   31GLOH   H05 8609   4.151   0.693   4.226  0.1117 -0.1128  1.0474
   31GLOH    C3 8610   4.108   0.521   3.978  0.4666 -0.0031 -0.0258
   31GLOH   H06 8611   4.043   0.434   3.975  0.7783 -0.2061 -1.4234
   31GLOH   H07 8612   4.186   0.498   3.905 -1.9868 -1.4940 -2.2630
   31GLOH    O3 8613   4.018   0.629   3.953  0.2856 -0.6993 -0.8893
   31GLOH   H01 8614   4.044   0.720   3.977 -0.0501  0.0118 -3.1065
   32GLOH   H03 8615   7.865   4.780   1.536  1.2064  2.3828  1.5207
   32GLOH    O1 8616   7.899   4.704   1.587 -0.5215  0.0000 -0.7972
   32GLOH    C1 8617   7.987   4.768   1.684 -0.4353  0.0477  0.1282
   32GLOH   H02 8618   8.001   4.874   1.665 -0.4666  0.4667  2.2995
   32GLOH   H08 8619   8.088   4.729   1.679 -0.5973 -0.3332 -0.1946
   32GLOH    C2 8620   7.942   4.746   1.834  0.0193 -0.2793 -0.2484
   32GLOH   H04 8621   7.841   4.785   1.851 -1.0968 -2.4508 -1.6486
   32GLOH    O2 8622   7.951   4.603   1.869 -0.2461 -0.2971  0.4213
   32GLOH   H05 8623   7.871   4.562   1.832 -1.8308  0.8420  2.5005
   32GLOH    C3 8624   8.029   4.826   1.937 -0.4295  0.9585  0.3178
   32GLOH   H06 8625   8.128   4.782   1.943 -0.6465  0.4262  0.0631
   32GLOH   H07 8626   7.983   4.819   2.035 -1.1639 -1.2745 -0.1442
   32GLOH    O3 8627   8.030   4.964   1.892  0.4690  0.3801 -0.2118
   32GLOH   H01 8628   8.112   5.001   1.930  0.6412 -1.4364  1.2808
   33GLOH   H03 8629   6.200   1.946   1.070 -0.8129 -1.9430  0.2625
   33GLOH    O1 8630   6.286   1.907   1.093  0.2268  0.4221  0.5023
   33GLOH    C1 8631   6.385   1.954   1.002 -0.4147 -0.0355  0.8119
   33GLOH   H02 8632   6.482   1.977   1.046  0.3022  1.2852 -1.3916
   33GLOH   H08 8633   6.344   2.045   0.960  0.2775  0.5482  1.3876
   33GLOH    C2 8634   6.402   1.848   0.898  0.5504 -0.2720  0.1851
   33GLOH   H04 8635   6.313   1.824   0.838  0.7067 -1.2796  0.3457
   33GLOH    O2 8636   6.504   1.904   0.806 -0.0781 -0.5009  0.0188
   33GLOH   H05 8637   6.451   1.958   0.745  0.3339  0.3014  0.3668
   33GLOH    C3 8638   6.449   1.714   0.959 -0.0248  0.0991 -0.0891
   33GLOH   H06 8639   6.551   1.718   0.998 -0.1631 -2.0055  0.5803
   33GLOH   H07 8640   6.449   1.639   0.879  0.0880 -0.4893  0.4605
   33GLOH    O3 8641   6.369   1.663   1.065  0.1276 -0.0632 -0.1892
   33GLOH   H01 8642   6.321   1.737   1.106  0.8079  0.4098 -0.2275
   34GLOH   H03 8643   7.780   9.745   6.053  0.6162 -1.5032 -1.2012
   34GLOH    O1 8644   7.695   9.710   6.086  0.2798 -0.0370 -0.4687
   34GLOH    C1 8645   7.638   9.795   6.182 -0.3421 -0.5353 -0.4469
   34GLOH   H02 8646   7.661   9.901   6.173 -1.2417 -0.2418  0.5211
   34GLOH   H08 8647   7.681   9.772   6.279 -0.3415  0.8023 -0.1135
   34GLOH    C2 8648   7.487   9.789   6.200  0.0341 -1.2121  1.0718
   34GLOH   H04 8649   7.459   9.686   6.228 -1.1333 -1.3439 -0.5269
   34GLOH    O2 8650   7.443   9.882   6.300 -0.1073 -0.5660 -0.2851
   34GLOH   H05 8651   7.494   9.964   6.293  0.2865 -0.7231  0.5834
   34GLOH    C3 8652   7.422   9.797   6.063  0.3012  0.0615 -0.4037
   34GLOH   H06 8653   7.314   9.786   6.079 -0.1129  2.8875 -0.8767
   34GLOH   H07 8654   7.453   9.705   6.014 -0.4744  0.6793 -2.0756
   34GLOH    O3 8655   7.458   9.913   5.991  0.3076 -0.1894 -0.1709
   34GLOH   H01 8656   7.385   9.937   5.931 -1.4996 -1.6713  1.3767
   35GLOH   H03 8657   8.610   8.601   5.166 -1.2273  1.2643 -0.1165
   35GLOH    O1 8658   8.581   8.580   5.075  0.0804 -0.2789 -0.2127
   35GLOH    C1 8659   8.490   8.681   5.019  0.4615  0.2851 -0.2090
   35GLOH   H02 8660   8.531   8.780   5.037 -0.8405  0.5662  1.3528
   35GLOH   H08 8661   8.391   8.684   5.065 -0.5297 -1.3866 -2.1523
   35GLOH    C2 8662   8.472   8.658   4.868 -0.7965 -0.1488 -0.2183
   35GLOH   H04 8663   8.425   8.744   4.819  0.1047  1.5541  1.8294
   35GLOH    O2 8664   8.594   8.648   4.795  0.6478  0.0557  0.2980
   35GLOH   H05 8665   8.654   8.718   4.825 -0.2617  0.2073  1.8333
   35GLOH    C3 8666   8.379   8.536   4.859  0.1302  0.2471  0.2168
   35GLOH   H06 8667   8.420   8.464   4.930 -2.2705  0.4941  1.9176
   35GLOH   H07 8668   8.378   8.491   4.760 -0.6410  0.0073  0.3272
   35GLOH    O3 8669   8.240   8.545   4.898 -0.2203  0.2222  0.3078
   35GLOH   H01 8670   8.184   8.570   4.823  0.6160 -1.4450 -0.8997
   36GLOH   H03 8671   4.332   8.489   1.041 -1.1986 -0.1394  0.7327
   36GLOH    O1 8672   4.382   8.510   1.122 -0.3145 -0.2584  0.2254
   36GLOH    C1 8673   4.393   8.655   1.152 -1.2267 -0.1949 -0.7905
   36GLOH   H02 8674   4.445   8.665   1.247 -1.3124 -2.5000 -0.4649
   36GLOH   H08 8675   4.293   8.698   1.153 -0.4368  1.6717  0.6053
   36GLOH    C2 8676   4.489   8.714   1.040 -0.1474 -0.2821  1.2467
   36GLOH   H04 8677   4.461   8.678   0.940 -0.7292 -0.2873  1.4102
   36GLOH    O2 8678   4.491   8.860   1.042  0.8595  0.4985 -0.4333
   36GLOH   H05 8679   4.398   8.888   1.037  1.1875  1.5165 -0.9151
   36GLOH    C3 8680   4.631   8.661   1.065  0.0678  0.3132  0.4258
   36GLOH   H06 8681   4.687   8.713   1.143  1.0282  0.4278 -0.3328
   36GLOH   H07 8682   4.684   8.661   0.970 -0.4518 -1.9595  0.0873
   36GLOH    O3 8683   4.629   8.518   1.106  0.2611  0.3034  0.2355
   36GLOH   H01 8684   4.536   8.487   1.104  0.4139 -0.1422 -0.3528
   37GLOH   H03 8685   4.403   2.640   0.077 -1.0158 -2.9076 -0.1052
   37GLOH    O1 8686   4.309   2.664   0.078 -0.4744 -0.7619  0.0253
   37GLOH    C1 8687   4.297   2.799   0.024 -0.7293 -0.6334  0.0333
   37GLOH   H02 8688   4.313   2.809  -0.084  0.1135  1.5474  0.3452
   37GLOH   H08 8689   4.362   2.863   0.083  1.0721 -1.1926 -1.2888
   37GLOH    C2 8690   4.157   2.849   0.063  0.1885 -0.3028  0.3377
   37GLOH   H04 8691   4.143   2.852   0.172 -1.0070  1.4579  0.1613
   37GLOH    O2 8692   4.138   2.986   0.010  0.1538 -0.1876  0.5465
   37GLOH   H05 8693   4.110   2.979  -0.082  1.6216  0.2731  0.0458
   37GLOH    C3 8694   4.057   2.748   0.004 -0.2328 -0.1107  0.0407
   37GLOH   H06 8695   4.071   2.749  -0.104  1.3803 -1.2688  0.2166
   37GLOH   H07 8696   3.958   2.791   0.019  0.5672  1.7122  0.2893
   37GLOH    O3 8697   4.064   2.610   0.055  0.3193  0.0351  0.3637
   37GLOH   H01 8698   4.151   2.603   0.098 -0.2458  1.8646  1.9043
   38GLOH   H03 8699   9.338   0.903   3.970 -0.8799  1.4807  0.2084
   38GLOH    O1 8700   9.312   0.944   4.055 -0.3707  0.5859  0.8107
   38GLOH    C1 8701   9.424   0.991   4.133  0.9302 -0.4088  1.0194
   38GLOH   H02 8702   9.441   0.920   4.214  1.4692 -3.2386 -1.4656
   38GLOH   H08 8703   9.392   1.083   4.182 -1.1774 -0.2776 -0.5152
   38GLOH    C2 8704   9.546   1.026   4.047 -0.9012  0.0833  0.1537
   38GLOH   H04 8705   9.574   0.936   3.990  0.2005  1.4053 -1.4491
   38GLOH    O2 8706   9.521   1.140   3.960 -0.2941  0.3708 -0.5382
   38GLOH   H05 8707   9.544   1.113   3.869 -0.1987 -1.3468 -0.0227
   38GLOH    C3 8708   9.668   1.052   4.138 -0.0127 -0.6188 -0.6399
   38GLOH   H06 8709   9.636   1.119   4.218  0.8547 -1.6206  0.5546
   38GLOH   H07 8710   9.744   1.093   4.072 -0.2455 -1.8078 -1.6655
   38GLOH    O3 8711   9.719   0.935   4.201 -0.2494 -0.4238  0.0068
   38GLOH   H01 8712   9.783   0.973   4.264  0.2501  2.0205 -1.8974
   39GLOH   H03 8713   4.129   7.654   4.195  1.2040 -0.1443  0.1042
   39GLOH    O1 8714   4.124   7.667   4.292  0.0127  0.1583  0.0038
   39GLOH    C1 8715   3.983   7.676   4.322 -0.2835  0.2965 -0.0002
   39GLOH   H02 8716   3.964   7.640   4.423  4.1396  1.8090  1.4698
   39GLOH   H08 8717   3.929   7.600   4.264 -0.8622  1.4941 -1.0564
   39GLOH    C2 8718   3.924   7.817   4.314 -0.2715 -0.1386  0.1455
   39GLOH   H04 8719   3.968   7.869   4.401 -1.3480 -1.3115  1.4242
   39GLOH    O2 8720   3.959   7.881   4.191 -0.1723 -0.7354 -0.0465
   39GLOH   H05 8721   3.928   7.973   4.189  0.2429 -0.5488  1.2848
   39GLOH    C3 8722   3.769   7.807   4.327 -0.2250  0.0563  0.1531
   39GLOH   H06 8723   3.743   7.739   4.245  2.4589 -0.6574 -0.1313
   39GLOH   H07 8724   3.732   7.909   4.319  0.1676  0.2612  0.9568
   39GLOH    O3 8725   3.729   7.747   4.448 -0.5397  0.0290 -0.4243
   39GLOH   H01 8726   3.693   7.823   4.497 -0.6278  0.9142 -1.8271
   40GLOH   H03 8727   9.704   4.145   5.360 -2.0602  2.9377  1.1123
   40GLOH    O1 8728   9.733   4.129   5.451 -0.1857 -0.2899  0.0210
   40GLOH    C1 8729   9.728   3.992   5.492 -0.2171  0.5607 -0.3371
   40GLOH   H02 8730   9.755   3.982   5.597  0.2573 -0.4125 -0.5454
   40GLOH   H08 8731   9.805   3.938   5.437  0.5004  1.8642 -0.6228
   40GLOH    C2 8732   9.596   3.917   5.471  0.3173  0.2290  0.2425
   40GLOH   H04 8733   9.556   3.942   5.371  2.0018  0.9627 -0.2602
   40GLOH    O2 8734   9.595   3.774   5.483  0.4486 -0.4945 -0.1288
   40GLOH   H05 8735   9.501   3.746   5.481  0.0833  0.4866  1.8073
   40GLOH    C3 8736   9.491   3.979   5.559 -0.0252  0.6326 -0.0776
   40GLOH   H06 8737   9.401   3.918   5.552 -0.4101  1.3584 -1.8234
   40GLOH   H07 8738   9.459   4.073   5.515  2.4390  1.3309 -0.4575
   40GLOH    O3 8739   9.522   3.994   5.699  0.1508 -0.7868  0.0717
   40GLOH   H01 8740   9.443   4.034   5.740  0.1898  0.5348 -1.0895
   41GLOH   H03 8741   9.982   1.596   4.074 -0.1385 -0.4378  0.4133
   41GLOH    O1 8742   9.974   1.609   4.170 -0.8024  0.0134  0.3039
   41GLOH    C1 8743  10.066   1.516   4.237 -0.3099 -0.0391  0.0335
   41GLOH   H02 8744  10.046   1.421   4.187  0.1184  0.0087 -0.2284
   41GLOH   H08 8745  10.052   1.499   4.344  1.4120 -0.8416  0.1314
   41GLOH    C2 8746  10.215   1.543   4.220  0.6757 -0.1463  0.4141
   41GLOH   H04 8747  10.262   1.466   4.283  2.3304  0.9386  0.5254
   41GLOH    O2 8748  10.263   1.539   4.082 -0.5458 -0.1562  0.3912
   41GLOH   H05 8749  10.283   1.624   4.041  0.3660 -0.8319 -0.5893
   41GLOH    C3 8750  10.243   1.684   4.282  0.5711 -0.3902  0.2435
   41GLOH   H06 8751  10.170   1.759   4.254  1.4046 -0.7738 -3.1069
   41GLOH   H07 8752  10.340   1.711   4.240 -0.1802  2.5126  0.3115
   41GLOH    O3 8753  10.239   1.671   4.424  0.2144 -0.1667 -0.1733
   41GLOH   H01 8754  10.310   1.610   4.448 -0.3169 -0.9774 -0.6346
   42GLOH   H03 8755   2.415   5.585   6.749  0.5602  0.9120  1.3149
   42GLOH    O1 8756   2.337   5.596   6.690  0.7125 -1.0428  0.7095
   42GLOH    C1 8757   2.376   5.627   6.551  0.7704 -0.2293  0.0761
   42GLOH   H02 8758   2.441   5.714   6.542 -0.3184  0.4036 -2.0366
   42GLOH   H08 8759   2.286   5.648   6.492 -0.8583 -0.2353  2.4651
   42GLOH    C2 8760   2.453   5.507   6.493  0.2069 -0.3599  0.0023
   42GLOH   H04 8761   2.491   5.526   6.391  1.8942  2.0441  1.0406
   42GLOH    O2 8762   2.568   5.478   6.580  0.3306  0.1208 -0.6284
   42GLOH   H05 8763   2.584   5.382   6.586 -1.9734 -0.2470  0.2700
   42GLOH    C3 8764   2.356   5.392   6.468  0.6023  0.0419  0.7936
   42GLOH   H06 8765   2.301   5.382   6.562  1.8329 -3.7090  1.2001
   42GLOH   H07 8766   2.414   5.300   6.459  1.8246  0.9926 -1.4532
   42GLOH    O3 8767   2.273   5.408   6.355 -0.8278  0.2196 -0.1387
   42GLOH   H01 8768   2.319   5.479   6.307 -0.1712 -1.2202 -1.6923
   43GLOH   H03 8769   3.282   8.162   0.119  0.1300 -0.3075 -0.0787
   43GLOH    O1 8770   3.199   8.124   0.087 -0.0003  0.0871 -0.2171
   43GLOH    C1 8771   3.097   8.119   0.184 -0.7878 -0.3334 -0.1464
   43GLOH   H02 8772   3.114   8.187   0.268 -0.4421  0.6158 -0.9731
   43GLOH   H08 8773   3.086   8.015   0.213 -2.5179  0.0067  0.4967
   43GLOH    C2 8774   2.956   8.162   0.135 -0.0265 -1.0334  0.2877
   43GLOH   H04 8775   2.944   8.151   0.026  1.2187  1.7668 -0.1530
   43GLOH    O2 8776   2.854   8.077   0.199 -0.3822  0.3090  0.4446
   43GLOH   H05 8777   2.768   8.121   0.192  0.0001  0.6289 -3.1018
   43GLOH    C3 8778   2.926   8.309   0.155 -0.6576 -0.8331  0.1208
   43GLOH   H06 8779   2.829   8.339   0.116 -0.9078  0.1796  1.4985
   43GLOH   H07 8780   2.997   8.355   0.086 -1.1774 -0.5449 -0.2275
   43GLOH    O3 8781   2.940   8.368   0.287 -0.3534 -0.0826 -0.2792
   43GLOH   H01 8782   2.903   8.304   0.351  1.5111 -1.1487 -0.2089
   44GLOH   H03 8783   8.468   3.469   0.681 -0.2851 -0.2781 -0.6782
   44GLOH    O1 8784   8.501   3.552   0.640  0.3448 -0.2942 -0.1973
   44GLOH    C1 8785   8.633   3.537   0.583  0.4345  0.8585  0.2096
   44GLOH   H02 8786   8.665   3.433   0.590 -0.9877  0.5442  2.6935
   44GLOH   H08 8787   8.718   3.581   0.635  1.0604 -0.4226  0.3015
   44GLOH    C2 8788   8.633   3.565   0.434 -1.4127  0.5242  0.2405
   44GLOH   H04 8789   8.575   3.658   0.420 -0.2936  1.8906  4.2101
   44GLOH    O2 8790   8.762   3.576   0.375  0.1043 -0.0717 -0.4400
   44GLOH   H05 8791   8.805   3.490   0.358  0.1121 -0.2727  0.5426
   44GLOH    C3 8792   8.551   3.458   0.359 -0.5132  0.3523  0.4777
   44GLOH   H06 8793   8.449   3.476   0.395 -0.4867  2.4103 -0.4572
   44GLOH   H07 8794   8.568   3.355   0.391  0.9044  0.2867 -0.4814
   44GLOH    O3 8795   8.548   3.464   0.216  0.1816  0.1684  0.2755
   44GLOH   H01 8796   8.480   3.523   0.178  1.1812  0.8617 -0.4798
   45GLOH   H03 8797   0.505   2.611   3.867  0.9434  0.1198 -0.8601
   45GLOH    O1 8798   0.489   2.543   3.799 -0.8503 -0.0012 -0.3357
   45GLOH    C1 8799   0.437   2.594   3.676 -0.9869  0.0797 -0.5979
   45GLOH   H02 8800   0.345   2.650   3.689 -0.8105  0.0625  0.8289
   45GLOH   H08 8801   0.417   2.511   3.609  0.4668 -1.9113  1.3591
   45GLOH    C2 8802   0.541   2.687   3.611 -0.1460  0.2405 -0.3139
   45GLOH   H04 8803   0.639   2.637   3.609  1.1122  2.5220  1.4381
   45GLOH    O2 8804   0.485   2.711   3.478  0.3320  0.3146  0.0248
   45GLOH   H05 8805   0.544   2.666   3.416  0.8866  0.1228  0.6957
   45GLOH    C3 8806   0.553   2.820   3.689  0.4659  0.1798 -0.5415
   45GLOH   H06 8807   0.452   2.856   3.710  1.5521  3.1111 -0.2098
   45GLOH   H07 8808   0.596   2.898   3.627 -0.2589  0.0410 -1.2417
   45GLOH    O3 8809   0.615   2.810   3.814 -0.3730  0.0317 -0.3107
   45GLOH   H01 8810   0.705   2.772   3.808  0.1180  1.0017  0.7010
   46GLOH   H03 8811   4.237   5.598   2.524 -1.0526 -0.4906 -0.7924
   46GLOH    O1 8812   4.233   5.693   2.500  0.2529 -0.2565 -0.1491
   46GLOH    C1 8813   4.221   5.767   2.625  0.6467 -0.5821 -0.4218
   46GLOH   H02 8814   4.289   5.729   2.700  0.2043 -0.4346  0.0567
   46GLOH   H08 8815   4.119   5.751   2.660  0.3713 -1.1966 -1.4759
   46GLOH    C2 8816   4.243   5.919   2.615 -0.0841 -0.3636  0.2080
   46GLOH   H04 8817   4.350   5.943   2.624  0.4581 -2.3588 -0.7241
   46GLOH    O2 8818   4.196   5.968   2.492  0.2956  0.1557  0.2162
   46GLOH   H05 8819   4.261   6.030   2.453  0.6794 -1.3264 -1.5895
   46GLOH    C3 8820   4.183   5.993   2.732  0.0653  0.1477 -0.3299
   46GLOH   H06 8821   4.186   5.932   2.822 -0.8383  1.2794  0.4900
   46GLOH   H07 8822   4.075   6.005   2.722  0.3785  2.8431 -1.1331
   46GLOH    O3 8823   4.227   6.128   2.752  0.2695  0.7596  0.1759
   46GLOH   H01 8824   4.276   6.153   2.672 -0.8904  1.5962 -0.2875
   47GLOH   H03 8825   1.020   3.166   3.898 -0.0081 -0.1225  0.0275
   47GLOH    O1 8826   0.992   3.143   3.989 -0.2340  0.3985  0.0894
   47GLOH    C1 8827   0.868   3.201   4.026 -0.0127  0.7802 -0.0677
   47GLOH   H02 8828   0.851   3.293   3.970  0.7013  1.5349  0.9367
   47GLOH   H08 8829   0.863   3.217   4.134  2.5449  2.1570 -0.1438
   47GLOH    C2 8830   0.742   3.117   3.985 -0.3364  0.3642 -0.3883
   47GLOH   H04 8831   0.654   3.179   4.006  0.1211  1.4930 -1.7091
   47GLOH    O2 8832   0.746   3.080   3.839  0.5879  0.0465 -0.1138
   47GLOH   H05 8833   0.656   3.067   3.806 -0.0529 -0.0139  1.6249
   47GLOH    C3 8834   0.744   2.982   4.061  0.2895 -0.0428 -0.3133
   47GLOH   H06 8835   0.755   2.986   4.170  0.4360 -2.4766 -0.1995
   47GLOH   H07 8836   0.823   2.921   4.016 -2.9580 -1.7073 -4.0847
   47GLOH    O3 8837   0.614   2.916   4.045  0.1698  0.4235 -0.1399
   47GLOH   H01 8838   0.601   2.889   3.952  0.0860  0.0258 -0.0147
   48GLOH   H03 8839   8.496   4.454   6.287  0.9732  0.6668 -0.3414
   48GLOH    O1 8840   8.568   4.391   6.308 -0.0823 -0.3797  0.1888
   48GLOH    C1 8841   8.607   4.384   6.449  0.3037 -0.4132 -0.0420
   48GLOH   H02 8842   8.713   4.359   6.456  0.2645 -1.4320 -2.5091
   48GLOH   H08 8843   8.554   4.318   6.517  0.7940  0.1996  0.9501
   48GLOH    C2 8844   8.595   4.520   6.523 -0.4441 -0.4462 -0.3990
   48GLOH   H04 8845   8.489   4.551   6.528  0.3061  2.1139  0.8882
   48GLOH    O2 8846   8.624   4.499   6.661 -0.0865  0.1330  0.1820
   48GLOH   H05 8847   8.720   4.506   6.676  0.2275 -0.5023 -1.5110
   48GLOH    C3 8848   8.665   4.642   6.461 -0.1783  0.7250  0.6561
   48GLOH   H06 8849   8.772   4.639   6.485 -0.4396  0.0297  1.7648
   48GLOH   H07 8850   8.632   4.734   6.508 -0.2764  0.1345  1.7628
   48GLOH    O3 8851   8.648   4.665   6.318  0.4933  0.0266 -0.2412
   48GLOH   H01 8852   8.552   4.669   6.302  0.6387  0.2559 -1.0930
   49GLOH   H03 8853   1.439   9.943   6.525  1.1247 -3.2024 -2.0639
   49GLOH    O1 8854   1.398   9.990   6.450  0.4598 -0.2608  0.0647
   49GLOH    C1 8855   1.270  10.043   6.494  0.2056  0.6473 -0.4736
   49GLOH   H02 8856   1.235  10.010   6.592  2.5960 -0.8695 -0.0972
   49GLOH   H08 8857   1.196  10.017   6.419 -0.6466  0.7488  0.3214
   49GLOH    C2 8858   1.271  10.193   6.517  0.1785 -0.3636  0.0716
   49GLOH   H04 8859   1.278  10.246   6.420  1.6606  1.6027  1.2055
   49GLOH    O2 8860   1.142  10.236   6.580 -0.4392  0.1292  0.2104
   49GLOH   H05 8861   1.131  10.332   6.565  1.9154  0.3513 -0.2233
   49GLOH    C3 8862   1.395  10.243   6.589 -0.0841  0.1739 -0.0699
   49GLOH   H06 8863   1.383  10.351   6.595  1.5174  0.4213 -1.0221
   49GLOH   H07 8864   1.474  10.236   6.515 -0.6937  0.3185 -0.7352
   49GLOH    O3 8865   1.428  10.193   6.729 -0.3681 -0.3012  0.1724
   49GLOH   H01 8866   1.517  10.217   6.762  0.2222 -1.7564 -0.3187
   50GLOH   H03 8867   2.752   5.576   0.481 -2.6355 -1.5446  0.5962
   50GLOH    O1 8868   2.702   5.650   0.521 -0.1173  0.5768  0.0291
   50GLOH    C1 8869   2.581   5.682   0.445  0.6456 -0.7792  0.2969
   50GLOH   H02 8870   2.514   5.597   0.430 -0.2292 -0.1268  0.4748
   50GLOH   H08 8871   2.603   5.717   0.344 -1.7794 -1.4833 -0.5245
   50GLOH    C2 8872   2.505   5.791   0.520  0.1818 -0.0407  0.2015
   50GLOH   H04 8873   2.573   5.876   0.535 -1.2144  0.5107  3.8144
   50GLOH    O2 8874   2.392   5.833   0.434  0.0481 -0.5869 -0.3095
   50GLOH   H05 8875   2.429   5.876   0.355  1.2055 -0.4178  0.3139
   50GLOH    C3 8876   2.452   5.735   0.655 -0.2138  0.5051 -0.3217
   50GLOH   H06 8877   2.383   5.652   0.638 -1.7112  1.6657  0.0776
   50GLOH   H07 8878   2.399   5.815   0.706  1.6506  3.0742 -2.3157
   50GLOH    O3 8879   2.556   5.684   0.749 -0.1776 -0.0799 -0.0202
   50GLOH   H01 8880   2.639   5.665   0.701 -1.5672 -2.0474 -1.7505
   51GLOH   H03 8881   7.593   1.802   6.209  0.8345  0.6849 -0.2988
   51GLOH    O1 8882   7.524   1.759   6.156  0.8628  0.3502 -0.0664
   51GLOH    C1 8883   7.497   1.854   6.058  0.5099 -0.6862  0.6569
   51GLOH   H02 8884   7.419   1.812   5.993 -0.4123  1.0163  0.6340
   51GLOH   H08 8885   7.583   1.872   5.995 -0.0628  2.1929  0.6449
   51GLOH    C2 8886   7.441   1.988   6.117 -0.4574 -0.4425 -0.2462
   51GLOH   H04 8887   7.361   1.973   6.192 -1.1206  1.3165 -0.5775
   51GLOH    O2 8888   7.547   2.070   6.169 -0.2809 -0.1231  0.2785
   51GLOH   H05 8889   7.627   2.016   6.185  0.2671  0.3117 -0.8878
   51GLOH    C3 8890   7.368   2.056   5.998 -0.1142 -0.5287 -0.2435
   51GLOH   H06 8891   7.430   2.038   5.910  1.7195  0.3365  0.8517
   51GLOH   H07 8892   7.373   2.165   6.003 -2.4934 -0.4669  1.7099
   51GLOH    O3 8893   7.234   2.014   5.973 -0.4590 -0.8601  0.8212
   51GLOH   H01 8894   7.185   1.984   6.052 -4.4777  0.2417 -1.1264
   52GLOH   H03 8895   7.889   8.129   1.716 -0.8138  1.7333  2.2632
   52GLOH    O1 8896   7.815   8.066   1.728  0.1436  0.2395  0.6078
   52GLOH    C1 8897   7.695   8.145   1.727  0.2815  0.2086 -0.3411
   52GLOH   H02 8898   7.675   8.182   1.626  3.6688 -0.8097 -1.4539
   52GLOH   H08 8899   7.702   8.226   1.800  0.8228  2.1161 -2.4294
   52GLOH    C2 8900   7.572   8.069   1.779  0.3856 -0.4325 -0.5927
   52GLOH   H04 8901   7.598   8.020   1.874 -0.2474 -0.0287 -0.2044
   52GLOH    O2 8902   7.461   8.164   1.797 -0.8584 -0.4933  0.5350
   52GLOH   H05 8903   7.419   8.148   1.883  0.7550 -3.0360  0.9070
   52GLOH    C3 8904   7.521   7.962   1.682  0.3688  0.2532 -0.8951
   52GLOH   H06 8905   7.476   8.008   1.595  0.7295  1.4489 -0.4615
   52GLOH   H07 8906   7.443   7.914   1.741  0.3444  0.7209 -0.5435
   52GLOH    O3 8907   7.614   7.862   1.644 -0.3289 -0.7207  0.2061
   52GLOH   H01 8908   7.698   7.905   1.669 -1.2481  1.4442 -0.2825
   53GLOH   H03 8909   5.566   1.991   3.457  0.6823  0.4506  0.4587
   53GLOH    O1 8910   5.626   1.916   3.445 -0.2180 -0.1558 -0.2896
   53GLOH    C1 8911   5.751   1.976   3.482  0.4318 -0.1602 -0.2887
   53GLOH   H02 8912   5.747   2.035   3.574  1.1054  0.3330 -0.5663
   53GLOH   H08 8913   5.779   2.044   3.401  0.0844 -0.2869 -0.5149
   53GLOH    C2 8914   5.867   1.875   3.509 -0.0821 -0.8536  0.7449
   53GLOH   H04 8915   5.818   1.777   3.517  0.7369 -1.2075  1.4580
   53GLOH    O2 8916   5.955   1.868   3.395  0.4384 -0.1307  0.5695
   53GLOH   H05 8917   5.904   1.848   3.315 -0.4102  0.7129  0.8929
   53GLOH    C3 8918   5.940   1.908   3.643 -0.6675 -0.0363 -0.4449
   53GLOH   H06 8919   6.008   1.991   3.627 -1.6383  1.1594  1.5151
   53GLOH   H07 8920   6.000   1.821   3.669  1.1841  1.3121 -0.1399
   53GLOH    O3 8921   5.850   1.946   3.751  0.1863  0.0155  0.5132
   53GLOH   H01 8922   5.872   2.033   3.788  1.7389 -0.0013 -0.2988
   54GLOH   H03 8923   5.338   5.163   1.124 -0.2331 -0.4510 -2.9642
   54GLOH    O1 8924   5.259   5.219   1.129  0.1535 -0.0874  0.4434
   54GLOH    C1 8925   5.149   5.128   1.131 -0.9870 -0.1851 -0.0062
   54GLOH   H02 8926   5.093   5.120   1.224 -1.5639  0.0719 -0.3305
   54GLOH   H08 8927   5.193   5.030   1.113  2.6526  1.0949  1.4508
   54GLOH    C2 8928   5.052   5.153   1.023 -0.6115  0.1745  0.4399
   54GLOH   H04 8929   5.007   5.252   1.035 -1.5567 -0.5139  2.7670
   54GLOH    O2 8930   5.114   5.161   0.888  0.1386  0.2753 -0.3430
   54GLOH   H05 8931   5.190   5.222   0.891  3.6843 -3.9354  0.5194
   54GLOH    C3 8932   4.937   5.054   1.025  1.3187 -0.3374  0.1232
   54GLOH   H06 8933   4.985   4.957   1.009  0.0948 -0.9966  0.3661
   54GLOH   H07 8934   4.868   5.074   0.943  0.5773 -0.8940  0.6063
   54GLOH    O3 8935   4.866   5.050   1.151  0.0905 -0.2860  0.1658
   54GLOH   H01 8936   4.910   4.988   1.212  1.7119 -0.4711 -1.1677
   55GLOH   H03 8937   6.703   9.005   2.215  0.4445  1.2795 -2.0497
   55GLOH    O1 8938   6.628   8.957   2.176 -0.2403 -0.4995  1.2580
   55GLOH    C1 8939   6.664   8.896   2.056 -0.1003 -0.1066 -0.1171
   55GLOH   H02 8940   6.580   8.876   1.989 -0.5085  0.7787  0.1186
   55GLOH   H08 8941   6.702   8.798   2.085  0.1738 -0.2682 -0.9891
   55GLOH    C2 8942   6.759   8.974   1.964  0.2743  0.1690 -0.2898
   55GLOH   H04 8943   6.847   9.006   2.023  0.6296 -2.3288  0.6025
   55GLOH    O2 8944   6.806   8.897   1.854  0.0990 -0.2466 -0.0730
   55GLOH   H05 8945   6.839   8.967   1.796 -2.2875  0.4679 -0.6341
   55GLOH    C3 8946   6.695   9.102   1.913 -0.1795  0.0603 -0.4275
   55GLOH   H06 8947   6.666   9.169   1.993  3.2508  1.0117  0.1097
   55GLOH   H07 8948   6.599   9.081   1.865  0.3124 -1.1807 -0.8949
   55GLOH    O3 8949   6.785   9.166   1.821  0.3168 -0.2439 -0.6194
   55GLOH   H01 8950   6.804   9.256   1.854 -2.8047  0.0675  0.5460
   56GLOH   H03 8951   1.754   1.172   5.410  0.1870  1.0401  1.4186
   56GLOH    O1 8952   1.694   1.119   5.466  0.0020 -0.1381  0.1338
   56GLOH    C1 8953   1.557   1.162   5.440  0.0436  0.2221 -0.6404
   56GLOH   H02 8954   1.537   1.137   5.335 -0.7720 -2.3526  0.0931
   56GLOH   H08 8955   1.559   1.271   5.451 -2.1203  0.0494  2.1106
   56GLOH    C2 8956   1.447   1.107   5.534 -0.2022  0.0520  0.0912
   56GLOH   H04 8957   1.456   1.147   5.636  1.9440  2.1987 -0.8953
   56GLOH    O2 8958   1.321   1.151   5.484 -0.4899  0.0681  0.8267
   56GLOH   H05 8959   1.249   1.139   5.548 -1.0188 -1.4039 -0.0352
   56GLOH    C3 8960   1.456   0.956   5.551  0.2487  0.5531  0.1219
   56GLOH   H06 8961   1.556   0.948   5.593  0.9863  1.6788 -1.3505
   56GLOH   H07 8962   1.449   0.901   5.457 -1.6225  2.0974 -0.6697
   56GLOH    O3 8963   1.369   0.899   5.653 -0.7080 -0.3285 -0.2478
   56GLOH   H01 8964   1.380   0.952   5.734 -0.2117 -2.2278  0.9595
   57GLOH   H03 8965   2.711   6.764   2.000 -0.1050  3.0849 -0.0329
   57GLOH    O1 8966   2.614   6.753   1.997  0.1871  0.1284 -0.0441
   57GLOH    C1 8967   2.554   6.681   2.104 -0.6281  0.2978  0.5328
   57GLOH   H02 8968   2.554   6.741   2.196  2.8211  1.8712 -0.4209
   57GLOH   H08 8969   2.609   6.588   2.118 -0.9504  0.0995  0.4720
   57GLOH    C2 8970   2.407   6.652   2.067 -0.1149 -0.7053 -0.2449
   57GLOH   H04 8971   2.400   6.578   1.985 -0.8782  0.6761 -1.4357
   57GLOH    O2 8972   2.333   6.607   2.182  0.4996  0.3024  0.3976
   57GLOH   H05 8973   2.239   6.604   2.157  0.5076  1.1297  0.2506
   57GLOH    C3 8974   2.340   6.776   2.005 -0.2941  0.4779 -0.1677
   57GLOH   H06 8975   2.354   6.855   2.080  3.6236 -1.6523  1.4751
   57GLOH   H07 8976   2.233   6.753   1.997  0.0003 -0.1054 -2.6972
   57GLOH    O3 8977   2.395   6.807   1.875  0.2350  0.0239 -0.1175
   57GLOH   H01 8978   2.492   6.801   1.885  0.3770 -0.7833 -1.7936
   58GLOH   H03 8979   9.746   1.829   0.869  0.8883 -0.8475  0.2790
   58GLOH    O1 8980   9.697   1.854   0.950  0.1551 -0.2215 -0.3425
   58GLOH    C1 8981   9.632   1.980   0.940  1.0576  0.1165  0.2548
   58GLOH   H02 8982   9.631   2.008   0.835  1.8623 -1.0259 -0.0766
   58GLOH   H08 8983   9.686   2.054   1.000 -1.0658  1.3714  0.6576
   58GLOH    C2 8984   9.485   1.973   0.984 -0.6862  0.1676  0.1956
   58GLOH   H04 8985   9.482   1.940   1.089  2.4551 -1.1474 -0.0605
   58GLOH    O2 8986   9.419   2.099   0.974  0.1610 -0.0306 -0.0608
   58GLOH   H05 8987   9.461   2.159   1.039  0.7955 -2.9020  2.2795
   58GLOH    C3 8988   9.422   1.874   0.882  0.6616  0.6643  0.5909
   58GLOH   H06 8989   9.481   1.788   0.849  0.8839  0.9490  0.2423
   58GLOH   H07 8990   9.396   1.931   0.793 -3.2700 -0.2400  1.0635
   58GLOH    O3 8991   9.300   1.818   0.931  0.3741  0.0571 -0.0377
   58GLOH   H01 8992   9.317   1.817   1.027  1.9545  0.0740 -0.3019
   59GLOH   H03 8993   4.820   1.968   5.651  0.2364  0.9857  2.0212
   59GLOH    O1 8994   4.880   1.892   5.658 -0.3105  0.2856 -0.3506
   59GLOH    C1 8995   4.813   1.780   5.604 -0.3980 -0.4261  0.7270
   59GLOH   H02 8996   4.775   1.811   5.506  0.9504 -1.3203 -0.0909
   59GLOH   H08 8997   4.731   1.759   5.673  0.3826 -0.3319  1.6830
   59GLOH    C2 8998   4.909   1.661   5.590 -0.0685  0.0711  0.7501
   59GLOH   H04 8999   4.954   1.646   5.688  0.9835 -2.6520 -0.1209
   59GLOH    O2 9000   4.841   1.546   5.546 -0.3610  0.1020 -0.2160
   59GLOH   H05 9001   4.847   1.534   5.449  3.5250 -1.0129  0.0820
   59GLOH    C3 9002   5.020   1.708   5.495  0.5786  0.2794 -0.3881
   59GLOH   H06 9003   5.099   1.634   5.481  0.1114 -0.1352 -0.8238
   59GLOH   H07 9004   5.065   1.800   5.534 -0.9524  0.5297  0.8222
   59GLOH    O3 9005   4.973   1.743   5.363  0.4387  0.1889  0.1313
   59GLOH   H01 9006   4.923   1.665   5.332  1.2672  0.6041 -2.3708
   60GLOH   H03 9007   2.487   9.230   4.033 -0.2270  0.1670 -0.8231
   60GLOH    O1 9008   2.409   9.263   4.082 -0.0370 -0.2976 -0.1910
   60GLOH    C1 9009   2.412   9.398   4.128  1.0200 -0.0824  0.1470
   60GLOH   H02 9010   2.507   9.428   4.171  0.9695 -1.0281  0.9363
   60GLOH   H08 9011   2.346   9.409   4.214  3.3458  0.8507  1.8549
   60GLOH    C2 9012   2.379   9.504   4.018 -0.1114  0.0064 -0.6665
   60GLOH   H04 9013   2.269   9.502   4.004 -0.4180  1.4222  1.3143
   60GLOH    O2 9014   2.411   9.638   4.058  0.0674  1.0988  0.3385
   60GLOH   H05 9015   2.402   9.649   4.154 -1.3386 -1.7779  0.5745
   60GLOH    C3 9016   2.431   9.461   3.879 -0.7574 -0.0594 -0.3496
   60GLOH   H06 9017   2.426   9.550   3.817  0.5019  0.5068  0.3336
   60GLOH   H07 9018   2.377   9.376   3.839  0.4562 -2.4631  2.8910
   60GLOH    O3 9019   2.571   9.421   3.887 -0.5899  0.6071  0.3266
   60GLOH   H01 9020   2.609   9.404   3.799 -0.6145 -1.9247  0.7780
   61GLOH   H03 9021   3.913   1.147   3.145 -2.4324  0.3508  3.2080
   61GLOH    O1 9022   3.926   1.054   3.171  0.0522 -0.5146 -0.7350
   61GLOH    C1 9023   4.045   0.984   3.123 -1.2283 -0.0987  0.6267
   61GLOH   H02 9024   4.129   1.054   3.125 -0.0686 -1.4973  1.7740
   61GLOH   H08 9025   4.030   0.940   3.025 -2.0899 -0.3735  0.8830
   61GLOH    C2 9026   4.072   0.868   3.225  0.6799 -0.2829 -0.1223
   61GLOH   H04 9027   4.027   0.883   3.324  1.0424  3.1477 -0.4238
   61GLOH    O2 9028   4.015   0.744   3.177 -0.0421  0.2096 -0.0488
   61GLOH   H05 9029   3.924   0.737   3.208  0.6193 -0.9766  1.7148
   61GLOH    C3 9030   4.225   0.845   3.240 -0.1987 -0.0057  0.0435
   61GLOH   H06 9031   4.246   0.740   3.258  1.4491  0.2110 -0.5469
   61GLOH   H07 9032   4.252   0.906   3.327  0.4980  1.8816 -1.4624
   61GLOH    O3 9033   4.303   0.879   3.125 -0.0484 -0.2429 -0.2143
   61GLOH   H01 9034   4.305   0.800   3.067  1.0397  0.3435 -0.9735
   62GLOH   H03 9035   0.051   0.504   0.561  0.5991 -1.1731  0.9538
   62GLOH    O1 9036   0.111   0.540   0.629  0.9782  0.1230 -0.0461
   62GLOH    C1 9037   0.180   0.658   0.574  0.2144 -0.8537  0.2630
   62GLOH   H02 9038   0.103   0.727   0.538  0.2400 -0.7124  0.4803
   62GLOH   H08 9039   0.245   0.621   0.494 -1.3370 -3.0075 -0.0430
   62GLOH    C2 9040   0.268   0.724   0.677  0.2251  0.2491  0.5913
   62GLOH   H04 9041   0.209   0.730   0.770 -0.7995 -0.0494 -0.0343
   62GLOH    O2 9042   0.384   0.635   0.695  0.2506  0.0110  0.3083
   62GLOH   H05 9043   0.355   0.542   0.687  1.3212 -0.2253 -1.0930
   62GLOH    C3 9044   0.308   0.867   0.631  0.1191 -0.4516  0.4052
   62GLOH   H06 9045   0.335   0.864   0.526 -0.0613 -0.7670  0.3677
   62GLOH   H07 9046   0.403   0.882   0.682  1.1161 -5.9700  0.4046
   62GLOH    O3 9047   0.218   0.977   0.661 -1.0261  0.4948  0.1741
   62GLOH   H01 9048   0.273   1.058   0.660  0.4538 -0.3797  3.1558
   63GLOH   H03 9049   5.045   7.105   1.841 -0.8452  0.2085 -0.2675
   63GLOH    O1 9050   5.100   7.185   1.835 -0.3091 -0.1417 -0.0283
   63GLOH    C1 9051   5.021   7.289   1.897 -1.0234 -0.1784 -0.0198
   63GLOH   H02 9052   4.932   7.241   1.938 -1.1323 -1.4442 -1.7012
   63GLOH   H08 9053   4.986   7.360   1.822 -2.7322  1.4291  2.2473
   63GLOH    C2 9054   5.090   7.348   2.025  0.2440 -0.2903 -0.5081
   63GLOH   H04 9055   5.019   7.422   2.065  0.3287 -1.3092  1.5743
   63GLOH    O2 9056   5.116   7.236   2.120  0.1556  0.3335 -0.1230
   63GLOH   H05 9057   5.200   7.199   2.088  0.2710  1.0879 -0.7151
   63GLOH    C3 9058   5.216   7.444   1.993  0.5502 -0.1154 -0.2009
   63GLOH   H06 9059   5.190   7.519   1.919  1.6856  0.3472 -0.1402
   63GLOH   H07 9060   5.297   7.385   1.950  0.6540 -1.0982  1.3069
   63GLOH    O3 9061   5.254   7.511   2.115 -0.1405  0.2791 -0.0720
   63GLOH   H01 9062   5.287   7.438   2.172 -2.5125 -0.4997  0.3439
   64GLOH   H03 9063   5.669   8.258   5.201  0.0595  0.9637  0.4953
   64GLOH    O1 9064   5.736   8.189   5.214 -0.0550  0.7231 -0.1801
   64GLOH    C1 9065   5.860   8.256   5.236 -0.6616  0.5978  0.5936
   64GLOH   H02 9066   5.937   8.184   5.262 -0.3891  0.4931 -0.5090
   64GLOH   H08 9067   5.842   8.314   5.327  0.6136 -0.4235  1.5227
   64GLOH    C2 9068   5.899   8.356   5.119 -0.2550 -0.3646 -0.7481
   64GLOH   H04 9069   5.810   8.420   5.111  1.0986  1.6395 -0.2088
   64GLOH    O2 9070   6.015   8.434   5.155 -0.2462  0.3936 -0.1928
   64GLOH   H05 9071   5.994   8.520   5.115  0.9962  0.4682 -0.7041
   64GLOH    C3 9072   5.925   8.283   4.987  0.2252 -0.4685 -0.5948
   64GLOH   H06 9073   5.998   8.206   5.009  1.1787  0.7483  0.5450
   64GLOH   H07 9074   5.961   8.361   4.919 -1.0269  1.1628  0.5566
   64GLOH    O3 9075   5.809   8.233   4.927 -0.1548  0.4375 -0.4483
   64GLOH   H01 9076   5.820   8.137   4.932 -0.7089  0.4353  1.0627
   65GLOH   H03 9077   6.500   1.776   6.542  0.5675 -0.5661  0.7305
   65GLOH    O1 9078   6.427   1.821   6.587  0.1790  0.2906 -0.7165
   65GLOH    C1 9079   6.368   1.935   6.518  0.0167  0.1107  0.1140
   65GLOH   H02 9080   6.413   1.942   6.419  0.6206 -3.9627  0.0156
   65GLOH   H08 9081   6.394   2.025   6.574  1.1536 -1.4093  2.1071
   65GLOH    C2 9082   6.215   1.916   6.496  0.0762 -0.4684  0.3263
   65GLOH   H04 9083   6.197   1.812   6.468  0.0253 -0.2735 -0.3581
   65GLOH    O2 9084   6.142   1.943   6.622  0.4907  0.2896 -0.0188
   65GLOH   H05 9085   6.206   1.928   6.694 -1.2489 -1.8006  1.1457
   65GLOH    C3 9086   6.158   2.000   6.377  0.2657  0.8375 -0.6766
   65GLOH   H06 9087   6.186   1.955   6.282  1.0026 -0.1717  0.0047
   65GLOH   H07 9088   6.201   2.100   6.381  2.3065  0.0495 -1.8478
   65GLOH    O3 9089   6.013   2.005   6.381 -0.9675  0.0942  0.2855
   65GLOH   H01 9090   5.982   2.010   6.473  2.7382  4.6359  1.4931
   66GLOH   H03 9091   4.705   1.333   6.004  1.5888 -2.4466  0.4667
   66GLOH    O1 9092   4.781   1.387   6.031  0.1480 -0.1165 -0.0373
   66GLOH    C1 9093   4.881   1.378   5.934  0.4438 -0.2253  0.5177
   66GLOH   H02 9094   4.969   1.333   5.979  1.9574 -0.2978 -2.4221
   66GLOH   H08 9095   4.909   1.478   5.901 -0.0189 -0.4759 -0.6613
   66GLOH    C2 9096   4.851   1.283   5.812 -0.6681  0.3985 -0.7060
   66GLOH   H04 9097   4.745   1.270   5.787 -0.2599 -1.7153 -1.4291
   66GLOH    O2 9098   4.927   1.307   5.687  0.0926 -0.6835  0.0986
   66GLOH   H05 9099   4.893   1.374   5.626  0.8084 -2.4079 -2.3089
   66GLOH    C3 9100   4.886   1.140   5.859  1.0163  0.9829 -0.5043
   66GLOH   H06 9101   4.982   1.149   5.910 -0.4102 -0.2277  2.5352
   66GLOH   H07 9102   4.897   1.083   5.767 -0.3971  1.9758 -1.2929
   66GLOH    O3 9103   4.774   1.084   5.931 -0.1523 -0.0116 -0.4332
   66GLOH   H01 9104   4.718   1.046   5.862 -0.6592  1.5988 -0.9221
   67GLOH   H03 9105   6.901   6.228   5.958 -0.6217  3.2001 -3.6958
   67GLOH    O1 9106   6.817   6.182   5.942  0.1959 -0.0439  0.2806
   67GLOH    C1 9107   6.717   6.278   5.974  0.1684  0.3303 -0.3774
   67GLOH   H02 9108   6.745   6.379   5.943  2.8207  0.1543  1.2761
   67GLOH   H08 9109   6.709   6.271   6.082  0.8226 -1.5710 -0.4433
   67GLOH    C2 9110   6.575   6.254   5.905 -0.1953 -0.6150  0.0353
   67GLOH   H04 9111   6.599   6.280   5.801  1.5241 -0.4663  0.4486
   67GLOH    O2 9112   6.534   6.118   5.907  0.3092 -0.0150  0.5694
   67GLOH   H05 9113   6.598   6.065   5.957  0.2332 -0.6194  0.0307
   67GLOH    C3 9114   6.465   6.343   5.969 -0.8666 -0.5083  0.2229
   67GLOH   H06 9115   6.461   6.310   6.073 -0.9109  3.3863  1.5170
   67GLOH   H07 9116   6.365   6.336   5.925 -0.5850 -1.7335 -0.2637
   67GLOH    O3 9117   6.511   6.479   5.964 -0.2038 -0.2472 -0.3139
   67GLOH   H01 9118   6.523   6.507   5.871  0.7499  1.9026  0.4079
   68GLOH   H03 9119   8.629   5.743   3.421  0.3369 -0.3513  0.5590
   68GLOH    O1 9120   8.689   5.721   3.347 -0.1510  0.3052 -0.0526
   68GLOH    C1 9121   8.701   5.576   3.350 -0.2210  0.2361 -0.2157
   68GLOH   H02 9122   8.716   5.537   3.451 -2.7273 -0.7086 -0.1804
   68GLOH   H08 9123   8.787   5.540   3.293  1.1722  3.9209 -0.5286
   68GLOH    C2 9124   8.586   5.503   3.284 -0.9980  0.2414  0.5754
   68GLOH   H04 9125   8.607   5.395   3.286  0.0769  0.4182 -0.4829
   68GLOH    O2 9126   8.464   5.534   3.352  0.2206  0.0445 -0.4250
   68GLOH   H05 9127   8.408   5.455   3.358  0.2455 -0.0243 -1.0356
   68GLOH    C3 9128   8.568   5.528   3.137  0.4494  0.5353 -0.2498
   68GLOH   H06 9129   8.542   5.634   3.135 -0.9436  0.2574  1.7909
   68GLOH   H07 9130   8.469   5.485   3.121  0.7570 -0.2288 -0.1240
   68GLOH    O3 9131   8.668   5.482   3.045  0.1043  0.0715 -0.2251
   68GLOH   H01 9132   8.639   5.518   2.959 -0.1883  0.3939  0.0097
   69GLOH   H03 9133   2.254   5.277   0.834 -3.8770  0.1463  2.5281
   69GLOH    O1 9134   2.257   5.181   0.850 -0.5048 -0.2953  0.0078
   69GLOH    C1 9135   2.177   5.145   0.966 -0.0202  0.4677 -0.1729
   69GLOH   H02 9136   2.074   5.119   0.942  0.2628  0.8795 -1.9069
   69GLOH   H08 9137   2.154   5.233   1.026 -0.7226  1.3903 -1.7369
   69GLOH    C2 9138   2.237   5.034   1.054  0.4283 -0.0313  0.2505
   69GLOH   H04 9139   2.341   5.065   1.069  0.1814  1.2021 -0.5060
   69GLOH    O2 9140   2.151   5.015   1.169  0.5409 -0.1028  0.1234
   69GLOH   H05 9141   2.059   5.025   1.140  0.6318 -2.3320 -1.0702
   69GLOH    C3 9142   2.251   4.908   0.975 -0.1454  0.0893 -0.1489
   69GLOH   H06 9143   2.150   4.875   0.948 -0.5338  1.2311 -0.1323
   69GLOH   H07 9144   2.293   4.828   1.036 -4.0043 -0.2995  2.1768
   69GLOH    O3 9145   2.331   4.935   0.855  0.2510 -0.1318 -0.0270
   69GLOH   H01 9146   2.300   5.024   0.832 -1.5080 -0.2423  1.8083
   70GLOH   H03 9147   6.885   4.536   1.722  2.1783  1.3548 -0.0626
   70GLOH    O1 9148   6.852   4.609   1.778 -0.1998  0.2583  0.0182
   70GLOH    C1 9149   6.974   4.677   1.813  0.0219 -0.0030  0.2204
   70GLOH   H02 9150   6.946   4.775   1.853  0.4486  0.0358  0.4332
   70GLOH   H08 9151   7.031   4.697   1.722 -2.9543 -0.1878 -1.7514
   70GLOH    C2 9152   7.064   4.602   1.913 -0.5081 -0.6349 -0.0107
   70GLOH   H04 9153   7.085   4.502   1.872  0.0839 -0.4057 -0.2739
   70GLOH    O2 9154   7.192   4.673   1.916  0.0756 -0.1533  0.6222
   70GLOH   H05 9155   7.247   4.632   1.984  1.3492  2.4268  1.2398
   70GLOH    C3 9156   6.990   4.579   2.051 -0.0941  0.7278 -0.1411
   70GLOH   H06 9157   6.887   4.547   2.034  0.9849 -1.9517 -1.9995
   70GLOH   H07 9158   6.989   4.676   2.101 -0.6933  0.0857  1.1246
   70GLOH    O3 9159   7.051   4.473   2.128  0.4381 -0.0194 -0.1585
   70GLOH   H01 9160   7.010   4.388   2.101  1.0813 -0.6657  0.8402
   71GLOH   H03 9161   4.715   8.492   5.517  0.8955  0.3623  0.2504
   71GLOH    O1 9162   4.624   8.462   5.502  0.9996  0.0102  0.3143
   71GLOH    C1 9163   4.593   8.374   5.619  0.1589  0.1750 -0.8310
   71GLOH   H02 9164   4.656   8.418   5.697 -2.3174 -0.9091  1.8499
   71GLOH   H08 9165   4.635   8.274   5.607  2.5030  0.6342  2.7938
   71GLOH    C2 9166   4.445   8.362   5.657 -0.0964  0.1077  0.0949
   71GLOH   H04 9167   4.437   8.277   5.726 -1.2703  1.3863  1.5919
   71GLOH    O2 9168   4.388   8.469   5.727  0.6530 -0.3849  1.0577
   71GLOH   H05 9169   4.449   8.507   5.793  0.2550  2.8097 -0.2908
   71GLOH    C3 9170   4.361   8.326   5.534  0.2252  0.2505  0.2437
   71GLOH   H06 9171   4.263   8.303   5.575 -1.1824 -1.3757 -3.7895
   71GLOH   H07 9172   4.395   8.231   5.493 -1.2735  0.0110 -0.4626
   71GLOH    O3 9173   4.351   8.417   5.422  0.4277  0.9197  0.2176
   71GLOH   H01 9174   4.441   8.453   5.423  1.0609 -0.6103 -0.6041
   72GLOH   H03 9175   3.169   9.022   2.897 -0.5078 -0.4068  1.5725
   72GLOH    O1 9176   3.199   8.930   2.907 -0.5805 -0.6085  0.1219
   72GLOH    C1 9177   3.319   8.928   2.983 -0.0883 -0.1354  0.4354
   72GLOH   H02 9178   3.302   8.943   3.090 -0.6125  1.7491  0.1017
   72GLOH   H08 9179   3.389   9.005   2.950 -0.6513  0.9465  1.7117
   72GLOH    C2 9180   3.377   8.785   2.978 -0.4550  0.0705  0.0146
   72GLOH   H04 9181   3.474   8.787   3.030  0.2413 -3.9006 -0.9354
   72GLOH    O2 9182   3.301   8.682   3.050  0.1421  0.2061  0.2567
   72GLOH   H05 9183   3.208   8.711   3.051  0.3772  0.9946  2.2412
   72GLOH    C3 9184   3.416   8.743   2.831 -0.0257  0.6235  0.0759
   72GLOH   H06 9185   3.348   8.801   2.767 -0.8425  0.7405  1.0319
   72GLOH   H07 9186   3.394   8.639   2.809  0.1029  0.8528 -1.1758
   72GLOH    O3 9187   3.551   8.766   2.793  0.3316 -0.1365 -1.0205
   72GLOH   H01 9188   3.614   8.717   2.850 -1.0855 -0.1623  0.5710
   73GLOH   H03 9189   6.975   2.778   4.164 -1.3170 -0.0137 -1.0819
   73GLOH    O1 9190   6.954   2.839   4.236  0.3411 -0.4703 -0.1784
   73GLOH    C1 9191   6.820   2.831   4.291  0.3453 -0.6807 -0.3933
   73GLOH   H02 9192   6.809   2.894   4.379 -1.8637 -0.6328 -0.6852
   73GLOH   H08 9193   6.798   2.727   4.311  1.2007 -0.6323  0.8442
   73GLOH    C2 9194   6.703   2.882   4.207 -0.3008 -1.1570  0.4704
   73GLOH   H04 9195   6.726   2.986   4.180  0.2875 -1.4036 -0.0002
   73GLOH    O2 9196   6.687   2.807   4.088  0.3524 -0.0008  0.4343
   73GLOH   H05 9197   6.604   2.822   4.039  0.5596 -0.2756 -0.0026
   73GLOH    C3 9198   6.577   2.879   4.291 -0.3539 -0.6078 -0.3174
   73GLOH   H06 9199   6.554   2.778   4.324 -1.2748 -0.0542  0.7759
   73GLOH   H07 9200   6.487   2.910   4.239 -0.0247 -0.4306 -0.7882
   73GLOH    O3 9201   6.597   2.973   4.402  0.2650 -0.9144 -0.0237
   73GLOH   H01 9202   6.551   2.947   4.484  0.9355  0.3586  0.7710
   74GLOH   H03 9203   2.937   4.620   5.169 -2.0535  0.9237  1.9906
   74GLOH    O1 9204   2.910   4.527   5.172  0.4415  0.1425  0.8367
   74GLOH    C1 9205   2.766   4.521   5.173  0.5301  0.4045  0.0306
   74GLOH   H02 9206   2.723   4.613   5.211  0.0755  0.8275 -1.4712
   74GLOH   H08 9207   2.729   4.451   5.248  4.2915 -0.3773  1.3010
   74GLOH    C2 9208   2.698   4.498   5.034 -0.4507 -0.4479  0.1248
   74GLOH   H04 9209   2.724   4.401   4.988  2.4479  0.9445 -1.3200
   74GLOH    O2 9210   2.556   4.496   5.044 -0.0208 -0.5618  0.4633
   74GLOH   H05 9211   2.535   4.424   4.981  1.5404  0.2894 -1.0586
   74GLOH    C3 9212   2.745   4.619   4.946 -0.3269  0.0367  0.0099
   74GLOH   H06 9213   2.689   4.611   4.853  1.2881 -0.6097 -0.9230
   74GLOH   H07 9214   2.852   4.614   4.924 -0.0396  0.2912  1.3158
   74GLOH    O3 9215   2.728   4.747   5.007 -0.0998  0.1812 -0.2840
   74GLOH   H01 9216   2.797   4.769   5.072 -0.1034  0.3871 -0.3477
   75GLOH   H03 9217   2.439   2.631   5.224  1.6973  0.0440  0.7585
   75GLOH    O1 9218   2.374   2.675   5.282  0.2690 -0.5930 -0.3394
   75GLOH    C1 9219   2.460   2.783   5.329 -0.4887 -0.0106  0.1794
   75GLOH   H02 9220   2.397   2.864   5.362 -0.2451 -0.2803  1.3317
   75GLOH   H08 9221   2.533   2.823   5.258  0.3837  0.3691  1.2674
   75GLOH    C2 9222   2.543   2.760   5.458  0.7285  0.0507 -0.2690
   75GLOH   H04 9223   2.480   2.765   5.548  0.3170 -1.6111 -0.4476
   75GLOH    O2 9224   2.610   2.631   5.455  0.1195  0.5216  0.0402
   75GLOH   H05 9225   2.702   2.640   5.485  0.8616 -1.0209 -1.6521
   75GLOH    C3 9226   2.646   2.870   5.480  0.6034 -0.1604  0.8509
   75GLOH   H06 9227   2.714   2.847   5.399  0.6757  1.6408  0.3936
   75GLOH   H07 9228   2.692   2.836   5.573 -0.0363  2.3622  2.1481
   75GLOH    O3 9229   2.595   3.002   5.473  0.0327  0.1059 -0.0638
   75GLOH   H01 9230   2.560   3.016   5.563 -1.5890 -1.2196 -0.4602
   76GLOH   H03 9231   6.437   6.903   4.638  0.7085  0.6307  0.0527
   76GLOH    O1 9232   6.496   6.904   4.560  0.4986 -0.0578 -0.1206
   76GLOH    C1 9233   6.424   6.967   4.451  0.4033  0.2527  0.1376
   76GLOH   H02 9234   6.483   7.055   4.424  0.9619 -0.1446  0.0532
   76GLOH   H08 9235   6.332   7.016   4.481  0.2739 -0.6340  1.2202
   76GLOH    C2 9236   6.397   6.876   4.334  0.4106 -0.4772 -0.5260
   76GLOH   H04 9237   6.331   6.796   4.373  0.7095  0.4336  1.9040
   76GLOH    O2 9238   6.330   6.955   4.236  0.3693  0.0149 -0.2435
   76GLOH   H05 9239   6.387   7.030   4.213  2.2990 -1.7074 -1.2651
   76GLOH    C3 9240   6.531   6.814   4.274 -0.0945  0.1144 -0.2187
   76GLOH   H06 9241   6.582   6.870   4.196  1.9152 -0.5439  0.6016
   76GLOH   H07 9242   6.486   6.728   4.224 -2.7388  0.9563  0.6259
   76GLOH    O3 9243   6.631   6.770   4.374  0.0992 -0.1344 -0.0016
   76GLOH   H01 9244   6.623   6.835   4.446 -3.9686 -1.1194  0.5221
   77GLOH   H03 9245   4.791   0.256   6.237 -0.2133  0.3430  0.0599
   77GLOH    O1 9246   4.775   0.165   6.268  0.3675  0.1976 -0.0638
   77GLOH    C1 9247   4.646   0.152   6.321 -0.5847 -0.3868 -0.7649
   77GLOH   H02 9248   4.566   0.210   6.277  0.8329  2.4764  0.2942
   77GLOH   H08 9249   4.638   0.179   6.427 -1.3673 -1.0590 -0.6503
   77GLOH    C2 9250   4.605   0.001   6.309 -0.3771 -0.5188  0.2701
   77GLOH   H04 9251   4.665  -0.055   6.383 -1.1417 -1.9486 -0.1823
   77GLOH    O2 9252   4.470  -0.009   6.354  0.2099  0.0548 -0.6188
   77GLOH   H05 9253   4.457  -0.083   6.415 -1.3595  0.8087  0.0027
   77GLOH    C3 9254   4.628  -0.058   6.166 -0.2484  0.2608 -0.3071
   77GLOH   H06 9255   4.726  -0.037   6.124 -0.6586  1.3899 -0.6915
   77GLOH   H07 9256   4.560  -0.014   6.093  1.7701 -0.3616 -2.6514
   77GLOH    O3 9257   4.611  -0.203   6.171  0.5621  0.2050  0.7465
   77GLOH   H01 9258   4.517  -0.228   6.173  0.3502  0.3830 -3.4607
   78GLOH   H03 9259   9.565   7.756   1.389 -2.3050 -1.9956  1.0162
   78GLOH    O1 9260   9.594   7.703   1.313 -0.2195  0.0196  0.3518
   78GLOH    C1 9261   9.496   7.640   1.227 -0.7211 -0.3316 -0.3449
   78GLOH   H02 9262   9.398   7.633   1.273 -1.3340 -0.6897 -1.6969
   78GLOH   H08 9263   9.532   7.538   1.213  0.9818  0.2149 -0.1013
   78GLOH    C2 9264   9.479   7.705   1.087  1.2773 -0.4582 -0.0487
   78GLOH   H04 9265   9.405   7.646   1.031  1.0489 -0.7890  0.5986
   78GLOH    O2 9266   9.426   7.840   1.094  0.0285  0.2662  0.2887
   78GLOH   H05 9267   9.342   7.830   1.143  0.0261  0.3032  0.2915
   78GLOH    C3 9268   9.615   7.698   1.009  0.1373  0.0476  0.3181
   78GLOH   H06 9269   9.692   7.754   1.062 -0.3478 -0.1386  1.2239
   78GLOH   H07 9270   9.602   7.761   0.921  0.9622 -0.2554 -0.0301
   78GLOH    O3 9271   9.659   7.570   0.984  0.2998  0.0438  0.2881
   78GLOH   H01 9272   9.749   7.583   0.947 -0.0053  0.4540 -0.3167
   79GLOH   H03 9273   2.165   4.074   2.811 -1.1433 -0.6289 -0.8906
   79GLOH    O1 9274   2.215   4.001   2.769  0.2793 -0.3685  0.3092
   79GLOH    C1 9275   2.349   4.045   2.739 -0.2535 -0.0980 -0.1579
   79GLOH   H02 9276   2.410   4.038   2.829 -1.3949 -2.0902  0.4782
   79GLOH   H08 9277   2.332   4.142   2.691 -1.8502  0.4936  1.5436
   79GLOH    C2 9278   2.408   3.965   2.623  0.2834 -0.0079 -0.6909
   79GLOH   H04 9279   2.503   4.015   2.597 -0.6483  2.9728  1.3254
   79GLOH    O2 9280   2.431   3.830   2.654 -0.5999 -0.5457  0.0959
   79GLOH   H05 9281   2.465   3.773   2.583  0.4003  0.0183  0.1036
   79GLOH    C3 9282   2.321   3.972   2.499  0.0496 -0.1186 -0.0244
   79GLOH   H06 9283   2.266   4.067   2.494  1.5050  0.6908 -0.9431
   79GLOH   H07 9284   2.242   3.898   2.513 -1.5878  1.5691 -0.0465
   79GLOH    O3 9285   2.383   3.946   2.374  0.5845  0.1343  0.0946
   79GLOH   H01 9286   2.437   3.865   2.379 -0.0527 -0.2789  0.4424
   80GLOH   H03 9287   6.022   0.885   5.846 -1.1559  1.5739  0.3575
   80GLOH    O1 9288   6.100   0.939   5.822 -0.3744  0.2559 -0.1239
   80GLOH    C1 9289   6.220   0.886   5.879  0.2381 -0.1379  0.4274
   80GLOH   H02 9290   6.232   0.910   5.984  1.3517 -0.3764  0.3658
   80GLOH   H08 9291   6.309   0.921   5.827 -0.7318 -0.8798 -1.7963
   80GLOH    C2 9292   6.233   0.729   5.872 -0.3713 -0.0795 -0.3537
   80GLOH   H04 9293   6.224   0.720   5.763  0.0880  1.4526 -0.5264
   80GLOH    O2 9294   6.358   0.674   5.908 -0.0644  0.2319 -0.2300
   80GLOH   H05 9295   6.419   0.674   5.832 -0.7163 -0.3699 -0.7620
   80GLOH    C3 9296   6.134   0.653   5.954  0.1417  0.3141 -0.3414
   80GLOH   H06 9297   6.146   0.671   6.061 -0.8189 -0.1542 -0.1444
   80GLOH   H07 9298   6.150   0.546   5.939 -1.5755  0.1407 -1.1155
   80GLOH    O3 9299   5.999   0.682   5.910  0.0219 -0.0342 -0.4196
   80GLOH   H01 9300   5.942   0.689   5.989 -1.2518 -1.0836 -1.2293
   81GLOH   H03 9301   0.086   2.729   5.907  0.9513  0.6902 -1.5192
   81GLOH    O1 9302   0.172   2.687   5.925 -0.0465 -0.5752  0.5698
   81GLOH    C1 9303   0.217   2.749   6.049 -0.9828  0.4643 -0.5967
   81GLOH   H02 9304   0.311   2.707   6.086 -1.4262  0.2102  0.2416
   81GLOH   H08 9305   0.149   2.723   6.130  1.3653 -0.3853  1.1472
   81GLOH    C2 9306   0.223   2.899   6.048  0.7243  0.3601 -0.1909
   81GLOH   H04 9307   0.266   2.932   5.953  1.7101 -2.0960 -0.6364
   81GLOH    O2 9308   0.090   2.950   6.049 -0.7292  0.2645 -0.5377
   81GLOH   H05 9309   0.044   2.944   6.135 -0.0931  1.0569 -0.1364
   81GLOH    C3 9310   0.315   2.954   6.157  0.0582 -0.2092  0.3422
   81GLOH   H06 9311   0.331   3.060   6.139 -4.2290  0.6195  0.8323
   81GLOH   H07 9312   0.413   2.906   6.148  0.5269  0.5654  1.1951
   81GLOH    O3 9313   0.262   2.920   6.285 -0.4376  0.0655  0.1066
   81GLOH   H01 9314   0.295   2.830   6.305 -1.9661 -0.4862  0.2501
   82GLOH   H03 9315   3.749   6.455   1.745 -0.7913  0.5602  0.3073
   82GLOH    O1 9316   3.779   6.489   1.658  0.0854 -0.7563  0.0598
   82GLOH    C1 9317   3.700   6.601   1.623 -0.5553 -0.2404  0.0955
   82GLOH   H02 9318   3.710   6.626   1.517 -1.3812  2.2185  0.5448
   82GLOH   H08 9319   3.734   6.693   1.671  0.0566 -0.4065 -0.0162
   82GLOH    C2 9320   3.552   6.598   1.659 -0.2555 -0.2630  0.1053
   82GLOH   H04 9321   3.537   6.599   1.768 -1.0272 -0.8566  0.0134
   82GLOH    O2 9322   3.491   6.713   1.599 -0.1701 -0.3097 -0.0486
   82GLOH   H05 9323   3.396   6.714   1.622  0.0422 -0.0331  0.8374
   82GLOH    C3 9324   3.480   6.473   1.602 -0.1269  0.2416  0.3945
   82GLOH   H06 9325   3.554   6.393   1.609 -0.7305 -0.4248 -0.6632
   82GLOH   H07 9326   3.466   6.492   1.496  0.7984 -1.2204  0.0066
   82GLOH    O3 9327   3.357   6.434   1.664  0.9278 -0.3221  0.4631
   82GLOH   H01 9328   3.310   6.512   1.699  1.4913  0.2254  0.0008
   83GLOH   H03 9329   8.601   5.395   5.779 -0.5684  0.5031 -0.4214
   83GLOH    O1 9330   8.615   5.491   5.792  0.4790  0.3837 -0.6579
   83GLOH    C1 9331   8.538   5.570   5.696  0.3183  0.5160  0.2815
   83GLOH   H02 9332   8.439   5.592   5.737 -0.0625  0.7776 -0.7813
   83GLOH   H08 9333   8.523   5.515   5.603  1.1135  1.0403 -0.1588
   83GLOH    C2 9334   8.605   5.697   5.648 -1.4461 -0.3929 -0.2997
   83GLOH   H04 9335   8.605   5.759   5.739 -0.8512  1.8242 -1.7562
   83GLOH    O2 9336   8.746   5.663   5.616 -0.9553  0.6693 -0.0145
   83GLOH   H05 9337   8.793   5.627   5.693 -0.2196 -1.6584 -1.4934
   83GLOH    C3 9338   8.531   5.766   5.530 -0.5909 -0.1103 -0.3811
   83GLOH   H06 9339   8.519   5.690   5.453  1.5961  0.1303 -0.9916
   83GLOH   H07 9340   8.598   5.838   5.483 -1.5761  0.7173 -0.5369
   83GLOH    O3 9341   8.410   5.832   5.566  0.4469 -0.6289  0.3663
   83GLOH   H01 9342   8.374   5.861   5.481  0.1090 -0.8450  0.4376
   84GLOH   H03 9343   9.638   5.136   0.922 -0.1165  0.5012 -2.1164
   84GLOH    O1 9344   9.733   5.155   0.917 -0.0498  0.7051 -0.2760
   84GLOH    C1 9345   9.802   5.033   0.893 -0.4803  0.1558 -0.3265
   84GLOH   H02 9346   9.755   4.953   0.951 -0.7366  0.7497  0.2844
   84GLOH   H08 9347   9.904   5.044   0.932 -0.2721 -2.6834  0.0441
   84GLOH    C2 9348   9.830   4.996   0.745  0.4588  0.6266  1.0392
   84GLOH   H04 9349   9.911   5.067   0.723  2.9397 -2.3891  0.0363
   84GLOH    O2 9350   9.888   4.861   0.729  0.7849 -0.2362  0.1857
   84GLOH   H05 9351   9.981   4.868   0.758  0.9553  2.0076 -0.7982
   84GLOH    C3 9352   9.705   5.027   0.660 -0.0377 -0.4967 -0.8114
   84GLOH   H06 9353   9.740   5.007   0.559  0.2960  0.0602 -0.8043
   84GLOH   H07 9354   9.683   5.133   0.674  1.8193 -0.0840 -0.9082
   84GLOH    O3 9355   9.578   4.968   0.689 -0.4026  0.2924 -0.2418
   84GLOH   H01 9356   9.525   5.008   0.760  1.6483  0.9796  0.9755
   85GLOH   H03 9357   8.013   8.554   1.176  1.9198 -1.2575 -0.2018
   85GLOH    O1 9358   8.033   8.584   1.267  0.1309  0.0246 -0.2148
   85GLOH    C1 9359   7.968   8.497   1.364 -0.0287  0.2152  0.4123
   85GLOH   H02 9360   7.980   8.534   1.465 -0.0843 -0.4397  0.6604
   85GLOH   H08 9361   8.012   8.398   1.352  2.4726  1.0038  2.7172
   85GLOH    C2 9362   7.809   8.494   1.339 -0.0267  0.1540  0.3017
   85GLOH   H04 9363   7.789   8.471   1.233  3.1968 -2.4888  0.2004
   85GLOH    O2 9364   7.751   8.403   1.435 -0.1464  0.6404  0.3920
   85GLOH   H05 9365   7.658   8.429   1.423 -0.7731 -1.6869  0.1264
   85GLOH    C3 9366   7.756   8.642   1.352  0.5264  0.2657  0.2365
   85GLOH   H06 9367   7.658   8.662   1.308  0.2313  1.8358  1.5284
   85GLOH   H07 9368   7.824   8.710   1.300  1.0048 -0.3482  0.0525
   85GLOH    O3 9369   7.747   8.677   1.494  0.2756 -0.8123  0.2045
   85GLOH   H01 9370   7.667   8.632   1.527 -0.0347  0.3340  1.0383
   86GLOH   H03 9371   4.632   2.368   3.077  0.3807 -0.0585 -0.2431
   86GLOH    O1 9372   4.669   2.278   3.076  0.4300 -0.0426  0.0544
   86GLOH    C1 9373   4.718   2.240   2.941  0.0317 -0.5677  0.6004
   86GLOH   H02 9374   4.654   2.156   2.911 -2.6213  1.0747  1.5321
   86GLOH   H08 9375   4.821   2.205   2.949  0.6994  1.2998  0.2756
   86GLOH    C2 9376   4.718   2.348   2.831  0.1496 -0.2914 -0.0369
   86GLOH   H04 9377   4.753   2.296   2.741  2.6952 -1.7112  1.6910
   86GLOH    O2 9378   4.586   2.404   2.801  0.4331 -0.6716  0.4183
   86GLOH   H05 9379   4.521   2.334   2.785  0.2896 -0.4396 -0.0383
   86GLOH    C3 9380   4.824   2.455   2.862  0.8191  0.0566 -0.3742
   86GLOH   H06 9381   4.781   2.519   2.939  0.0869 -0.9940  0.1047
   86GLOH   H07 9382   4.836   2.513   2.771  2.3194  0.2488 -0.0696
   86GLOH    O3 9383   4.951   2.408   2.904 -0.8710  0.4873  0.0532
   86GLOH   H01 9384   5.012   2.483   2.913  0.4090 -0.6515  1.2115
   87GLOH   H03 9385   0.270   2.560   5.890 -0.4716 -0.3569  0.3697
   87GLOH    O1 9386   0.331   2.484   5.885 -0.3934 -0.2458 -0.4030
   87GLOH    C1 9387   0.356   2.401   5.998  0.2974 -0.7491 -0.3156
   87GLOH   H02 9388   0.357   2.466   6.086 -0.3323  0.4122 -1.1465
   87GLOH   H08 9389   0.458   2.364   5.995  0.1571 -1.2907  1.2766
   87GLOH    C2 9390   0.253   2.286   6.016 -0.9675  0.2648 -0.3689
   87GLOH   H04 9391   0.255   2.221   5.927  0.5468  0.9893 -0.8818
   87GLOH    O2 9392   0.287   2.212   6.143  0.4454 -0.0902  0.5022
   87GLOH   H05 9393   0.285   2.115   6.137 -0.5074 -0.0692  0.3732
   87GLOH    C3 9394   0.113   2.348   6.022  0.4921  0.7089  0.1907
   87GLOH   H06 9395   0.045   2.268   6.051  0.0742  0.7951 -0.5489
   87GLOH   H07 9396   0.093   2.384   5.921 -0.8510 -0.0759  0.1613
   87GLOH    O3 9397   0.115   2.453   6.123  0.6375  0.1094  0.0294
   87GLOH   H01 9398   0.073   2.413   6.201 -1.4839  0.4471 -0.9202
   88GLOH   H03 9399   9.093   7.405   5.432 -1.3785 -0.2867 -0.7212
   88GLOH    O1 9400   9.164   7.366   5.378  0.1644  0.9442  0.3585
   88GLOH    C1 9401   9.206   7.465   5.275  0.0912  0.5803  0.1618
   88GLOH   H02 9402   9.257   7.555   5.309  1.3012  0.2580 -0.7815
   88GLOH   H08 9403   9.118   7.507   5.224  0.2848  2.1568  1.0700
   88GLOH    C2 9404   9.289   7.415   5.158 -0.2075  0.4194 -0.0716
   88GLOH   H04 9405   9.222   7.355   5.095  3.3479 -1.4566 -2.2913
   88GLOH    O2 9406   9.326   7.523   5.067 -0.3277 -0.1391  0.1994
   88GLOH   H05 9407   9.378   7.488   4.994 -0.6539  0.2976 -0.2429
   88GLOH    C3 9408   9.404   7.331   5.205  0.1541 -0.2726 -0.2295
   88GLOH   H06 9409   9.460   7.295   5.119  1.8145  1.6963  0.0010
   88GLOH   H07 9410   9.358   7.246   5.257 -1.3311  0.4166 -0.4089
   88GLOH    O3 9411   9.495   7.389   5.303 -0.2495 -0.9665 -0.2915
   88GLOH   H01 9412   9.574   7.430   5.263  0.6643 -2.6738 -0.2940
   89GLOH   H03 9413   8.129   9.394   0.679 -0.7956 -1.6046 -1.6769
   89GLOH    O1 9414   8.218   9.355   0.668  0.3474  0.4245 -0.0699
   89GLOH    C1 9415   8.289   9.376   0.790  0.0678  0.0535 -0.6799
   89GLOH   H02 9416   8.241   9.454   0.849  0.0870  0.7783 -1.6028
   89GLOH   H08 9417   8.379   9.432   0.765  0.2291 -1.0775 -2.7494
   89GLOH    C2 9418   8.302   9.252   0.878 -0.2472 -0.2942  0.1461
   89GLOH   H04 9419   8.337   9.163   0.824  1.3667  0.7295 -0.5440
   89GLOH    O2 9420   8.413   9.292   0.966  0.8023  0.6557 -0.1291
   89GLOH   H05 9421   8.383   9.337   1.047 -1.2077  0.2404 -0.5984
   89GLOH    C3 9422   8.167   9.212   0.945 -0.2581  0.1355  0.1062
   89GLOH   H06 9423   8.192   9.114   0.986 -0.4207 -0.3883 -1.0359
   89GLOH   H07 9424   8.095   9.189   0.867 -0.1216 -2.7234  0.7461
   89GLOH    O3 9425   8.101   9.304   1.036 -0.4906  0.3191  0.8277
   89GLOH   H01 9426   8.051   9.246   1.097  0.7995  0.9211  2.4793
   90GLOH   H03 9427   1.157   2.243   4.917 -0.5790  2.4920 -0.4311
   90GLOH    O1 9428   1.084   2.238   4.982 -0.1918  0.4524 -0.1296
   90GLOH    C1 9429   1.124   2.153   5.093  0.1533  0.7075  0.2952
   90GLOH   H02 9430   1.228   2.171   5.118  0.2471  1.2402 -0.4617
   90GLOH   H08 9431   1.117   2.046   5.074 -1.7148  0.5688  1.6930
   90GLOH    C2 9432   1.047   2.170   5.224 -0.0831  0.0809 -0.6305
   90GLOH   H04 9433   0.941   2.170   5.196  0.3924 -1.0436 -2.5900
   90GLOH    O2 9434   1.065   2.067   5.322 -0.0357  0.8531 -0.0939
   90GLOH   H05 9435   0.998   2.085   5.391 -1.1581  2.1389 -1.4973
   90GLOH    C3 9436   1.088   2.301   5.286  0.0802 -0.4995  0.2293
   90GLOH   H06 9437   1.030   2.314   5.378  1.1004 -2.9637  1.2725
   90GLOH   H07 9438   1.062   2.388   5.226  2.7779  0.5161  0.4614
   90GLOH    O3 9439   1.225   2.313   5.317  0.2505 -0.1714  0.0134
   90GLOH   H01 9440   1.247   2.407   5.304 -2.0477  0.3541 -0.2211
   91GLOH   H03 9441   5.617   2.240   2.221  0.5852 -0.5270 -0.1714
   91GLOH    O1 9442   5.683   2.169   2.211  0.4184 -0.7550  0.3484
   91GLOH    C1 9443   5.637   2.078   2.111 -0.5207 -0.7017  0.2238
   91GLOH   H02 9444   5.715   2.007   2.085 -1.0723 -1.2704  0.1120
   91GLOH   H08 9445   5.614   2.144   2.027  0.9915  0.8056  0.9669
   91GLOH    C2 9446   5.511   2.005   2.159 -0.0477  0.2668 -0.3049
   91GLOH   H04 9447   5.432   2.081   2.163  0.5042  0.9001 -1.0944
   91GLOH    O2 9448   5.475   1.897   2.068 -0.4392  0.0149 -0.1223
   91GLOH   H05 9449   5.492   1.818   2.122 -1.0447 -1.3300 -1.8578
   91GLOH    C3 9450   5.539   1.952   2.300  0.6320 -0.4602 -0.4466
   91GLOH   H06 9451   5.554   2.043   2.358  0.3756 -0.2642 -0.6816
   91GLOH   H07 9452   5.638   1.908   2.310  0.7554  0.1280  1.0808
   91GLOH    O3 9453   5.431   1.866   2.344  0.1105 -0.2134 -0.2560
   91GLOH   H01 9454   5.453   1.777   2.311  1.3036  0.1575 -0.4920
   92GLOH   H03 9455   0.149   4.844   5.934  0.3572  0.0315  0.7719
   92GLOH    O1 9456   0.083   4.843   5.862  0.0797 -0.6360  1.0248
   92GLOH    C1 9457   0.138   4.927   5.759  0.2679 -0.2516 -0.1916
   92GLOH   H02 9458   0.107   4.885   5.663  1.1528 -0.9771 -0.1735
   92GLOH   H08 9459   0.247   4.932   5.761  0.2551 -0.1919  1.3710
   92GLOH    C2 9460   0.084   5.073   5.790 -0.2288 -0.1310  1.1867
   92GLOH   H04 9461   0.112   5.098   5.893  0.3875 -0.0788  1.0081
   92GLOH    O2 9462   0.143   5.176   5.713  0.5327 -0.0801 -0.5072
   92GLOH   H05 9463   0.103   5.176   5.624  1.6503  0.4296 -1.0361
   92GLOH    C3 9464  -0.066   5.083   5.773  0.1601  0.2672  0.1517
   92GLOH   H06 9465  -0.099   5.004   5.840 -0.6829  0.6074  0.1332
   92GLOH   H07 9466  -0.100   5.055   5.673  3.9308  1.6872 -1.6380
   92GLOH    O3 9467  -0.129   5.207   5.806  0.1464 -0.1585  0.0691
   92GLOH   H01 9468  -0.204   5.224   5.746  0.3460  0.0196 -0.1327
   93GLOH   H03 9469   4.512   3.794   4.506 -2.6552  0.1954  0.5776
   93GLOH    O1 9470   4.473   3.862   4.449 -0.3690  0.8734 -0.2452
   93GLOH    C1 9471   4.501   3.840   4.310 -0.9193 -0.4092 -0.2438
   93GLOH   H02 9472   4.408   3.800   4.269 -0.8945 -0.4402 -0.2695
   93GLOH   H08 9473   4.574   3.760   4.297 -1.8476 -1.0615 -1.5396
   93GLOH    C2 9474   4.544   3.961   4.222  0.0540 -0.0272  0.8202
   93GLOH   H04 9475   4.645   3.991   4.252  0.7655  1.0185 -2.4041
   93GLOH    O2 9476   4.547   3.924   4.077 -0.3998 -0.0013 -0.2703
   93GLOH   H05 9477   4.513   3.834   4.086  0.8166 -0.4305  0.1986
   93GLOH    C3 9478   4.461   4.086   4.248 -1.1841  0.1869 -0.1834
   93GLOH   H06 9479   4.365   4.085   4.196 -0.2925 -1.0424 -1.8404
   93GLOH   H07 9480   4.523   4.166   4.208  0.8043 -1.9855 -1.5417
   93GLOH    O3 9481   4.458   4.109   4.387 -0.8576  0.2704 -0.5372
   93GLOH   H01 9482   4.455   4.018   4.423 -2.3040  0.7835  0.6822
   94GLOH   H03 9483   8.119   3.433   1.012 -3.2078 -1.2515 -0.9515
   94GLOH    O1 9484   8.084   3.377   1.083 -0.4352 -0.5473  1.0738
   94GLOH    C1 9485   8.197   3.293   1.108  0.2704  0.4831 -0.0698
   94GLOH   H02 9486   8.189   3.252   1.209  1.5293  0.2111 -0.0830
   94GLOH   H08 9487   8.290   3.347   1.125  1.0657 -1.5924  2.6946
   94GLOH    C2 9488   8.210   3.184   0.998  0.5414  0.5197  0.6462
   94GLOH   H04 9489   8.244   3.217   0.899 -0.7321 -0.0881 -0.0026
   94GLOH    O2 9490   8.310   3.090   1.028 -0.6226  0.0296 -0.0957
   94GLOH   H05 9491   8.301   3.027   0.954 -0.6699  0.9818 -0.9085
   94GLOH    C3 9492   8.073   3.114   0.980 -0.1275  0.2878 -0.0594
   94GLOH   H06 9493   8.037   3.069   1.073  2.3756  0.4123  1.0126
   94GLOH   H07 9494   8.076   3.050   0.892  1.3460 -1.0204  0.9252
   94GLOH    O3 9495   7.973   3.213   0.941 -0.1297 -0.5507  0.2243
   94GLOH   H01 9496   7.992   3.292   0.995  0.2604 -0.3952 -0.1365
   95GLOH   H03 9497   6.953   1.162   1.222 -0.2252  0.9384 -0.4439
   95GLOH    O1 9498   7.037   1.193   1.260 -0.1407 -0.2483  0.3462
   95GLOH    C1 9499   7.107   1.262   1.152 -0.4390  0.0579 -0.1400
   95GLOH   H02 9500   7.047   1.350   1.131  0.7105  0.2633 -2.6891
   95GLOH   H08 9501   7.115   1.201   1.062  0.3852  0.4612 -0.3451
   95GLOH    C2 9502   7.250   1.309   1.187 -1.0088 -0.3495 -0.3287
   95GLOH   H04 9503   7.324   1.230   1.167 -0.3664  0.6437 -2.0239
   95GLOH    O2 9504   7.279   1.419   1.090  0.2705 -0.2078  0.3923
   95GLOH   H05 9505   7.375   1.435   1.083  0.2901 -0.6126 -0.4182
   95GLOH    C3 9506   7.258   1.355   1.333  0.1367 -0.3674  0.1120
   95GLOH   H06 9507   7.253   1.271   1.404  1.0900 -0.1280  0.4697
   95GLOH   H07 9508   7.162   1.402   1.356  0.9194  1.7143 -0.8572
   95GLOH    O3 9509   7.383   1.420   1.360 -0.0761  0.0210  0.4460
   95GLOH   H01 9510   7.436   1.361   1.417  0.7949  0.1204 -0.2423
   96GLOH   H03 9511   9.811   0.282   1.632  0.8990 -0.8983  2.0301
   96GLOH    O1 9512   9.814   0.375   1.660  0.1738 -0.2321  0.0402
   96GLOH    C1 9513   9.691   0.437   1.607  0.8488  0.2510 -0.1680
   96GLOH   H02 9514   9.665   0.521   1.672 -1.1156 -1.3742  1.2391
   96GLOH   H08 9515   9.607   0.368   1.598 -0.9229  2.2457  0.5668
   96GLOH    C2 9516   9.723   0.490   1.465  0.0368 -0.3386 -0.5213
   96GLOH   H04 9517   9.783   0.416   1.409 -1.5136 -2.1157  0.0746
   96GLOH    O2 9518   9.606   0.519   1.387 -0.1292 -0.0164 -0.1931
   96GLOH   H05 9519   9.563   0.436   1.361  0.4704 -0.6952  0.9461
   96GLOH    C3 9520   9.806   0.618   1.489 -0.3236 -0.1642  0.4015
   96GLOH   H06 9521   9.912   0.592   1.483  0.0934  1.5673 -0.1721
   96GLOH   H07 9522   9.777   0.663   1.584  0.3330  2.9774 -0.8008
   96GLOH    O3 9523   9.794   0.721   1.390 -0.0359 -0.0749  0.1249
   96GLOH   H01 9524   9.699   0.727   1.368 -0.6206 -0.5808  2.4073
   97GLOH   H03 9525   7.842   5.186   4.551 -1.2527 -1.8844 -0.9813
   97GLOH    O1 9526   7.842   5.232   4.466 -0.2376  0.3923  0.2162
   97GLOH    C1 9527   7.930   5.174   4.370  0.1775 -0.5882 -0.2158
   97GLOH   H02 9528   7.885   5.083   4.331  1.8137 -0.9929 -1.2262
   97GLOH   H08 9529   8.021   5.142   4.420 -0.3798  0.5176  1.5535
   97GLOH    C2 9530   7.970   5.270   4.256  0.4489  0.0314 -0.0944
   97GLOH   H04 9531   8.025   5.349   4.309 -0.1813  2.1745 -2.5401
   97GLOH    O2 9532   8.056   5.213   4.156 -0.0999 -0.5280 -0.2571
   97GLOH   H05 9533   8.139   5.191   4.202 -0.2422  1.1573  0.8241
   97GLOH    C3 9534   7.849   5.336   4.180 -0.1217 -0.5139  0.5107
   97GLOH   H06 9535   7.789   5.254   4.140 -0.6816  1.4183 -2.7795
   97GLOH   H07 9536   7.885   5.389   4.092  0.7201 -0.3000  0.9796
   97GLOH    O3 9537   7.766   5.409   4.274 -0.0769 -0.9433  0.1738
   97GLOH   H01 9538   7.768   5.358   4.357  0.0238 -1.4634 -0.1451
   98GLOH   H03 9539   3.576   8.751   0.805  0.6247  0.0080  0.1401
   98GLOH    O1 9540   3.574   8.675   0.745 -0.5850  0.6379 -0.6374
   98GLOH    C1 9541   3.492   8.706   0.627 -0.8034  0.2881 -0.2696
   98GLOH   H02 9542   3.539   8.786   0.571 -1.8917  1.6009  0.6357
   98GLOH   H08 9543   3.394   8.737   0.665 -1.0402  0.2167 -0.8226
   98GLOH    C2 9544   3.484   8.580   0.541  0.3540 -0.4010 -0.4902
   98GLOH   H04 9545   3.451   8.494   0.601  1.2274  0.4079  1.1824
   98GLOH    O2 9546   3.387   8.603   0.437  0.2821 -0.3460  0.0522
   98GLOH   H05 9547   3.299   8.592   0.475  0.5373 -1.3935  0.3750
   98GLOH    C3 9548   3.622   8.544   0.486 -0.5571  0.1059  0.0188
   98GLOH   H06 9549   3.615   8.445   0.440 -0.1357 -0.7557  1.7344
   98GLOH   H07 9550   3.694   8.529   0.567 -0.1106 -0.6475 -0.5160
   98GLOH    O3 9551   3.683   8.642   0.404  0.1946 -0.1417  0.4050
   98GLOH   H01 9552   3.625   8.658   0.327  0.2030 -3.3595 -0.3568
   99GLOH   H03 9553   3.018   6.268   6.471  2.2091 -1.8281  0.1353
   99GLOH    O1 9554   2.980   6.204   6.408 -0.5178 -0.0101 -0.1641
   99GLOH    C1 9555   3.010   6.244   6.270 -1.6454 -0.3739  0.0920
   99GLOH   H02 9556   2.936   6.313   6.230 -0.9679 -1.0433 -2.3523
   99GLOH   H08 9557   3.004   6.149   6.217 -1.3434 -0.8370  0.8637
   99GLOH    C2 9558   3.149   6.305   6.266 -0.5146 -0.1569  0.1165
   99GLOH   H04 9559   3.224   6.229   6.291  0.5636  1.7448  2.9168
   99GLOH    O2 9560   3.184   6.354   6.134 -0.0441  0.1466  0.5139
   99GLOH   H05 9561   3.125   6.424   6.102 -0.7838 -0.4854  0.4861
   99GLOH    C3 9562   3.164   6.414   6.368  0.2618  0.4761  0.1779
   99GLOH   H06 9563   3.078   6.479   6.351 -0.9327 -1.3533 -0.8592
   99GLOH   H07 9564   3.259   6.466   6.356  1.3179 -1.5974 -0.6083
   99GLOH    O3 9565   3.146   6.378   6.510 -0.2954 -0.9544 -0.0234
   99GLOH   H01 9566   3.223   6.347   6.563 -0.7720  0.8131  1.7712
  100GLOH   H03 9567   9.270   3.730   6.352  3.3099 -0.8255  0.3414
  100GLOH    O1 9568   9.286   3.805   6.291 -0.1596 -0.3657 -0.1021
  100GLOH    C1 9569   9.378   3.766   6.186  0.4088  0.5944 -0.0322
  100GLOH   H02 9570   9.400   3.856   6.129  3.0968 -0.2308 -0.3723
  100GLOH   H08 9571   9.330   3.697   6.116  0.3980 -0.6693  1.1828
  100GLOH    C2 9572   9.504   3.694   6.235  0.4643 -0.0235 -0.1631
  100GLOH   H04 9573   9.554   3.754   6.312 -0.0815 -0.1019  0.2525
  100GLOH    O2 9574   9.454   3.577   6.296 -0.1712  0.4558  0.0981
  100GLOH   H05 9575   9.376   3.601   6.349 -0.4966  0.4351 -0.3694
  100GLOH    C3 9576   9.597   3.662   6.113 -0.2570 -0.2800  0.2690
  100GLOH   H06 9577   9.554   3.597   6.036  0.2145  0.3255 -0.5013
  100GLOH   H07 9578   9.683   3.604   6.147  0.1010 -1.0129 -1.8203
  100GLOH    O3 9579   9.647   3.791   6.063  0.2482 -0.3052 -0.0236
  100GLOH   H01 9580   9.643   3.800   5.966  0.5445  1.7922  0.1279
  101GLOH   H03 9581   3.681   7.564   4.747  0.3575 -0.7516  1.4902
  101GLOH    O1 9582   3.637   7.596   4.828 -0.7452  0.0002  0.6019
  101GLOH    C1 9583   3.736   7.678   4.898  0.2940  0.5414  1.0868
  101GLOH   H02 9584   3.834   7.636   4.873  0.2081  0.8329  0.2543
  101GLOH   H08 9585   3.717   7.662   5.004  1.5607 -0.5701  1.1544
  101GLOH    C2 9586   3.726   7.822   4.853  0.6062  0.1493 -0.3877
  101GLOH   H04 9587   3.782   7.833   4.759  2.3849 -0.0703  0.6083
  101GLOH    O2 9588   3.596   7.889   4.844 -0.3418  0.4284  0.1814
  101GLOH   H05 9589   3.562   7.905   4.934 -1.2127 -0.6303  0.0529
  101GLOH    C3 9590   3.812   7.910   4.947  0.0800  0.1354  0.8848
  101GLOH   H06 9591   3.769   7.899   5.046  0.8520  0.1761  1.2265
  101GLOH   H07 9592   3.803   8.015   4.918  4.3813  0.2158 -0.5543
  101GLOH    O3 9593   3.951   7.863   4.925 -0.5223  0.0017  0.1334
  101GLOH   H01 9594   3.974   7.920   4.850  2.2381  0.2322  1.0830
  102GLOH   H03 9595   7.761   4.771   5.555  0.3111  0.7052  0.7354
  102GLOH    O1 9596   7.836   4.832   5.566  0.7751  0.2656  0.0571
  102GLOH    C1 9597   7.897   4.800   5.689 -0.0683  0.2563 -0.0721
  102GLOH   H02 9598   7.833   4.744   5.756 -1.1479 -0.0094 -1.3169
  102GLOH   H08 9599   7.933   4.883   5.751  1.7631 -0.2569 -0.4187
  102GLOH    C2 9600   8.025   4.719   5.671  0.0685 -0.5884 -0.2731
  102GLOH   H04 9601   8.060   4.680   5.768  1.4222 -3.2061 -1.7795
  102GLOH    O2 9602   7.996   4.603   5.590 -0.6542 -0.1430  0.0173
  102GLOH   H05 9603   7.963   4.629   5.502 -1.7908 -2.3222 -0.2251
  102GLOH    C3 9604   8.136   4.794   5.606  0.8753  0.0408 -0.0660
  102GLOH   H06 9605   8.221   4.727   5.594  0.7412 -0.0325 -0.5986
  102GLOH   H07 9606   8.166   4.869   5.679  1.1769 -1.0065  0.8977
  102GLOH    O3 9607   8.097   4.853   5.483 -0.4175  0.5526  0.2394
  102GLOH   H01 9608   8.004   4.881   5.491 -0.0775  1.8241 -0.2646
  103GLOH   H03 9609   7.527   6.060   4.473  1.7807 -0.3410 -0.2120
  103GLOH    O1 9610   7.536   6.046   4.377 -0.5101 -0.0812 -0.4966
  103GLOH    C1 9611   7.559   5.905   4.352 -0.2521 -0.8857  0.1509
  103GLOH   H02 9612   7.666   5.888   4.365 -0.2835  0.1113  1.8320
  103GLOH   H08 9613   7.542   5.884   4.246 -3.2983 -1.1721  0.6512
  103GLOH    C2 9614   7.477   5.813   4.438 -0.2173 -0.7574  0.4501
  103GLOH   H04 9615   7.370   5.808   4.414  0.2189 -0.5807 -1.6403
  103GLOH    O2 9616   7.535   5.681   4.416  0.0013  0.3844 -0.2820
  103GLOH   H05 9617   7.553   5.659   4.323  0.6755 -1.7937  0.3357
  103GLOH    C3 9618   7.478   5.855   4.588 -0.4843  0.4804  0.1353
  103GLOH   H06 9619   7.578   5.844   4.631 -0.0927 -0.8210 -1.0755
  103GLOH   H07 9620   7.416   5.785   4.643 -1.2626  0.6144 -0.5753
  103GLOH    O3 9621   7.414   5.979   4.620  0.1126 -0.1528  0.6053
  103GLOH   H01 9622   7.453   6.016   4.701 -0.2988 -0.0676  0.7686
  104GLOH   H03 9623   6.400   9.256   5.356  1.1700  0.2646  0.9360
  104GLOH    O1 9624   6.367   9.255   5.448 -0.5284 -0.2248  0.3437
  104GLOH    C1 9625   6.251   9.340   5.463 -0.3294 -0.7980  0.5677
  104GLOH   H02 9626   6.217   9.332   5.567  0.4069  2.0551  1.0750
  104GLOH   H08 9627   6.162   9.314   5.406  0.6730 -1.8631 -0.5215
  104GLOH    C2 9628   6.290   9.486   5.432 -0.7653  0.0464 -0.1733
  104GLOH   H04 9629   6.336   9.494   5.332  2.3974  1.1938  1.2989
  104GLOH    O2 9630   6.182   9.576   5.423  0.0652 -0.3758  0.7045
  104GLOH   H05 9631   6.192   9.667   5.389 -0.6463 -1.0237 -1.3406
  104GLOH    C3 9632   6.410   9.537   5.517  0.1900  0.5438 -0.8537
  104GLOH   H06 9633   6.499   9.474   5.524 -0.7997 -0.9275 -1.1730
  104GLOH   H07 9634   6.384   9.548   5.622 -1.9206 -1.4112 -1.1105
  104GLOH    O3 9635   6.438   9.673   5.467 -0.1268 -0.6056 -0.6243
  104GLOH   H01 9636   6.531   9.694   5.486 -0.6141  0.4879  0.6409
  105GLOH   H03 9637   7.842   2.627   0.741 -0.7928  0.7932  0.9203
  105GLOH    O1 9638   7.923   2.611   0.793 -0.0841  0.0468 -0.3930
  105GLOH    C1 9639   7.943   2.734   0.861  0.7993 -0.0883  0.4392
  105GLOH   H02 9640   7.847   2.776   0.891  1.3192  1.8801 -0.5765
  105GLOH   H08 9641   7.988   2.810   0.797  0.1531  2.0353  2.4226
  105GLOH    C2 9642   8.039   2.721   0.980 -0.0496 -0.2864  0.5360
  105GLOH   H04 9643   8.123   2.655   0.954  1.1075  1.7222 -1.0235
  105GLOH    O2 9644   8.096   2.846   1.012  0.5282  0.0025 -0.8261
  105GLOH   H05 9645   8.170   2.861   0.951 -0.0604  3.5166 -0.7801
  105GLOH    C3 9646   7.960   2.659   1.096  0.3612 -0.0103 -0.0402
  105GLOH   H06 9647   7.885   2.727   1.138 -0.3141 -1.0238  0.3961
  105GLOH   H07 9648   8.024   2.637   1.182  1.5002 -0.3138 -0.9512
  105GLOH    O3 9649   7.906   2.532   1.067  0.7709 -0.1042  0.4663
  105GLOH   H01 9650   7.845   2.540   0.991  3.0159 -0.0061 -1.3877
  106GLOH   H03 9651   4.662   6.945   1.979  1.7866 -1.9397  1.8575
  106GLOH    O1 9652   4.709   6.931   1.895 -0.6926  0.1133  0.0584
  106GLOH    C1 9653   4.623   6.887   1.796 -0.4837 -0.2421 -0.2221
  106GLOH   H02 9654   4.537   6.954   1.794  0.7559  1.3680 -0.4886
  106GLOH   H08 9655   4.584   6.787   1.814 -0.1338 -0.1879  0.8520
  106GLOH    C2 9656   4.686   6.892   1.654  0.2882  0.4802  0.4036
  106GLOH   H04 9657   4.777   6.830   1.654  0.4060  0.6342 -1.4074
  106GLOH    O2 9658   4.584   6.829   1.571  0.1864  0.1121 -0.0069
  106GLOH   H05 9659   4.612   6.752   1.519 -2.1708  1.0368 -2.7799
  106GLOH    C3 9660   4.713   7.036   1.601 -0.0125 -0.6725 -0.2132
  106GLOH   H06 9661   4.619   7.091   1.592 -0.8611 -1.8397  1.1326
  106GLOH   H07 9662   4.749   7.034   1.499 -2.4377  1.1419 -1.1433
  106GLOH    O3 9663   4.813   7.094   1.681 -0.3277  0.4460 -0.5481
  106GLOH   H01 9664   4.899   7.086   1.636 -0.4478 -2.2824 -0.4000
  107GLOH   H03 9665   7.543   6.053   4.218 -0.1260 -0.1216  0.0389
  107GLOH    O1 9666   7.570   6.083   4.129  0.1010 -0.2000  0.0784
  107GLOH    C1 9667   7.707   6.062   4.129  0.2701  0.2528  0.1243
  107GLOH   H02 9668   7.727   5.955   4.129  0.7976  0.3456 -1.7016
  107GLOH   H08 9669   7.752   6.111   4.216 -1.1184  1.6608  0.0732
  107GLOH    C2 9670   7.761   6.106   3.991 -0.9155 -0.1902 -0.2004
  107GLOH   H04 9671   7.733   6.212   3.989  0.5990  0.2087 -0.9442
  107GLOH    O2 9672   7.901   6.084   3.967 -0.6123  0.1979  0.0579
  107GLOH   H05 9673   7.948   6.111   4.048  1.0361  0.8418 -1.0749
  107GLOH    C3 9674   7.688   6.041   3.878  0.1261  0.6576  0.8300
  107GLOH   H06 9675   7.718   5.936   3.869 -1.2091  0.4124 -0.8045
  107GLOH   H07 9676   7.733   6.076   3.785 -2.3683  0.9146 -0.2966
  107GLOH    O3 9677   7.546   6.040   3.875  0.5577 -0.0887 -0.1607
  107GLOH   H01 9678   7.522   6.077   3.962  1.3658  1.3777 -0.5462
  108GLOH   H03 9679   3.596   7.056   2.597 -0.8018  0.9401  0.4391
  108GLOH    O1 9680   3.563   7.012   2.517  0.3636  1.0719 -0.1330
  108GLOH    C1 9681   3.427   6.983   2.555  0.5929  0.3908  0.1471
  108GLOH   H02 9682   3.376   7.078   2.571  1.0579  0.7796 -0.6883
  108GLOH   H08 9683   3.425   6.938   2.655  1.4911 -0.4723 -0.2156
  108GLOH    C2 9684   3.347   6.904   2.456  0.4035 -0.4504 -0.5129
  108GLOH   H04 9685   3.249   6.893   2.505  0.4783  2.9276  0.5066
  108GLOH    O2 9686   3.320   6.982   2.339 -0.2131 -0.0345  0.1485
  108GLOH   H05 9687   3.288   7.070   2.367  2.0531  1.0134 -0.4419
  108GLOH    C3 9688   3.406   6.763   2.432  0.3347  0.4735 -0.2566
  108GLOH   H06 9689   3.482   6.771   2.355 -0.5268 -0.8942 -1.2729
  108GLOH   H07 9690   3.334   6.698   2.382  2.6102 -2.5197  0.1810
  108GLOH    O3 9691   3.461   6.684   2.542  0.1122 -0.3495  0.6665
  108GLOH   H01 9692   3.553   6.711   2.559 -0.2854  1.4416  0.0010
  109GLOH   H03 9693   4.990   4.554   1.401  0.8716  2.5064  1.1896
  109GLOH    O1 9694   5.052   4.514   1.464  0.4806  0.3616  0.2745
  109GLOH    C1 9695   5.160   4.612   1.485 -0.1568 -0.1360  0.6808
  109GLOH   H02 9696   5.117   4.702   1.530  0.6942  1.1146 -0.9758
  109GLOH   H08 9697   5.202   4.635   1.388  1.3530 -1.0271  1.1070
  109GLOH    C2 9698   5.284   4.565   1.569 -0.5143  0.5134 -0.8375
  109GLOH   H04 9699   5.254   4.543   1.672 -1.9767  0.7649 -1.2065
  109GLOH    O2 9700   5.357   4.455   1.520 -0.0586 -0.4443 -0.1649
  109GLOH   H05 9701   5.290   4.389   1.498  1.4981 -2.5541  1.2272
  109GLOH    C3 9702   5.392   4.677   1.586  1.1695  0.1796  0.4541
  109GLOH   H06 9703   5.440   4.694   1.489 -2.6053  0.4927 -1.4783
  109GLOH   H07 9704   5.469   4.648   1.656  0.9481 -0.7677  0.3158
  109GLOH    O3 9705   5.332   4.794   1.642  0.5926  0.3968 -0.2855
  109GLOH   H01 9706   5.273   4.773   1.716 -0.1593  0.4788 -0.8617
  110GLOH   H03 9707   6.908   0.003   4.034 -0.1071 -0.3476  0.0586
  110GLOH    O1 9708   6.862   0.085   4.060  0.7478  0.1770 -0.0659
  110GLOH    C1 9709   6.777   0.062   4.178  0.2180  0.0410  0.4545
  110GLOH   H02 9710   6.836   0.104   4.260  0.7945 -0.1824  0.1498
  110GLOH   H08 9711   6.777  -0.046   4.195  0.3089 -0.0851 -0.3281
  110GLOH    C2 9712   6.650   0.142   4.164  0.3726 -0.2155 -0.1601
  110GLOH   H04 9713   6.662   0.251   4.153 -0.5386  0.0006  0.8493
  110GLOH    O2 9714   6.564   0.090   4.061 -0.0019 -0.2377  0.1340
  110GLOH   H05 9715   6.615   0.041   3.994  0.4038  0.8354 -0.3485
  110GLOH    C3 9716   6.579   0.135   4.303  0.4025 -0.7049  0.4073
  110GLOH   H06 9717   6.566   0.030   4.329 -1.8925 -0.3112  1.0009
  110GLOH   H07 9718   6.474   0.166   4.295  0.0830 -1.6358  0.8569
  110GLOH    O3 9719   6.649   0.199   4.416 -0.3689  0.0339 -1.0020
  110GLOH   H01 9720   6.644   0.296   4.401  0.4646  0.3147  0.4107
  111GLOH   H03 9721   7.425   4.701   1.633 -0.4158  0.6124 -1.4949
  111GLOH    O1 9722   7.511   4.670   1.598 -0.2688 -0.5389 -0.1689
  111GLOH    C1 9723   7.567   4.788   1.543 -0.3840 -0.0314  0.2775
  111GLOH   H02 9724   7.637   4.824   1.618 -1.1006 -0.6170  1.2509
  111GLOH   H08 9725   7.499   4.871   1.524 -1.7332 -1.4723 -1.4987
  111GLOH    C2 9726   7.632   4.756   1.411  0.1787 -0.1172  0.0511
  111GLOH   H04 9727   7.701   4.671   1.428 -1.9831 -1.4988  2.3020
  111GLOH    O2 9728   7.544   4.716   1.312 -0.5576 -0.6694  0.2716
  111GLOH   H05 9729   7.473   4.781   1.296 -0.8237 -1.0340 -0.0267
  111GLOH    C3 9730   7.705   4.869   1.355 -0.4092 -0.7129 -0.0778
  111GLOH   H06 9731   7.635   4.952   1.368 -1.7989 -1.8539 -0.1505
  111GLOH   H07 9732   7.738   4.852   1.253 -0.8621 -1.3847 -0.1170
  111GLOH    O3 9733   7.818   4.899   1.435 -0.5970 -0.0312  0.7512
  111GLOH   H01 9734   7.829   4.996   1.437 -0.7243  0.0116 -0.2228
  112GLOH   H03 9735   7.803   9.027   4.929  0.1733  1.1298 -0.8510
  112GLOH    O1 9736   7.790   9.115   4.970  0.4841  0.5475  0.5387
  112GLOH    C1 9737   7.685   9.095   5.069 -0.1221 -0.2178  0.7289
  112GLOH   H02 9738   7.728   9.025   5.141  1.7827  0.8987  0.7234
  112GLOH   H08 9739   7.593   9.051   5.030 -0.0809  1.8330 -1.8060
  112GLOH    C2 9740   7.647   9.223   5.142 -0.0714 -0.5776  0.2117
  112GLOH   H04 9741   7.744   9.255   5.184 -0.6358  1.1540  0.2529
  112GLOH    O2 9742   7.595   9.331   5.050 -0.0223  0.6271  0.3841
  112GLOH   H05 9743   7.622   9.418   5.083  0.4020  0.5665  0.2025
  112GLOH    C3 9744   7.550   9.200   5.254 -0.9883 -0.0293 -0.4338
  112GLOH   H06 9745   7.453   9.169   5.216 -0.6406  0.8557 -2.0791
  112GLOH   H07 9746   7.548   9.293   5.312 -1.4119 -0.2227 -0.1399
  112GLOH    O3 9747   7.609   9.091   5.337  0.1845  0.0386  0.0678
  112GLOH   H01 9748   7.582   9.005   5.300  2.0836 -0.7622  0.4537
  113GLOH   H03 9749   7.201   3.222   2.598 -0.7013  0.9844 -0.0747
  113GLOH    O1 9750   7.164   3.175   2.676  0.3730  0.1637 -0.0424
  113GLOH    C1 9751   7.018   3.186   2.657 -0.1965  0.5842 -0.1565
  113GLOH   H02 9752   6.981   3.286   2.635 -1.2117  0.0745 -0.8028
  113GLOH   H08 9753   6.964   3.153   2.746 -1.0018 -0.0624 -0.8707
  113GLOH    C2 9754   6.961   3.108   2.537  0.2479 -0.4726  0.7940
  113GLOH   H04 9755   6.997   3.005   2.528  2.4374  0.2300  1.2034
  113GLOH    O2 9756   6.817   3.095   2.547 -0.0439  0.1493 -0.0311
  113GLOH   H05 9757   6.787   3.083   2.638 -1.0901  2.8796 -0.0026
  113GLOH    C3 9758   7.005   3.182   2.407 -0.0891 -0.1685 -0.6731
  113GLOH   H06 9759   7.000   3.289   2.427  1.1320  0.3280 -2.8209
  113GLOH   H07 9760   6.934   3.163   2.326 -1.1913 -0.1840  0.2945
  113GLOH    O3 9761   7.135   3.142   2.368  0.4943 -0.3045 -0.0683
  113GLOH   H01 9762   7.129   3.051   2.334  1.2713 -1.3551  2.4506
  114GLOH   H03 9763   2.863   1.459   6.127  1.7577 -0.0904  1.3002
  114GLOH    O1 9764   2.928   1.500   6.067 -0.0033 -0.1250 -0.6882
  114GLOH    C1 9765   3.039   1.546   6.151  0.8559  0.1057 -0.7354
  114GLOH   H02 9766   3.047   1.489   6.243  2.8917  2.1686  0.3943
  114GLOH   H08 9767   3.031   1.650   6.182 -1.5026 -0.1555 -0.3844
  114GLOH    C2 9768   3.172   1.543   6.069  0.2793 -0.4713 -0.0636
  114GLOH   H04 9769   3.166   1.624   5.995 -0.5180 -0.3092  0.1749
  114GLOH    O2 9770   3.300   1.558   6.152  0.5568 -0.0472  0.5318
  114GLOH   H05 9771   3.288   1.560   6.248 -0.3472 -3.2467  0.5561
  114GLOH    C3 9772   3.195   1.406   6.006 -0.1317  0.1607 -0.5554
  114GLOH   H06 9773   3.162   1.333   6.079  1.1381 -0.0851 -0.2118
  114GLOH   H07 9774   3.299   1.387   5.978  0.6631  0.9923  1.7227
  114GLOH    O3 9775   3.108   1.392   5.892  0.2203  0.8708  0.3308
  114GLOH   H01 9776   3.020   1.422   5.921 -0.0602  0.5929 -0.2293
  115GLOH   H03 9777   5.505   6.256   1.149 -1.2463  0.6808  3.7970
  115GLOH    O1 9778   5.419   6.210   1.141 -0.7405  0.2412 -0.2640
  115GLOH    C1 9779   5.331   6.271   1.232  0.6853 -0.0123 -0.0185
  115GLOH   H02 9780   5.229   6.234   1.222  0.0422  1.2901  1.5212
  115GLOH   H08 9781   5.322   6.375   1.203  0.5215  0.1080  0.4598
  115GLOH    C2 9782   5.366   6.259   1.379  0.4416  0.8420 -0.1419
  115GLOH   H04 9783   5.381   6.151   1.393 -2.3718  0.3443 -0.6644
  115GLOH    O2 9784   5.485   6.333   1.410  0.3787 -0.2671  0.0592
  115GLOH   H05 9785   5.528   6.286   1.484  0.3245  0.1913  0.3869
  115GLOH    C3 9786   5.241   6.308   1.463  0.3689  0.0961  0.3031
  115GLOH   H06 9787   5.161   6.242   1.430  0.4814 -0.7970  1.7613
  115GLOH   H07 9788   5.215   6.412   1.442  1.1971  0.0806 -0.8513
  115GLOH    O3 9789   5.254   6.303   1.607 -0.1164 -0.0960  0.1939
  115GLOH   H01 9790   5.324   6.360   1.644  0.5121 -0.4634 -0.4198
  116GLOH   H03 9791   8.346   6.749   0.628 -0.8792  1.8412 -2.7397
  116GLOH    O1 9792   8.441   6.733   0.611 -0.6839 -0.0280 -0.1598
  116GLOH    C1 9793   8.471   6.597   0.652 -0.3756  0.3792 -0.1066
  116GLOH   H02 9794   8.455   6.587   0.760 -1.2986 -2.7371 -0.4883
  116GLOH   H08 9795   8.573   6.571   0.625 -0.1010  0.0868  1.1654
  116GLOH    C2 9796   8.372   6.501   0.581 -0.1426 -0.6905 -0.4319
  116GLOH   H04 9797   8.278   6.554   0.601 -1.0958 -1.8476 -1.7035
  116GLOH    O2 9798   8.396   6.506   0.439 -0.5761 -0.0654  0.1944
  116GLOH   H05 9799   8.485   6.472   0.422  0.3672  1.3366  2.2639
  116GLOH    C3 9800   8.381   6.361   0.639  0.2113 -0.1115 -1.0173
  116GLOH   H06 9801   8.468   6.304   0.605  0.2321 -1.4326  1.1627
  116GLOH   H07 9802   8.292   6.309   0.603  0.8700 -0.9142 -1.5137
  116GLOH    O3 9803   8.373   6.356   0.779  0.0834  0.3558  0.1928
  116GLOH   H01 9804   8.286   6.397   0.797 -0.3550 -0.6614  0.4175
  117GLOH   H03 9805   3.727   0.364   3.829  0.9182 -0.0983  1.1115
  117GLOH    O1 9806   3.682   0.427   3.888 -0.1213  0.1812  0.0498
  117GLOH    C1 9807   3.733   0.414   4.022 -0.0561  0.2280  0.3802
  117GLOH   H02 9808   3.841   0.404   4.031 -0.1728 -2.4025 -0.5768
  117GLOH   H08 9809   3.684   0.326   4.064 -2.6928  1.3422 -0.3050
  117GLOH    C2 9810   3.688   0.528   4.111  0.3129 -0.0029  0.4862
  117GLOH   H04 9811   3.707   0.503   4.216  2.3475  2.2049  0.6774
  117GLOH    O2 9812   3.764   0.649   4.084  0.0554  0.2624 -0.0382
  117GLOH   H05 9813   3.850   0.632   4.042 -0.2060 -0.2889 -0.3454
  117GLOH    C3 9814   3.537   0.544   4.098  0.1594 -0.4877  0.0652
  117GLOH   H06 9815   3.502   0.571   3.999 -1.4023  1.2869  1.0819
  117GLOH   H07 9816   3.498   0.624   4.161 -2.4457 -0.1168 -1.9151
  117GLOH    O3 9817   3.460   0.433   4.143  0.1419  0.1762 -0.4983
  117GLOH   H01 9818   3.483   0.350   4.098  1.9660  0.9783 -1.1093
  118GLOH   H03 9819   7.066   3.247   1.427  3.0173  0.8219 -1.6859
  118GLOH    O1 9820   7.105   3.275   1.512  0.6137  0.4659 -0.4371
  118GLOH    C1 9821   7.196   3.177   1.576  0.5123 -0.0881  0.8779
  118GLOH   H02 9822   7.260   3.137   1.497 -1.8384  0.8863 -1.6139
  118GLOH   H08 9823   7.140   3.092   1.616 -4.3943  2.6407  0.1883
  118GLOH    C2 9824   7.280   3.227   1.692 -0.1085 -0.5978  0.4113
  118GLOH   H04 9825   7.334   3.137   1.724 -0.7648 -0.6099  1.4946
  118GLOH    O2 9826   7.379   3.326   1.650  0.1657 -0.0293 -0.4972
  118GLOH   H05 9827   7.336   3.405   1.613 -1.1887  0.2368  1.5203
  118GLOH    C3 9828   7.191   3.282   1.799 -0.9253 -0.3256  0.0935
  118GLOH   H06 9829   7.246   3.299   1.891  1.5800 -0.4845 -1.3119
  118GLOH   H07 9830   7.121   3.203   1.826 -2.0167 -0.1950 -2.1879
  118GLOH    O3 9831   7.109   3.392   1.757  0.4366  0.0439  0.1855
  118GLOH   H01 9832   7.057   3.368   1.679  0.2904  2.3268 -0.4359
  119GLOH   H03 9833   5.312   1.414   1.923  1.1539  0.6470  0.8753
  119GLOH    O1 9834   5.303   1.395   2.018 -0.2737 -0.0358  0.6107
  119GLOH    C1 9835   5.258   1.261   2.037 -0.0178  0.4253  0.8323
  119GLOH   H02 9836   5.170   1.242   1.976 -0.8336 -1.0469  2.4280
  119GLOH   H08 9837   5.238   1.252   2.143 -0.0993 -0.1831  0.7653
  119GLOH    C2 9838   5.345   1.135   2.023  0.1110  0.0322 -0.7066
  119GLOH   H04 9839   5.292   1.051   2.070  1.0059  0.7076  1.5620
  119GLOH    O2 9840   5.373   1.104   1.884  0.2543  0.2250  0.0668
  119GLOH   H05 9841   5.466   1.083   1.868 -0.3781 -2.4479 -0.4792
  119GLOH    C3 9842   5.475   1.166   2.092  0.0790  0.1189 -0.0123
  119GLOH   H06 9843   5.449   1.223   2.181 -0.8811  0.5478 -0.5536
  119GLOH   H07 9844   5.528   1.232   2.022 -0.2571  1.3851  0.9085
  119GLOH    O3 9845   5.550   1.048   2.133 -0.3938 -0.3159  0.3032
  119GLOH   H01 9846   5.495   0.973   2.162 -1.0170 -0.0916 -0.2986
  120GLOH   H03 9847   3.504   1.596   3.087 -1.1091 -1.3026  0.1051
  120GLOH    O1 9848   3.475   1.618   3.178 -0.0679  0.4955  0.0359
  120GLOH    C1 9849   3.560   1.718   3.235 -0.7302 -0.6777 -0.2201
  120GLOH   H02 9850   3.517   1.745   3.332 -0.1132  0.3518 -0.2207
  120GLOH   H08 9851   3.568   1.799   3.163 -0.6309  1.2920  1.9374
  120GLOH    C2 9852   3.709   1.675   3.257  0.1246 -0.2346  0.7387
  120GLOH   H04 9853   3.756   1.662   3.159  0.8693  4.0184  0.4391
  120GLOH    O2 9854   3.790   1.779   3.316  0.2073 -0.2987 -0.5811
  120GLOH   H05 9855   3.763   1.801   3.407  1.5843  0.6942 -0.4022
  120GLOH    C3 9856   3.714   1.542   3.337  0.2267  0.2970 -0.2081
  120GLOH   H06 9857   3.648   1.462   3.302 -0.7926  0.8885  0.3598
  120GLOH   H07 9858   3.672   1.568   3.434 -0.3523 -1.9646  0.1792
  120GLOH    O3 9859   3.851   1.497   3.354 -0.0329  0.1887  0.4397
  120GLOH   H01 9860   3.897   1.571   3.397  1.8225 -0.3098 -0.6366
  121ACOH    H4 9861   4.716   3.029   0.844 -1.8293 -0.4591 -2.1789
  121ACOH    O2 9862   4.771   2.950   0.829 -0.6051  0.0082 -0.3078
  121ACOH    C2 9863   4.704   2.846   0.861  0.2900  1.3187 -0.0486
  121ACOH    O1 9864   4.617   2.841   0.946 -0.2614 -0.0665 -0.6345
  121ACOH    C1 9865   4.766   2.723   0.808  0.8148  0.0475  0.5280
  121ACOH    H1 9866   4.763   2.736   0.700  1.8718 -1.4088  0.3159
  121ACOH    H2 9867   4.708   2.633   0.829  2.8299 -2.0812 -2.5767
  121ACOH    H3 9868   4.868   2.712   0.845  0.7925  1.8500  1.1866
  122ACOH    H4 9869   4.601   9.330   0.300 -1.8658  1.8806 -2.1307
  122ACOH    O2 9870   4.672   9.344   0.234  0.6267  0.3771  0.1390
  122ACOH    C2 9871   4.782   9.321   0.308  0.6220 -0.6606  0.2443
  122ACOH    O1 9872   4.792   9.324   0.433  0.0871  0.0068  0.2768
  122ACOH    C1 9873   4.906   9.347   0.237 -0.4109  0.1030  0.0853
  122ACOH    H1 9874   4.947   9.447   0.253  1.1264 -0.2575 -1.3645
  122ACOH    H2 9875   4.887   9.336   0.130 -0.1417  1.8591 -0.1631
  122ACOH    H3 9876   4.991   9.283   0.262 -0.3488 -1.1158 -3.0541
  123ACOH    H4 9877   5.214   7.730   4.693 -2.5583 -0.9260  0.6658
  123ACOH    O2 9878   5.187   7.823   4.695  0.6342  0.0836 -0.4932
  123ACOH    C2 9879   5.229   7.874   4.581  0.8159  0.6679  0.1643
  123ACOH    O1 9880   5.259   7.813   4.481 -0.0928 -0.2502 -0.6104
  123ACOH    C1 9881   5.237   8.025   4.580  0.8778 -0.0412  0.0040
  123ACOH    H1 9882   5.139   8.073   4.576  1.0260  0.3090  0.6119
  123ACOH    H2 9883   5.304   8.063   4.503 -0.5695  1.0987 -0.7408
  123ACOH    H3 9884   5.281   8.051   4.676 -0.2097 -1.1970  0.8420
  124ACOH    H4 9885   4.787   7.203   3.292  2.4149  0.4364 -0.9124
  124ACOH    O2 9886   4.840   7.134   3.335  0.0085 -0.6218  0.5026
  124ACOH    C2 9887   4.974   7.167   3.325 -0.2628  0.0842 -0.3161
  124ACOH    O1 9888   5.016   7.266   3.268 -0.0863  0.1737  0.0629
  124ACOH    C1 9889   5.065   7.055   3.360 -0.4512  0.3039  0.3236
  124ACOH    H1 9890   5.139   7.084   3.434 -2.0967  2.9484  0.9937
  124ACOH    H2 9891   5.111   7.015   3.270 -0.9392 -0.3041  0.3361
  124ACOH    H3 9892   5.004   6.974   3.402  1.2378 -0.6051  1.0562
  125ACOH    H4 9893   6.749   6.114   5.798 -0.7969  0.6819  0.1006
  125ACOH    O2 9894   6.751   6.112   5.701  0.1487  0.0777  0.1272
  125ACOH    C2 9895   6.790   5.990   5.657  0.2307 -0.1256 -0.2775
  125ACOH    O1 9896   6.859   5.918   5.733 -0.2702  0.2456 -0.2570
  125ACOH    C1 9897   6.771   5.965   5.511 -0.6232  0.1569  0.2580
  125ACOH    H1 9898   6.800   6.057   5.460  1.1059 -0.6963 -0.3240
  125ACOH    H2 9899   6.670   5.944   5.478 -0.6574 -0.8236  0.9579
  125ACOH    H3 9900   6.828   5.879   5.475 -0.7409 -1.4672  3.6877
  126ACOH    H4 9901   6.535   3.712   0.491  1.6825 -0.3239 -1.7117
  126ACOH    O2 9902   6.464   3.737   0.429 -0.0930  0.1968  0.4433
  126ACOH    C2 9903   6.534   3.770   0.315  0.0302  0.0070 -0.6468
  126ACOH    O1 9904   6.653   3.789   0.302 -0.2202 -0.0148  0.2108
  126ACOH    C1 9905   6.432   3.820   0.211 -0.9012 -0.0779 -0.1653
  126ACOH    H1 9906   6.360   3.892   0.250 -1.6220 -1.6323  1.4525
  126ACOH    H2 9907   6.375   3.733   0.178 -1.7681  0.3963  0.0610
  126ACOH    H3 9908   6.479   3.860   0.121  1.2756  1.5174  1.6326
  127ACOH    H4 9909   9.785   0.387   6.037  1.1520 -2.6264 -0.2037
  127ACOH    O2 9910   9.772   0.355   5.946 -0.0190 -0.0669 -0.9670
  127ACOH    C2 9911   9.699   0.243   5.955  0.4145 -0.2434  0.2653
  127ACOH    O1 9912   9.664   0.183   6.056  0.4303 -0.1171 -0.4182
  127ACOH    C1 9913   9.701   0.177   5.824  0.1180  0.6089  0.6078
  127ACOH    H1 9914   9.616   0.109   5.821 -0.8734  1.8392  0.4349
  127ACOH    H2 9915   9.793   0.119   5.820  0.5534  1.1900  1.9058
  127ACOH    H3 9916   9.687   0.250   5.745  0.9998 -0.5304 -0.6292
  128ACOH    H4 9917   7.333   3.232   0.025 -0.0038 -0.3143  0.4992
  128ACOH    O2 9918   7.324   3.157  -0.035 -0.1130 -0.3214  0.5254
  128ACOH    C2 9919   7.428   3.140  -0.124 -0.2819 -0.1866  0.0681
  128ACOH    O1 9920   7.523   3.219  -0.136 -0.1234 -0.4025 -0.2658
  128ACOH    C1 9921   7.418   3.009  -0.188 -0.4486 -0.7153 -0.1783
  128ACOH    H1 9922   7.317   2.970  -0.186 -0.2305 -1.3078 -0.6592
  128ACOH    H2 9923   7.477   2.948  -0.119 -0.0394  0.9412  0.9758
  128ACOH    H3 9924   7.464   3.011  -0.287  0.9024 -0.6580  0.4362
  129ACOH    H4 9925   6.795   5.444   5.602 -1.6408  1.7716 -0.5917
  129ACOH    O2 9926   6.797   5.405   5.513 -0.2066  0.1458  0.1197
  129ACOH    C2 9927   6.890   5.478   5.449 -0.7537 -0.9399  0.1358
  129ACOH    O1 9928   6.925   5.593   5.475  0.1377  0.5544 -0.0462
  129ACOH    C1 9929   6.917   5.421   5.312  0.4991 -0.5923 -0.1399
  129ACOH    H1 9930   6.984   5.480   5.249 -1.3118  0.0675 -1.4902
  129ACOH    H2 9931   6.819   5.415   5.265 -0.7296  1.9945  1.9765
  129ACOH    H3 9932   6.964   5.323   5.320 -0.7236 -1.2962 -1.3182
  130ACOH    H4 9933   2.244   0.846   4.388  0.0161 -0.8981  0.1641
  130ACOH    O2 9934   2.199   0.873   4.306  0.3522 -0.1688  0.2155
  130ACOH    C2 9935   2.090   0.791   4.295 -0.1497  0.7192 -0.3221
  130ACOH    O1 9936   2.037   0.713   4.372  0.0506  0.7533  0.5809
  130ACOH    C1 9937   2.028   0.816   4.161  0.4640  0.7844  0.2079
  130ACOH    H1 9938   1.921   0.795   4.171  0.0743  1.6986 -1.7925
  130ACOH    H2 9939   2.071   0.748   4.087  1.3061  0.2575  1.1712
  130ACOH    H3 9940   2.043   0.918   4.126  0.3630  0.3975 -0.9891
  131ACOH    H4 9941   9.977   3.397   1.126 -0.4209  1.2806 -0.1221
  131ACOH    O2 9942  10.055   3.441   1.165  0.2172  0.0879 -0.0177
  131ACOH    C2 9943  10.035   3.575   1.172 -0.0680  0.5490  0.1811
  131ACOH    O1 9944   9.926   3.625   1.164  0.5818  0.2056 -0.3790
  131ACOH    C1 9945  10.164   3.644   1.211  0.1818 -0.6047 -0.2279
  131ACOH    H1 9946  10.145   3.750   1.192  0.8363 -0.4682 -0.1448
  131ACOH    H2 9947  10.250   3.600   1.161  0.1235 -2.7482  1.5225
  131ACOH    H3 9948  10.179   3.620   1.316  0.3427 -2.8812 -0.7421
  132ACOH    H4 9949   4.922   1.860   5.800  1.6087  1.1206 -0.2390
  132ACOH    O2 9950   4.978   1.823   5.871  0.7428 -0.3964 -0.3155
  132ACOH    C2 9951   4.894   1.802   5.976  0.1892  0.2544  0.1564
  132ACOH    O1 9952   4.774   1.788   5.959  0.4170  0.3491  0.0014
  132ACOH    C1 9953   4.968   1.778   6.108 -0.4224  0.6868 -0.2852
  132ACOH    H1 9954   4.975   1.674   6.139 -1.6219  0.0296 -2.1336
  132ACOH    H2 9955   4.893   1.824   6.173 -0.1427  0.0783  0.4748
  132ACOH    H3 9956   5.065   1.828   6.111 -0.5755  1.0544 -1.3807
  133ACOH    H4 9957   6.384   9.676   1.261  0.1326  1.3091  0.3879
  133ACOH    O2 9958   6.433   9.650   1.181  0.1431  0.3975  0.6774
  133ACOH    C2 9959   6.553   9.709   1.197  0.1938 -0.2769  0.3060
  133ACOH    O1 9960   6.593   9.750   1.303 -0.6101 -0.3064  0.5277
  133ACOH    C1 9961   6.644   9.683   1.080 -0.5970 -0.7374  0.5837
  133ACOH    H1 9962   6.709   9.770   1.077 -0.1857 -0.9696  2.2669
  133ACOH    H2 9963   6.582   9.681   0.990  0.4845 -2.3812 -0.1523
  133ACOH    H3 9964   6.701   9.591   1.093  2.3228  0.8175 -0.8347
  134ACOH    H4 9965   4.319   7.235   3.394  0.5525 -0.2389  0.6015
  134ACOH    O2 9966   4.340   7.197   3.481 -0.0919  0.3193  1.0001
  134ACOH    C2 9967   4.439   7.110   3.444 -0.0025  0.7452 -0.0108
  134ACOH    O1 9968   4.467   7.073   3.331  0.2316  0.1310  0.4086
  134ACOH    C1 9969   4.497   7.055   3.569 -0.7143  1.1379 -0.2509
  134ACOH    H1 9970   4.422   7.026   3.642  2.2961 -2.2707  1.6740
  134ACOH    H2 9971   4.565   7.127   3.614  1.0046 -0.7464  0.2809
  134ACOH    H3 9972   4.559   6.969   3.544 -0.3495 -0.3223  5.0302
  135ACOH    H4 9973   3.695   5.733   6.066  2.5085  0.1205 -1.0760
  135ACOH    O2 9974   3.733   5.654   6.108  0.0021 -0.3036  0.4807
  135ACOH    C2 9975   3.705   5.666   6.239  0.3322 -0.3455 -0.4085
  135ACOH    O1 9976   3.621   5.730   6.299 -0.0013 -0.6845  0.3970
  135ACOH    C1 9977   3.800   5.570   6.308  0.0469  0.0950  0.3048
  135ACOH    H1 9978   3.757   5.472   6.287  1.8245 -0.4610 -0.8569
  135ACOH    H2 9979   3.808   5.575   6.416  0.8154  2.9198  0.1462
  135ACOH    H3 9980   3.901   5.577   6.266 -0.5982  1.5024 -1.0404
  136ACOH    H4 9981   8.083   3.150   6.254 -0.6642 -1.7759 -0.5703
  136ACOH    O2 9982   7.992   3.184   6.263  0.2189  0.5493  0.1251
  136ACOH    C2 9983   7.919   3.075   6.300 -0.1048  0.7475 -0.4326
  136ACOH    O1 9984   7.957   2.958   6.289  0.0902 -0.0997 -0.0791
  136ACOH    C1 9985   7.785   3.113   6.358 -0.4086  0.0473 -0.0252
  136ACOH    H1 9986   7.750   3.049   6.439  0.1657 -0.1666  0.0610
  136ACOH    H2 9987   7.697   3.119   6.295  0.1231 -1.3965 -0.9109
  136ACOH    H3 9988   7.800   3.210   6.406  2.2282 -0.1204 -0.4241
  137ACOH    H4 9989   7.757   4.792   4.375 -2.5640 -1.4379 -1.2885
  137ACOH    O2 9990   7.803   4.779   4.291  0.2337  0.4943 -0.1281
  137ACOH    C2 9991   7.931   4.751   4.315  0.7983 -0.6303  0.0657
  137ACOH    O1 9992   7.998   4.799   4.401 -0.2010 -0.1857 -0.2233
  137ACOH    C1 9993   7.991   4.685   4.190 -0.7129  1.0625  0.4220
  137ACOH    H1 9994   7.971   4.578   4.195  0.3848  0.8343  0.0984
  137ACOH    H2 9995   8.099   4.699   4.178 -0.8446 -0.8485 -3.7513
  137ACOH    H3 9996   7.947   4.718   4.097  3.6788  3.5334 -0.9217
  138ACOH    H4 9997   6.801   8.091   5.284  0.8699 -2.3932  0.5417
  138ACOH    O2 9998   6.819   8.145   5.362 -0.5820 -0.3458 -0.4890
  138ACOH    C2 9999   6.827   8.271   5.324  0.4820  0.7581 -0.0880
  138ACOH    O110000   6.769   8.335   5.236  0.0999 -0.3054 -0.2115
  138ACOH    C110001   6.930   8.337   5.407 -0.2676  0.1439 -0.4792
  138ACOH    H110002   6.933   8.441   5.375 -2.7717 -0.6051 -3.2824
  138ACOH    H210003   7.023   8.284   5.386 -0.4597 -1.6768  2.8060
  138ACOH    H310004   6.899   8.342   5.512  0.2813 -1.5727 -0.2192
  139ACOH    H410005   0.738   9.852   2.522 -0.1539  0.7452 -0.1745
  139ACOH    O210006   0.723   9.841   2.427 -0.2644  0.6486 -0.1466
  139ACOH    C210007   0.639   9.748   2.403 -0.1700  0.2757 -0.4035
  139ACOH    O110008   0.576   9.684   2.487  0.0802  0.2193  0.2326
  139ACOH    C110009   0.616   9.730   2.257  0.3249  0.1455 -0.0702
  139ACOH    H110010   0.531   9.789   2.223 -1.3334 -1.2914  1.4766
  139ACOH    H210011   0.591   9.624   2.243  0.8965  0.1456 -1.0730
  139ACOH    H310012   0.701   9.747   2.192  0.5547 -2.0763 -0.4161
  140ACOH    H410013   4.942   2.572   3.738  0.3113 -0.5084  0.1491
  140ACOH    O210014   4.868   2.585   3.799 -0.1917 -0.4082 -0.4784
  140ACOH    C210015   4.926   2.636   3.911  0.3843  0.7048  0.1292
  140ACOH    O110016   5.042   2.643   3.937 -0.5350  0.3095 -0.1022
  140ACOH    C110017   4.830   2.676   4.016  0.1056 -0.0791 -0.0909
  140ACOH    H110018   4.753   2.737   3.969 -0.2566  0.7133  1.4666
  140ACOH    H210019   4.876   2.730   4.099  0.9576 -1.3630  0.2993
  140ACOH    H310020   4.773   2.586   4.043  3.1245 -2.0448 -0.0122
  141ACOH    H410021   7.588   1.157   1.751  0.1442 -0.4053 -0.3973
  141ACOH    O210022   7.510   1.202   1.788  0.0873 -0.6312 -0.2461
  141ACOH    C210023   7.467   1.287   1.698 -0.5353  0.6302 -0.0997
  141ACOH    O110024   7.517   1.306   1.587 -0.0836 -0.3561  0.3549
  141ACOH    C110025   7.351   1.370   1.743  0.4004  0.2486 -0.1745
  141ACOH    H110026   7.390   1.466   1.776 -2.4945  2.1591 -2.1633
  141ACOH    H210027   7.281   1.330   1.816  1.1130 -1.2296 -0.2764
  141ACOH    H310028   7.293   1.402   1.656  0.8041 -0.0474 -0.5575
  142ACOH    H410029   4.755   8.497   1.204 -1.8181  0.2552  2.2857
  142ACOH    O210030   4.828   8.448   1.246  0.0649  0.3317 -0.7212
  142ACOH    C210031   4.772   8.416   1.370 -0.3264 -0.5280  0.0656
  142ACOH    O110032   4.654   8.403   1.398  0.5998  0.3117 -0.7487
  142ACOH    C110033   4.876   8.337   1.447 -0.3995 -0.4537 -0.3278
  142ACOH    H110034   4.828   8.272   1.520 -1.1510  0.5112  0.0472
  142ACOH    H210035   4.942   8.408   1.497 -2.1660  0.2938  0.9871
  142ACOH    H310036   4.935   8.268   1.388  1.3272 -0.3588  1.2445
  143ACOH    H410037   6.904   7.728   5.739 -0.7707 -0.9470  0.1689
  143ACOH    O210038   6.882   7.745   5.646 -0.3682 -0.3211  0.1845
  143ACOH    C210039   6.999   7.787   5.589 -0.7174 -0.2007  0.4188
  143ACOH    O110040   7.112   7.757   5.631 -0.7410  0.0438  0.1478
  143ACOH    C110041   6.968   7.866   5.471  0.3600  0.2350 -0.4367
  143ACOH    H110042   7.024   7.959   5.476 -0.3009  0.5500  1.4258
  143ACOH    H210043   6.863   7.892   5.476  0.4884  0.5244  0.9101
  143ACOH    H310044   6.987   7.816   5.376  0.1573 -0.2791 -0.2082
  144ACOH    H410045   7.767   2.316   3.655  0.5444 -1.7274  3.2559
  144ACOH    O210046   7.854   2.350   3.683  0.6215  0.8698  0.1275
  144ACOH    C210047   7.895   2.411   3.569 -1.2383 -0.0006  0.4766
  144ACOH    O110048   7.842   2.420   3.461  0.0942 -0.3116  0.1776
  144ACOH    C110049   8.017   2.478   3.596 -0.3632  0.3198 -0.0073
  144ACOH    H110050   8.014   2.531   3.691  0.1388  2.0738 -0.9708
  144ACOH    H210051   8.035   2.559   3.526  1.3701 -0.4164 -0.4476
  144ACOH    H310052   8.106   2.416   3.584 -1.5093 -1.2207 -0.7690
  145ACOH    H410053   4.810   6.693   1.154  1.2541 -2.7564 -0.4447
  145ACOH    O210054   4.738   6.658   1.100 -0.2889 -0.4972  0.0543
  145ACOH    C210055   4.798   6.575   1.012 -0.0190 -0.4449  0.1298
  145ACOH    O110056   4.910   6.539   1.008  0.1715  0.2547  0.2227
  145ACOH    C110057   4.702   6.520   0.918 -0.1229 -0.2763  0.3852
  145ACOH    H110058   4.617   6.588   0.911  0.3063 -0.0150 -3.4185
  145ACOH    H210059   4.666   6.426   0.960  1.0317 -0.3017  1.3063
  145ACOH    H310060   4.740   6.491   0.820  1.8919 -1.0720  1.3809
  146ACOH    H410061   1.480   3.287   3.372 -0.9255  1.1600 -2.7284
  146ACOH    O210062   1.500   3.373   3.413  0.3057 -0.3401 -0.1047
  146ACOH    C210063   1.399   3.451   3.369 -0.6059 -0.6209  0.5452
  146ACOH    O110064   1.316   3.436   3.281 -1.2212 -0.5226 -0.2994
  146ACOH    C110065   1.408   3.579   3.441 -0.1420  1.0490 -0.3725
  146ACOH    H110066   1.438   3.558   3.544 -0.6552  1.0274 -0.2252
  146ACOH    H210067   1.309   3.626   3.448 -0.5951 -0.0780  0.9969
  146ACOH    H310068   1.473   3.656   3.401  0.3963  1.0459  0.4802
  147ACOH    H410069   4.827   4.371   3.078  0.4057  0.4100  1.3044
  147ACOH    O210070   4.919   4.396   3.062  0.3025  0.1677  0.2621
  147ACOH    C210071   4.916   4.529   3.037  0.3606 -0.6366  0.0243
  147ACOH    O110072   4.831   4.611   3.065  0.1792  0.0039  0.2203
  147ACOH    C110073   5.044   4.588   3.000  0.1449 -0.1414  0.1386
  147ACOH    H110074   5.048   4.696   2.985 -0.2731 -0.0783  0.4872
  147ACOH    H210075   5.088   4.527   2.921  1.8770  0.0102  0.9734
  147ACOH    H310076   5.111   4.571   3.084  0.5834 -0.9286 -0.3663
  148ACOH    H410077   6.946   4.010   1.992 -1.0444 -0.7681 -0.1095
  148ACOH    O210078   6.875   4.043   1.934 -0.7583 -0.2246 -0.1578
  148ACOH    C210079   6.877   4.177   1.934 -0.5357  0.1012  0.1890
  148ACOH    O110080   6.954   4.250   1.992 -0.2613  0.3614 -0.1708
  148ACOH    C110081   6.779   4.234   1.843  0.3430 -0.0268 -0.0042
  148ACOH    H110082   6.765   4.341   1.853 -0.5934 -0.0189 -1.2826
  148ACOH    H210083   6.685   4.188   1.874 -0.1068  3.5643  4.4399
  148ACOH    H310084   6.801   4.202   1.742 -1.7993  0.6397 -0.7129
  149ACOH    H410085   6.475   6.067   5.769 -1.9610  0.5250  1.2994
  149ACOH    O210086   6.436   6.043   5.683  0.9935  0.1785 -0.0113
  149ACOH    C210087   6.366   5.926   5.690 -0.4369  0.2235 -1.0654
  149ACOH    O110088   6.369   5.843   5.779  0.8793  0.3969 -0.5535
  149ACOH    C110089   6.275   5.890   5.575 -0.2981 -0.7703 -0.0698
  149ACOH    H110090   6.227   5.973   5.523 -0.6632 -0.4426  0.7753
  149ACOH    H210091   6.194   5.835   5.622 -1.4598  0.5885 -0.4528
  149ACOH    H310092   6.326   5.829   5.501 -0.3394 -0.8857 -0.0023
  150ACOH    H410093   4.490   5.268   4.645 -2.0630  1.5143  2.8660
  150ACOH    O210094   4.542   5.347   4.621 -0.2211 -0.5631 -0.3520
  150ACOH    C210095   4.559   5.353   4.491  0.6068  0.6178  0.0805
  150ACOH    O110096   4.516   5.275   4.411  0.3145  0.0424  0.7254
  150ACOH    C110097   4.646   5.465   4.460 -0.2406 -0.0752 -0.1188
  150ACOH    H110098   4.598   5.552   4.504 -1.2211 -2.1241  2.9890
  150ACOH    H210099   4.678   5.479   4.356  3.0434 -0.8566  0.7194
  150ACOH    H310100   4.739   5.455   4.516  0.4028 -1.4469 -1.3552
  151ACOH    H410101   4.393   3.325   5.120 -0.0646  0.4426 -0.2923
  151ACOH    O210102   4.413   3.384   5.194 -0.6630  0.4368 -0.1220
  151ACOH    C210103   4.409   3.504   5.136  0.3425 -0.1351  0.2658
  151ACOH    O110104   4.399   3.535   5.015  0.4063  0.2069 -0.2253
  151ACOH    C110105   4.425   3.614   5.233  0.1268 -0.0318  0.7309
  151ACOH    H110106   4.532   3.627   5.251  0.1953  1.4158 -0.6646
  151ACOH    H210107   4.371   3.590   5.325 -0.3169 -1.6437  0.0573
  151ACOH    H310108   4.379   3.707   5.200  3.1499  1.3925  0.3443
  152ACOH    H410109   0.397   6.370   1.841  4.7258  1.4182  0.4799
  152ACOH    O210110   0.377   6.437   1.774  0.2601 -0.5161 -0.3068
  152ACOH    C210111   0.413   6.566   1.802 -0.3719 -1.0821 -0.0096
  152ACOH    O110112   0.467   6.611   1.900 -0.3460  0.7357 -0.8672
  152ACOH    C110113   0.392   6.649   1.677  0.3741  0.2184 -0.5234
  152ACOH    H110114   0.427   6.751   1.692  0.3707  0.3848 -1.5752
  152ACOH    H210115   0.286   6.640   1.654 -0.2399  0.2323  2.1624
  152ACOH    H310116   0.458   6.602   1.604  0.7333  1.3148 -0.9087
  153ACOH    H410117   1.576   5.709   2.900  0.5107  1.1408 -0.7029
  153ACOH    O210118   1.615   5.688   2.987 -0.2540  0.4211 -0.5222
  153ACOH    C210119   1.679   5.789   3.037 -0.9300  0.2976 -0.1090
  153ACOH    O110120   1.719   5.886   2.979  0.3588  0.1657 -0.6687
  153ACOH    C110121   1.707   5.777   3.180 -0.2711  0.1130  0.3474
  153ACOH    H110122   1.613   5.751   3.228 -1.4317  1.4443 -1.1185
  153ACOH    H210123   1.732   5.875   3.222 -2.3277  0.6019  0.4845
  153ACOH    H310124   1.791   5.709   3.191  0.3523  1.0241  1.2140
  154ACOH    H410125   0.550   3.265   4.496 -0.6883 -1.1708 -1.4382
  154ACOH    O210126   0.484   3.332   4.520  0.6438 -0.3191 -0.0601
  154ACOH    C210127   0.449   3.311   4.645 -0.2447  0.7442  0.1196
  154ACOH    O110128   0.447   3.199   4.696 -0.2052 -0.5296  0.8403
  154ACOH    C110129   0.363   3.417   4.685 -0.6465  0.5710 -1.3806
  154ACOH    H110130   0.284   3.376   4.747  1.2891 -1.0132  0.0770
  154ACOH    H210131   0.311   3.466   4.602 -0.3405  2.4142 -0.4993
  154ACOH    H310132   0.417   3.492   4.742  0.1129  1.1626 -2.8350
  155ACOH    H410133   5.330   2.486   1.493 -0.5306 -0.7212 -0.6001
  155ACOH    O210134   5.420   2.455   1.508 -0.1960  0.5915  0.1450
  155ACOH    C210135   5.405   2.327   1.507  0.0750 -0.2426  0.0173
  155ACOH    O110136   5.355   2.254   1.427 -0.4933  0.4860  0.3198
  155ACOH    C110137   5.477   2.265   1.618 -0.2793  0.1642  0.1949
  155ACOH    H110138   5.582   2.292   1.612 -0.2050 -0.1931 -0.1266
  155ACOH    H210139   5.478   2.156   1.615 -0.3627  0.1155  1.6626
  155ACOH    H310140   5.431   2.299   1.710 -1.0267  1.5618 -0.6773
  156ACOH    H410141   4.016   7.738   4.990  0.6028 -0.3655  0.0828
  156ACOH    O210142   4.032   7.657   5.041 -0.0590 -0.3845  0.2585
  156ACOH    C210143   4.131   7.680   5.137 -0.7071 -0.2573 -0.3057
  156ACOH    O110144   4.216   7.771   5.128 -0.1405  0.5679  0.0082
  156ACOH    C110145   4.178   7.557   5.210  0.2624  0.5898  0.3111
  156ACOH    H110146   4.255   7.503   5.154 -0.7253  0.3516 -0.8448
  156ACOH    H210147   4.094   7.488   5.223 -1.0499  2.0229 -0.3309
  156ACOH    H310148   4.215   7.575   5.310 -0.2385 -0.3862  0.6828
  157ACOH    H410149   6.570   2.648   1.035 -1.4885  1.4277  0.5244
  157ACOH    O210150   6.607   2.737   1.019  0.4553  0.5669  0.1185
  157ACOH    C210151   6.737   2.710   1.001  0.3770 -0.0159  0.2393
  157ACOH    O110152   6.819   2.640   1.064  0.9261  0.0979 -0.1303
  157ACOH    C110153   6.785   2.796   0.895  0.1172  0.1018  0.1691
  157ACOH    H110154   6.888   2.772   0.869 -0.0250  1.6751 -1.9530
  157ACOH    H210155   6.773   2.898   0.932  0.0810 -0.0460  0.5608
  157ACOH    H310156   6.722   2.787   0.806  1.4749 -0.0901 -0.7966
  158ACOH    H410157   7.656   8.106   1.327  0.2698 -1.9972 -0.6109
  158ACOH    O210158   7.585   8.079   1.267 -0.5429 -0.1693 -0.5026
  158ACOH    C210159   7.474   8.122   1.318 -0.3086  0.1024 -0.1421
  158ACOH    O110160   7.460   8.193   1.417  0.0984  1.1939  1.2719
  158ACOH    C110161   7.356   8.097   1.230  0.0320 -0.6123 -0.2551
  158ACOH    H110162   7.377   8.036   1.143 -1.7793 -1.3990 -0.1637
  158ACOH    H210163   7.317   8.196   1.204  0.5564  0.0840  1.5395
  158ACOH    H310164   7.277   8.043   1.284 -2.3745  0.0516 -2.9725
  159ACOH    H410165   3.540   7.555   4.940 -2.1557  3.0607 -0.2782
  159ACOH    O210166   3.506   7.544   5.030 -0.3931  0.0593  0.0606
  159ACOH    C210167   3.390   7.615   5.033  0.0879  0.3406 -0.4349
  159ACOH    O110168   3.322   7.641   5.129  0.6367  0.8118  0.0093
  159ACOH    C110169   3.340   7.663   4.896  0.5822  0.0925  0.3145
  159ACOH    H110170   3.352   7.585   4.821  0.4744 -0.7997  1.2234
  159ACOH    H210171   3.388   7.751   4.852 -0.4532 -0.3116 -1.6468
  159ACOH    H310172   3.233   7.683   4.899  0.4629 -0.3633 -0.6827
  160ACOH    H410173   3.064   1.638   2.922 -2.8604  1.1142  2.3361
  160ACOH    O210174   3.028   1.549   2.908  0.6452  0.0042 -0.3551
  160ACOH    C210175   2.979   1.508   3.028 -0.8343 -0.8768  0.5424
  160ACOH    O110176   3.005   1.550   3.137 -0.0757  0.3238  0.0469
  160ACOH    C110177   2.890   1.393   3.005  0.0713 -0.0527 -0.1444
  160ACOH    H110178   2.809   1.389   3.078  0.1071 -2.3306 -0.1770
  160ACOH    H210179   2.949   1.301   3.005 -0.2766 -0.2745 -1.1091
  160ACOH    H310180   2.843   1.414   2.910 -1.2787 -0.5932  0.3902
  161ACOH    H410181   3.365   6.941   2.203 -0.0820  1.4888  0.1634
  161ACOH    O210182   3.407   6.927   2.117 -0.0494 -0.4538  0.4564
  161ACOH    C210183   3.358   6.819   2.061  0.3265  0.1942 -0.5226
  161ACOH    O110184   3.262   6.761   2.113  0.4488 -0.0858 -0.3369
  161ACOH    C110185   3.399   6.818   1.920  0.3800 -0.0320 -0.2168
  161ACOH    H110186   3.448   6.722   1.907 -2.2528 -1.3396 -0.8317
  161ACOH    H210187   3.470   6.899   1.902 -0.0474  0.5286  0.5914
  161ACOH    H310188   3.312   6.820   1.853 -0.5181 -1.3597  0.8951
  162ACOH    H410189   4.765   8.811   1.421 -0.6790 -1.3513 -0.3867
  162ACOH    O210190   4.813   8.763   1.352  0.1993 -0.4724 -0.3961
  162ACOH    C210191   4.883   8.844   1.266  0.1671 -0.1017 -0.0052
  162ACOH    O110192   4.847   8.956   1.240  0.3567 -0.6372 -0.1791
  162ACOH    C110193   4.975   8.766   1.179  0.1394 -0.6552  0.2013
  162ACOH    H110194   4.933   8.749   1.080 -0.5875  1.8194  0.0444
  162ACOH    H210195   4.997   8.670   1.226  0.6462 -0.2722  0.7376
  162ACOH    H310196   5.071   8.817   1.177 -0.8046  1.2028  0.8526
  163ACOH    H410197   5.234   5.027   6.533  1.9530  0.0901  1.1471
  163ACOH    O210198   5.247   5.116   6.497  0.2872  0.0105  0.2970
  163ACOH    C210199   5.329   5.180   6.579  0.3051 -0.0459  0.1593
  163ACOH    O110200   5.333   5.162   6.699 -0.4334 -0.0215  0.1740
  163ACOH    C110201   5.382   5.303   6.524 -0.0928  0.2769  0.9342
  163ACOH    H110202   5.461   5.283   6.452 -0.2703 -2.0653  1.3522
  163ACOH    H210203   5.429   5.361   6.603 -0.9659  0.6407  1.1918
  163ACOH    H310204   5.304   5.357   6.469  0.5125 -1.3122 -1.5763
  164ACOH    H410205   2.416   2.695   3.409 -0.5669 -0.4272 -0.0406
  164ACOH    O210206   2.389   2.700   3.316 -0.4289  0.0374 -0.0556
  164ACOH    C210207   2.456   2.802   3.261 -0.3170 -0.5659 -0.4416
  164ACOH    O110208   2.483   2.904   3.324 -0.2841 -0.3737  0.2612
  164ACOH    C110209   2.473   2.798   3.113  0.5210  0.3322 -0.4398
  164ACOH    H110210   2.550   2.873   3.092  1.3060 -0.5148 -0.5939
  164ACOH    H210211   2.373   2.822   3.078 -0.5425 -1.0450  1.6158
  164ACOH    H310212   2.504   2.700   3.077  0.3200 -0.4030  1.3141
  165ACOH    H410213   9.477   0.752   2.705 -0.5121 -2.0947  0.9793
  165ACOH    O210214   9.410   0.806   2.750  0.0530 -0.4973 -0.0575
  165ACOH    C210215   9.413   0.919   2.688  0.5115  0.0209 -0.1671
  165ACOH    O110216   9.515   0.962   2.635  0.3152  0.5440 -0.2276
  165ACOH    C110217   9.301   1.010   2.731 -0.0227  0.0101  0.0367
  165ACOH    H110218   9.329   1.045   2.831  1.3136 -1.7813  0.3065
  165ACOH    H210219   9.208   0.954   2.737 -0.4280  0.7833  1.3047
  165ACOH    H310220   9.285   1.099   2.669 -1.0241 -0.3140 -0.1795
  166ACOH    H410221   4.582   3.638   3.670 -1.6668 -4.6878 -1.1571
  166ACOH    O210222   4.674   3.609   3.655  0.2311  0.2665 -0.0845
  166ACOH    C210223   4.751   3.705   3.605 -0.2662  0.2510  0.4436
  166ACOH    O110224   4.721   3.819   3.577 -0.0594  0.1230 -0.6865
  166ACOH    C110225   4.894   3.662   3.610 -0.1631  0.0906 -0.3142
  166ACOH    H110226   4.940   3.665   3.511  0.0504  3.6268 -0.1818
  166ACOH    H210227   4.894   3.558   3.644  1.2893 -0.0429 -0.6913
  166ACOH    H310228   4.956   3.709   3.686  0.0733 -2.4698  1.1423
  167ACOH    H410229   6.599   3.157   4.431 -1.0886 -0.6328 -0.8109
  167ACOH    O210230   6.583   3.220   4.503  0.5370 -0.3314 -0.6876
  167ACOH    C210231   6.707   3.235   4.560 -0.0914 -0.1535  0.1595
  167ACOH    O110232   6.814   3.215   4.507 -0.6725  0.4485  0.0397
  167ACOH    C110233   6.684   3.325   4.676  0.3868  0.2058 -0.0592
  167ACOH    H110234   6.681   3.262   4.765  1.0557  1.1714  0.6730
  167ACOH    H210235   6.587   3.375   4.671 -1.1060 -2.8330 -2.7448
  167ACOH    H310236   6.755   3.408   4.681  0.6392 -0.0965  1.9263
  168ACOH    H410237   4.204   7.598   4.419  0.0218 -0.5255 -0.7597
  168ACOH    O210238   4.225   7.540   4.494  1.1499  0.3425 -0.3992
  168ACOH    C210239   4.173   7.587   4.613  0.2174 -0.2873 -0.7018
  168ACOH    O110240   4.130   7.698   4.631 -0.0176 -0.3616  0.2958
  168ACOH    C110241   4.175   7.484   4.724 -0.0853  0.5162 -0.5994
  168ACOH    H110242   4.208   7.522   4.821  1.7238 -1.2636 -0.4833
  168ACOH    H210243   4.250   7.407   4.705 -0.0734  1.1520 -3.3560
  168ACOH    H310244   4.078   7.436   4.729  0.7316 -0.9590  1.8224
  169ACOH    H410245   3.581   5.984   4.706  0.4069  0.3956  1.6139
  169ACOH    O210246   3.613   6.066   4.665 -0.5915 -0.3200 -0.6465
  169ACOH    C210247   3.507   6.123   4.609  1.0369  0.1841  0.9121
  169ACOH    O110248   3.404   6.063   4.571  0.3659  0.2348 -0.3419
  169ACOH    C110249   3.531   6.262   4.567  0.1750  0.2840  0.5895
  169ACOH    H110250   3.483   6.330   4.637  0.4268 -0.4224  1.4479
  169ACOH    H210251   3.493   6.284   4.467 -1.3562 -0.0015  1.0852
  169ACOH    H310252   3.638   6.278   4.570 -0.0293  1.6641  0.5874
  170ACOH    H410253   5.207   5.802   2.537 -1.7630 -0.2498 -1.7365
  170ACOH    O210254   5.202   5.705   2.525 -0.5331 -0.5399 -0.0531
  170ACOH    C210255   5.323   5.676   2.582  0.3720  0.8689  1.0053
  170ACOH    O110256   5.416   5.745   2.618  1.0607 -0.1357 -0.2472
  170ACOH    C110257   5.328   5.526   2.594 -0.7039 -0.0913 -0.3416
  170ACOH    H110258   5.337   5.511   2.702 -2.8080  2.3208  0.2087
  170ACOH    H210259   5.416   5.491   2.539  0.3485 -1.5091  2.1559
  170ACOH    H310260   5.237   5.476   2.563 -1.5652  0.2811  1.5405
  171ACOH    H410261   5.314   2.823   4.520  0.2454 -0.0390  0.4248
  171ACOH    O210262   5.279   2.897   4.573  0.5248  0.3370  0.0910
  171ACOH    C210263   5.177   2.850   4.645 -0.3039 -0.4299 -0.3842
  171ACOH    O110264   5.120   2.745   4.648 -0.5244  0.1919 -0.0468
  171ACOH    C110265   5.131   2.959   4.735 -0.2598  1.1673  0.2647
  171ACOH    H110266   5.023   2.963   4.746 -0.5589 -1.9343 -1.0700
  171ACOH    H210267   5.179   3.052   4.703  0.5184  0.6875  0.0031
  171ACOH    H310268   5.176   2.935   4.831 -1.9632 -1.1624  0.5218
  172ACOH    H410269   6.958   3.714   1.771  0.2800 -0.6114  0.7176
  172ACOH    O210270   6.875   3.760   1.751  0.3360 -0.6063  0.4918
  172ACOH    C210271   6.797   3.719   1.851  0.1186 -0.5283 -0.5000
  172ACOH    O110272   6.829   3.686   1.963 -0.0896  0.4631  0.1285
  172ACOH    C110273   6.654   3.732   1.824 -0.4042  0.8761  0.3545
  172ACOH    H110274   6.612   3.818   1.876  0.4820  2.1821 -1.0307
  172ACOH    H210275   6.596   3.648   1.861 -3.5023  2.3960 -0.8067
  172ACOH    H310276   6.640   3.742   1.716  0.0740 -3.3381 -0.1704
  173ACOH    H410277   5.157   1.062   1.587 -0.3545 -1.0616 -0.3087
  173ACOH    O210278   5.155   1.082   1.492 -0.1784  0.0967 -0.0769
  173ACOH    C210279   5.283   1.091   1.447  0.5415 -0.8440  1.5088
  173ACOH    O110280   5.386   1.058   1.506  0.1695 -1.1416 -0.4525
  173ACOH    C110281   5.276   1.100   1.298  0.0422  0.3481 -0.6751
  173ACOH    H110282   5.297   1.001   1.256 -0.9812 -1.0169  1.9350
  173ACOH    H210283   5.344   1.177   1.261  2.4190 -1.6459 -0.6384
  173ACOH    H310284   5.176   1.132   1.269  0.4026  0.3069 -2.0007
  174ACOH    H410285   6.884   8.774   1.867  1.4504  1.0151 -0.6933
  174ACOH    O210286   6.915   8.682   1.877  0.0191  0.5651 -0.1606
  174ACOH    C210287   7.041   8.692   1.836 -0.1705  0.8783  0.7492
  174ACOH    O110288   7.096   8.800   1.813  0.0799 -0.0541  0.3267
  174ACOH    C110289   7.123   8.570   1.857 -0.1464 -0.1601 -0.2525
  174ACOH    H110290   7.144   8.554   1.962 -1.2766 -0.1930 -0.0278
  174ACOH    H210291   7.212   8.581   1.795 -0.6385  3.2019 -0.4337
  174ACOH    H310292   7.072   8.483   1.816  0.3399 -1.9939  2.8648
  175ACOH    H410293   6.207   2.074   0.628  2.6548  0.4686  0.4861
  175ACOH    O210294   6.226   2.106   0.539  0.1105 -0.0619 -0.2708
  175ACOH    C210295   6.332   2.036   0.500 -0.4306  0.0482  0.7920
  175ACOH    O110296   6.392   1.946   0.564 -0.6751 -0.2055 -0.0847
  175ACOH    C110297   6.370   2.063   0.358 -0.1678  0.8657 -0.1056
  175ACOH    H110298   6.479   2.065   0.367 -0.0469  0.5485 -1.4187
  175ACOH    H210299   6.326   2.157   0.327 -1.6900  0.3134  0.3365
  175ACOH    H310300   6.327   1.987   0.292 -2.4809  0.7808  1.4498
  176ACOH    H410301   7.051   3.987   5.483  1.2529 -1.0216 -0.2539
  176ACOH    O210302   7.120   4.047   5.516  0.5366 -0.0667 -0.4790
  176ACOH    C210303   7.213   3.977   5.583  0.1167 -0.4658  1.0012
  176ACOH    O110304   7.211   3.854   5.584 -0.0210 -0.4604  0.4637
  176ACOH    C110305   7.315   4.066   5.649  0.3518 -0.0562  0.1241
  176ACOH    H110306   7.397   4.021   5.706  0.3123 -2.2436 -1.4821
  176ACOH    H210307   7.264   4.135   5.717 -0.3020  0.4701 -0.9005
  176ACOH    H310308   7.367   4.123   5.572 -1.6810  2.1337  0.3250
  177ACOH    H410309   0.759   8.291   2.608  0.7986  3.0888  1.2460
  177ACOH    O210310   0.721   8.338   2.532 -0.4794  0.5238  0.1982
  177ACOH    C210311   0.681   8.240   2.445 -0.1756 -0.4509  0.0383
  177ACOH    O110312   0.710   8.122   2.461 -0.3740  0.4438  0.5552
  177ACOH    C110313   0.629   8.293   2.321  0.7049  0.7340  0.4302
  177ACOH    H110314   0.597   8.397   2.320 -0.6273  0.3353 -1.2867
  177ACOH    H210315   0.541   8.232   2.297  0.5603  0.6411  1.2044
  177ACOH    H310316   0.700   8.268   2.242  1.1209  0.0977  1.0083
  178ACOH    H410317   8.061   4.677   2.296 -1.2338 -1.5315  2.0521
  178ACOH    O210318   7.989   4.673   2.232  0.0090  0.2249  0.4697
  178ACOH    C210319   7.906   4.768   2.268 -0.4024 -0.2747  0.8143
  178ACOH    O110320   7.927   4.857   2.345 -0.3234 -0.3419  0.0539
  178ACOH    C110321   7.779   4.764   2.194  0.1944 -0.0806  0.3154
  178ACOH    H110322   7.771   4.678   2.127 -0.6532  0.7169 -0.6199
  178ACOH    H210323   7.757   4.855   2.137  2.6914  0.8308  0.7571
  178ACOH    H310324   7.701   4.756   2.270  0.0704  1.0265  0.3080
  179ACOH    H410325   4.956   2.332   0.381 -0.3516  0.0193  0.3565
  179ACOH    O210326   5.018   2.373   0.444 -0.1842 -0.6193  0.6140
  179ACOH    C210327   4.960   2.483   0.487 -0.8207 -0.4677  0.3583
  179ACOH    O110328   4.877   2.550   0.432 -0.5987 -0.0531  0.1080
  179ACOH    C110329   5.032   2.556   0.594  0.2679 -0.0492  0.2596
  179ACOH    H110330   5.067   2.652   0.557 -0.1202 -0.4501 -1.1686
  179ACOH    H210331   5.119   2.498   0.623 -1.9014 -2.5212  2.0652
  179ACOH    H310332   4.972   2.566   0.684 -2.2348 -0.0846 -1.3555
  180ACOH    H410333   5.008   8.738   1.668 -1.0860  0.6648 -0.1206
  180ACOH    O210334   5.022   8.823   1.623 -0.0957  0.4544 -0.2276
  180ACOH    C210335   5.102   8.795   1.513  0.0822  0.9413 -0.0698
  180ACOH    O110336   5.146   8.690   1.465  0.5356  0.3695 -0.4072
  180ACOH    C110337   5.126   8.924   1.449 -0.8378 -0.1908 -0.1380
  180ACOH    H110338   5.195   8.981   1.512  0.6941 -1.6087 -0.5130
  180ACOH    H210339   5.031   8.977   1.451 -0.3389  0.7686 -0.7616
  180ACOH    H310340   5.160   8.930   1.345 -0.0471 -0.7900  0.0808
  181ACOH    H410341   4.765   1.423   1.987  1.9533  2.0172 -2.1883
  181ACOH    O210342   4.787   1.337   1.946 -0.3985  0.4002 -0.2094
  181ACOH    C210343   4.682   1.260   1.918 -0.1722 -0.4917 -0.7385
  181ACOH    O110344   4.566   1.292   1.937  0.5142 -0.0784 -0.2938
  181ACOH    C110345   4.737   1.144   1.840  0.1855  0.3841  0.6155
  181ACOH    H110346   4.760   1.059   1.904 -0.9313  0.6967  1.4573
  181ACOH    H210347   4.830   1.159   1.786  0.0810  2.2743  0.9237
  181ACOH    H310348   4.663   1.119   1.764 -0.5099  2.0110  0.7330
  182ACOH    H410349   5.581   2.879   3.389 -3.4540 -1.6778  1.1365
  182ACOH    O210350   5.553   2.964   3.426 -0.6168 -0.1663  0.0140
  182ACOH    C210351   5.435   2.984   3.363 -0.3102 -0.5124 -0.0026
  182ACOH    O110352   5.373   2.898   3.293 -0.3964 -0.5168 -0.7203
  182ACOH    C110353   5.377   3.121   3.382 -0.7955 -0.2513 -0.0919
  182ACOH    H110354   5.348   3.134   3.487  1.7670 -0.7716  0.7070
  182ACOH    H210355   5.285   3.132   3.324 -1.4641  0.4526  1.0753
  182ACOH    H310356   5.453   3.194   3.352  1.5760 -2.1517  1.1510
  183ACOH    H410357   7.635   4.546   3.334  1.3620  1.1813  0.3299
  183ACOH    O210358   7.598   4.621   3.284  0.1713  0.1586 -0.3598
  183ACOH    C210359   7.544   4.565   3.174 -0.7740 -0.0232 -0.0287
  183ACOH    O110360   7.544   4.450   3.137 -0.1827 -0.2525 -0.4319
  183ACOH    C110361   7.461   4.667   3.108  0.9453  0.5648 -0.6099
  183ACOH    H110362   7.527   4.754   3.099  1.2387  0.5044  0.9254
  183ACOH    H210363   7.371   4.698   3.162  0.5794  1.8401 -1.9126
  183ACOH    H310364   7.433   4.648   3.004 -2.8510 -1.8924  0.7748
  184ACOH    H410365   5.911   1.920   6.265 -0.2282 -0.8034  0.7393
  184ACOH    O210366   5.869   1.866   6.196 -0.3031  0.3869 -0.1689
  184ACOH    C210367   5.928   1.744   6.211 -0.3814  0.5927  0.0447
  184ACOH    O110368   6.021   1.707   6.282 -0.1929  0.1781 -0.4775
  184ACOH    C110369   5.854   1.632   6.142 -0.4596  0.2650  0.2134
  184ACOH    H110370   5.770   1.610   6.208 -0.3600 -0.4024  0.1158
  184ACOH    H210371   5.909   1.539   6.130 -1.9828 -0.7417  0.9477
  184ACOH    H310372   5.821   1.667   6.044 -1.3179  0.3523  0.5262
  185ACOH    H410373   8.138   8.611   1.741  0.9163 -0.5773  2.8395
  185ACOH    O210374   8.075   8.683   1.755  0.2810 -0.4615 -0.3605
  185ACOH    C210375   7.959   8.630   1.801  0.8318 -0.0892 -0.3136
  185ACOH    O110376   7.942   8.513   1.825  0.0648  1.3199  0.1072
  185ACOH    C110377   7.853   8.735   1.820  0.9229 -0.6793  0.5200
  185ACOH    H110378   7.873   8.802   1.904 -2.4631  1.3178 -0.1607
  185ACOH    H210379   7.752   8.699   1.841  0.6937 -0.1722  0.2948
  185ACOH    H310380   7.851   8.783   1.722  1.1992  1.3304  1.4836
  186ACOH    H410381   9.224   1.255   4.164 -0.7050  0.5786 -0.4030
  186ACOH    O210382   9.188   1.250   4.254 -0.5488 -0.0553 -0.3690
  186ACOH    C210383   9.060   1.233   4.249 -1.3177  0.1968  0.5240
  186ACOH    O110384   9.001   1.243   4.143 -0.8407 -0.0985  0.6876
  186ACOH    C110385   9.006   1.195   4.380  0.0565  0.0816 -0.5418
  186ACOH    H110386   8.950   1.281   4.417  2.7689  1.7628 -0.2505
  186ACOH    H210387   9.075   1.161   4.456 -1.0476 -0.2738  0.3187
  186ACOH    H310388   8.935   1.113   4.368 -0.3415  0.0277  2.0231
  187ACOH    H410389   4.688   7.536   1.406  3.1118 -1.4579 -2.3862
  187ACOH    O210390   4.684   7.615   1.349 -0.1837  0.2896  0.1579
  187ACOH    C210391   4.562   7.623   1.289 -0.0889  0.2008 -0.0118
  187ACOH    O110392   4.472   7.545   1.304 -0.2196  0.9009  0.1292
  187ACOH    C110393   4.546   7.731   1.197  0.1869 -0.4456 -0.2244
  187ACOH    H110394   4.629   7.800   1.176 -0.5207 -0.1236 -2.0272
  187ACOH    H210395   4.464   7.787   1.242 -1.1630  0.4888 -3.6536
  187ACOH    H310396   4.495   7.696   1.107 -0.5067  0.1255 -0.0556
  188ACOH    H410397   5.038   3.947   2.348 -3.4082 -0.3552 -0.3314
  188ACOH    O210398   5.046   4.019   2.284 -0.4992 -0.0999  0.2719
  188ACOH    C210399   4.988   4.130   2.328 -0.4840  0.3017  0.1558
  188ACOH    O110400   4.977   4.163   2.446  0.1993  0.0602  0.2672
  188ACOH    C110401   5.005   4.227   2.219 -0.0043 -0.1581 -0.2778
  188ACOH    H110402   4.949   4.319   2.236  0.1215 -0.0018 -0.7173
  188ACOH    H210403   4.974   4.186   2.123 -1.0107 -2.8074  1.1245
  188ACOH    H310404   5.111   4.247   2.205 -0.4384  0.3761 -3.0846
  189ACOH    H410405   6.763   7.626   2.885 -1.0676  2.3720  1.9949
  189ACOH    O210406   6.709   7.570   2.944 -0.6620  0.0485  0.2195
  189ACOH    C210407   6.647   7.654   3.040 -0.2411 -0.6320  0.6243
  189ACOH    O110408   6.660   7.773   3.040  0.4346 -0.5698 -0.8916
  189ACOH    C110409   6.550   7.581   3.125  0.2756  0.0500 -0.3023
  189ACOH    H110410   6.450   7.579   3.083  0.0768  0.6399  0.1467
  189ACOH    H210411   6.539   7.618   3.227 -2.4222 -0.4697 -0.3758
  189ACOH    H310412   6.587   7.478   3.130 -1.6883 -0.6610 -0.1484
  190ACOH    H410413   9.251   6.793   5.714 -0.2905  2.8232  0.8840
  190ACOH    O210414   9.338   6.804   5.755  0.1259  0.6782  0.6672
  190ACOH    C210415   9.328   6.727   5.861  0.1339  0.0437  0.4703
  190ACOH    O110416   9.301   6.610   5.868 -0.0267 -0.0006  0.5508
  190ACOH    C110417   9.414   6.786   5.967  0.1556  0.2666 -0.5511
  190ACOH    H110418   9.387   6.891   5.974 -0.8651 -0.0235 -0.0413
  190ACOH    H210419   9.517   6.756   5.948  1.0631  3.7399 -1.5497
  190ACOH    H310420   9.382   6.740   6.060 -0.9351  0.6700 -0.7217
  191ACOH    H410421   0.004   6.073   4.142 -0.7052  0.1658 -1.3339
  191ACOH    O210422  -0.062   6.113   4.202  0.2322  0.1623 -0.2742
  191ACOH    C210423  -0.122   6.017   4.271 -0.4068  0.8591  0.0499
  191ACOH    O110424  -0.120   5.897   4.242 -0.1040  0.4034  0.1053
  191ACOH    C110425  -0.227   6.071   4.356 -0.3006 -0.4543  0.1523
  191ACOH    H110426  -0.236   6.002   4.440  2.0519  0.4516  1.1854
  191ACOH    H210427  -0.313   6.064   4.290  1.4828 -0.6129 -2.2410
  191ACOH    H310428  -0.220   6.172   4.394 -2.5467 -0.2114 -0.0156
  192ACOH    H410429   3.658   7.855   5.205  1.4800  0.9312  1.8065
  192ACOH    O210430   3.640   7.778   5.262 -0.7872  0.1349  0.0988
  192ACOH    C210431   3.763   7.731   5.299 -0.0144  0.5118  0.2731
  192ACOH    O110432   3.867   7.780   5.273 -0.3456 -0.0115 -0.0347
  192ACOH    C110433   3.755   7.597   5.367  0.4544 -0.2315  0.1989
  192ACOH    H110434   3.856   7.559   5.380  0.9003  0.8554 -0.0215
  192ACOH    H210435   3.689   7.529   5.312  0.2232  0.2623 -0.1357
  192ACOH    H310436   3.719   7.617   5.468 -0.2052 -0.5172  0.0270
  193ACOH    H410437   4.799   3.341   3.881 -1.2848 -0.0432  0.6027
  193ACOH    O210438   4.724   3.339   3.820 -0.3900  0.1396 -0.5119
  193ACOH    C210439   4.614   3.377   3.890  0.1778  0.1844  0.3217
  193ACOH    O110440   4.614   3.405   4.007 -0.3555 -0.0013 -1.0011
  193ACOH    C110441   4.489   3.346   3.815  0.5185 -0.0604  0.3523
  193ACOH    H110442   4.441   3.436   3.776 -2.2399 -2.2426 -1.4950
  193ACOH    H210443   4.416   3.305   3.884  0.4670 -2.4732 -1.0572
  193ACOH    H310444   4.505   3.273   3.735  0.1768 -0.8236  0.9679
  194ACOH    H410445   4.100   8.026   5.889 -1.6461 -0.2977  1.7842
  194ACOH    O210446   4.168   7.996   5.952  0.1466  0.1292  0.0960
  194ACOH    C210447   4.230   8.095   6.015 -0.5800  0.3817  1.1154
  194ACOH    O110448   4.194   8.209   6.014 -0.0326 -0.1291  0.1655
  194ACOH    C110449   4.336   8.041   6.103 -0.5433 -0.5138 -0.8565
  194ACOH    H110450   4.424   8.105   6.092  1.7242 -3.3897 -0.3973
  194ACOH    H210451   4.351   7.935   6.082  0.8372 -0.2474 -1.2969
  194ACOH    H310452   4.305   8.039   6.207 -0.6054 -0.5664 -0.8770
  195ACOH    H410453   4.067   9.246   2.607  1.1277  0.8020  0.1373
  195ACOH    O210454   4.034   9.254   2.698  0.2245  0.4537 -0.1584
  195ACOH    C210455   3.934   9.349   2.684 -0.2070  0.7264  0.0990
  195ACOH    O110456   3.895   9.388   2.575  0.1656 -0.4431 -0.1054
  195ACOH    C110457   3.889   9.416   2.813 -0.6198  0.2951  0.6924
  195ACOH    H110458   3.892   9.353   2.901  0.1435  0.0427  0.4894
  195ACOH    H210459   3.787   9.452   2.795 -1.0624 -0.2663  2.0235
  195ACOH    H310460   3.943   9.510   2.825 -0.2566 -0.0634  1.8748
  196ACOH    H410461   6.206   5.095   0.001  0.3425  3.0105 -0.4792
  196ACOH    O210462   6.115   5.102  -0.032 -0.2674 -0.3030  0.2785
  196ACOH    C210463   6.045   5.075   0.078  0.8026 -0.2613 -0.8665
  196ACOH    O110464   6.078   5.006   0.170  0.0946 -0.5422 -0.3113
  196ACOH    C110465   5.906   5.126   0.070 -0.3587 -0.1780  0.7371
  196ACOH    H110466   5.885   5.136  -0.037 -0.4359  1.6192  0.9084
  196ACOH    H210467   5.898   5.217   0.129  0.4492  0.5229 -0.2256
  196ACOH    H310468   5.831   5.053   0.102 -0.5132 -2.2091 -3.8211
  197ACOH    H410469   7.029   3.808   5.170  0.5334 -1.6675  0.7171
  197ACOH    O210470   6.936   3.782   5.158  0.0463  0.1776  0.3838
  197ACOH    C210471   6.877   3.786   5.276 -0.3961  0.0497 -0.2189
  197ACOH    O110472   6.920   3.827   5.384 -0.2617  0.3344 -0.0847
  197ACOH    C110473   6.739   3.745   5.272  0.1597  0.5778 -0.1822
  197ACOH    H110474   6.717   3.671   5.348 -1.6221  0.0740 -1.1659
  197ACOH    H210475   6.713   3.701   5.176 -3.0122 -1.0011  1.3492
  197ACOH    H310476   6.664   3.823   5.285 -1.0255 -0.2451 -1.9365
  198ACOH    H410477   7.007   3.026   3.950  0.7831  1.5736 -1.3702
  198ACOH    O210478   6.912   3.024   3.931  0.4715  0.1281  0.1819
  198ACOH    C210479   6.854   3.144   3.937  0.5923 -0.3194  0.3920
  198ACOH    O110480   6.889   3.241   4.003  0.1849 -0.1972 -0.2481
  198ACOH    C110481   6.720   3.129   3.878 -0.4782 -0.7455  0.3436
  198ACOH    H110482   6.680   3.039   3.925 -2.1806  1.3367  2.9756
  198ACOH    H210483   6.729   3.122   3.769 -0.4604 -0.5924  0.3348
  198ACOH    H310484   6.659   3.218   3.893  1.3061 -0.0067  3.4433
  199ACOH    H410485   5.948   5.722   0.996 -1.4558  2.8888  1.0249
  199ACOH    O210486   6.009   5.760   1.061  0.6487  0.2373  0.6844
  199ACOH    C210487   5.997   5.898   1.067 -0.0753  0.2547 -0.2914
  199ACOH    O110488   5.889   5.949   1.043  0.2331 -0.5145 -0.3556
  199ACOH    C110489   6.111   5.978   1.127 -0.7500  0.0284 -0.0839
  199ACOH    H110490   6.079   6.062   1.189 -0.9423  1.5412 -2.1802
  199ACOH    H210491   6.183   6.009   1.051 -1.8083  1.3774 -0.5569
  199ACOH    H310492   6.161   5.904   1.190 -1.9757 -1.2037 -0.5428
  200ACOH    H410493   5.733   9.247   5.485  0.1784  0.2375  0.0348
  200ACOH    O210494   5.810   9.301   5.458  0.2201  0.1406 -0.0430
  200ACOH    C210495   5.810   9.328   5.325 -0.2037  0.5311  0.4324
  200ACOH    O110496   5.778   9.250   5.234 -0.0917 -0.2114  0.2474
  200ACOH    C110497   5.893   9.443   5.305  0.7502 -0.3226 -0.4157
  200ACOH    H110498   5.931   9.480   5.400 -0.4587 -0.9985  0.3481
  200ACOH    H210499   5.858   9.523   5.240 -3.1526 -0.3153  1.4880
  200ACOH    H310500   5.979   9.412   5.246  0.7349  1.1975 -1.2837
  201ACOH    H410501   5.618   7.007   1.765 -0.8037  0.4918 -1.0090
  201ACOH    O210502   5.632   6.951   1.687  0.1456 -0.4236 -0.1938
  201ACOH    C210503   5.714   6.843   1.714  0.2214 -0.5004  0.4616
  201ACOH    O110504   5.737   6.814   1.826 -0.4317 -0.3966 -0.0975
  201ACOH    C110505   5.745   6.757   1.605  1.1643  0.2558 -0.0902
  201ACOH    H110506   5.814   6.803   1.533  0.1358 -0.6248 -1.6673
  201ACOH    H210507   5.659   6.723   1.548  0.9850  2.5819 -1.2408
  201ACOH    H310508   5.796   6.668   1.643  0.4422 -0.8171 -1.5547
  202ACOH    H410509   6.312   5.646   0.054 -0.6050 -0.7800 -0.6942
  202ACOH    O210510   6.322   5.718  -0.011  0.0922 -0.4589 -0.2343
  202ACOH    C210511   6.440   5.697  -0.076  0.8808 -0.3079  0.4504
  202ACOH    O110512   6.520   5.604  -0.068  0.7186  0.2182  0.3713
  202ACOH    C110513   6.465   5.803  -0.178  0.2254 -0.1512  0.5958
  202ACOH    H110514   6.463   5.904  -0.136 -0.5412  1.1702 -2.4745
  202ACOH    H210515   6.389   5.804  -0.257 -2.2316  2.0698  2.8721
  202ACOH    H310516   6.562   5.791  -0.225 -0.0037  1.0683 -0.2239
  203ACOH    H410517   6.578   4.524   1.219 -0.5689 -0.4200  0.1889
  203ACOH    O210518   6.624   4.567   1.293 -0.2597  0.5436 -0.5517
  203ACOH    C210519   6.754   4.549   1.276  0.1382 -0.0747 -0.0299
  203ACOH    O110520   6.808   4.531   1.170 -0.1825  0.2748  0.2214
  203ACOH    C110521   6.847   4.600   1.386 -0.2769  0.2349  0.1474
  203ACOH    H110522   6.913   4.515   1.403 -0.6302  0.1749  1.2678
  203ACOH    H210523   6.790   4.641   1.469  1.0935 -1.3969  1.9379
  203ACOH    H310524   6.916   4.681   1.364  2.3728 -1.4071  2.1291
  204ACOH    H410525   3.909   5.124   4.913  1.0540  0.7165 -1.2135
  204ACOH    O210526   3.875   5.213   4.893 -0.0640  0.4997 -0.3427
  204ACOH    C210527   3.893   5.301   4.995 -0.1071  0.6154  0.4670
  204ACOH    O110528   3.943   5.275   5.107  0.0160  0.3499 -0.4738
  204ACOH    C110529   3.840   5.432   4.958  0.0217  0.3596 -0.3015
  204ACOH    H110530   3.791   5.424   4.861  0.5386 -0.5764 -0.4873
  204ACOH    H210531   3.912   5.514   4.955  0.0524  0.3531  0.1942
  204ACOH    H310532   3.755   5.461   5.020 -0.3018 -2.1815  0.4752
  205ACOH    H410533   6.672   7.555   5.315 -1.0001  1.0443 -1.5360
  205ACOH    O210534   6.579   7.576   5.335 -0.7734  0.9296 -0.3602
  205ACOH    C210535   6.539   7.487   5.429 -0.8353  0.3436  0.1727
  205ACOH    O110536   6.611   7.409   5.490 -0.8960 -0.5689 -0.0577
  205ACOH    C110537   6.388   7.477   5.452  0.2885 -0.1798  0.0046
  205ACOH    H110538   6.381   7.463   5.560  0.9365  1.8112  0.3441
  205ACOH    H210539   6.352   7.393   5.393 -0.5927 -1.8195  2.8047
  205ACOH    H310540   6.343   7.571   5.419  0.3367 -0.1802 -0.0615
  206ACOH    H410541   5.417   7.239   4.315  0.4685 -0.2325  1.8905
  206ACOH    O210542   5.322   7.223   4.332  0.0088  0.3818  0.0779
  206ACOH    C210543   5.324   7.241   4.463  0.5805 -0.7138 -0.7596
  206ACOH    O110544   5.416   7.278   4.538 -0.3137  0.5289  0.0937
  206ACOH    C110545   5.184   7.214   4.519  0.4951 -0.0885  0.2794
  206ACOH    H110546   5.125   7.305   4.506 -0.0026 -0.3454  0.6814
  206ACOH    H210547   5.183   7.198   4.627  1.2236 -0.7832  0.1894
  206ACOH    H310548   5.139   7.130   4.466 -0.9166  0.8243 -0.0166
  207ACOH    H410549   6.777   8.723   5.317 -1.1841  0.4172  0.5822
  207ACOH    O210550   6.787   8.732   5.414  0.6146  0.9058  0.3793
  207ACOH    C210551   6.681   8.669   5.468  0.2243 -0.2902  0.3592
  207ACOH    O110552   6.603   8.599   5.410  0.0088 -0.2244  0.2714
  207ACOH    C110553   6.672   8.689   5.611  0.0872 -0.3099 -0.0543
  207ACOH    H110554   6.603   8.621   5.660 -0.2830  0.9852  1.2587
  207ACOH    H210555   6.661   8.795   5.633 -3.2296  0.1777 -3.6607
  207ACOH    H310556   6.758   8.653   5.668 -2.0747  0.5076  3.8716
  208ACOH    H410557   4.954   5.754   3.020 -0.2915  0.4905 -0.1691
  208ACOH    O210558   5.034   5.737   3.073 -0.2099  0.0627 -0.4263
  208ACOH    C210559   4.997   5.686   3.193 -0.0502 -0.3186 -0.0888
  208ACOH    O110560   4.889   5.642   3.225  0.2078 -0.0277  0.7569
  208ACOH    C110561   5.115   5.667   3.280  0.0621  0.0441 -0.2364
  208ACOH    H110562   5.203   5.632   3.225 -0.8645  0.2351 -1.8560
  208ACOH    H210563   5.081   5.586   3.344  0.5407  0.6396  0.7897
  208ACOH    H310564   5.148   5.757   3.333  0.0902 -0.5256  0.7276
  209ACOH    H410565   1.245   2.767   6.524  0.7613  2.0463  1.5702
  209ACOH    O210566   1.155   2.767   6.562  0.1398  0.4776  0.1809
  209ACOH    C210567   1.138   2.644   6.620  0.1208 -0.5765  0.0473
  209ACOH    O110568   1.042   2.595   6.679 -0.6244  0.5084 -0.0599
  209ACOH    C110569   1.261   2.554   6.624  0.0778 -0.0225  0.0064
  209ACOH    H110570   1.244   2.456   6.579 -0.6544 -0.1337  0.5099
  209ACOH    H210571   1.291   2.534   6.727  1.3908  0.6939 -0.2271
  209ACOH    H310572   1.343   2.596   6.566 -1.2659  0.5698 -1.5006
  210ACOH    H410573   9.607   5.600   6.584  1.8830  0.9295 -2.3847
  210ACOH    O210574   9.648   5.665   6.643  0.5775 -0.0048 -0.3919
  210ACOH    C210575   9.771   5.664   6.596  0.2158  0.1852 -0.1893
  210ACOH    O110576   9.817   5.572   6.529 -0.8592  0.0765 -0.2790
  210ACOH    C110577   9.847   5.775   6.655 -0.5010  0.0852  0.0359
  210ACOH    H110578   9.943   5.779   6.605 -0.5531 -1.7577 -0.2436
  210ACOH    H210579   9.854   5.758   6.763 -0.7762  1.0479  0.2115
  210ACOH    H310580   9.806   5.872   6.627  1.1561  0.5030 -1.0105
  211ACOH    H410581   5.542   6.069   2.460  2.0468  0.0917  0.8091
  211ACOH    O210582   5.607   6.073   2.389  0.5999  0.3106 -0.5308
  211ACOH    C210583   5.682   6.188   2.396  0.5312  0.1821  0.0258
  211ACOH    O110584   5.677   6.269   2.489 -0.0699  0.6858  0.4551
  211ACOH    C110585   5.750   6.214   2.268 -0.0674 -0.1218 -0.3936
  211ACOH    H110586   5.678   6.256   2.198  0.2574  1.1013  0.0067
  211ACOH    H210587   5.799   6.124   2.231  0.0194  0.0359 -0.6606
  211ACOH    H310588   5.826   6.291   2.280 -1.3698  1.2165 -0.7356
  212ACOH    H410589   7.652   5.396   4.142  0.2111  0.5404  0.0181
  212ACOH    O210590   7.590   5.400   4.067 -0.1143 -0.2857  0.2366
  212ACOH    C210591   7.536   5.521   4.070 -0.0563  0.2987 -1.3756
  212ACOH    O110592   7.561   5.609   4.151 -0.6828 -0.4437 -0.1938
  212ACOH    C110593   7.464   5.539   3.941 -0.7205 -0.1984 -0.4614
  212ACOH    H110594   7.540   5.515   3.866  0.4379 -0.8988  0.8987
  212ACOH    H210595   7.427   5.639   3.921  0.8037  0.6161  0.6261
  212ACOH    H310596   7.389   5.461   3.932  2.7153 -3.4615 -2.6823
  213ACOH    H410597   4.141   6.223   2.859  0.1094  1.0749 -0.5997
  213ACOH    O210598   4.104   6.275   2.932  0.0057  0.2863 -0.0913
  213ACOH    C210599   4.132   6.210   3.047  0.2606  0.0187 -0.2658
  213ACOH    O110600   4.186   6.099   3.050 -0.5032  0.0463  0.0671
  213ACOH    C110601   4.066   6.280   3.160  0.0432 -0.3166  0.4914
  213ACOH    H110602   4.080   6.221   3.251  1.1571 -3.2516 -1.5229
  213ACOH    H210603   3.960   6.290   3.137  0.4454  0.2481 -1.1187
  213ACOH    H310604   4.115   6.377   3.170  2.9212 -1.6118 -0.4027
  214ACOH    H410605   2.918   0.902   4.126 -1.7158  3.5654  0.1560
  214ACOH    O210606   2.981   0.933   4.193  0.1287  0.7803 -0.1769
  214ACOH    C210607   3.000   1.066   4.181  0.0429  0.3680  0.1301
  214ACOH    O110608   2.912   1.129   4.133  0.2717 -0.2134  0.0680
  214ACOH    C110609   3.084   1.117   4.290 -0.0021  0.0695 -0.1281
  214ACOH    H110610   3.170   1.051   4.302 -1.6960 -1.8260  1.8095
  214ACOH    H210611   3.034   1.105   4.386 -0.3436  0.7517 -0.2198
  214ACOH    H310612   3.114   1.222   4.288  2.6530 -0.6782 -2.1157
  215ACOH    H410613   0.855   2.137   0.150 -1.2723  0.6908  0.1211
  215ACOH    O210614   0.813   2.083   0.219 -0.3908  0.0590  0.1664
  215ACOH    C210615   0.717   2.159   0.277  0.0663 -0.0747  0.2354
  215ACOH    O110616   0.711   2.280   0.268 -0.4130  0.4276 -0.1348
  215ACOH    C110617   0.641   2.085   0.382  0.2629  0.1481  0.4791
  215ACOH    H110618   0.562   2.151   0.420  1.8196  2.7264 -0.6093
  215ACOH    H210619   0.705   2.058   0.466 -1.0760  0.4224  1.6018
  215ACOH    H310620   0.609   1.991   0.337  1.0773  0.5702 -1.0240
  216ACOH    H410621   4.464   6.256   0.620  0.8919  0.6398  1.9839
  216ACOH    O210622   4.557   6.233   0.636  1.0299 -0.3319 -0.1331
  216ACOH    C210623   4.621   6.300   0.538  0.3212  0.8327 -0.1853
  216ACOH    O110624   4.577   6.400   0.477  0.2815 -0.3025  0.3044
  216ACOH    C110625   4.762   6.278   0.545 -0.2140  0.2112  0.6354
  216ACOH    H110626   4.806   6.281   0.446  1.8925 -0.6132  1.5167
  216ACOH    H210627   4.781   6.186   0.602 -2.0895 -1.0620 -0.7261
  216ACOH    H310628   4.802   6.363   0.601  0.5714  1.2400 -1.4581
  217ACOH    H410629   0.134   6.293   5.773  0.5467  0.8541  0.7916
  217ACOH    O210630   0.165   6.340   5.694 -0.6960  0.2380 -0.0814
  217ACOH    C210631   0.303   6.347   5.710  0.2590  0.0983 -0.9269
  217ACOH    O110632   0.367   6.295   5.803 -0.8977  0.2968  0.3383
  217ACOH    C110633   0.375   6.431   5.615 -0.5440 -0.6202  0.2761
  217ACOH    H110634   0.393   6.371   5.526  1.9003  2.3078 -1.2868
  217ACOH    H210635   0.469   6.472   5.653 -0.4344  0.6586 -1.3556
  217ACOH    H310636   0.307   6.507   5.579 -0.7440 -1.0221 -0.1858
  218ACOH    H410637   4.206   5.232   2.926  0.2436  2.4681 -0.8818
  218ACOH    O210638   4.151   5.253   3.003  0.2341 -0.1097 -0.1198
  218ACOH    C210639   4.170   5.388   3.016 -0.4283 -0.0406 -0.1125
  218ACOH    O110640   4.188   5.466   2.927  0.1311 -0.6346  0.5544
  218ACOH    C110641   4.143   5.434   3.153  0.3648 -0.5537 -0.3703
  218ACOH    H110642   4.048   5.400   3.193  0.7867 -2.9038 -1.2601
  218ACOH    H210643   4.136   5.543   3.149 -0.5868 -0.4894  2.1764
  218ACOH    H310644   4.222   5.400   3.221  0.0340  0.7661  0.6967
  219ACOH    H410645   7.327   6.668   3.470  1.5604 -2.3497 -1.6762
  219ACOH    O210646   7.252   6.685   3.412  0.6615 -0.1104  0.0583
  219ACOH    C210647   7.197   6.797   3.456 -0.6555 -0.5746 -0.4714
  219ACOH    O110648   7.231   6.874   3.545  0.3121  0.3143 -0.3140
  219ACOH    C110649   7.089   6.839   3.364  0.3047  0.1259  0.9148
  219ACOH    H110650   7.065   6.763   3.289 -0.8868  1.0364  0.3664
  219ACOH    H210651   7.118   6.930   3.312 -0.4886 -0.8837 -1.3378
  219ACOH    H310652   7.000   6.856   3.425  2.2460  1.1853  3.5458
  220ACOH    H410653   7.379   7.098   2.178 -0.6027  0.0370  1.3375
  220ACOH    O210654   7.332   7.040   2.115  0.0779  0.3236  0.5504
  220ACOH    C210655   7.310   6.927   2.181 -0.1992  0.0370  0.2126
  220ACOH    O110656   7.313   6.906   2.302 -0.5407 -0.3517 -0.3658
  220ACOH    C110657   7.232   6.831   2.088  0.8725  0.1053  0.0780
  220ACOH    H110658   7.199   6.746   2.148 -0.5195  1.5398  1.3600
  220ACOH    H210659   7.299   6.795   2.010 -0.3047 -1.6804 -0.1362
  220ACOH    H310660   7.151   6.884   2.039  0.8811 -0.0304 -0.0824
  221ACOH    H410661   6.904   3.049   1.190  0.0277 -0.1055  1.4172
  221ACOH    O210662   6.869   2.961   1.212  0.0483 -0.4945 -0.0466
  221ACOH    C210663   6.878   2.948   1.338 -0.0968  0.3559 -0.8069
  221ACOH    O110664   6.899   3.035   1.419 -0.2710 -0.1298 -0.3058
  221ACOH    C110665   6.845   2.806   1.369  0.3804  0.1177 -0.5566
  221ACOH    H110666   6.800   2.795   1.467 -2.3431  0.5589 -1.7121
  221ACOH    H210667   6.935   2.746   1.359 -0.4641 -1.0979 -1.0855
  221ACOH    H310668   6.776   2.761   1.298  0.2294  0.1417 -0.4270
  222ACOH    H410669   5.476   2.559   5.045 -0.9842  2.6961  1.9360
  222ACOH    O210670   5.529   2.532   5.122  0.4770  0.6207  0.2427
  222ACOH    C210671   5.488   2.405   5.154 -0.6299 -0.0625 -0.6646
  222ACOH    O110672   5.398   2.328   5.120  0.5672 -0.0949 -0.0869
  222ACOH    C110673   5.580   2.367   5.263  0.6544  0.7031  0.1162
  222ACOH    H110674   5.578   2.454   5.330  1.5409  0.2696  0.7067
  222ACOH    H210675   5.681   2.350   5.226  0.2089  0.9088 -1.2118
  222ACOH    H310676   5.550   2.278   5.318 -1.2805  1.2984  0.0783
  223ACOH    H410677   7.500   3.253   6.090 -0.2221 -0.5325 -1.2358
  223ACOH    O210678   7.475   3.346   6.106  0.3102 -0.6043  0.0142
  223ACOH    C210679   7.449   3.341   6.240  0.7589 -0.4368  0.2690
  223ACOH    O110680   7.459   3.249   6.321 -0.6633 -0.4467 -0.1126
  223ACOH    C110681   7.430   3.476   6.296 -0.2075 -0.9353  0.3298
  223ACOH    H110682   7.407   3.473   6.402 -1.0224  0.3275  0.1979
  223ACOH    H210683   7.351   3.535   6.249  0.2431 -0.8008 -0.2616
  223ACOH    H310684   7.527   3.524   6.284 -1.1579  0.7474 -0.8284
  224ACOH    H410685   6.233   2.848   4.788 -1.7750  1.4709  0.0068
  224ACOH    O210686   6.201   2.834   4.879  0.3704  1.2704  0.7390
  224ACOH    C210687   6.277   2.904   4.958  0.2091 -0.2635 -1.1008
  224ACOH    O110688   6.369   2.977   4.929 -0.0316 -0.2832 -0.0142
  224ACOH    C110689   6.243   2.874   5.103 -0.3732 -0.2806  0.0086
  224ACOH    H110690   6.218   2.967   5.155  2.5631 -0.8986  2.6178
  224ACOH    H210691   6.319   2.824   5.162 -1.1832 -1.0677  0.3884
  224ACOH    H310692   6.161   2.802   5.103 -2.0357  1.5530 -0.1048
  225ACOH    H410693   8.783   6.610   0.874 -0.3023 -0.0741  2.2042
  225ACOH    O210694   8.686   6.604   0.882 -0.4055 -1.0637  0.3710
  225ACOH    C210695   8.652   6.733   0.901  0.2589 -0.1023 -0.0791
  225ACOH    O110696   8.721   6.829   0.868  0.0844 -0.3185 -0.5700
  225ACOH    C110697   8.516   6.749   0.954 -0.4117  0.1990 -0.2275
  225ACOH    H110698   8.514   6.773   1.061 -1.5646 -1.5616  0.1539
  225ACOH    H210699   8.451   6.663   0.939 -0.4001  0.2695 -0.6902
  225ACOH    H310700   8.466   6.831   0.903 -3.7151 -0.8510  1.1919
  226ACOH    H410701   3.339   0.559   5.366 -0.4310  0.6884 -0.8958
  226ACOH    O210702   3.377   0.647   5.380 -0.4197  0.5796 -0.2157
  226ACOH    C210703   3.341   0.682   5.504  0.6017 -0.7525  0.4660
  226ACOH    O110704   3.289   0.607   5.584  0.7170 -0.0784  0.0426
  226ACOH    C110705   3.374   0.819   5.538  0.2684  0.7390  0.0432
  226ACOH    H110706   3.316   0.892   5.481 -0.9891 -2.4600 -2.9973
  226ACOH    H210707   3.481   0.823   5.518  0.4119 -0.3948  0.5690
  226ACOH    H310708   3.359   0.840   5.644 -0.1446 -0.6686  0.2673
  227ACOH    H410709   3.441   0.230   0.600 -0.8311 -0.2125  0.8768
  227ACOH    O210710   3.408   0.258   0.514  0.8024 -0.6857  0.0688
  227ACOH    C210711   3.493   0.195   0.423  0.7861 -0.1973 -0.5436
  227ACOH    O110712   3.594   0.135   0.453 -0.2096 -0.2240 -0.4711
  227ACOH    C110713   3.466   0.248   0.284  0.4463  0.4568 -1.1784
  227ACOH    H110714   3.500   0.178   0.208 -0.5484  1.4511 -2.5895
  227ACOH    H210715   3.523   0.340   0.270  1.3642  0.2687  1.2129
  227ACOH    H310716   3.362   0.268   0.258 -0.2902  1.4095  2.3458
  228ACOH    H410717   7.313   2.818   5.831  0.0189  0.0123 -2.4659
  228ACOH    O210718   7.350   2.908   5.832  0.4188 -0.1398 -0.4584
  228ACOH    C210719   7.406   2.931   5.713 -0.0660 -0.8252  0.2313
  228ACOH    O110720   7.402   2.865   5.610  0.3653  0.5482 -0.3973
  228ACOH    C110721   7.473   3.066   5.720  0.5490 -0.0554 -0.1600
  228ACOH    H110722   7.483   3.107   5.619  1.6986  1.3584  0.5095
  228ACOH    H210723   7.572   3.051   5.763  0.2980  1.1149  0.8599
  228ACOH    H310724   7.421   3.143   5.777  2.2832  0.7120  0.4244
  229ACOH    H410725   0.422   5.524   6.076  1.1296  0.0375 -0.0843
  229ACOH    O210726   0.474   5.478   6.145 -0.0259 -0.2907  0.5691
  229ACOH    C210727   0.506   5.361   6.084 -0.0060  0.7405  0.4804
  229ACOH    O110728   0.462   5.327   5.974  0.0314 -0.2862 -0.4553
  229ACOH    C110729   0.596   5.282   6.170 -0.1423 -0.7429  0.3612
  229ACOH    H110730   0.694   5.328   6.179 -0.3662  0.1852 -1.7590
  229ACOH    H210731   0.609   5.184   6.123 -0.4370 -1.5586  1.9432
  229ACOH    H310732   0.550   5.258   6.266  0.2111  0.7456  0.9104
  230ACOH    H410733   4.822   4.364   3.859  0.8934  0.3329  1.1169
  230ACOH    O210734   4.826   4.268   3.850  0.3255  0.3596  0.5449
  230ACOH    C210735   4.911   4.223   3.751 -0.8751  0.0644 -0.6462
  230ACOH    O110736   4.979   4.292   3.676  0.0019 -0.3755 -0.2040
  230ACOH    C110737   4.927   4.078   3.768  0.0759 -0.5507  0.3724
  230ACOH    H110738   4.997   4.051   3.847  1.8710  1.2746 -0.5192
  230ACOH    H210739   4.972   4.041   3.676 -0.8370 -1.2634  0.2045
  230ACOH    H310740   4.828   4.035   3.782 -0.5808  0.9712  0.5172
  231ACOH    H410741   7.867   5.002   5.117 -1.3257  0.8301 -2.5309
  231ACOH    O210742   7.808   5.063   5.165 -0.0077  0.0383  0.1557
  231ACOH    C210743   7.876   5.165   5.208 -0.3334 -0.1405  0.5945
  231ACOH    O110744   7.994   5.148   5.240  0.6381  0.1902 -0.1799
  231ACOH    C110745   7.777   5.246   5.288 -0.0162 -0.3466 -0.4373
  231ACOH    H110746   7.831   5.326   5.339  1.0917  1.3517 -4.0834
  231ACOH    H210747   7.734   5.185   5.367 -2.7625  1.6586 -0.3282
  231ACOH    H310748   7.705   5.294   5.222  2.0232  0.3575 -2.1959
  232ACOH    H410749   7.484   5.978   3.743  0.4672  0.2206  0.0819
  232ACOH    O210750   7.428   5.927   3.683  0.4241 -0.1708  0.4536
  232ACOH    C210751   7.407   6.006   3.577  0.2345  0.3189 -0.3568
  232ACOH    O110752   7.434   6.124   3.558  0.5899 -0.0678 -0.8490
  232ACOH    C110753   7.302   5.934   3.499  0.4032  0.1998 -0.0095
  232ACOH    H110754   7.247   6.006   3.440  0.0948  0.3871  0.5074
  232ACOH    H210755   7.234   5.886   3.570  0.4400 -0.0297 -0.1280
  232ACOH    H310756   7.354   5.865   3.432 -0.7617  0.2981 -1.0341
  233ACOH    H410757   6.439   8.762   2.894  1.4393 -1.6431 -0.4963
  233ACOH    O210758   6.412   8.729   2.981  0.1053  0.7268  0.0085
  233ACOH    C210759   6.513   8.645   3.017  0.2778 -0.4920  0.0737
  233ACOH    O110760   6.602   8.603   2.940  0.4196 -0.5288  0.1760
  233ACOH    C110761   6.507   8.617   3.157  0.7201 -0.2103 -0.7994
  233ACOH    H110762   6.571   8.531   3.175 -0.3083 -0.6063  1.1925
  233ACOH    H210763   6.405   8.590   3.186 -0.2605  3.5326 -0.4792
  233ACOH    H310764   6.529   8.709   3.211 -3.4543 -0.6399  1.8579
  234ACOH    H410765   6.983   7.471   5.855  0.8486  0.6313 -0.3162
  234ACOH    O210766   7.034   7.488   5.937  0.2193 -0.1896  0.2570
  234ACOH    C210767   7.015   7.619   5.969  0.2507 -0.0926  0.5538
  234ACOH    O110768   6.955   7.700   5.902  0.3405 -0.4508  0.2487
  234ACOH    C110769   7.075   7.650   6.104 -0.1375  0.0124  0.2785
  234ACOH    H110770   6.997   7.623   6.174 -2.0425  1.8020 -1.0751
  234ACOH    H210771   7.097   7.757   6.113  1.6818 -0.3057 -0.2681
  234ACOH    H310772   7.159   7.582   6.113  1.8633  2.2568 -0.7613
  235ACOH    H410773   3.255   9.997   0.544  0.1885 -0.2819  0.3273
  235ACOH    O210774   3.333   9.981   0.600  0.4004  0.0878  0.1387
  235ACOH    C210775   3.367   9.855   0.569  0.1465 -0.3400 -0.3960
  235ACOH    O110776   3.358   9.807   0.461 -0.5773 -0.1162  0.8324
  235ACOH    C110777   3.445   9.791   0.673  0.0849  0.5766  0.1743
  235ACOH    H110778   3.402   9.825   0.768  0.3982  2.2252 -0.2600
  235ACOH    H210779   3.550   9.821   0.677  0.8615 -2.0601  0.4410
  235ACOH    H310780   3.433   9.683   0.661  0.6447  0.4464  0.7635
  236ACOH    H410781   6.931   3.440   4.929  0.8315  0.6304 -1.3884
  236ACOH    O210782   6.921   3.343   4.940  0.1428  0.7962 -0.4293
  236ACOH    C210783   6.967   3.280   4.825  0.6029 -0.9653 -0.1302
  236ACOH    O110784   7.030   3.330   4.735 -0.5715 -0.3633 -0.3407
  236ACOH    C110785   6.951   3.141   4.841 -0.4860  0.6172  0.7568
  236ACOH    H110786   6.901   3.098   4.754 -0.1366 -0.5648  1.1242
  236ACOH    H210787   6.903   3.100   4.930  0.3407  1.4129  1.5791
  236ACOH    H310788   7.051   3.099   4.841 -1.2886 -1.3553  0.0660
  237ACOH    H410789   4.727   7.650   4.163 -0.3069 -1.8736 -1.3740
  237ACOH    O210790   4.636   7.653   4.199  0.5115 -0.0559  0.6517
  237ACOH    C210791   4.648   7.632   4.330 -0.3142 -0.0128  0.0906
  237ACOH    O110792   4.744   7.628   4.403 -0.3860  0.6653 -0.0497
  237ACOH    C110793   4.514   7.634   4.390  0.8024 -0.1023 -0.0666
  237ACOH    H110794   4.481   7.552   4.453  0.4468 -0.7644 -1.0978
  237ACOH    H210795   4.433   7.640   4.317  0.3181 -2.3636  0.2619
  237ACOH    H310796   4.519   7.729   4.444 -0.6259  0.1936 -0.4142
  238ACOH    H410797   7.175   6.137   0.025  0.8134  0.5775  2.4582
  238ACOH    O210798   7.181   6.224  -0.017 -0.0065 -0.5492 -0.1095
  238ACOH    C210799   7.245   6.222  -0.132 -0.0578 -0.2636 -0.0314
  238ACOH    O110800   7.275   6.119  -0.185 -0.0077 -0.1484 -0.9116
  238ACOH    C110801   7.276   6.356  -0.188 -0.1609  0.1273 -0.4816
  238ACOH    H110802   7.234   6.435  -0.127 -0.1707 -0.2764  0.0391
  238ACOH    H210803   7.228   6.356  -0.286 -0.0415  1.2446 -0.5408
  238ACOH    H310804   7.384   6.365  -0.192 -0.1762  0.8633  0.6517
  239ACOH    H410805   3.367   7.948   0.256  0.3276  0.1702  0.2906
  239ACOH    O210806   3.395   7.857   0.276  0.1526 -0.1008 -0.6768
  239ACOH    C210807   3.365   7.833   0.403  0.1745 -0.0742  0.7737
  239ACOH    O110808   3.266   7.873   0.460  0.2084 -0.1783 -0.2658
  239ACOH    C110809   3.456   7.726   0.449 -0.1611 -0.0723 -0.6770
  239ACOH    H110810   3.509   7.770   0.534 -3.2121  0.0037  1.2788
  239ACOH    H210811   3.523   7.679   0.377  2.3139  2.2226  0.0183
  239ACOH    H310812   3.392   7.649   0.491  2.2896 -0.5456  2.3701
  240ACOH    H410813   4.211   7.571   0.873  2.8033 -1.1819  2.2714
  240ACOH    O210814   4.248   7.516   0.802  0.3741 -0.3498  0.2649
  240ACOH    C210815   4.246   7.397   0.856  0.9619 -0.2380 -0.3129
  240ACOH    O110816   4.212   7.358   0.965 -0.1747  0.1559 -0.3546
  240ACOH    C110817   4.311   7.299   0.762  0.4734  0.7641 -0.4692
  240ACOH    H110818   4.338   7.346   0.668 -2.8025  1.1539 -1.2838
  240ACOH    H210819   4.240   7.218   0.744  0.5481  0.5384  0.2398
  240ACOH    H310820   4.400   7.265   0.815 -0.9299 -0.5398  1.0958
  241ACOH    H410821   4.366   2.644   1.387 -1.3336 -0.6364  1.7666
  241ACOH    O210822   4.361   2.740   1.403 -0.0620 -0.2583 -0.0455
  241ACOH    C210823   4.466   2.779   1.484  0.3315 -0.6696  0.9705
  241ACOH    O110824   4.531   2.708   1.559 -0.5205 -0.2092  0.4112
  241ACOH    C110825   4.473   2.930   1.479 -0.1299 -0.0367 -0.1146
  241ACOH    H110826   4.573   2.974   1.477 -0.4012  0.5427 -1.7469
  241ACOH    H210827   4.424   2.985   1.559  0.8999 -2.4600  2.2999
  241ACOH    H310828   4.437   2.958   1.380  0.5525  2.3269  0.2720
  242ACOH    H410829   6.341   5.171   1.629  1.9757 -3.1525 -1.1999
  242ACOH    O210830   6.370   5.175   1.722 -0.7529  0.2393 -0.3891
  242ACOH    C210831   6.494   5.113   1.721  0.4541 -0.4112  0.3738
  242ACOH    O110832   6.525   5.027   1.643 -0.0494 -0.3364 -0.0630
  242ACOH    C110833   6.565   5.150   1.847  0.6260 -0.6804 -0.1817
  242ACOH    H110834   6.590   5.255   1.832  1.2641 -0.7780  0.2006
  242ACOH    H210835   6.655   5.089   1.853  0.9880 -0.2926 -1.5405
  242ACOH    H310836   6.500   5.152   1.935  0.7096 -0.9516 -0.1145
  243ACOH    H410837   8.134   5.639   0.411 -0.6044  0.9775 -0.2647
  243ACOH    O210838   8.074   5.600   0.346 -0.0415  0.2452 -0.3625
  243ACOH    C210839   7.980   5.526   0.414 -0.5823 -0.1596  0.5956
  243ACOH    O110840   7.990   5.493   0.533  0.0386  0.6111  0.0414
  243ACOH    C110841   7.877   5.469   0.328  0.9103  0.8631  0.5138
  243ACOH    H110842   7.776   5.498   0.357  0.9036  0.3042  1.0549
  243ACOH    H210843   7.887   5.361   0.316 -1.5290  0.5198  1.3206
  243ACOH    H310844   7.886   5.518   0.231  0.2038  0.3632  0.1916
  244ACOH    H410845   8.754   3.921   1.967  0.4115 -0.4456  0.8331
  244ACOH    O210846   8.752   3.864   1.888  0.3238  0.6095  0.0704
  244ACOH    C210847   8.625   3.844   1.870  0.4037 -0.2448  0.6519
  244ACOH    O110848   8.530   3.882   1.931  0.4218 -0.1702 -0.6098
  244ACOH    C110849   8.610   3.745   1.764  0.0764  0.1392 -0.1058
  244ACOH    H110850   8.683   3.752   1.683  1.0988  0.6131  0.8474
  244ACOH    H210851   8.512   3.757   1.717  1.2088  1.2631 -2.2811
  244ACOH    H310852   8.622   3.642   1.799 -2.4691  0.0653  0.6562
  245ACOH    H410853   6.024   2.240   2.960 -0.8160  0.7491  1.4752
  245ACOH    O210854   5.961   2.247   2.886  0.8246  0.3462 -0.0059
  245ACOH    C210855   5.852   2.315   2.926  0.1812 -0.6926  0.0486
  245ACOH    O110856   5.838   2.379   3.029 -0.1920  0.2290 -0.6041
  245ACOH    C110857   5.743   2.311   2.824  0.9311 -0.0102  0.8890
  245ACOH    H110858   5.740   2.409   2.775  0.1491  0.2975  1.5498
  245ACOH    H210859   5.646   2.298   2.871  0.4977 -0.1047 -0.0209
  245ACOH    H310860   5.759   2.231   2.751  0.5235  0.2161  0.5471
  246ACOH    H410861   6.272   7.978   5.318  1.5575  2.1178  2.5381
  246ACOH    O210862   6.216   7.927   5.379  0.3116 -0.4000 -0.5648
  246ACOH    C210863   6.148   7.828   5.320 -0.1723 -0.2984  0.3334
  246ACOH    O110864   6.146   7.806   5.198  0.3956 -0.1723 -0.3760
  246ACOH    C110865   6.087   7.744   5.423 -0.2496  0.6807 -0.4970
  246ACOH    H110866   6.056   7.653   5.371  0.1184  0.4222 -0.2586
  246ACOH    H210867   5.994   7.780   5.467 -1.7923 -0.8291 -2.3890
  246ACOH    H310868   6.158   7.717   5.500 -1.1186  1.1276  0.4710
  247ACOH    H410869   8.303   6.227   6.083 -0.3320  0.9830 -0.0222
  247ACOH    O210870   8.309   6.246   6.178 -0.7021  0.0494  0.1901
  247ACOH    C210871   8.439   6.274   6.209  0.1834  0.1081  0.3033
  247ACOH    O110872   8.518   6.296   6.122 -0.0667  0.1637 -0.1713
  247ACOH    C110873   8.451   6.332   6.342 -0.5532  0.2048 -0.1737
  247ACOH    H110874   8.557   6.334   6.367 -0.4844  1.6345 -0.5469
  247ACOH    H210875   8.404   6.262   6.412 -0.5608  1.0919  0.7174
  247ACOH    H310876   8.411   6.432   6.356 -0.2599  0.1686  1.0171
  248ACOH    H410877   7.594   5.830   3.320  0.0577  1.2594  1.1173
  248ACOH    O210878   7.561   5.744   3.352  1.0613  0.1838 -0.6876
  248ACOH    C210879   7.610   5.722   3.474 -0.0870  0.1399  0.8131
  248ACOH    O110880   7.706   5.777   3.529  0.0293  0.5249  0.1414
  248ACOH    C110881   7.547   5.600   3.530  0.6097 -0.2142  1.2239
  248ACOH    H110882   7.505   5.632   3.626  0.7367  1.7102  0.6661
  248ACOH    H210883   7.626   5.529   3.551  0.4902 -0.6639  0.1786
  248ACOH    H310884   7.468   5.550   3.473  0.5125  0.2110  0.9782
  249ACOH    H410885   0.470   4.232   5.633  0.4649  1.0543  2.4330
  249ACOH    O210886   0.436   4.149   5.672  0.5499 -0.1704  0.0266
  249ACOH    C210887   0.535   4.057   5.668  0.2660 -0.6427 -0.0457
  249ACOH    O110888   0.647   4.062   5.620  0.4435 -0.0367  0.4912
  249ACOH    C110889   0.477   3.944   5.743 -0.3328 -0.5015  0.7727
  249ACOH    H110890   0.368   3.950   5.754 -0.2903 -1.0744  1.5284
  249ACOH    H210891   0.522   3.930   5.841 -1.7473  0.3084  1.5499
  249ACOH    H310892   0.504   3.856   5.685 -1.4239  1.3031 -2.6350
  250ACOH    H410893   2.724   1.789   2.822  0.7157 -0.8169  0.9335
  250ACOH    O210894   2.745   1.726   2.751 -0.3861  0.0161 -0.1490
  250ACOH    C210895   2.674   1.618   2.777  0.4992  0.2620  0.4616
  250ACOH    O110896   2.589   1.615   2.867  0.5609  0.1235  0.1660
  250ACOH    C110897   2.673   1.511   2.673  0.5628 -0.2786  0.2726
  250ACOH    H110898   2.766   1.522   2.619 -1.6224  1.3147 -3.3545
  250ACOH    H210899   2.599   1.523   2.594 -0.4140 -2.1399  0.8482
  250ACOH    H310900   2.652   1.411   2.711 -0.2779 -1.2643 -2.6387
  251ACOH    H410901   0.874   7.740   4.640 -0.6750  2.3956  1.0788
  251ACOH    O210902   0.927   7.711   4.716 -0.1288 -0.1716 -0.2322
  251ACOH    C210903   0.858   7.620   4.785 -0.2763 -0.3761 -0.2462
  251ACOH    O110904   0.740   7.610   4.765 -0.2695 -0.1232  0.0808
  251ACOH    C110905   0.937   7.561   4.896 -1.1164  0.7839 -0.3993
  251ACOH    H110906   0.874   7.495   4.956 -1.4268 -0.9962 -2.6277
  251ACOH    H210907   0.983   7.637   4.959  1.4048 -0.8709 -0.1876
  251ACOH    H310908   1.014   7.496   4.856 -1.0936  1.2480 -1.1094
  252ACOH    H410909   4.716   8.843   6.065  0.2855 -1.1214 -0.1185
  252ACOH    O210910   4.807   8.828   6.095  0.4674  0.1826  0.0141
  252ACOH    C210911   4.827   8.696   6.108  0.6981  0.7298 -0.6795
  252ACOH    O110912   4.763   8.602   6.069  0.5020  0.3136 -0.6923
  252ACOH    C110913   4.954   8.676   6.179 -0.1733  0.3238 -0.3394
  252ACOH    H110914   4.987   8.577   6.149 -2.2738 -0.0619 -1.4407
  252ACOH    H210915   4.932   8.673   6.286 -1.6986  3.5445 -0.5141
  252ACOH    H310916   5.021   8.759   6.159  0.9960 -0.7641 -0.9979
  253ACOH    H410917   8.179   8.564   0.148  1.0209  0.0427  1.8472
  253ACOH    O210918   8.088   8.564   0.181  0.2654 -0.1371 -0.2083
  253ACOH    C210919   8.010   8.598   0.076  0.3553  0.2152  0.2025
  253ACOH    O110920   8.044   8.679  -0.006  0.0712 -0.0070  0.0178
  253ACOH    C110921   7.868   8.558   0.084 -0.5969  0.1578 -0.3368
  253ACOH    H110922   7.836   8.497   0.000 -1.6548 -0.2868  0.3878
  253ACOH    H210923   7.810   8.650   0.092  0.5418  0.6159  4.5247
  253ACOH    H310924   7.855   8.494   0.172  2.2886 -1.7349 -1.1965
  254ACOH    H410925   3.469   7.069   1.391  0.6638 -0.9586 -0.9647
  254ACOH    O210926   3.453   7.129   1.316 -0.5339 -0.2009 -0.1174
  254ACOH    C210927   3.322   7.142   1.304  0.1881 -0.4629 -0.2793
  254ACOH    O110928   3.242   7.071   1.365 -0.3212  0.0402  0.1158
  254ACOH    C110929   3.284   7.244   1.200  0.5009  0.3545 -0.1828
  254ACOH    H110930   3.328   7.212   1.106  0.9783  1.4943 -0.3656
  254ACOH    H210931   3.336   7.337   1.227  1.0675  0.1457 -0.5312
  254ACOH    H310932   3.176   7.262   1.201  0.4453 -0.0422  0.5913
  255ACOH    H410933   6.206   4.078   0.396 -1.1274  0.1292  0.5574
  255ACOH    O210934   6.222   4.041   0.485  0.7572  0.3416  0.3081
  255ACOH    C210935   6.108   3.981   0.525 -0.0644  0.7170 -0.2658
  255ACOH    O110936   6.006   3.979   0.455 -0.2252  0.3324 -0.6548
  255ACOH    C110937   6.127   3.898   0.646 -0.4966 -0.0936 -0.0423
  255ACOH    H110938   6.047   3.924   0.715  0.0403 -2.4234  1.5472
  255ACOH    H210939   6.220   3.906   0.704 -1.0025 -0.1415  0.7921
  255ACOH    H310940   6.107   3.797   0.610 -3.1125  0.9548 -1.6503
  256ACOH    H410941   4.901   4.004   3.278 -0.7373  1.7923 -0.9980
  256ACOH    O210942   4.993   4.004   3.247 -0.3517 -0.5569  0.0610
  256ACOH    C210943   4.991   3.893   3.165 -0.3500 -0.0303 -0.2076
  256ACOH    O110944   4.902   3.813   3.144  0.6992  0.0306 -0.6128
  256ACOH    C110945   5.130   3.877   3.111  1.0140 -0.1524  0.5623
  256ACOH    H110946   5.136   3.945   3.026 -1.1825  1.3583  1.5951
  256ACOH    H210947   5.153   3.774   3.084  2.0863 -0.1455  1.3916
  256ACOH    H310948   5.205   3.904   3.186  1.2800 -1.1262  0.6524
  257ACOH    H410949   7.674   7.039   5.651  0.0825 -2.0791 -0.4737
  257ACOH    O210950   7.690   7.055   5.557  0.7411  0.5357  0.0537
  257ACOH    C210951   7.695   7.188   5.541  0.1681 -0.1573  0.4461
  257ACOH    O110952   7.681   7.272   5.629  0.5907 -0.1931 -0.2429
  257ACOH    C110953   7.733   7.212   5.398 -0.7031 -0.5923  0.5109
  257ACOH    H110954   7.681   7.137   5.339  1.9186 -1.8779 -0.2658
  257ACOH    H210955   7.840   7.204   5.380 -0.6728  0.0985  0.3494
  257ACOH    H310956   7.709   7.314   5.368  1.2962 -0.0161  0.7638
  258ACOH    H410957   6.758   6.491   4.132 -3.2030 -0.2010  1.5065
  258ACOH    O210958   6.730   6.417   4.076  0.0753 -0.6747  0.3299
  258ACOH    C210959   6.782   6.305   4.121 -0.0691  0.1180 -0.5825
  258ACOH    O110960   6.851   6.280   4.217  0.3289  0.2491  0.5319
  258ACOH    C110961   6.716   6.190   4.055 -0.1601  0.5708 -0.1417
  258ACOH    H110962   6.611   6.180   4.083  0.1357  0.5279  0.9677
  258ACOH    H210963   6.772   6.098   4.065  0.3586  0.6904 -1.6941
  258ACOH    H310964   6.714   6.214   3.948  1.8048 -1.5315 -0.6736
  259ACOH    H410965   5.221   2.598   2.162  0.1400 -2.2268 -0.7970
  259ACOH    O210966   5.318   2.597   2.156  0.2321 -0.1559 -0.0574
  259ACOH    C210967   5.365   2.697   2.231 -0.7071  0.2086  0.4722
  259ACOH    O110968   5.300   2.778   2.294  0.3415  0.7152 -0.1257
  259ACOH    C110969   5.519   2.697   2.216  0.4138 -0.4995  0.2267
  259ACOH    H110970   5.549   2.775   2.286  1.2158 -0.2513 -0.3850
  259ACOH    H210971   5.542   2.718   2.111  0.8984  0.6652  0.5568
  259ACOH    H310972   5.566   2.604   2.247 -0.8006 -0.6086  1.7906
  260ACOH    H410973   4.983   3.793   2.650 -1.2095 -0.4306  0.3592
  260ACOH    O210974   5.018   3.705   2.626  0.3798  0.3762 -0.3417
  260ACOH    C210975   5.008   3.703   2.494 -0.4051  0.5620  0.6106
  260ACOH    O110976   4.965   3.789   2.418 -0.1675  0.5085 -0.6993
  260ACOH    C110977   5.063   3.574   2.444 -0.5678  0.2649 -0.0146
  260ACOH    H110978   5.113   3.527   2.529  0.1386  0.1998 -0.4660
  260ACOH    H210979   5.136   3.595   2.366 -0.9059  0.3458 -0.3135
  260ACOH    H310980   4.987   3.513   2.395 -1.1120  0.3944  0.6562
  261ACOH    H410981   4.162   6.881   3.576  1.6945 -0.5305 -0.2010
  261ACOH    O210982   4.171   6.785   3.585 -0.1434 -0.7341 -0.4287
  261ACOH    C210983   4.187   6.726   3.468 -0.6791 -0.3400  0.2426
  261ACOH    O110984   4.243   6.772   3.372  0.1013 -0.6266 -0.8139
  261ACOH    C110985   4.158   6.582   3.476  0.6141 -0.0731 -0.1913
  261ACOH    H110986   4.197   6.519   3.397 -0.6453  1.6292 -2.2320
  261ACOH    H210987   4.051   6.561   3.480  0.6473 -0.2649 -0.3050
  261ACOH    H310988   4.201   6.551   3.571  0.1309  0.5314  0.2354
  262ACOH    H410989   8.018   1.658   1.027 -3.1995  2.0618  1.5746
  262ACOH    O210990   7.966   1.582   0.994 -0.0480  0.2591  0.5519
  262ACOH    C210991   8.049   1.493   0.940  0.8854  0.6964 -0.1577
  262ACOH    O110992   8.166   1.496   0.910  0.0514 -0.7340  0.0432
  262ACOH    C110993   7.954   1.388   0.902  0.2076  1.0290  0.2403
  262ACOH    H110994   8.000   1.329   0.822 -0.9017 -0.3086  0.5728
  262ACOH    H210995   7.855   1.416   0.866 -1.0372 -0.9600  1.9899
  262ACOH    H310996   7.935   1.317   0.983  0.1935  0.8040  0.0435
  263ACOH    H410997   7.424   4.794   4.912  1.5542 -0.3409  2.0358
  263ACOH    O210998   7.419   4.889   4.931 -0.0475  0.1049 -0.3641
  263ACOH    C210999   7.517   4.954   4.877 -0.1924 -0.3511  0.0609
  263ACOH    O111000   7.599   4.919   4.794 -0.9611  0.0159  0.3998
  263ACOH    C111001   7.525   5.092   4.943  0.2762 -0.7878 -0.3348
  263ACOH    H111002   7.426   5.139   4.938  1.0087  0.8892  0.4645
  263ACOH    H211003   7.599   5.163   4.907 -1.3144  0.5829 -1.0092
  263ACOH    H311004   7.546   5.083   5.049 -0.9206 -1.5897 -0.1538
  264ACOH    H411005   2.320   2.775   2.738  0.3303  0.4259  0.0499
  264ACOH    O211006   2.377   2.711   2.783 -0.1597  0.2286  0.3960
  264ACOH    C211007   2.313   2.622   2.854  0.3117 -0.2141 -0.6256
  264ACOH    O111008   2.202   2.631   2.896 -0.1424 -0.6635  0.1193
  264ACOH    C111009   2.388   2.497   2.855 -0.2838  0.4824  0.1234
  264ACOH    H111010   2.484   2.499   2.907  0.5888 -0.2028 -1.4464
  264ACOH    H211011   2.417   2.468   2.755 -1.3238 -2.0013  0.5113
  264ACOH    H311012   2.323   2.417   2.890 -1.6161  1.5542  0.1668
  265ACOH    H411013   6.328   1.023   2.959 -2.0183 -0.0924  0.2740
  265ACOH    O211014   6.309   1.118   2.965  0.5942  0.4900 -0.2174
  265ACOH    C211015   6.181   1.130   3.003  0.3796  0.7325 -0.0858
  265ACOH    O111016   6.104   1.055   3.063  0.4399  0.0434  0.3668
  265ACOH    C111017   6.137   1.272   2.992 -0.2823  0.5562  0.2313
  265ACOH    H111018   6.048   1.277   2.928  0.1859  1.9699 -0.3188
  265ACOH    H211019   6.213   1.333   2.945 -2.0321  1.1071 -2.0117
  265ACOH    H311020   6.103   1.311   3.087  0.3567  4.3390 -1.0359
  266ACOH    H411021   2.558   9.020   2.878  0.1182  1.1629 -0.1530
  266ACOH    O211022   2.604   8.962   2.815  0.4992  0.8147  0.4424
  266ACOH    C211023   2.631   8.847   2.883  0.6071  0.5822  0.3916
  266ACOH    O111024   2.605   8.833   3.003  0.0597  0.0789 -0.1489
  266ACOH    C111025   2.686   8.735   2.804  0.1786  0.8140 -0.3567
  266ACOH    H111026   2.755   8.762   2.724  2.1207 -1.7505  0.3628
  266ACOH    H211027   2.610   8.677   2.751  0.2800  1.9139 -1.7119
  266ACOH    H311028   2.746   8.671   2.869 -0.8216  1.0557  0.8165
  267ACOH    H411029   6.775   3.055   2.375 -1.7286  0.9128  0.6123
  267ACOH    O211030   6.745   3.004   2.298  0.6170  0.6260 -0.1613
  267ACOH    C211031   6.754   2.877   2.343 -0.6088 -0.0517 -0.2382
  267ACOH    O111032   6.787   2.838   2.453 -0.6643  0.2273  0.3571
  267ACOH    C111033   6.684   2.783   2.251  0.1976  0.3983  0.2305
  267ACOH    H111034   6.594   2.823   2.205 -0.1783 -2.5807 -1.7718
  267ACOH    H211035   6.657   2.692   2.304  1.6893 -1.6430 -2.3517
  267ACOH    H311036   6.744   2.746   2.167  0.5742 -0.1573  0.7414
  268ACOH    H411037   4.833   3.884   2.073  1.3805  0.6941  2.4406
  268ACOH    O211038   4.742   3.860   2.100  0.6210 -0.0065 -0.5921
  268ACOH    C211039   4.668   3.970   2.114 -0.9242  0.5296  0.1076
  268ACOH    O111040   4.700   4.076   2.163  0.5651  0.5727 -0.7271
  268ACOH    C111041   4.522   3.936   2.088 -0.4598 -0.8220  0.2172
  268ACOH    H111042   4.508   3.922   1.980  0.1838 -1.4830  0.2188
  268ACOH    H211043   4.455   4.009   2.133  0.0488 -0.9986  1.2743
  268ACOH    H311044   4.487   3.838   2.123  0.6187 -1.0796  0.5844
  269ACOH    H411045   3.843   1.874   0.573 -1.0379  0.0007 -0.1053
  269ACOH    O211046   3.882   1.854   0.486 -0.4943  0.4330  0.0366
  269ACOH    C211047   3.953   1.959   0.449  0.4037  0.3652  0.0320
  269ACOH    O111048   3.933   2.071   0.495  0.4970 -0.7394 -0.2249
  269ACOH    C111049   4.062   1.933   0.351 -0.0135  0.6906 -0.0606
  269ACOH    H111050   4.068   1.825   0.334 -1.2862  0.3927  1.1872
  269ACOH    H211051   4.153   1.964   0.401 -0.9955 -0.2748  2.4304
  269ACOH    H311052   4.053   1.989   0.258 -2.0668  0.6076  0.0522
  270ACOH    H411053   5.182   4.632   1.854 -0.5252 -1.1702 -1.7613
  270ACOH    O211054   5.266   4.597   1.890 -0.2105  0.4064 -0.8912
  270ACOH    C211055   5.252   4.462   1.907  0.3876  0.5640  0.2950
  270ACOH    O111056   5.151   4.399   1.891  0.6338  1.2433  0.0802
  270ACOH    C111057   5.372   4.405   1.974 -0.2777  0.5776  0.1871
  270ACOH    H111058   5.433   4.346   1.905  2.5152  1.9084  1.4583
  270ACOH    H211059   5.341   4.350   2.063  1.2718  1.6337  1.4046
  270ACOH    H311060   5.432   4.487   2.012  0.5774 -0.6691  1.5516
  271ACOH    H411061   5.746   0.485   0.944  2.3068  1.0079  1.2189
  271ACOH    O211062   5.752   0.420   1.017  0.3996 -0.4360  0.1470
  271ACOH    C211063   5.874   0.438   1.073 -0.4856  0.5994 -0.2611
  271ACOH    O111064   5.954   0.523   1.040 -0.0159 -0.1193  0.0957
  271ACOH    C111065   5.902   0.344   1.185 -0.2480 -0.5404 -0.4940
  271ACOH    H111066   6.004   0.364   1.217 -0.8504 -1.1697  1.9783
  271ACOH    H211067   5.895   0.241   1.148 -0.5501 -1.6274  2.3915
  271ACOH    H311068   5.821   0.347   1.259  0.3862 -0.4165  0.2033
  272ACOH    H411069   5.136   7.094   1.184  0.3365 -0.4441 -1.2404
  272ACOH    O211070   5.233   7.084   1.176  0.4695 -0.3833  0.2236
  272ACOH    C211071   5.263   6.955   1.142  0.6718  0.3538  0.7001
  272ACOH    O111072   5.187   6.858   1.165  0.2185 -0.7963  0.2483
  272ACOH    C111073   5.412   6.940   1.122  0.1131 -0.0880 -1.2474
  272ACOH    H111074   5.445   6.838   1.142  2.3268  1.0507  1.3529
  272ACOH    H211075   5.466   7.007   1.189 -0.5679 -0.1059 -0.6836
  272ACOH    H311076   5.431   6.972   1.020  1.3298  0.4332 -0.8767
  273ACOH    H411077   8.649   5.353   1.762 -0.0205 -0.6415  1.5309
  273ACOH    O211078   8.675   5.445   1.779 -0.1532 -0.2491 -0.2142
  273ACOH    C211079   8.587   5.509   1.856 -0.6519  1.2412  0.0815
  273ACOH    O111080   8.501   5.456   1.921 -0.5441 -0.0565 -0.6150
  273ACOH    C111081   8.601   5.653   1.849 -0.1030 -0.5290  0.1306
  273ACOH    H111082   8.676   5.688   1.778  0.8380  0.6211  1.6658
  273ACOH    H211083   8.617   5.687   1.951 -1.1657  0.2731  0.0403
  273ACOH    H311084   8.502   5.694   1.827  0.9875  1.0472 -2.0346
  274ACOH    H411085   4.862   9.406   6.007  0.9057  0.2630 -1.4791
  274ACOH    O211086   4.858   9.309   5.997 -0.3542  0.1324  0.1560
  274ACOH    C211087   4.973   9.258   5.948  0.0860  0.4280  0.0960
  274ACOH    O111088   5.070   9.310   5.896  0.3859  0.5566  0.1271
  274ACOH    C111089   4.976   9.118   5.997  0.2104 -0.1580  0.0680
  274ACOH    H111090   4.902   9.112   6.077  1.4348 -0.1072  1.2287
  274ACOH    H211091   5.077   9.088   6.026  0.4437  1.8119  1.3521
  274ACOH    H311092   4.948   9.045   5.921 -0.9129  1.0220 -0.6676
  275ACOH    H411093   0.545   1.433   5.589  0.9189  1.7404 -1.0888
  275ACOH    O211094   0.467   1.477   5.626  0.3064 -0.1553 -0.0458
  275ACOH    C211095   0.408   1.388   5.712  0.8172  0.6539  0.0851
  275ACOH    O111096   0.453   1.279   5.749  0.1646 -0.2283  0.3377
  275ACOH    C111097   0.273   1.433   5.763 -0.6484  0.0160  0.1682
  275ACOH    H111098   0.281   1.538   5.793  0.9226  0.0607 -0.3870
  275ACOH    H211099   0.238   1.377   5.850  1.9933 -0.4753  0.9423
  275ACOH    H311100   0.201   1.432   5.682 -0.1034  1.1929 -0.3390
  276ACOH    H411101   6.239   6.668   5.554  0.8074  0.6101 -0.9774
  276ACOH    O211102   6.178   6.683   5.480 -0.6967 -0.4918  0.0196
  276ACOH    C211103   6.256   6.644   5.376 -0.3538 -0.2155 -0.1706
  276ACOH    O111104   6.370   6.603   5.373  0.6471  0.6152  0.1005
  276ACOH    C111105   6.180   6.666   5.253  0.4743 -1.2315  0.0896
  276ACOH    H111106   6.173   6.571   5.200  1.6515 -2.0475  1.3558
  276ACOH    H211107   6.238   6.731   5.189 -0.1252 -2.1614 -1.4163
  276ACOH    H311108   6.082   6.713   5.263  0.4097 -0.9462 -1.8162
  277ACOH    H411109   0.926   2.301   6.593 -1.7138 -2.8201  0.0032
  277ACOH    O211110   1.011   2.254   6.593 -0.4249 -0.5466  0.7210
  277ACOH    C211111   1.051   2.221   6.721  1.2052 -0.0871  0.0278
  277ACOH    O111112   0.975   2.213   6.818  0.4683 -0.2156 -0.3838
  277ACOH    C111113   1.198   2.202   6.724  0.3323 -0.5369 -0.1961
  277ACOH    H111114   1.227   2.105   6.764 -2.8181 -2.2274 -1.8606
  277ACOH    H211115   1.242   2.276   6.792 -0.0012  1.0206 -1.6477
  277ACOH    H311116   1.243   2.221   6.627  1.9717  0.9912  0.8158
  278ACOH    H411117   1.137   3.133   4.109  1.7568 -1.6333 -0.1048
  278ACOH    O211118   1.147   3.125   4.206 -0.1912  0.0542  0.2529
  278ACOH    C211119   1.150   2.997   4.239 -0.3037 -0.5995 -0.0897
  278ACOH    O111120   1.093   2.908   4.183  0.3315  0.6050 -0.4459
  278ACOH    C111121   1.198   2.985   4.378  0.1681 -0.4293 -0.8557
  278ACOH    H111122   1.297   3.030   4.380 -0.0680  0.1797 -2.2988
  278ACOH    H211123   1.186   2.891   4.433  0.2483 -0.0226 -0.1366
  278ACOH    H311124   1.139   3.050   4.443 -1.8957 -0.9711 -2.1356
  279ACOH    H411125   4.449   4.963   3.523  1.6950 -1.8361  1.1869
  279ACOH    O211126   4.519   5.009   3.475  0.2420 -0.1087  0.6858
  279ACOH    C211127   4.460   5.043   3.358 -0.3382 -0.3954  0.1328
  279ACOH    O111128   4.341   5.051   3.336  0.4690  0.2610  0.0386
  279ACOH    C111129   4.562   5.103   3.263 -0.2686 -0.5806 -0.1108
  279ACOH    H111130   4.511   5.146   3.177  0.6198 -0.9592 -0.8299
  279ACOH    H211131   4.628   5.023   3.229  0.4019 -0.6709  1.3633
  279ACOH    H311132   4.628   5.171   3.316 -1.3186  0.0860  0.3690
  280ACOH    H411133   7.066   6.026   0.471  2.1893 -0.6939 -0.6154
  280ACOH    O211134   7.062   6.089   0.396 -0.0118 -0.3817 -0.2508
  280ACOH    C211135   7.110   6.212   0.431 -0.5188  0.3274  0.0925
  280ACOH    O111136   7.143   6.247   0.545  0.7068 -0.0274 -0.8708
  280ACOH    C111137   7.116   6.311   0.317  0.4177 -0.2934  0.0480
  280ACOH    H111138   7.151   6.411   0.340 -1.3659  0.5870 -1.0118
  280ACOH    H211139   7.024   6.311   0.259  1.6878  0.7359 -2.0217
  280ACOH    H311140   7.193   6.271   0.251  0.8076 -1.7858  1.3623
  281ACOH    H411141   5.115   8.463   5.126  0.0588 -0.3774  0.8896
  281ACOH    O211142   5.079   8.501   5.208 -0.2406  0.4881  0.3674
  281ACOH    C211143   5.181   8.567   5.265  0.1725 -0.8762 -0.1828
  281ACOH    O111144   5.300   8.540   5.254 -0.1655 -0.2107  1.0383
  281ACOH    C111145   5.127   8.657   5.371  0.4790  0.3705  0.0073
  281ACOH    H111146   5.191   8.745   5.374  1.6833 -0.3291 -2.9927
  281ACOH    H211147   5.130   8.601   5.464 -1.4733 -2.2198 -1.4260
  281ACOH    H311148   5.027   8.699   5.355  0.8262  1.2241  0.0817
  282ACOH    H411149   6.871   4.439   5.210  0.2733 -0.1972  1.0993
  282ACOH    O211150   6.817   4.357   5.209  0.0293 -0.0332  0.2167
  282ACOH    C211151   6.900   4.264   5.260 -0.3284 -0.2259 -0.7507
  282ACOH    O111152   7.019   4.280   5.283 -0.6993 -0.1007  0.4389
  282ACOH    C111153   6.838   4.130   5.274 -0.4078  0.0920  0.2226
  282ACOH    H111154   6.729   4.138   5.266 -0.1217  2.4062 -2.0350
  282ACOH    H211155   6.872   4.097   5.372 -2.9809  0.0313  1.1250
  282ACOH    H311156   6.882   4.066   5.198  0.0169 -0.2533  0.7624
  283ACOH    H411157   5.037   5.247   4.539  0.4909  0.8070 -0.3627
  283ACOH    O211158   5.086   5.323   4.574  0.2931  0.7130  0.1332
  283ACOH    C211159   5.190   5.337   4.489 -0.1058 -0.2554  0.7566
  283ACOH    O111160   5.214   5.266   4.391 -0.2187  0.1989  0.0264
  283ACOH    C111161   5.301   5.418   4.545 -0.2066 -0.0091  0.4613
  283ACOH    H111162   5.358   5.465   4.464 -0.1624 -0.5798  0.1603
  283ACOH    H211163   5.361   5.354   4.610  0.7761  1.5806  1.1519
  283ACOH    H311164   5.262   5.504   4.599 -2.6476 -0.6798 -0.1662
  284ACOH    H411165   7.668   9.159   0.902  0.5377  1.0678  0.0659
  284ACOH    O211166   7.622   9.126   0.823  0.6789  0.5661  0.1938
  284ACOH    C211167   7.699   9.136   0.712 -0.6627 -0.5259  0.0429
  284ACOH    O111168   7.792   9.208   0.696 -0.5413 -0.1029 -0.3160
  284ACOH    C111169   7.639   9.084   0.588  0.8134  0.2038  0.2721
  284ACOH    H111170   7.588   9.162   0.532  2.3493  1.0830  0.0482
  284ACOH    H211171   7.561   9.011   0.611  1.6892 -0.1048  2.3955
  284ACOH    H311172   7.717   9.036   0.528 -0.0371 -1.1179  0.2054
  285ACOH    H411173   7.127   9.503   6.162  0.9162 -0.5561  0.1306
  285ACOH    O211174   7.085   9.534   6.245  0.4384  0.5288 -0.4916
  285ACOH    C211175   7.047   9.660   6.216 -0.4403  0.5725 -0.7028
  285ACOH    O111176   7.023   9.706   6.109  0.5658  0.7130  0.2512
  285ACOH    C111177   7.009   9.725   6.346  0.1544 -0.2168 -0.3923
  285ACOH    H111178   7.005   9.656   6.430  0.0601  0.9219  0.5556
  285ACOH    H211179   6.907   9.763   6.341  0.6225  1.2423  0.8366
  285ACOH    H311180   7.079   9.806   6.364  1.2142 -0.9961 -0.9484
  286ACOH    H411181   1.595   2.456   5.912 -0.2868 -1.6737  0.7800
  286ACOH    O211182   1.671   2.432   5.856 -0.0208  0.0719  0.3373
  286ACOH    C211183   1.767   2.517   5.882  0.2672 -1.0920  0.6235
  286ACOH    O111184   1.779   2.588   5.983 -0.4048  0.6679  0.3321
  286ACOH    C111185   1.869   2.514   5.770  0.0634  0.2394  0.2373
  286ACOH    H111186   1.940   2.433   5.783 -2.2608 -1.7816  0.7657
  286ACOH    H211187   1.927   2.606   5.780  2.9168 -1.3542 -1.3034
  286ACOH    H311188   1.823   2.515   5.672 -0.6403 -0.0168  0.5611
  287ACOH    H411189   5.856   9.500   1.175 -0.0612  1.3115 -1.1493
  287ACOH    O211190   5.842   9.426   1.114  0.1515  0.4761 -0.2032
  287ACOH    C211191   5.949   9.419   1.039 -0.3599 -0.0971 -0.2566
  287ACOH    O111192   6.038   9.495   1.023 -0.4865  0.2390  0.2953
  287ACOH    C111193   5.938   9.306   0.939  0.3123  0.0145  0.4592
  287ACOH    H111194   6.031   9.294   0.884  0.8455  1.4593  1.0157
  287ACOH    H211195   5.853   9.331   0.876  0.4429  0.5199  0.4815
  287ACOH    H311196   5.908   9.216   0.991 -1.3433  1.0097  1.2604
  288ACOH    H411197   6.925   4.047   6.502  1.7817 -2.2334 -1.4055
  288ACOH    O211198   6.904   4.097   6.420  0.2449  0.5300  0.5760
  288ACOH    C211199   6.847   4.214   6.457 -0.2891 -0.3253  0.4761
  288ACOH    O111200   6.841   4.262   6.570 -0.1613 -0.5753  0.0436
  288ACOH    C111201   6.831   4.296   6.337 -0.6789 -0.3449  0.3774
  288ACOH    H111202   6.738   4.352   6.340 -0.7629 -0.5295  1.5082
  288ACOH    H211203   6.847   4.246   6.242 -2.7228 -0.8013  0.2632
  288ACOH    H311204   6.909   4.372   6.331 -0.6093 -0.4283  0.2102
  289ACOH    H411205   6.129   0.696   0.584  1.7888  0.3223 -0.6602
  289ACOH    O211206   6.104   0.763   0.519  0.4919  0.1377 -0.3677
  289ACOH    C211207   5.971   0.740   0.485 -0.4788  0.3301  0.3242
  289ACOH    O111208   5.893   0.677   0.548  0.3126  0.5424 -0.4257
  289ACOH    C111209   5.919   0.823   0.370 -0.0074 -1.1160 -0.0736
  289ACOH    H111210   5.813   0.803   0.362 -0.6742  1.3517  1.6489
  289ACOH    H211211   5.975   0.810   0.277  0.0921  0.4147 -0.2412
  289ACOH    H311212   5.934   0.930   0.387 -0.0250 -1.3665  1.6124
  290ACOH    H411213   5.598   7.274   2.793  0.0999  0.2116  2.5371
  290ACOH    O211214   5.675   7.332   2.781  0.1382 -0.1806  0.7253
  290ACOH    C211215   5.671   7.368   2.654 -0.1368 -0.3187 -0.2155
  290ACOH    O111216   5.576   7.379   2.583 -0.2916  0.0449 -0.4209
  290ACOH    C111217   5.803   7.412   2.607  0.3514  0.1807  0.2693
  290ACOH    H111218   5.874   7.335   2.638 -2.5480 -2.6100  0.2658
  290ACOH    H211219   5.834   7.503   2.659 -0.3040  0.4460  0.2010
  290ACOH    H311220   5.820   7.429   2.501  2.8345 -0.8636  0.4608
  291ACOH    H411221   4.195   7.234   2.360  1.7640 -0.0677  0.0850
  291ACOH    O211222   4.208   7.251   2.265  0.1044 -0.7190 -0.2805
  291ACOH    C211223   4.337   7.229   2.235 -0.0779  0.0329  0.3788
  291ACOH    O111224   4.425   7.196   2.315  0.1168  0.1892  0.1731
  291ACOH    C111225   4.362   7.237   2.092 -0.0992 -0.1678  0.0966
  291ACOH    H111226   4.281   7.280   2.033  0.8873 -0.0012 -1.1510
  291ACOH    H211227   4.391   7.137   2.060 -2.4562 -0.3031 -1.7972
  291ACOH    H311228   4.450   7.297   2.070 -1.1253  1.2015 -0.3734
  292ACOH    H411229   4.420   9.607   0.164 -2.7583  0.1617 -0.2925
  292ACOH    O211230   4.459   9.594   0.076 -0.4225  0.1442  0.6960
  292ACOH    C211231   4.594   9.597   0.080 -0.3463  0.3812 -0.4492
  292ACOH    O111232   4.654   9.567  -0.022  0.6602 -0.4035  0.1939
  292ACOH    C111233   4.664   9.658   0.199  0.0832  0.2245 -0.3932
  292ACOH    H111234   4.597   9.638   0.283 -0.7847  0.1227 -1.1102
  292ACOH    H211235   4.663   9.767   0.193  2.5255  0.2426 -0.9611
  292ACOH    H311236   4.764   9.619   0.221 -0.4209  0.5030  2.5950
  293ACOH    H411237   5.430   6.774   1.793 -0.0602  0.9491 -0.7310
  293ACOH    O211238   5.412   6.704   1.729  0.4079  0.0050  0.1664
  293ACOH    C211239   5.349   6.759   1.626  0.2699 -0.4632  0.0363
  293ACOH    O111240   5.301   6.872   1.627 -0.1686  0.0484  0.2068
  293ACOH    C111241   5.306   6.650   1.533  0.3389  0.2637 -0.1711
  293ACOH    H111242   5.222   6.598   1.578  0.5981 -0.0750 -0.0772
  293ACOH    H211243   5.394   6.588   1.512 -0.5010 -0.7408 -0.7639
  293ACOH    H311244   5.264   6.691   1.441 -1.3939 -0.2194  0.3931
  294ACOH    H411245   4.931   5.255   3.097 -1.9778  0.2627 -1.0487
  294ACOH    O211246   4.954   5.193   3.026 -0.2323 -0.3141 -0.0063
  294ACOH    C211247   4.848   5.134   2.975 -0.0553 -0.0803  0.4881
  294ACOH    O111248   4.737   5.135   3.028 -0.0203  0.2039 -0.5688
  294ACOH    C111249   4.875   5.064   2.848 -0.0277 -0.3404  0.0040
  294ACOH    H111250   4.880   4.955   2.858  0.2236 -0.1882  1.5978
  294ACOH    H211251   4.970   5.098   2.807 -1.2253  0.6457 -2.0126
  294ACOH    H311252   4.798   5.091   2.776  0.3998  1.4318  0.2062
  295ACOH    H411253   5.644   3.328   3.602  2.0920  0.1312 -2.1064
  295ACOH    O211254   5.650   3.423   3.617 -0.3907  0.0334 -0.0055
  295ACOH    C211255   5.727   3.476   3.513  0.5072  0.1972  0.4724
  295ACOH    O111256   5.763   3.407   3.417 -0.1335  0.0569  0.4508
  295ACOH    C111257   5.741   3.623   3.523  0.1146  0.7329 -0.5758
  295ACOH    H111258   5.686   3.654   3.612  0.7337 -0.5705  0.2695
  295ACOH    H211259   5.690   3.670   3.439 -0.5301 -2.8071 -2.2416
  295ACOH    H311260   5.848   3.643   3.522  0.6208 -1.7875 -1.1154
  296ACOH    H411261   3.697   0.817   4.389  0.1288 -0.5090  0.0082
  296ACOH    O211262   3.731   0.890   4.334 -0.6730  0.0628  0.2528
  296ACOH    C211263   3.703   0.993   4.415  0.1971  0.2766 -0.6697
  296ACOH    O111264   3.650   0.988   4.523  0.4249 -0.0146 -0.2559
  296ACOH    C111265   3.762   1.120   4.365  0.1940 -0.1080 -0.1906
  296ACOH    H111266   3.849   1.156   4.420  0.7203 -1.1949 -0.3041
  296ACOH    H211267   3.681   1.192   4.349 -0.0115 -0.8187 -2.6246
  296ACOH    H311268   3.800   1.106   4.263 -1.8496 -1.0543 -0.8548
  297ACOH    H411269   6.641   2.465   0.181  2.0828  0.3622 -1.1220
  297ACOH    O211270   6.643   2.424   0.093 -0.0867 -0.1090 -0.9743
  297ACOH    C211271   6.601   2.296   0.110 -0.3401 -0.2650 -0.2277
  297ACOH    O111272   6.607   2.233   0.211 -0.1433  0.2764 -0.0311
  297ACOH    C111273   6.561   2.240  -0.019 -0.0635  0.0656  0.4564
  297ACOH    H111274   6.650   2.242  -0.082  0.5044  0.7519  1.2581
  297ACOH    H211275   6.479   2.297  -0.062 -0.3973 -0.0396  0.9513
  297ACOH    H311276   6.535   2.137   0.004 -0.6490  0.2889  0.8020
  298ACOH    H411277   1.090   1.488   2.252  1.1200  0.0729  0.5125
  298ACOH    O211278   1.050   1.577   2.250  0.9354 -0.0246 -0.1082
  298ACOH    C211279   1.142   1.679   2.237  0.0838  0.0394  0.8760
  298ACOH    O111280   1.258   1.665   2.206 -0.1981 -0.1932  0.2796
  298ACOH    C111281   1.068   1.810   2.230  0.7186  0.9277  0.1489
  298ACOH    H111282   1.047   1.847   2.330  0.0534  0.9299  0.0076
  298ACOH    H211283   0.986   1.789   2.161  1.6519 -0.8108 -0.4749
  298ACOH    H311284   1.133   1.883   2.181 -1.2173  2.1113 -0.7230
  299ACOH    H411285   5.421   3.869   0.798  0.0221 -0.9740 -1.9570
  299ACOH    O211286   5.517   3.853   0.800  0.1918  0.0806 -0.2111
  299ACOH    C211287   5.586   3.912   0.704 -0.1877 -0.3957 -0.3422
  299ACOH    O111288   5.530   3.971   0.613  0.3591  0.7438 -0.0736
  299ACOH    C111289   5.730   3.889   0.719 -0.2574  0.4578  0.3105
  299ACOH    H111290   5.758   3.882   0.824 -0.9762  0.2946  0.4918
  299ACOH    H211291   5.790   3.970   0.677 -1.6564  1.0790 -0.5168
  299ACOH    H311292   5.746   3.791   0.675  0.5925  0.2587  1.0472
  300ACOH    H411293   8.605   8.025   0.107 -1.1217  1.6427  3.8337
  300ACOH    O211294   8.695   8.061   0.117 -0.1170  0.5526 -0.2121
  300ACOH    C211295   8.688   8.184   0.178 -0.1146 -1.0560 -0.6796
  300ACOH    O111296   8.584   8.245   0.188 -0.4082 -0.2476 -0.6563
  300ACOH    C111297   8.822   8.234   0.209  0.3897 -0.6955  0.0249
  300ACOH    H111298   8.864   8.272   0.116  1.2332  0.9181  1.0186
  300ACOH    H211299   8.884   8.156   0.252  0.6742 -0.5044 -0.0351
  300ACOH    H311300   8.825   8.316   0.282 -1.1256  0.9242 -1.6824
  301ACOH    H411301   6.336   7.012   5.953  2.3397 -0.0785  2.8276
  301ACOH    O211302   6.283   7.087   5.984  0.6323  0.2585 -0.6549
  301ACOH    C211303   6.289   7.191   5.896  0.1827  0.4551 -0.2871
  301ACOH    O111304   6.324   7.190   5.777  0.9316 -0.2857 -0.0217
  301ACOH    C111305   6.226   7.308   5.964 -0.0125  0.1281 -0.0229
  301ACOH    H111306   6.296   7.376   6.014 -1.8015  1.8602  0.1872
  301ACOH    H211307   6.155   7.262   6.033 -0.4780 -1.6778 -1.6526
  301ACOH    H311308   6.169   7.364   5.890  1.1347 -1.2813 -2.0196
  302ACOH    H411309   3.362   1.177   3.058  0.7117  2.1553  0.0573
  302ACOH    O211310   3.298   1.199   2.989 -0.1328  0.0014  0.1027
  302ACOH    C211311   3.365   1.234   2.875 -0.1536 -0.2838 -0.1040
  302ACOH    O111312   3.482   1.225   2.855 -0.0454 -0.1181 -0.5858
  302ACOH    C111313   3.273   1.315   2.779  0.2637  0.4138 -0.6982
  302ACOH    H111314   3.296   1.420   2.798 -1.4156  0.4778  1.1220
  302ACOH    H211315   3.169   1.306   2.809  0.6724  0.1503  0.6810
  302ACOH    H311316   3.291   1.292   2.674 -0.6565 -2.4682 -0.2635
  303ACOH    H411317   4.838   8.155   3.240  1.2645 -1.7775 -0.0974
  303ACOH    O211318   4.888   8.214   3.180  0.1013  0.1540  0.7608
  303ACOH    C211319   4.860   8.338   3.219  0.1904 -0.1781 -0.7861
  303ACOH    O111320   4.837   8.375   3.333 -0.0311  0.4621 -0.1359
  303ACOH    C111321   4.897   8.423   3.101 -0.6308 -0.5005  0.1624
  303ACOH    H111322   4.814   8.490   3.077  0.1064  1.0340  1.8286
  303ACOH    H211323   4.920   8.366   3.011  1.5019  0.9309 -0.2155
  303ACOH    H311324   4.989   8.478   3.120  0.1102 -1.6795  0.0609
  304ACOH    H411325   6.928   2.802   5.258 -0.3729  0.3921 -0.3579
  304ACOH    O211326   6.944   2.872   5.324 -0.5779 -0.3471  0.4904
  304ACOH    C211327   7.072   2.907   5.312  0.1191 -0.4137  0.6728
  304ACOH    O111328   7.145   2.885   5.217  0.1152 -0.1288  0.0862
  304ACOH    C111329   7.109   3.010   5.411 -0.1602  0.9974  1.1955
  304ACOH    H111330   7.207   3.055   5.396  0.1468 -0.1957 -0.4528
  304ACOH    H211331   7.119   2.970   5.512  0.4421 -2.2324 -0.0923
  304ACOH    H311332   7.036   3.091   5.407 -1.5851 -0.3263 -0.6265
  305ACOH    H411333   3.956   5.901   5.751  3.7154  0.6776 -0.0026
  305ACOH    O211334   3.943   5.957   5.672 -0.3647  0.5930  0.5145
  305ACOH    C211335   3.819   6.005   5.671  0.4301  0.2609  0.1842
  305ACOH    O111336   3.738   5.957   5.746  0.1641  0.2448  0.1206
  305ACOH    C111337   3.783   6.097   5.563 -0.9869  0.3190  0.4033
  305ACOH    H111338   3.688   6.149   5.570 -1.0642  0.3646 -0.9584
  305ACOH    H211339   3.776   6.036   5.473  3.2480 -0.9793  0.8464
  305ACOH    H311340   3.857   6.177   5.551  0.0411 -0.4826  1.3249
  306ACOH    H411341   3.946   7.144   4.216 -2.6205  2.2910  1.1137
  306ACOH    O211342   4.003   7.183   4.285 -0.0047 -0.0317  0.3468
  306ACOH    C211343   3.919   7.219   4.385  0.2578  0.7384 -0.5242
  306ACOH    O111344   3.798   7.199   4.382 -0.2899  0.2848  0.0119
  306ACOH    C111345   3.989   7.295   4.489  0.6452 -0.0515 -0.6791
  306ACOH    H111346   3.971   7.265   4.592  1.5481  0.4221 -0.3854
  306ACOH    H211347   3.954   7.398   4.497  1.1201  0.0542  0.0141
  306ACOH    H311348   4.091   7.300   4.451  1.4506  3.1126  1.6289
  307ACOH    H411349   1.178   5.438   0.297  0.8619  0.2349  0.1794
  307ACOH    O211350   1.219   5.373   0.357  0.1066 -0.2368  0.1921
  307ACOH    C211351   1.276   5.446   0.463  0.1473  0.8660 -0.0950
  307ACOH    O111352   1.248   5.564   0.480  0.0426 -0.1914 -0.6808
  307ACOH    C111353   1.320   5.345   0.561 -0.0444  0.3751 -0.8719
  307ACOH    H111354   1.333   5.396   0.656 -0.3460  2.2590 -1.8199
  307ACOH    H211355   1.408   5.292   0.524  0.1418  0.5467 -0.6694
  307ACOH    H311356   1.238   5.274   0.570  1.5437 -1.8493 -3.0960
  308ACOH    H411357   7.591   8.771   2.093  1.0440  0.5349  0.3029
  308ACOH    O211358   7.604   8.676   2.109  0.1233  0.3417 -0.1135
  308ACOH    C211359   7.540   8.610   2.007  0.2398  0.4171 -0.1206
  308ACOH    O111360   7.480   8.662   1.918  0.2178  0.5644  0.5387
  308ACOH    C111361   7.526   8.468   2.032  0.2343 -0.6489 -0.2815
  308ACOH    H111362   7.618   8.414   2.010 -0.9417 -3.0023  0.5001
  308ACOH    H211363   7.457   8.440   1.953 -1.3535  2.8912 -0.2704
  308ACOH    H311364   7.494   8.455   2.135  0.6195  1.6912  0.1686
  309ACOH    H411365   5.001   0.190   0.782  3.6845 -0.1008 -3.2189
  309ACOH    O211366   4.945   0.201   0.704 -0.4985  0.3531 -0.3471
  309ACOH    C211367   4.988   0.320   0.655 -0.8356  0.0736 -0.5368
  309ACOH    O111368   5.069   0.391   0.711 -0.5676  0.3715 -0.0329
  309ACOH    C111369   4.914   0.375   0.538 -0.4646 -0.2076 -0.1864
  309ACOH    H111370   4.845   0.450   0.574  1.1523  2.2952 -2.1142
  309ACOH    H211371   4.865   0.295   0.482 -3.7705  1.3961  0.3155
  309ACOH    H311372   4.985   0.418   0.467  0.7953 -0.3009  0.9884
  310ACOH    H411373   4.718   2.737   1.315  0.3516 -0.7268 -1.0087
  310ACOH    O211374   4.798   2.730   1.371 -0.2310 -0.1105 -0.0803
  310ACOH    C211375   4.844   2.851   1.388 -0.5550  0.5951  1.0731
  310ACOH    O111376   4.814   2.950   1.327 -0.9770 -0.2696  0.1961
  310ACOH    C111377   4.965   2.848   1.480  0.7261  0.4824 -0.1760
  310ACOH    H111378   4.955   2.927   1.555  0.0081  0.5668 -0.3527
  310ACOH    H211379   5.058   2.867   1.428  1.0379 -3.1581 -1.0490
  310ACOH    H311380   4.962   2.750   1.527  2.8150  0.4152 -0.1663
  311ACOH    H411381   6.191   0.784   0.057  0.9911 -1.2219 -1.0763
  311ACOH    O211382   6.167   0.724   0.130  0.2909  0.2462 -0.0681
  311ACOH    C211383   6.251   0.624   0.133 -0.2172 -0.5227 -0.0377
  311ACOH    O111384   6.316   0.586   0.036 -0.2519  0.0903 -0.6491
  311ACOH    C111385   6.236   0.543   0.255  0.0327 -0.1273  0.5054
  311ACOH    H111386   6.281   0.596   0.338 -0.1574  0.7753  0.0336
  311ACOH    H211387   6.299   0.454   0.244  1.1586  0.5640  1.2938
  311ACOH    H311388   6.133   0.510   0.269 -0.2866  0.3962 -0.5350
  312ACOH    H411389   7.016   3.553   3.855 -0.9663  1.6675  0.6787
  312ACOH    O211390   7.030   3.576   3.762 -0.3219  0.0894  0.3761
  312ACOH    C211391   7.102   3.472   3.717 -0.0831 -0.2153  0.1329
  312ACOH    O111392   7.094   3.359   3.761  0.8230 -0.5805 -0.7307
  312ACOH    C111393   7.158   3.501   3.586  0.0389 -0.1225 -0.3922
  312ACOH    H111394   7.109   3.433   3.516 -3.2843 -0.1777  1.8530
  312ACOH    H211395   7.266   3.483   3.585  0.3128  1.4211  0.4124
  312ACOH    H311396   7.127   3.602   3.559  0.6521 -0.2559 -1.6189
  313ACOH    H411397   3.581   5.175   4.248  2.9727 -1.1142  4.2564
  313ACOH    O211398   3.643   5.248   4.232  0.8498  0.0097  0.3715
  313ACOH    C211399   3.758   5.180   4.224  0.3963 -0.2866 -0.3952
  313ACOH    O111400   3.779   5.062   4.208 -0.3761  0.1793  0.2856
  313ACOH    C111401   3.872   5.278   4.202  0.7184  0.1425 -0.1677
  313ACOH    H111402   3.916   5.265   4.103 -1.4359  1.0225 -1.2824
  313ACOH    H211403   3.949   5.269   4.279  2.2994 -0.2970 -1.7752
  313ACOH    H311404   3.833   5.379   4.214  1.3864  0.4514 -0.5913
  314ACOH    H411405   4.763   4.750   2.422 -0.1543 -0.7295 -1.1048
  314ACOH    O211406   4.819   4.824   2.392 -0.3346 -0.4933 -0.8675
  314ACOH    C211407   4.880   4.866   2.500 -0.0392  0.5196 -0.0315
  314ACOH    O111408   4.882   4.801   2.602 -0.1288  0.0622  0.1572
  314ACOH    C111409   4.955   4.991   2.474  0.0571 -0.9527  0.4862
  314ACOH    H111410   4.933   5.060   2.555  0.6840  0.8991 -0.8882
  314ACOH    H211411   4.923   5.034   2.379  0.7604 -0.2537  0.5583
  314ACOH    H311412   5.061   4.968   2.481 -0.0461 -1.2472  1.0851
  315ACOH    H411413   5.659   2.094   5.130  0.1586 -1.1934  1.2298
  315ACOH    O211414   5.753   2.117   5.121 -0.2639  0.2519  0.3260
  315ACOH    C211415   5.786   2.125   4.988  0.3625  0.0528  1.0493
  315ACOH    O111416   5.707   2.097   4.899  0.0355  0.7470 -0.0982
  315ACOH    C111417   5.929   2.146   4.963  0.4665 -0.0023  0.2874
  315ACOH    H111418   5.940   2.229   4.893 -0.1557 -0.1774 -0.0156
  315ACOH    H211419   5.972   2.058   4.917 -0.5568 -1.0482  1.2915
  315ACOH    H311420   5.983   2.166   5.056 -0.9796 -0.1825  1.1946
  316ACOH    H411421   6.781   7.056   3.693 -1.9369 -0.4140 -3.7600
  316ACOH    O211422   6.705   7.023   3.745  0.0590  0.0878 -0.4231
  316ACOH    C211423   6.598   7.098   3.714 -0.0953  0.4596  0.0046
  316ACOH    O111424   6.598   7.203   3.655 -0.7286  0.6664  0.0940
  316ACOH    C111425   6.473   7.034   3.761 -0.6455  0.2046 -0.3412
  316ACOH    H111426   6.399   7.026   3.681  0.0740 -0.1408 -0.9842
  316ACOH    H211427   6.442   7.108   3.834 -1.1756 -0.7830  0.4501
  316ACOH    H311428   6.495   6.943   3.816 -0.9353  1.1297  1.3194
  317ACOH    H411429   7.242   4.873   1.102 -1.0206  1.0772  0.8883
  317ACOH    O211430   7.159   4.830   1.075 -0.0256  0.2258 -0.8794
  317ACOH    C211431   7.055   4.908   1.106 -0.6776  0.6039  0.2304
  317ACOH    O111432   7.066   5.030   1.125 -0.0110  0.0272  0.1186
  317ACOH    C111433   6.922   4.850   1.073  0.1566 -0.1228  0.2681
  317ACOH    H111434   6.898   4.891   0.975 -2.7373 -0.6475  0.7155
  317ACOH    H211435   6.844   4.885   1.141  0.2018  0.7373 -0.1234
  317ACOH    H311436   6.930   4.742   1.061  0.3074  0.1045 -1.9237
  318ACOH    H411437   4.604   8.098   5.167 -0.8964 -0.7122  0.5665
  318ACOH    O211438   4.618   8.016   5.117  0.1799 -0.1920  0.0014
  318ACOH    C211439   4.534   8.022   5.013 -0.2139  0.6764  0.6663
  318ACOH    O111440   4.478   8.124   4.972  0.2932  0.0902 -0.3539
  318ACOH    C111441   4.513   7.891   4.949  0.0715 -0.5901 -0.0104
  318ACOH    H111442   4.609   7.857   4.910  1.1260 -0.3541  2.3299
  318ACOH    H211443   4.433   7.891   4.874 -0.0417 -2.6319  0.0902
  318ACOH    H311444   4.489   7.824   5.032  0.2645  0.5399  0.9705
  319ACOH    H411445   5.458   3.734   0.975  1.2542 -0.0582  1.5669
  319ACOH    O211446   5.427   3.643   0.989 -0.0646  0.1524  0.2450
  319ACOH    C211447   5.438   3.648   1.126  0.5999 -0.9740 -0.1880
  319ACOH    O111448   5.462   3.744   1.196 -0.3797  0.3839 -0.3403
  319ACOH    C111449   5.396   3.515   1.180  0.0233  0.0023 -0.3478
  319ACOH    H111450   5.458   3.429   1.151  0.3607 -0.4947  1.7376
  319ACOH    H211451   5.299   3.494   1.136  0.4195  0.3281 -1.3878
  319ACOH    H311452   5.384   3.521   1.288 -0.4649 -0.7142 -0.3567
  320ACOH    H411453   4.583   5.395   2.983 -1.1657 -0.9971  0.2266
  320ACOH    O211454   4.588   5.422   3.077 -0.4039 -0.3860  0.0199
  320ACOH    C211455   4.552   5.553   3.088  0.3462  0.6090 -0.0525
  320ACOH    O111456   4.541   5.632   2.997  0.2311  0.1074  0.0367
  320ACOH    C111457   4.527   5.604   3.229 -0.1336  0.1374 -0.7488
  320ACOH    H111458   4.598   5.686   3.241 -1.2863  1.3336 -1.8569
  320ACOH    H211459   4.543   5.528   3.304 -0.7916  0.7050 -0.0324
  320ACOH    H311460   4.428   5.649   3.238 -0.6503 -0.9009 -1.2370
  321ACOH    H411461   5.997   7.463   2.949 -0.3609  0.0411  1.0603
  321ACOH    O211462   6.092   7.450   2.940 -0.5146 -0.4667  0.0481
  321ACOH    C211463   6.138   7.525   2.839 -0.7348  0.1935 -0.5379
  321ACOH    O111464   6.068   7.594   2.766  0.3131  0.5746  0.7590
  321ACOH    C111465   6.282   7.516   2.815  0.1648 -0.8011 -0.7116
  321ACOH    H111466   6.330   7.609   2.842 -0.4299 -1.2994  2.1673
  321ACOH    H211467   6.304   7.488   2.712  1.4061 -1.2932 -0.3242
  321ACOH    H311468   6.320   7.439   2.882  4.1121  1.4354 -0.2297
  322ACOH    H411469   6.109   8.751   5.380 -0.4736 -0.6591 -0.6109
  322ACOH    O211470   6.062   8.833   5.403  0.2690 -0.1292 -0.9596
  322ACOH    C211471   6.140   8.909   5.478 -0.1064 -0.2482  0.7207
  322ACOH    O111472   6.257   8.892   5.504 -0.6433  1.2627  0.0234
  322ACOH    C111473   6.069   9.035   5.511 -0.0483 -0.4089  0.4267
  322ACOH    H111474   5.972   9.009   5.552 -0.9387  1.7758 -0.2026
  322ACOH    H211475   6.061   9.105   5.427  0.9644 -0.0948  0.5829
  322ACOH    H311476   6.127   9.088   5.587 -1.7611 -0.6052  1.8971
  323ACOH    H411477   7.533   4.121   3.676  0.1240  0.7379 -0.9019
  323ACOH    O211478   7.484   4.183   3.732  0.4445 -0.0958  0.3246
  323ACOH    C211479   7.504   4.123   3.850  0.5128  0.6250  0.4966
  323ACOH    O111480   7.570   4.023   3.871 -0.0131 -0.2876 -0.1457
  323ACOH    C111481   7.422   4.189   3.951 -0.0046 -0.1656 -0.4321
  323ACOH    H111482   7.399   4.132   4.041  0.2934  2.2921  1.2502
  323ACOH    H211483   7.339   4.240   3.901  0.4974 -1.0189 -2.1976
  323ACOH    H311484   7.497   4.259   3.989 -0.9686  0.8407 -0.3564
  324ACOH    H411485   4.871   4.791   3.163 -3.0044 -0.7404 -0.2128
  324ACOH    O211486   4.849   4.866   3.222  0.4370  0.1704  0.0296
  324ACOH    C211487   4.960   4.940   3.242 -0.1198 -0.6293  0.0036
  324ACOH    O111488   5.065   4.932   3.183  0.4314 -0.1584  0.1805
  324ACOH    C111489   4.927   5.054   3.335  0.0803 -0.6530  0.0725
  324ACOH    H111490   4.858   5.114   3.276 -0.8207 -0.1334  1.6169
  324ACOH    H211491   5.012   5.116   3.362 -1.4780  1.6506 -0.2057
  324ACOH    H311492   4.870   5.020   3.422 -3.0365  0.6672 -1.3600
  325ACOH    H411493   7.796   4.539   2.932  1.4313  1.5457 -0.4673
  325ACOH    O211494   7.732   4.611   2.920  0.4417  0.8642  0.6086
  325ACOH    C211495   7.704   4.626   2.790  0.7604 -0.2475 -0.4943
  325ACOH    O111496   7.781   4.577   2.705  0.0001 -0.1520  0.4576
  325ACOH    C111497   7.590   4.715   2.776  0.3448 -0.5269  0.0999
  325ACOH    H111498   7.495   4.670   2.806  0.1296 -1.2956 -1.6568
  325ACOH    H211499   7.574   4.739   2.671  2.0641  1.9298  0.3575
  325ACOH    H311500   7.610   4.805   2.833 -1.4940  0.6305 -0.9967
  326ACOH    H411501   5.968   5.206   1.423  0.5384  0.6904  0.0997
  326ACOH    O211502   5.930   5.211   1.513 -0.1779  0.4856 -0.1924
  326ACOH    C211503   6.001   5.315   1.569 -0.2878  0.1395 -0.0259
  326ACOH    O111504   6.084   5.389   1.517 -0.0665  0.1493 -0.3106
  326ACOH    C111505   5.962   5.335   1.709  0.0684  0.0253 -0.3604
  326ACOH    H111506   6.050   5.335   1.774 -0.5749  0.3440  0.5253
  326ACOH    H211507   5.900   5.251   1.740  2.5495 -2.7252 -2.5720
  326ACOH    H311508   5.902   5.425   1.722  0.5837  0.4174 -0.7074
  327ACOH    H411509   4.295   4.533   5.262 -0.1230  1.0553  0.1819
  327ACOH    O211510   4.358   4.512   5.334  0.0315  0.0639 -0.2388
  327ACOH    C211511   4.488   4.525   5.292 -0.5544 -0.4106 -0.2141
  327ACOH    O111512   4.525   4.547   5.178  0.0004 -0.1238  0.0621
  327ACOH    C111513   4.567   4.516   5.416  0.1009  0.9871  0.2637
  327ACOH    H111514   4.539   4.598   5.482  1.4991  3.6254 -2.3349
  327ACOH    H211515   4.673   4.516   5.391 -0.0112  1.8822 -0.2203
  327ACOH    H311516   4.554   4.420   5.466  0.0822  1.6981  1.6624
  328ACOH    H411517   7.997   4.650   1.144 -3.1314 -2.2286 -0.3864
  328ACOH    O211518   7.954   4.717   1.088  0.1771 -0.1565 -0.6204
  328ACOH    C211519   7.993   4.834   1.146 -0.4725 -0.2465  0.2301
  328ACOH    O111520   8.089   4.850   1.216 -0.3028  0.0060 -0.4049
  328ACOH    C111521   7.913   4.948   1.089 -0.0130 -0.1248 -0.2228
  328ACOH    H111522   7.820   4.910   1.048 -0.9906  1.6606  0.2938
  328ACOH    H211523   7.968   4.996   1.008 -1.3197  0.7995 -0.5716
  328ACOH    H311524   7.884   5.023   1.162 -0.5892 -0.2187 -0.3523
  329ACOH    H411525   6.686   9.135   1.692  1.0825  1.5513 -0.8637
  329ACOH    O211526   6.657   9.134   1.599 -0.4587  1.1200 -0.4060
  329ACOH    C211527   6.536   9.197   1.603 -0.6240  0.5822  0.4788
  329ACOH    O111528   6.494   9.262   1.700  0.5801 -0.0378 -0.6024
  329ACOH    C111529   6.478   9.191   1.469  0.4525 -0.1254  0.1219
  329ACOH    H111530   6.385   9.248   1.476 -0.0571 -1.2220  2.5653
  329ACOH    H211531   6.453   9.085   1.461  1.4301 -0.4260  0.9224
  329ACOH    H311532   6.551   9.226   1.396  0.5707 -0.8960 -0.1266
  330ACOH    H411533   7.394   3.527   5.329  0.2675 -0.4128  0.4366
  330ACOH    O211534   7.424   3.441   5.294  0.2484 -0.1794 -0.1661
  330ACOH    C211535   7.375   3.340   5.378 -0.2862 -0.6118  0.7083
  330ACOH    O111536   7.420   3.228   5.364  0.7049 -0.7041  0.1855
  330ACOH    C111537   7.290   3.379   5.492 -0.1756 -0.5373 -0.4292
  330ACOH    H111538   7.321   3.481   5.514  1.6961 -1.1902 -0.0247
  330ACOH    H211539   7.300   3.311   5.575 -1.0691 -1.5339 -1.1178
  330ACOH    H311540   7.185   3.377   5.462 -1.3863  1.3041  3.3549
  331ACOH    H411541   4.436   2.224   1.082 -1.5056 -0.1287  1.2066
  331ACOH    O211542   4.404   2.303   1.035 -0.5193 -0.0969  0.5696
  331ACOH    C211543   4.504   2.394   1.030  0.1858 -0.1849 -1.0075
  331ACOH    O111544   4.611   2.386   1.091 -0.0458  0.1875  0.8985
  331ACOH    C111545   4.469   2.525   0.978 -0.5503 -0.0041 -0.0559
  331ACOH    H111546   4.450   2.522   0.871 -1.4646  0.7431  0.0785
  331ACOH    H211547   4.547   2.600   0.990 -0.5624  0.2244 -1.3234
  331ACOH    H311548   4.379   2.561   1.028 -0.3675 -2.8606  2.4946
  332ACOH    H411549   4.498   9.047   0.179 -2.9462  0.3690  4.1655
  332ACOH    O211550   4.584   9.038   0.223 -0.2048  0.6505 -0.6640
  332ACOH    C211551   4.678   8.986   0.146 -0.0226 -0.1432  0.0241
  332ACOH    O111552   4.668   8.924   0.043  0.1057 -0.1988  0.1524
  332ACOH    C111553   4.809   8.996   0.210  0.1710 -0.1876 -0.0444
  332ACOH    H111554   4.852   8.900   0.240  1.8373  0.4137 -0.4752
  332ACOH    H211555   4.805   9.064   0.295  0.9167  1.1470 -1.0690
  332ACOH    H311556   4.877   9.034   0.134 -1.2107  0.4664 -0.9702
  333ACOH    H411557   4.964   5.349   2.474 -0.9417  4.3616 -1.7093
  333ACOH    O211558   5.022   5.382   2.545  0.0685 -0.1167 -0.3004
  333ACOH    C211559   4.953   5.484   2.596 -0.5291  0.1875 -0.1643
  333ACOH    O111560   4.870   5.553   2.536 -0.6504  0.0804 -0.4870
  333ACOH    C111561   4.992   5.514   2.732 -0.7913  0.2516 -0.0569
  333ACOH    H111562   4.905   5.527   2.795  1.7187  0.1697  3.6067
  333ACOH    H211563   5.046   5.608   2.744 -0.8276  0.5613 -2.0851
  333ACOH    H311564   5.045   5.429   2.776  1.1780 -0.1279 -2.9549
  334ACOH    H411565   8.715   3.781   6.619 -0.3045 -0.2321  0.5477
  334ACOH    O211566   8.806   3.776   6.584 -0.6066  0.1787 -0.3055
  334ACOH    C211567   8.822   3.659   6.523 -0.0976  0.5551  0.7544
  334ACOH    O111568   8.751   3.560   6.518 -0.0965  0.1142  0.0407
  334ACOH    C111569   8.959   3.660   6.455  0.3102  0.9350  0.2523
  334ACOH    H111570   8.982   3.568   6.401 -2.3289  0.3289  0.0921
  334ACOH    H211571   9.036   3.675   6.529 -0.8802  2.2371  1.2560
  334ACOH    H311572   8.960   3.747   6.390  1.5500  1.1800  0.5905
  335ACOH    H411573   2.348   3.973   5.067  0.5221  0.1691  0.6153
  335ACOH    O211574   2.342   3.933   5.156 -0.1334  0.2817  0.6238
  335ACOH    C211575   2.369   4.034   5.241 -0.2851 -0.0501  0.1212
  335ACOH    O111576   2.461   4.116   5.238 -0.3382  0.6178 -0.2071
  335ACOH    C111577   2.272   4.035   5.351  1.2333 -0.2151  0.0108
  335ACOH    H111578   2.247   3.931   5.373  2.6400 -0.8410 -1.2860
  335ACOH    H211579   2.177   4.078   5.319  0.2315 -1.0605  1.7272
  335ACOH    H311580   2.312   4.081   5.442  2.3315 -2.0118  0.4735
  336ACOH    H411581   3.927   8.297   4.753  3.0187 -2.4665 -1.7150
  336ACOH    O211582   3.958   8.290   4.845 -0.2213  0.1877 -0.3173
  336ACOH    C211583   4.063   8.377   4.839  0.0230  0.1588 -0.0811
  336ACOH    O111584   4.063   8.475   4.769 -0.4187  0.0748 -0.2451
  336ACOH    C111585   4.143   8.371   4.966 -0.3259 -0.6804  0.1006
  336ACOH    H111586   4.116   8.286   5.029 -2.4610 -0.1666 -0.0808
  336ACOH    H211587   4.119   8.461   5.022 -2.0356 -0.9290 -0.1994
  336ACOH    H311588   4.247   8.361   4.935 -1.0315 -0.2322 -2.5257
  337ACOH    H411589   1.664   0.199   1.132  1.5349  2.0339  1.6113
  337ACOH    O211590   1.728   0.166   1.066  0.0336  0.4160  0.9049
  337ACOH    C211591   1.748   0.040   1.099  0.6916 -0.5717  0.6430
  337ACOH    O111592   1.661  -0.030   1.147 -0.5310  0.7106  0.1284
  337ACOH    C111593   1.862  -0.014   1.021  0.3732  0.1346 -0.2988
  337ACOH    H111594   1.949   0.051   1.017  0.1008  0.4412 -1.4601
  337ACOH    H211595   1.828  -0.021   0.917  1.8373 -0.4641 -0.7412
  337ACOH    H311596   1.888  -0.110   1.065  4.5019  0.9058 -0.8925
  338ACOH    H411597   1.166   1.795   4.129 -1.6101 -0.8281  0.6683
  338ACOH    O211598   1.218   1.723   4.168 -0.0289  0.2440  0.5761
  338ACOH    C211599   1.144   1.632   4.228  0.2653  0.4410 -0.5685
  338ACOH    O111600   1.033   1.662   4.268  0.0983 -0.3061 -0.0471
  338ACOH    C111601   1.209   1.508   4.261 -0.2087  0.9079  0.4788
  338ACOH    H111602   1.241   1.495   4.364 -0.4306 -2.1064  0.1981
  338ACOH    H211603   1.304   1.495   4.210 -1.3306  1.6157 -1.8490
  338ACOH    H311604   1.145   1.425   4.232  0.2295  0.8091 -0.2094
  339ACOH    H411605   3.211   5.247   2.275 -0.1376 -0.6328 -0.0737
  339ACOH    O211606   3.151   5.257   2.199  0.2501 -0.5206 -0.3670
  339ACOH    C211607   3.028   5.221   2.228  0.3523 -0.9942  0.7269
  339ACOH    O111608   2.997   5.139   2.313 -0.3903  0.4476  0.0633
  339ACOH    C111609   2.927   5.245   2.117 -0.4698 -0.5886 -0.1514
  339ACOH    H111610   2.915   5.353   2.111 -3.0348 -0.6200  3.2473
  339ACOH    H211611   2.829   5.200   2.135 -1.6024  0.3466 -3.6679
  339ACOH    H311612   2.961   5.198   2.024  0.0834 -0.4476 -0.0248
  340ACOH    H411613   4.305   2.995   5.914 -0.2416  1.0221 -0.8932
  340ACOH    O211614   4.314   3.021   6.008 -0.0374 -0.8314 -0.3709
  340ACOH    C211615   4.376   2.920   6.076 -0.3705 -0.0075 -0.4020
  340ACOH    O111616   4.424   2.821   6.022  0.3018 -0.0542 -0.7811
  340ACOH    C111617   4.392   2.961   6.217  0.0821 -0.3450  0.5459
  340ACOH    H111618   4.483   3.020   6.227 -0.1155 -0.4146  2.9759
  340ACOH    H211619   4.407   2.877   6.284 -1.6321 -1.8233 -0.8694
  340ACOH    H311620   4.299   3.013   6.240  0.0602  1.1626 -2.6718
  341ACOH    H411621   0.867   5.372   2.485  0.8171 -1.6739  0.4111
  341ACOH    O211622   0.813   5.350   2.407 -0.0673 -0.0406  0.5484
  341ACOH    C211623   0.881   5.254   2.345  0.1728 -0.3813  0.1844
  341ACOH    O111624   0.928   5.157   2.402 -0.4088 -0.0779 -0.0912
  341ACOH    C111625   0.851   5.253   2.192  0.2089  0.1731 -0.2785
  341ACOH    H111626   0.944   5.240   2.137  0.0755  0.2047 -0.5115
  341ACOH    H211627   0.811   5.352   2.170  1.4002  0.7137 -0.0265
  341ACOH    H311628   0.770   5.184   2.168 -1.0771  1.4986  0.0838
  342ACOH    H411629   5.007   9.941   6.042 -1.8123 -0.7909  0.7428
  342ACOH    O211630   5.055   9.862   6.011 -0.5225  0.2827 -0.0211
  342ACOH    C211631   4.997   9.808   5.902 -0.0346 -0.4965 -0.5688
  342ACOH    O111632   4.943   9.874   5.818  0.0095 -0.3216 -0.2802
  342ACOH    C111633   5.059   9.678   5.874 -0.0895  0.3096  0.3096
  342ACOH    H111634   5.015   9.632   5.785 -2.2898  1.4181  0.7980
  342ACOH    H211635   5.036   9.610   5.956  0.1296 -0.9353 -0.6387
  342ACOH    H311636   5.166   9.681   5.852 -0.1605  1.5820  0.1279
  343ACOH    H411637   5.821   1.102   0.201 -1.3462  1.7866 -3.1951
  343ACOH    O211638   5.791   1.014   0.174  0.6594  0.1161 -0.2575
  343ACOH    C211639   5.848   0.975   0.055  0.5475 -0.0662  0.0369
  343ACOH    O111640   5.919   1.047  -0.011 -0.9364 -0.2347  0.2981
  343ACOH    C111641   5.800   0.843  -0.003  0.0379 -0.1411  0.1248
  343ACOH    H111642   5.691   0.846  -0.008 -0.0861  1.5059  2.9522
  343ACOH    H211643   5.841   0.763   0.058 -0.4250  0.6242  1.4424
  343ACOH    H311644   5.840   0.832  -0.104  0.0662  0.6570  0.0516
  344ACOH    H411645   7.162   5.636   4.960  2.1337  1.7077 -0.7479
  344ACOH    O211646   7.193   5.568   4.898  0.5737  0.5038 -0.2410
  344ACOH    C211647   7.196   5.620   4.773 -0.6538  0.6840 -1.0226
  344ACOH    O111648   7.182   5.740   4.750  1.1537  0.2986  0.3867
  344ACOH    C111649   7.227   5.522   4.666 -0.3329  0.2785  0.3336
  344ACOH    H111650   7.149   5.506   4.591 -0.5940 -0.3548  0.7344
  344ACOH    H211651   7.255   5.426   4.711 -0.9323 -1.1991 -2.3686
  344ACOH    H311652   7.317   5.562   4.620 -1.1565  1.8185  0.0241
  345ACOH    H411653   7.126   7.740   2.548  0.7043  0.4767 -0.8563
  345ACOH    O211654   7.137   7.651   2.512  0.2605  0.0358  0.0898
  345ACOH    C211655   7.240   7.653   2.428  0.2546  0.0872  0.3163
  345ACOH    O111656   7.316   7.747   2.409  0.9145  0.0498 -0.8514
  345ACOH    C111657   7.269   7.517   2.367 -0.4092  0.0320  0.2008
  345ACOH    H111658   7.361   7.520   2.309 -1.7038 -0.8578 -1.9350
  345ACOH    H211659   7.184   7.490   2.304 -0.2138 -0.5819  0.1961
  345ACOH    H311660   7.275   7.450   2.453  1.7669  1.8935  1.5505
  346ACOH    H411661   8.617   1.210   4.293 -0.8526 -0.8210 -0.1655
  346ACOH    O211662   8.654   1.185   4.207  0.3022  0.1295  0.0379
  346ACOH    C211663   8.583   1.274   4.131  0.4063  0.0058 -0.0544
  346ACOH    O111664   8.486   1.340   4.168 -0.6758  0.1328  0.6306
  346ACOH    C111665   8.654   1.279   4.000  0.0060 -0.6162 -0.2154
  346ACOH    H111666   8.583   1.270   3.918 -2.5669 -2.0751  2.1100
  346ACOH    H211667   8.721   1.195   3.980  1.2719  0.9273 -2.8008
  346ACOH    H311668   8.703   1.375   3.981  0.2546 -0.8968 -1.0205
  347ACOH    H411669   6.213   5.772   0.836  1.7115 -0.0112 -2.1962
  347ACOH    O211670   6.176   5.861   0.825  0.7975 -0.0921 -0.0143
  347ACOH    C211671   6.136   5.869   0.699  0.1580 -0.7249 -0.1206
  347ACOH    O111672   6.151   5.795   0.602 -0.0861 -0.1635  0.8705
  347ACOH    C111673   6.034   5.974   0.684 -0.4937 -0.2988 -0.0020
  347ACOH    H111674   6.055   6.069   0.733 -1.4110 -0.0585 -0.0752
  347ACOH    H211675   5.944   5.933   0.729 -1.2238 -0.4017 -1.5334
  347ACOH    H311676   6.020   5.982   0.576  1.4153  1.0123 -0.1869
  348ACOH    H411677   5.882   6.275   0.802  2.2982 -2.1865  1.3318
  348ACOH    O211678   5.961   6.318   0.764  0.5834  0.0060  0.0913
  348ACOH    C211679   5.919   6.332   0.638  0.3181 -0.4670  0.1161
  348ACOH    O111680   5.834   6.274   0.578  0.0159  0.1989  0.5290
  348ACOH    C111681   6.026   6.406   0.567  0.1669  0.0054 -0.2690
  348ACOH    H111682   5.984   6.494   0.518 -0.7358 -0.0282  0.4408
  348ACOH    H211683   6.077   6.340   0.496  1.8987 -0.5796  1.4616
  348ACOH    H311684   6.101   6.437   0.640 -0.4124 -0.3824  0.5032
  349ACOH    H411685   3.329   7.345   0.387 -0.8430 -1.8671  1.2073
  349ACOH    O211686   3.358   7.298   0.307 -0.4755 -0.0396  0.2393
  349ACOH    C211687   3.480   7.327   0.275 -0.0894 -0.3300 -0.1195
  349ACOH    O111688   3.556   7.404   0.327 -0.2434  0.3803  0.2227
  349ACOH    C111689   3.507   7.270   0.139 -0.4517 -0.2829  0.1775
  349ACOH    H111690   3.494   7.334   0.052 -2.1412 -2.1324 -0.9557
  349ACOH    H211691   3.443   7.185   0.120  0.6779 -1.2470  0.6001
  349ACOH    H311692   3.607   7.227   0.136 -0.3875 -0.0394 -1.3369
  350ACOH    H411693   5.277   2.102   0.897  1.7229  0.3642 -1.4237
  350ACOH    O211694   5.247   2.194   0.910  0.4717 -0.1942 -0.2390
  350ACOH    C211695   5.337   2.246   0.988  0.1862 -0.3835  0.8799
  350ACOH    O111696   5.450   2.205   0.992  0.4898  0.0484  0.7348
  350ACOH    C111697   5.293   2.377   1.024  0.5325 -0.0289  0.4163
  350ACOH    H111698   5.221   2.378   1.106 -0.2221 -0.3812 -0.2261
  350ACOH    H211699   5.244   2.425   0.939 -3.3860 -0.5232  2.2531
  350ACOH    H311700   5.376   2.434   1.066  1.1419 -0.2453 -0.4746
  351ACOH    H411701   1.231   5.229   2.099 -1.4968  2.1206 -0.6193
  351ACOH    O211702   1.160   5.192   2.044 -0.3932 -0.4567 -0.3747
  351ACOH    C211703   1.210   5.163   1.922 -0.0247 -0.4137 -0.3632
  351ACOH    O111704   1.322   5.184   1.891 -0.4525 -0.7080 -0.3124
  351ACOH    C111705   1.102   5.120   1.833 -0.0950  0.1871  0.2588
  351ACOH    H111706   1.061   5.204   1.778  0.3015 -0.4221 -0.9929
  351ACOH    H211707   1.027   5.069   1.893  0.6373 -0.0831  0.9640
  351ACOH    H311708   1.146   5.047   1.765 -1.3174  0.6855 -1.0734
  352ACOH    H411709   5.742   8.037   5.261  1.0039  1.0070  1.6680
  352ACOH    O211710   5.738   7.947   5.298  0.2646  0.3489 -0.0010
  352ACOH    C211711   5.741   7.969   5.429 -0.0637 -0.5913  0.4979
  352ACOH    O111712   5.779   8.064   5.493  0.5898  0.3656  0.2943
  352ACOH    C111713   5.731   7.839   5.500  0.3163 -0.4315 -0.8456
  352ACOH    H111714   5.627   7.817   5.525  0.2828 -0.7685 -1.2631
  352ACOH    H211715   5.780   7.845   5.597 -0.6357 -1.7362 -0.2651
  352ACOH    H311716   5.762   7.750   5.444  0.5757  0.6326 -2.4228
  353ACOH    H411717   1.049   0.688   4.199  1.1454 -1.3055  0.9676
  353ACOH    O211718   0.985   0.621   4.172  0.3179 -0.2295  0.1905
  353ACOH    C211719   1.014   0.588   4.049 -0.4955 -0.1105 -0.5626
  353ACOH    O111720   1.081   0.650   3.966  0.5096 -0.2067 -0.1596
  353ACOH    C111721   0.927   0.478   3.999  0.2397 -0.1447 -0.1883
  353ACOH    H111722   0.827   0.521   3.991 -0.0415 -0.9672 -1.0508
  353ACOH    H211723   0.934   0.404   4.078  2.3278  1.1666  0.9226
  353ACOH    H311724   0.961   0.436   3.905 -0.4885 -1.7045  0.2390
  354ACOH    H411725   8.898   6.020   6.577 -0.0537  1.7944 -0.6229
  354ACOH    O211726   8.838   6.042   6.651 -0.1444  0.0425 -0.1719
  354ACOH    C211727   8.839   5.936   6.735  1.9168 -0.2875 -0.1382
  354ACOH    O111728   8.899   5.830   6.719  0.2526 -0.2282 -0.0565
  354ACOH    C111729   8.779   5.973   6.868 -1.4124  0.3456  0.5642
  354ACOH    H111730   8.713   5.893   6.901 -0.6336  0.0596  1.4614
  354ACOH    H211731   8.712   6.059   6.864 -0.8760  0.9540  3.3518
  354ACOH    H311732   8.851   5.981   6.950 -1.7756  0.8826  0.8333
  355ACOH    H411733   4.315   3.500   1.436  1.5534  0.4505  0.7059
  355ACOH    O211734   4.300   3.596   1.434  0.5865  0.3026  0.6421
  355ACOH    C211735   4.397   3.651   1.369  0.9075  0.0152 -0.0881
  355ACOH    O111736   4.514   3.617   1.352  0.2968  0.1873 -0.3994
  355ACOH    C111737   4.354   3.787   1.326 -0.7928 -0.0673 -0.6080
  355ACOH    H111738   4.422   3.867   1.356 -0.1909  0.5236 -3.3603
  355ACOH    H211739   4.254   3.811   1.363 -0.6710 -0.8473  0.2365
  355ACOH    H311740   4.357   3.783   1.217 -1.1995 -2.2425 -0.5694
  356ACOH    H411741   4.722   4.339   1.988  0.1539  0.4554 -1.2480
  356ACOH    O211742   4.742   4.399   2.063  0.7204 -0.3537 -0.7432
  356ACOH    C211743   4.795   4.513   2.009 -0.2797  0.4708  0.7958
  356ACOH    O111744   4.805   4.530   1.891 -0.1363  0.2261  0.4130
  356ACOH    C111745   4.823   4.615   2.113  0.1773 -0.0323  0.1116
  356ACOH    H111746   4.729   4.629   2.166 -0.5101  2.0418 -1.5834
  356ACOH    H211747   4.849   4.706   2.060  1.2783  0.2804  1.1493
  356ACOH    H311748   4.903   4.579   2.178  1.3271  0.2675 -1.1003
  357ACOH    H411749   6.588   6.147   5.153 -0.1720 -0.7472 -0.6925
  357ACOH    O211750   6.492   6.157   5.171  0.1069  0.2449  0.3106
  357ACOH    C211751   6.468   6.224   5.285  0.0971 -1.3461  0.9041
  357ACOH    O111752   6.554   6.250   5.366  0.5676  0.2275 -0.1433
  357ACOH    C111753   6.325   6.221   5.325  0.2094  0.2764  0.1746
  357ACOH    H111754   6.273   6.215   5.229 -0.1976 -1.2484  0.4919
  357ACOH    H211755   6.299   6.314   5.377  0.6226  0.2376  0.4496
  357ACOH    H311756   6.308   6.137   5.391 -0.9980 -0.4315 -0.9982
  358ACOH    H411757   7.166   3.529   4.054  0.8410 -0.9674 -1.8004
  358ACOH    O211758   7.077   3.556   4.026  0.4804 -0.4449 -0.1989
  358ACOH    C211759   7.018   3.610   4.132 -0.0051  0.1531 -0.4356
  358ACOH    O111760   7.075   3.661   4.224  0.3851 -0.0366 -0.2042
  358ACOH    C111761   6.884   3.651   4.092 -0.2058  0.0416 -0.2566
  358ACOH    H111762   6.821   3.564   4.073  0.2777 -0.0395 -1.6073
  358ACOH    H211763   6.888   3.710   4.000  0.1388  0.3754 -0.0317
  358ACOH    H311764   6.838   3.708   4.172  0.9836 -1.0272  1.2051
  359ACOH    H411765   3.210   7.018   3.774 -0.5333 -2.4302  0.4196
  359ACOH    O211766   3.138   7.052   3.718  0.5918 -0.3344  0.2027
  359ACOH    C211767   3.101   6.966   3.623  0.5582  0.0304  0.1625
  359ACOH    O111768   3.145   6.862   3.582  0.5515 -0.2028  0.6482
  359ACOH    C111769   2.979   7.027   3.560 -0.2271 -0.1951  0.4704
  359ACOH    H111770   2.895   7.012   3.628 -0.5804  1.4518  0.4277
  359ACOH    H211771   2.966   6.988   3.459 -0.0470 -0.8397  0.6985
  359ACOH    H311772   3.003   7.133   3.552 -1.0712 -0.0607 -0.4639
  360ACOH    H411773   9.964   6.763   2.497  2.1457  0.8008  0.2899
  360ACOH    O211774   9.933   6.831   2.559  0.1581 -0.0972  0.3174
  360ACOH    C211775   9.997   6.806   2.675  0.3179  0.5406 -0.0897
  360ACOH    O111776  10.031   6.692   2.704  0.7216 -0.5732  0.0323
  360ACOH    C111777   9.974   6.923   2.765  0.3466 -1.0111 -0.1506
  360ACOH    H111778  10.028   6.907   2.858  2.4447 -1.1841 -1.3869
  360ACOH    H211779   9.867   6.935   2.783  0.5284  1.0947 -0.3186
  360ACOH    H311780  10.007   7.019   2.724  1.0413 -1.5449 -0.8319
  361ACOH    H411781   6.568   4.569   6.436  0.7463  0.5513  3.9837
  361ACOH    O211782   6.496   4.507   6.456 -0.3504  0.2734 -0.4079
  361ACOH    C211783   6.427   4.566   6.548  0.1678 -0.1031 -0.8206
  361ACOH    O111784   6.433   4.682   6.593 -0.8217  0.1235 -0.0846
  361ACOH    C111785   6.332   4.466   6.606  0.0547  0.5355 -0.5143
  361ACOH    H111786   6.375   4.367   6.599 -1.0515 -0.0730  0.8752
  361ACOH    H211787   6.244   4.464   6.542 -1.7099  1.3361  1.7865
  361ACOH    H311788   6.307   4.488   6.710  0.1601 -1.9985  0.0834
  362ACOH    H411789   5.578   7.531   4.941  3.1534  1.0751 -3.2075
  362ACOH    O211790   5.643   7.504   5.008 -0.3553 -0.5694 -0.2257
  362ACOH    C211791   5.724   7.604   5.036  0.5017 -0.1719 -0.3436
  362ACOH    O111792   5.714   7.719   4.998  0.3611 -0.3770  0.6441
  362ACOH    C111793   5.837   7.573   5.125  0.0873 -0.5266  0.3597
  362ACOH    H111794   5.800   7.555   5.227 -1.8017  0.9009 -0.0307
  362ACOH    H211795   5.910   7.653   5.130 -1.2629  0.7531  0.0461
  362ACOH    H311796   5.884   7.489   5.074  1.2458  1.1658 -1.4044
  363ACOH    H411797   4.492   3.121   0.229  1.3501  0.1350 -0.1000
  363ACOH    O211798   4.503   3.200   0.174  0.1985  0.0431 -0.4672
  363ACOH    C211799   4.588   3.273   0.245 -0.1516  0.3990 -0.0329
  363ACOH    O111800   4.621   3.259   0.358  0.5414 -0.3036  0.7697
  363ACOH    C111801   4.649   3.372   0.149 -0.4419 -0.7943 -0.1349
  363ACOH    H111802   4.672   3.323   0.054 -0.9143 -0.2894 -0.5132
  363ACOH    H211803   4.745   3.409   0.186 -1.7104  1.5338  0.9373
  363ACOH    H311804   4.583   3.458   0.139  1.6452  0.7714 -0.6739
  364ACOH    H411805   3.271   5.952   3.856 -0.2179 -0.3322  0.4797
  364ACOH    O211806   3.357   5.992   3.875  0.1521 -0.5640 -0.6727
  364ACOH    C211807   3.443   5.891   3.873  0.4799  0.0364  0.1222
  364ACOH    O111808   3.414   5.774   3.856  0.1247 -0.1226  0.3224
  364ACOH    C111809   3.583   5.939   3.876  0.2499 -0.4572 -0.0069
  364ACOH    H111810   3.646   5.892   3.952 -1.7358 -1.0831  1.2798
  364ACOH    H211811   3.586   6.047   3.888  1.6821 -0.4273 -0.5218
  364ACOH    H311812   3.629   5.920   3.779 -0.9898  0.7698 -0.8420
  365ACOH    H411813   6.947   5.794   5.011  0.6489  0.3591 -1.5333
  365ACOH    O211814   6.863   5.813   4.966 -0.3487 -0.4348 -0.0549
  365ACOH    C211815   6.758   5.835   5.047  0.0369 -0.3306 -0.6024
  365ACOH    O111816   6.754   5.816   5.168 -0.1079  0.3363  0.1509
  365ACOH    C111817   6.648   5.874   4.956  0.5886 -0.0168 -0.3048
  365ACOH    H111818   6.655   5.819   4.861  0.8241  1.5725 -1.2192
  365ACOH    H211819   6.657   5.981   4.938  0.9715  0.2020  1.1595
  365ACOH    H311820   6.555   5.868   5.013 -0.5066  0.7164 -1.9594
  366ACOH    H411821   6.768   9.343   1.250  2.0848 -1.4086  1.0954
  366ACOH    O211822   6.782   9.285   1.173  0.0179 -0.6462  0.1071
  366ACOH    C211823   6.887   9.328   1.098  0.4484  0.2186 -0.6070
  366ACOH    O111824   6.957   9.421   1.118 -0.1339 -0.1137  0.3959
  366ACOH    C111825   6.913   9.212   1.009  0.2449  0.0162 -0.4213
  366ACOH    H111826   6.949   9.131   1.072  2.1909 -0.9435 -2.6712
  366ACOH    H211827   6.980   9.244   0.929  0.6205  0.7829  0.1997
  366ACOH    H311828   6.823   9.169   0.965 -0.8724  0.7970  1.0541
  367ACOH    H411829   5.836   1.220   5.854  1.0036  1.2694 -1.3299
  367ACOH    O211830   5.879   1.234   5.940 -0.2862 -0.3022 -0.4026
  367ACOH    C211831   5.870   1.128   6.020 -0.4063 -1.6700  0.6929
  367ACOH    O111832   5.825   1.017   5.988 -0.4439  0.2669  0.1053
  367ACOH    C111833   5.946   1.160   6.144  0.1595  0.0608 -0.1312
  367ACOH    H111834   5.976   1.265   6.150  0.7217 -0.0902 -0.2607
  367ACOH    H211835   6.039   1.104   6.137  0.3670  0.4787 -0.7141
  367ACOH    H311836   5.890   1.130   6.232  0.1920  1.3976  0.3662
  368ACOH    H411837   0.011   9.912   1.277  0.3334 -0.0628 -0.5192
  368ACOH    O211838   0.012   9.961   1.193  0.2710  0.7904 -0.0242
  368ACOH    C211839  -0.071   9.888   1.117 -0.2826  0.2272  0.1810
  368ACOH    O111840  -0.123   9.780   1.143 -0.1237 -0.0414 -0.5100
  368ACOH    C111841  -0.107   9.960   0.991  0.1460  0.3496  0.1881
  368ACOH    H111842  -0.125  10.061   1.028  0.8081  0.0368  1.3742
  368ACOH    H211843  -0.204   9.928   0.953  0.7742 -1.0431 -0.2700
  368ACOH    H311844  -0.031   9.950   0.914 -0.6233 -1.8207 -0.3158
  369ACOH    H411845   4.516   4.822   2.265 -1.4401  0.4315 -1.6153
  369ACOH    O211846   4.439   4.779   2.307 -0.8597  0.4057 -0.5594
  369ACOH    C211847   4.428   4.824   2.438  0.8214 -1.1013  0.1996
  369ACOH    O111848   4.493   4.916   2.487  0.4831  0.4878 -0.1873
  369ACOH    C111849   4.334   4.740   2.511  0.6796  0.1455  0.2012
  369ACOH    H111850   4.344   4.634   2.487 -0.3273  0.6629 -2.7141
  369ACOH    H211851   4.236   4.772   2.477  1.0956  0.9457 -0.2591
  369ACOH    H311852   4.328   4.746   2.620 -4.1809 -3.2385  0.2791
  370ACOH    H411853   4.564   8.909   0.921  0.1983 -0.0387  0.6321
  370ACOH    O211854   4.619   8.916   0.841 -0.6582 -0.6944 -0.0243
  370ACOH    C211855   4.535   8.951   0.739 -0.6112  0.2829 -0.3437
  370ACOH    O111856   4.422   8.912   0.725 -0.0548 -0.5920 -0.1555
  370ACOH    C111857   4.609   8.986   0.616  0.6974 -0.5390 -0.2436
  370ACOH    H111858   4.549   8.994   0.525 -0.1014  0.5816  0.3639
  370ACOH    H211859   4.691   8.917   0.592  0.7667  0.1596 -2.1035
  370ACOH    H311860   4.660   9.081   0.635 -2.0684  1.0861 -0.6660
  371ACOH    H411861   5.885   4.027   0.299 -0.3170  0.3596  1.0182
  371ACOH    O211862   5.824   4.082   0.245 -0.7206 -0.6176  0.4579
  371ACOH    C211863   5.880   4.081   0.121 -0.6840 -0.7484 -0.4664
  371ACOH    O111864   5.999   4.051   0.100 -0.2265  0.2241  0.1211
  371ACOH    C111865   5.789   4.148   0.027  0.1695  0.0295 -0.0253
  371ACOH    H111866   5.718   4.076  -0.012 -0.9143  1.8038 -1.3999
  371ACOH    H211867   5.837   4.193  -0.060  0.2122  0.1542  0.0632
  371ACOH    H311868   5.730   4.227   0.074 -1.6122  0.0394 -2.2188
  372ACOH    H411869   8.836   5.870   2.759 -1.0667 -0.4412 -0.2728
  372ACOH    O211870   8.886   5.903   2.682 -0.6646  0.1183  0.2194
  372ACOH    C211871   8.986   5.814   2.658 -0.1828 -0.1925  0.5646
  372ACOH    O111872   9.000   5.702   2.702  0.3498 -0.0520 -0.2901
  372ACOH    C111873   9.070   5.877   2.551  0.5674  1.4261 -0.2025
  372ACOH    H111874   9.160   5.912   2.603  0.4251 -0.0951  1.0885
  372ACOH    H211875   9.021   5.957   2.495 -0.8439  1.1396  0.6139
  372ACOH    H311876   9.090   5.795   2.482 -2.0187  0.1116  0.5609
  373ACOH    H411877   6.721   5.917   6.352  0.0278 -0.7545 -2.9880
  373ACOH    O211878   6.627   5.939   6.361  0.3044 -0.6907  0.4438
  373ACOH    C211879   6.589   5.983   6.239 -0.7824 -0.0836 -0.1191
  373ACOH    O111880   6.652   5.991   6.136  0.6957  0.2592 -0.1779
  373ACOH    C111881   6.447   6.029   6.238  0.0552 -0.3369 -0.0264
  373ACOH    H111882   6.389   5.986   6.320  2.3160 -2.2731  0.6358
  373ACOH    H211883   6.409   5.979   6.148  1.6871 -1.0316 -0.3566
  373ACOH    H311884   6.435   6.137   6.238  0.2314 -0.3140  1.3498
  374ACOH    H411885   6.952   2.830   0.015 -1.5498  2.0163 -1.0109
  374ACOH    O211886   6.994   2.828  -0.072 -0.1305 -0.3923 -0.3199
  374ACOH    C211887   7.068   2.718  -0.089 -0.9246 -0.7087  0.2943
  374ACOH    O111888   7.082   2.627  -0.012  0.0584 -0.5307  0.0777
  374ACOH    C111889   7.114   2.712  -0.231 -0.6493  0.0493  0.7587
  374ACOH    H111890   7.216   2.748  -0.242 -0.5400 -1.2022 -2.7232
  374ACOH    H211891   7.046   2.773  -0.292 -0.8182 -1.6303 -0.7743
  374ACOH    H311892   7.100   2.608  -0.259  0.7384 -0.2192  1.0351
  375ACOH    H411893   2.287   7.247   3.838  0.8752  1.0828 -1.2818
  375ACOH    O211894   2.378   7.239   3.870  0.6470  0.8440 -0.6796
  375ACOH    C211895   2.385   7.215   4.005  0.1638 -0.1704 -0.3889
  375ACOH    O111896   2.294   7.263   4.069 -0.0627 -0.0937  0.2883
  375ACOH    C111897   2.525   7.208   4.061 -0.1758  0.5652  0.0747
  375ACOH    H111898   2.593   7.263   3.996 -0.2274 -1.3575 -1.6620
  375ACOH    H211899   2.552   7.103   4.045  4.0442  1.7458 -1.2981
  375ACOH    H311900   2.532   7.234   4.167  1.0664  0.4169  0.0447
  376ACOH    H411901   4.306   8.277   1.208 -0.2794 -0.2559  0.4980
  376ACOH    O211902   4.401   8.257   1.220 -0.2466 -0.1896  0.3437
  376ACOH    C211903   4.429   8.164   1.131 -0.2996 -0.2921  0.3899
  376ACOH    O111904   4.353   8.103   1.054  0.5147  0.2907  0.2200
  376ACOH    C111905   4.561   8.111   1.156  0.0691  0.6377  0.0187
  376ACOH    H111906   4.554   8.003   1.163 -0.7818  0.7274  0.6220
  376ACOH    H211907   4.613   8.142   1.247  0.9379  0.9021 -0.5689
  376ACOH    H311908   4.621   8.137   1.069 -1.2365 -0.1236 -1.1148
  377ACOH    H411909   5.570   9.392   0.964  1.0569  0.6203  0.7750
  377ACOH    O211910   5.597   9.474   0.919  0.3108  0.1902 -0.4873
  377ACOH    C211911   5.557   9.575   0.994 -0.0669  0.6663  0.3967
  377ACOH    O111912   5.502   9.565   1.101  0.1829 -0.2623  0.3732
  377ACOH    C111913   5.567   9.708   0.931 -0.4085 -0.6936 -0.1919
  377ACOH    H111914   5.465   9.739   0.911 -0.5233 -1.1394 -0.3072
  377ACOH    H211915   5.624   9.708   0.838 -0.4689  1.0815 -0.2445
  377ACOH    H311916   5.613   9.769   1.009 -1.6248 -0.4118  0.3047
  378ACOH    H411917   6.363   5.592   6.381  2.0550  0.1386  1.4772
  378ACOH    O211918   6.309   5.555   6.453  0.3722 -0.0455  0.1595
  378ACOH    C211919   6.346   5.428   6.478 -0.4525  0.5198 -0.4515
  378ACOH    O111920   6.437   5.371   6.425 -0.1525 -0.1737  0.1584
  378ACOH    C111921   6.277   5.365   6.593  0.3350 -0.3464  0.4889
  378ACOH    H111922   6.192   5.426   6.624  0.5350 -0.8668  2.1194
  378ACOH    H211923   6.346   5.360   6.677  1.5423  2.3314 -0.2562
  378ACOH    H311924   6.236   5.270   6.561 -0.3138  0.0016  0.2770
  379ACOH    H411925   3.196   4.402   1.838 -0.1587  1.3938  0.3882
  379ACOH    O211926   3.100   4.390   1.851  0.0012 -0.2333  0.1929
  379ACOH    C211927   3.040   4.363   1.735  0.5545  0.7566  0.8485
  379ACOH    O111928   3.097   4.357   1.628 -0.7130  0.0170 -0.2189
  379ACOH    C111929   2.899   4.320   1.748  0.1302  0.4744 -0.6440
  379ACOH    H111930   2.881   4.305   1.854 -0.0353  0.4950 -0.6698
  379ACOH    H211931   2.885   4.224   1.699 -0.7993  0.3004 -0.0379
  379ACOH    H311932   2.824   4.389   1.711  0.5268  0.4163 -1.5877
  380ACOH    H411933   4.116   6.940   0.351  0.0494  0.8177 -0.6634
  380ACOH    O211934   4.138   6.919   0.259  0.2151  0.0150 -0.4474
  380ACOH    C211935   4.028   6.879   0.191 -0.0844 -0.1076  0.1453
  380ACOH    O111936   3.927   6.837   0.247 -0.3942  0.1109 -0.1597
  380ACOH    C111937   4.075   6.824   0.061 -1.0475  0.2980  0.3160
  380ACOH    H111938   3.998   6.841  -0.015 -0.4729 -0.5950 -0.4666
  380ACOH    H211939   4.077   6.715   0.069 -1.3363  0.1829 -1.1345
  380ACOH    H311940   4.168   6.863   0.021 -2.3722  2.1285 -1.0502
  381ACOH    H411941   5.468   7.380   1.489  0.8003 -0.1969 -0.1226
  381ACOH    O211942   5.490   7.475   1.482  0.3899 -0.0959 -0.0567
  381ACOH    C211943   5.477   7.535   1.598  0.2003  0.1579  0.7502
  381ACOH    O111944   5.402   7.496   1.687 -0.0092  0.2533 -0.4276
  381ACOH    C111945   5.526   7.673   1.592  0.4670 -0.9322 -0.0065
  381ACOH    H111946   5.526   7.717   1.493 -1.3791 -0.5311  0.1530
  381ACOH    H211947   5.629   7.674   1.629 -0.6628 -0.1366  3.3029
  381ACOH    H311948   5.476   7.748   1.653 -1.1830  1.1513 -3.7586
  382ACOH    H411949   7.298   9.566   0.429  0.4409  1.0041  1.1189
  382ACOH    O211950   7.205   9.576   0.457  0.1004 -0.4587  0.5689
  382ACOH    C211951   7.160   9.673   0.376  0.0521  0.3039  0.3160
  382ACOH    O111952   7.217   9.746   0.299 -0.2743 -0.0478 -0.2448
  382ACOH    C111953   7.013   9.672   0.384  0.1577 -0.1079  0.9134
  382ACOH    H111954   6.987   9.670   0.489 -2.2478 -0.2488  0.3258
  382ACOH    H211955   6.976   9.575   0.349  1.6842 -0.0849 -0.8821
  382ACOH    H311956   6.962   9.759   0.344  0.8940 -0.1443 -0.1594
  383ACOH    H411957   5.443   7.669   4.005  1.2221 -1.2711  0.7273
  383ACOH    O211958   5.374   7.617   4.049 -0.0083 -0.0438  0.2973
  383ACOH    C211959   5.422   7.584   4.166 -0.4240 -0.6595 -0.1231
  383ACOH    O111960   5.536   7.564   4.210  0.7346  0.6878 -0.1981
  383ACOH    C111961   5.311   7.552   4.260 -0.3393 -0.3851  0.6181
  383ACOH    H111962   5.269   7.453   4.239 -1.0751  0.0188  0.1183
  383ACOH    H211963   5.229   7.624   4.256  0.0409  0.0807  1.3276
  383ACOH    H311964   5.347   7.550   4.362 -0.0287  4.1600  0.7023
  384ACOH    H411965   6.951   4.977   5.353  2.3162  0.6554  3.1177
  384ACOH    O211966   7.005   5.042   5.305 -0.3131  0.3016 -0.5693
  384ACOH    C211967   7.074   4.982   5.206 -0.5765  0.1018  0.3813
  384ACOH    O111968   7.061   4.862   5.186  0.4484  0.6597  0.7546
  384ACOH    C111969   7.168   5.071   5.122 -0.4688 -0.8145 -0.0717
  384ACOH    H111970   7.244   5.113   5.188  0.2763 -0.3766 -1.1766
  384ACOH    H211971   7.120   5.159   5.078  0.4799 -0.7721 -1.0460
  384ACOH    H311972   7.210   5.009   5.043  1.7644  0.5761 -0.0344
  385ACOH    H411973   8.082   4.222   3.265 -0.9802  0.2085  1.2933
  385ACOH    O211974   8.096   4.318   3.266 -0.0349  0.1221 -0.5839
  385ACOH    C211975   8.198   4.354   3.182 -0.3261  0.5403 -0.2906
  385ACOH    O111976   8.236   4.275   3.095  0.0125  0.3169 -0.3861
  385ACOH    C111977   8.241   4.495   3.215  0.0986  0.6642 -0.1411
  385ACOH    H111978   8.223   4.538   3.314 -0.1856 -0.9116  0.5035
  385ACOH    H211979   8.197   4.558   3.138 -1.6626 -2.2291 -1.5948
  385ACOH    H311980   8.350   4.496   3.206  0.2729  0.7162  1.6518
  386ACOH    H411981   5.802   3.160   4.276 -3.9921  0.9454  0.7788
  386ACOH    O211982   5.789   3.225   4.205 -0.3915  0.6411 -0.2053
  386ACOH    C211983   5.899   3.214   4.125  0.1328 -0.1294 -0.1000
  386ACOH    O111984   6.004   3.161   4.148  0.5284 -0.4927 -0.3199
  386ACOH    C111985   5.891   3.307   4.011  0.7485  0.6400 -0.4316
  386ACOH    H111986   5.986   3.352   3.981 -0.0357  1.0192 -2.4462
  386ACOH    H211987   5.823   3.390   4.031 -0.3191 -0.3676  0.2013
  386ACOH    H311988   5.843   3.252   3.930  1.0206 -2.3133  1.3255
  387ACOH    H411989   7.166   6.770   3.002  0.5436  3.6103  1.9927
  387ACOH    O211990   7.119   6.814   2.929 -0.5977 -0.1016  0.3762
  387ACOH    C211991   7.125   6.724   2.827  0.5319 -0.1207  0.1488
  387ACOH    O111992   7.174   6.614   2.826 -0.0797 -1.0259  0.1424
  387ACOH    C111993   7.061   6.779   2.703 -0.0800 -0.5064  0.1004
  387ACOH    H111994   6.991   6.862   2.707 -1.1856 -1.4329  0.3056
  387ACOH    H211995   7.024   6.692   2.648 -0.5481 -0.3042  0.0961
  387ACOH    H311996   7.143   6.805   2.636 -0.5518 -1.9281 -1.0665
  388ACOH    H411997   4.218   3.470   1.906  0.8923 -0.6912 -1.5895
  388ACOH    O211998   4.134   3.486   1.860  0.1247  0.4559  0.1490
  388ACOH    C211999   4.154   3.606   1.795  0.0072  0.0417  0.0413
  388ACOH    O112000   4.234   3.694   1.837 -0.4289  0.1482 -0.5214
  388ACOH    C112001   4.052   3.629   1.690  0.3586 -0.2241  0.4651
  388ACOH    H112002   4.071   3.722   1.635 -1.8652 -0.5282 -0.8724
  388ACOH    H212003   3.955   3.628   1.738  0.6604  0.9155  1.1334
  388ACOH    H312004   4.053   3.548   1.617  0.1278  0.6283 -0.5054
  389ACOH    H412005   6.803   3.437   0.868  3.3291 -3.1382 -1.4511
  389ACOH    O212006   6.781   3.404   0.957  0.5517  0.5462 -0.6407
  389ACOH    C212007   6.808   3.505   1.044  0.1041  0.3348  0.3342
  389ACOH    O112008   6.837   3.619   1.013 -0.0490  0.5895 -0.2212
  389ACOH    C112009   6.823   3.471   1.190  0.1452  0.1706 -0.4432
  389ACOH    H112010   6.790   3.370   1.215  1.5942 -0.1536  0.2508
  389ACOH    H212011   6.763   3.545   1.241  0.2992 -1.7012  2.5417
  389ACOH    H312012   6.926   3.486   1.223  0.1751  0.8122 -0.8130
  390ACOH    H412013   7.991   5.170   3.081  0.8623 -2.1751  1.8006
  390ACOH    O212014   7.951   5.099   3.028 -0.0407 -0.3707 -0.0077
  390ACOH    C212015   7.892   5.010   3.109  0.2993 -0.3526 -0.5967
  390ACOH    O112016   7.931   4.985   3.219  0.0658  0.4519 -0.1243
  390ACOH    C112017   7.826   4.900   3.036  0.2632 -1.1681  0.2522
  390ACOH    H112018   7.732   4.884   3.090  0.2922  0.4674  0.8405
  390ACOH    H212019   7.887   4.811   3.026 -0.5062 -1.6392 -0.3205
  390ACOH    H312020   7.795   4.942   2.940 -1.0454  0.0331  1.1716
  391ACOH    H412021   2.575   4.776   5.429  0.2427  1.4813 -0.5265
  391ACOH    O212022   2.508   4.721   5.385  0.3365  0.0844  1.0054
  391ACOH    C212023   2.431   4.795   5.299 -0.0426 -0.7415  0.6237
  391ACOH    O112024   2.461   4.900   5.255 -0.5248  0.2152 -0.5168
  391ACOH    C112025   2.317   4.713   5.252  0.2211  0.2686  0.6043
  391ACOH    H112026   2.363   4.638   5.188 -1.4646 -0.0424 -0.2781
  391ACOH    H212027   2.248   4.770   5.189 -1.5587  0.1252  2.3988
  391ACOH    H312028   2.265   4.670   5.337 -2.6545 -0.8886 -1.6742
  392ACOH    H412029   5.746   5.533   0.100  0.3565 -1.0150 -2.1996
  392ACOH    O212030   5.794   5.613   0.071 -0.0481  0.1238  0.1475
  392ACOH    C212031   5.882   5.648   0.165  0.1571 -0.0492 -0.5709
  392ACOH    O112032   5.913   5.583   0.264  0.1119 -0.2091 -0.0777
  392ACOH    C112033   5.974   5.740   0.094 -0.3229 -0.0454  0.2894
  392ACOH    H112034   5.914   5.827   0.065  0.7772  1.3728  2.1631
  392ACOH    H212035   6.015   5.704  -0.000  0.1269  0.9039  0.1171
  392ACOH    H312036   6.057   5.764   0.159 -1.1839  1.3946  0.8848
  393ACOH    H412037   1.434   6.437   2.119  3.5043 -2.0948  0.3867
  393ACOH    O212038   1.431   6.471   2.210 -0.1829 -0.0587 -0.3732
  393ACOH    C212039   1.472   6.600   2.190  0.5152 -0.1844  0.2999
  393ACOH    O112040   1.492   6.654   2.080  0.2319  0.0080  0.2540
  393ACOH    C112041   1.486   6.674   2.319 -0.1483 -0.0323  0.0968
  393ACOH    H112042   1.593   6.684   2.338 -0.3559  0.2397  1.1522
  393ACOH    H212043   1.444   6.621   2.404  3.8675  0.2256  2.3853
  393ACOH    H312044   1.438   6.771   2.304 -1.7651 -0.9439 -0.6777
  394ACOH    H412045   3.567   5.472   4.054 -0.7137 -0.6422  0.4750
  394ACOH    O212046   3.570   5.550   4.112  0.5309 -0.1046 -0.2882
  394ACOH    C212047   3.438   5.590   4.105  1.0735  0.1269  0.1580
  394ACOH    O112048   3.341   5.521   4.071 -0.1081 -0.2147  0.1352
  394ACOH    C112049   3.416   5.705   4.193 -0.1054  0.1499 -0.4713
  394ACOH    H112050   3.431   5.799   4.140 -0.7546  0.9580  0.7330
  394ACOH    H212051   3.495   5.703   4.268  0.2283 -0.8840 -0.8515
  394ACOH    H312052   3.320   5.710   4.245  0.4621  0.5155  0.5744
  395ACOH    H412053   8.718   0.787   0.348  1.0461 -0.8395 -0.7357
  395ACOH    O212054   8.714   0.750   0.438 -0.1674  0.1714 -0.3669
  395ACOH    C212055   8.745   0.616   0.429  0.5901 -0.2466  0.4919
  395ACOH    O112056   8.770   0.559   0.326 -0.1623  0.1233 -0.0500
  395ACOH    C112057   8.779   0.551   0.559 -0.0291  0.2022  0.2184
  395ACOH    H112058   8.805   0.623   0.636 -0.9540  2.2973 -1.3641
  395ACOH    H212059   8.860   0.480   0.546  1.0651  1.2075  1.4387
  395ACOH    H312060   8.687   0.503   0.593  0.0664 -0.8919 -1.0127
  396ACOH    H412061   7.820   3.847   4.342 -3.1389 -0.9042 -0.1223
  396ACOH    O212062   7.816   3.894   4.427  0.1015 -0.0987 -0.3348
  396ACOH    C212063   7.906   3.829   4.499  0.1263  0.2445  0.4457
  396ACOH    O112064   7.972   3.730   4.459 -0.2424  0.6555  0.9563
  396ACOH    C112065   7.903   3.857   4.639  0.3896  0.4694 -0.3106
  396ACOH    H112066   7.802   3.885   4.671  0.7774  0.8065  0.6536
  396ACOH    H212067   7.963   3.943   4.668  0.8045  0.0456  0.1015
  396ACOH    H312068   7.931   3.778   4.708 -2.5269 -0.4094 -0.0482
  397ACOH    H412069   5.718   6.676   1.972  2.2128 -0.6391  0.3541
  397ACOH    O212070   5.708   6.611   2.044 -0.2765 -0.9988 -0.2633
  397ACOH    C212071   5.705   6.676   2.167 -0.1345 -0.4134  0.2303
  397ACOH    O112072   5.663   6.787   2.184 -0.3869 -0.2310  0.1791
  397ACOH    C112073   5.784   6.602   2.268 -0.0713 -0.0297  0.4173
  397ACOH    H112074   5.729   6.518   2.311  0.2317 -0.0948  0.6792
  397ACOH    H212075   5.814   6.677   2.342 -2.3602  0.6716  0.6807
  397ACOH    H312076   5.878   6.564   2.230 -0.9965 -0.3518 -1.6386
  398ACOH    H412077   7.188   8.136   5.356  1.5787 -2.4440 -0.5600
  398ACOH    O212078   7.188   8.106   5.449 -0.4704  0.1478  0.3259
  398ACOH    C212079   7.263   8.190   5.518  0.0758 -0.0534  0.2218
  398ACOH    O112080   7.274   8.306   5.483 -0.5815  0.5103  0.6080
  398ACOH    C112081   7.288   8.129   5.652 -0.0343  0.0010 -0.1105
  398ACOH    H112082   7.244   8.194   5.728  0.4870 -0.5537  0.6619
  398ACOH    H212083   7.395   8.119   5.667 -0.3021 -1.3571  0.9737
  398ACOH    H312084   7.251   8.027   5.658  0.1918 -0.0786 -0.0627
  399ACOH    H412085   7.111   8.374   2.359 -1.3028  2.8438  1.7266
  399ACOH    O212086   7.023   8.334   2.368 -0.2500  0.1559  0.7012
  399ACOH    C212087   7.035   8.206   2.329 -0.4891  0.6260 -0.3316
  399ACOH    O112088   7.132   8.147   2.280  0.1308 -0.0208 -0.2567
  399ACOH    C112089   6.909   8.140   2.368 -0.6753 -0.3677 -0.4740
  399ACOH    H112090   6.941   8.097   2.463 -0.7322 -0.0761 -0.3236
  399ACOH    H212091   6.874   8.070   2.292 -2.7494  2.5624 -2.2866
  399ACOH    H312092   6.825   8.205   2.391 -0.6198  0.0426 -1.4394
  400ACOH    H412093   2.283   1.698   0.772 -2.1189 -1.5442 -0.7256
  400ACOH    O212094   2.254   1.705   0.865  0.7162  0.4561  0.0919
  400ACOH    C212095   2.280   1.588   0.919 -0.9123 -0.3961  0.0237
  400ACOH    O112096   2.334   1.489   0.874 -0.2186 -0.3151 -0.6689
  400ACOH    C112097   2.219   1.578   1.052  0.2536 -0.1054 -0.2562
  400ACOH    H112098   2.128   1.518   1.056 -1.0776  1.9065  0.4073
  400ACOH    H212099   2.196   1.677   1.092 -0.9970 -0.1858 -0.7614
  400ACOH    H312100   2.283   1.524   1.122 -0.6466  1.1154  1.5542
  401ACOH    H412101   7.868   5.491   1.927 -0.5451 -0.4101  0.5921
  401ACOH    O212102   7.779   5.520   1.955 -0.5854  0.2444 -0.2087
  401ACOH    C212103   7.693   5.433   1.906  0.1499  0.2816 -0.0381
  401ACOH    O112104   7.716   5.341   1.831 -0.5429  0.0896 -0.0902
  401ACOH    C112105   7.557   5.472   1.971  0.5004 -0.3875 -0.5580
  401ACOH    H112106   7.473   5.445   1.908 -0.8355 -0.7640  1.3456
  401ACOH    H212107   7.543   5.574   2.008  1.0295  0.0201 -1.4690
  401ACOH    H312108   7.545   5.412   2.062  2.0716 -2.4328 -1.6520
  402ACOH    H412109   5.037   6.456   2.820  0.5101  0.0576 -0.4103
  402ACOH    O212110   5.118   6.423   2.863  0.1430 -0.0169  0.2404
  402ACOH    C212111   5.214   6.434   2.771 -0.6470  0.4747 -0.3051
  402ACOH    O112112   5.198   6.469   2.655 -0.1871  0.4530  0.1518
  402ACOH    C112113   5.343   6.391   2.824 -0.7836 -0.0648 -0.0199
  402ACOH    H112114   5.365   6.289   2.793  0.4292  0.3232 -0.4781
  402ACOH    H212115   5.346   6.395   2.933 -1.5195  1.5444 -0.0372
  402ACOH    H312116   5.416   6.461   2.782  0.7366 -1.6603 -0.0804
  403ACOH    H412117   7.615   9.231   6.133 -1.3452  0.5080  0.1088
  403ACOH    O212118   7.664   9.300   6.181 -0.3025  0.0073 -0.2170
  403ACOH    C212119   7.571   9.392   6.210  0.1652  0.1669 -0.2310
  403ACOH    O112120   7.503   9.442   6.125 -0.2528  0.0924 -0.4117
  403ACOH    C112121   7.595   9.468   6.334 -0.2162  0.0705  0.1236
  403ACOH    H112122   7.498   9.495   6.375 -0.0632 -1.0365  1.2474
  403ACOH    H212123   7.665   9.547   6.306 -0.6248 -0.1334 -1.5067
  403ACOH    H312124   7.642   9.407   6.411 -1.2956 -1.4639 -0.4179
  404ACOH    H412125   4.425   8.735   6.287 -1.0744  0.2484 -1.4269
  404ACOH    O212126   4.364   8.662   6.307  0.0451 -0.3055 -0.0010
  404ACOH    C212127   4.313   8.619   6.189 -0.2576  0.2291 -0.5130
  404ACOH    O112128   4.370   8.645   6.083  0.8404  0.2589  0.7398
  404ACOH    C112129   4.225   8.505   6.218  0.0841 -0.1868  0.0168
  404ACOH    H112130   4.225   8.436   6.135  2.2556 -0.7305  0.4246
  404ACOH    H212131   4.123   8.533   6.243 -0.6916 -3.3870  0.5748
  404ACOH    H312132   4.272   8.449   6.299  1.8946  1.6674  0.3052
  405ACOH    H412133   5.000   2.942   3.395  3.3839 -3.5349  0.6206
  405ACOH    O212134   5.020   2.939   3.300 -0.1659  0.1550 -0.3662
  405ACOH    C212135   5.017   3.064   3.246 -0.2727 -0.7949 -0.8156
  405ACOH    O112136   4.998   3.170   3.300 -0.1348 -0.3746 -0.4985
  405ACOH    C112137   5.028   3.047   3.099 -0.2178  0.1639  0.0463
  405ACOH    H112138   5.001   2.947   3.067  1.4100 -0.1909 -0.2730
  405ACOH    H212139   5.132   3.063   3.069 -0.9313  0.9424 -2.0553
  405ACOH    H312140   4.963   3.125   3.059 -0.9765 -0.5735 -0.1541
  406ACOH    H412141   7.996   8.155   0.353  0.9523  0.3654  1.1848
  406ACOH    O212142   7.943   8.122   0.427  0.2229 -0.8191  0.1565
  406ACOH    C212143   7.905   7.993   0.425 -0.7347 -0.2400 -0.1066
  406ACOH    O112144   7.932   7.921   0.329  0.1194 -0.1781 -0.0208
  406ACOH    C112145   7.880   7.937   0.555  0.2130  0.0886 -0.3765
  406ACOH    H112146   7.971   7.898   0.600  1.2073 -0.0006 -2.4081
  406ACOH    H212147   7.815   7.850   0.550  0.7169 -0.2590 -0.8281
  406ACOH    H312148   7.828   8.005   0.623 -1.5603 -1.1592 -0.4552
  407ACOH    H412149   4.798   3.173   4.679 -0.8871 -0.1933  0.6123
  407ACOH    O212150   4.788   3.269   4.694  0.1306  0.1990 -1.0069
  407ACOH    C212151   4.904   3.319   4.637 -0.3314  0.0814  0.1481
  407ACOH    O112152   4.990   3.279   4.564 -0.0312  0.1789 -0.2306
  407ACOH    C112153   4.899   3.461   4.678  0.4904 -0.7455 -0.7257
  407ACOH    H112154   4.988   3.516   4.648 -0.7878  1.8760  0.1294
  407ACOH    H212155   4.884   3.474   4.785 -1.0600  0.4085 -1.0683
  407ACOH    H312156   4.816   3.516   4.635  0.6809  0.8675  0.8850
  408ACOH    H412157   6.588   3.085   3.249 -0.5235 -0.9955  0.8398
  408ACOH    O212158   6.528   3.158   3.274  0.6276  0.3454 -0.2636
  408ACOH    C212159   6.499   3.133   3.404  0.3770 -0.0392 -0.3594
  408ACOH    O112160   6.540   3.050   3.482  0.1784 -0.6185 -0.4349
  408ACOH    C112161   6.397   3.230   3.455  0.3804  0.0450  0.2154
  408ACOH    H112162   6.443   3.312   3.511  0.9876 -1.2650  1.7154
  408ACOH    H212163   6.329   3.181   3.525 -1.5003  1.6321 -0.4862
  408ACOH    H312164   6.336   3.272   3.376 -1.0833  1.0531  1.8469
  409ACOH    H412165   8.016   6.636   3.764  0.6475 -0.6354 -0.5036
  409ACOH    O212166   8.081   6.612   3.832 -0.3100 -0.4569  0.4988
  409ACOH    C212167   8.187   6.698   3.823 -0.5600  0.8930  0.2067
  409ACOH    O112168   8.205   6.799   3.752 -0.4933 -0.1001 -0.4073
  409ACOH    C112169   8.288   6.632   3.906 -0.4114  0.1205 -0.3951
  409ACOH    H112170   8.255   6.561   3.982 -0.7374 -0.0835 -0.7302
  409ACOH    H212171   8.345   6.711   3.955  0.9851 -1.1061  0.0024
  409ACOH    H312172   8.363   6.595   3.837 -0.7529 -0.8938 -0.2330
  410ACOH    H412173   8.599   3.807   2.499  0.3078 -0.9912  0.8514
  410ACOH    O212174   8.620   3.731   2.443 -0.0447 -0.3376 -0.1830
  410ACOH    C212175   8.666   3.780   2.323  0.7256 -0.1107 -0.8833
  410ACOH    O112176   8.686   3.894   2.306  0.0419 -0.0785 -0.7433
  410ACOH    C112177   8.660   3.674   2.219  0.1600  0.0642  0.1923
  410ACOH    H112178   8.758   3.649   2.177  0.3458  0.3571  0.4596
  410ACOH    H212179   8.592   3.714   2.144  1.4394  2.2719  0.1474
  410ACOH    H312180   8.621   3.581   2.261 -0.7073 -0.0223 -0.7840
  411ACOH    H412181   6.305   3.059   3.158  0.0303 -0.7998 -4.0297
  411ACOH    O212182   6.264   3.143   3.132 -0.6836  0.1372 -0.1437
  411ACOH    C212183   6.132   3.127   3.169 -0.9203  0.6269 -0.3264
  411ACOH    O112184   6.085   3.025   3.211 -0.0461 -0.1703  0.9135
  411ACOH    C112185   6.053   3.249   3.173  0.1184 -0.7281 -0.3431
  411ACOH    H112186   6.116   3.330   3.138 -0.2383 -0.4025 -0.2376
  411ACOH    H212187   6.009   3.273   3.270  1.1958 -0.6174  0.1179
  411ACOH    H312188   5.971   3.247   3.100  1.5490 -0.9231 -1.9799
  412ACOH    H412189   6.936   3.683   4.771  1.8875  0.1836  0.9319
  412ACOH    O212190   6.939   3.733   4.688  0.1781  0.0931  0.8108
  412ACOH    C212191   6.820   3.744   4.621  0.1829 -0.2344  0.3639
  412ACOH    O112192   6.721   3.683   4.650  0.4204  0.1611 -0.0637
  412ACOH    C112193   6.841   3.812   4.491  0.3895 -0.0026 -0.0123
  412ACOH    H112194   6.746   3.818   4.439 -1.1481 -2.1147  2.3998
  412ACOH    H212195   6.917   3.759   4.433 -0.6555 -2.2441  0.6023
  412ACOH    H312196   6.876   3.913   4.511 -1.0341  0.6529 -0.8179
  413ACOH    H412197   8.441   6.651   3.599  0.9129 -1.6904  0.3463
  413ACOH    O212198   8.354   6.609   3.586  0.2172  0.0246 -0.6597
  413ACOH    C212199   8.329   6.634   3.459  0.2138 -0.6410  0.4260
  413ACOH    O112200   8.404   6.687   3.377  0.1272  0.0655 -0.6577
  413ACOH    C112201   8.220   6.551   3.409  0.2222  0.1121  0.0473
  413ACOH    H112202   8.128   6.608   3.426 -0.6601 -1.1102 -0.5362
  413ACOH    H212203   8.233   6.459   3.465  1.1947  0.0643 -0.2502
  413ACOH    H312204   8.212   6.532   3.302  1.1203 -0.0929  0.0198
  414ACOH    H412205   2.090   3.287   6.448 -0.4008  1.6426  0.6716
  414ACOH    O212206   2.132   3.328   6.371 -0.5807  0.5513 -0.0303
  414ACOH    C212207   2.257   3.353   6.412  0.2855 -0.1342 -0.3257
  414ACOH    O112208   2.332   3.297   6.492 -0.7899 -0.1983 -0.6381
  414ACOH    C112209   2.316   3.431   6.304  0.6513 -0.2777  0.3488
  414ACOH    H112210   2.251   3.516   6.286  0.6948 -0.2843  0.1523
  414ACOH    H212211   2.321   3.369   6.214  1.0433  2.6195 -1.7140
  414ACOH    H312212   2.415   3.474   6.323  1.6432 -2.2462 -0.1438
  415ACOH    H412213   8.861   8.325   3.868  2.0075 -1.2910  0.7370
  415ACOH    O212214   8.879   8.404   3.923  0.2902 -0.3850  0.0413
  415ACOH    C212215   8.941   8.368   4.037  0.1047  0.7786 -0.1441
  415ACOH    O112216   8.916   8.265   4.102 -0.4969 -0.3831  0.3267
  415ACOH    C112217   9.020   8.468   4.106  0.0421 -0.2184  0.1891
  415ACOH    H112218   9.090   8.419   4.174  1.3675  0.1229 -0.9114
  415ACOH    H212219   8.955   8.531   4.167 -0.7304 -0.8266  0.0139
  415ACOH    H312220   9.075   8.527   4.033  2.1182 -1.5135  0.6712
  416ACOH    H412221   2.000   9.726   2.540 -0.6046 -1.0864  0.8071
  416ACOH    O212222   1.969   9.812   2.573  0.2047 -0.2565 -0.5205
  416ACOH    C212223   1.876   9.791   2.667  0.2499  0.0096 -0.7251
  416ACOH    O112224   1.888   9.704   2.753  0.2691  0.2931 -0.4025
  416ACOH    C112225   1.801   9.914   2.693  0.0227 -0.1891  0.5703
  416ACOH    H112226   1.757   9.902   2.792  0.6691 -2.4722  0.6014
  416ACOH    H212227   1.716   9.917   2.625  0.0910  0.9034  0.5267
  416ACOH    H312228   1.857  10.007   2.692 -3.2461  1.8717  1.6955
  417ACOH    H412229   5.511   1.925   0.492  2.2998 -0.3875 -0.9021
  417ACOH    O212230   5.554   2.001   0.536  0.4625  0.1511  0.0255
  417ACOH    C212231   5.479   2.111   0.556  1.1886 -0.8424  0.0517
  417ACOH    O112232   5.364   2.119   0.513 -0.2090  0.0669  0.1966
  417ACOH    C112233   5.548   2.220   0.627 -0.0269  0.3222 -0.1766
  417ACOH    H112234   5.636   2.255   0.573 -1.2799 -2.1096 -4.0014
  417ACOH    H212235   5.580   2.179   0.723 -0.6658  0.9517  0.3159
  417ACOH    H312236   5.472   2.297   0.641 -0.3167  0.1896 -0.9889
  418ACOH    H412237   7.316   6.732   1.668  0.1374 -1.7633  2.7369
  418ACOH    O212238   7.275   6.652   1.632  0.2541 -0.5960 -0.1071
  418ACOH    C212239   7.175   6.594   1.706 -0.1503  0.0676  0.3043
  418ACOH    O112240   7.153   6.617   1.824  0.1304  0.0453  0.0271
  418ACOH    C112241   7.112   6.479   1.639 -0.0067 -0.4113 -0.6746
  418ACOH    H112242   7.066   6.502   1.543  0.0066  0.1179 -0.5562
  418ACOH    H212243   7.044   6.430   1.708  0.0002 -0.5407 -0.7610
  418ACOH    H312244   7.196   6.413   1.614 -0.5455 -2.1558  1.8972
  419ACOH    H412245   6.517   2.224   0.914  1.3591  0.5711 -0.0326
  419ACOH    O212246   6.534   2.218   1.010 -0.3131 -0.3522  0.2255
  419ACOH    C212247   6.579   2.341   1.047 -0.1841  0.8684  0.0433
  419ACOH    O112248   6.544   2.450   1.005  0.2181 -0.8879 -0.1609
  419ACOH    C112249   6.666   2.328   1.165  0.0519 -0.3932  0.0984
  419ACOH    H112250   6.753   2.265   1.149 -0.0892 -0.3078 -0.9923
  419ACOH    H212251   6.606   2.290   1.248  0.5483  1.1084  1.1786
  419ACOH    H312252   6.700   2.425   1.203  0.8669 -0.1419 -1.2573
  420ACOH    H412253   2.605   4.813   3.257 -0.9377 -1.2183 -1.1854
  420ACOH    O212254   2.511   4.834   3.246 -0.8773  0.1135  0.5324
  420ACOH    C212255   2.507   4.865   3.116  0.0388 -0.0897  0.3598
  420ACOH    O112256   2.602   4.885   3.041  0.1881  0.4357 -0.1496
  420ACOH    C112257   2.366   4.876   3.079 -0.7690  0.0424  0.0445
  420ACOH    H112258   2.297   4.796   3.107 -1.7944  1.0248  0.3798
  420ACOH    H212259   2.361   4.885   2.971  1.3990  2.1052  0.0706
  420ACOH    H312260   2.326   4.968   3.123 -0.9239 -0.0358  0.0677
  421ACOH    H412261   8.996   7.720   4.974 -0.7454  0.7452 -1.3716
  421ACOH    O212262   9.083   7.740   4.934  0.0136  0.3992  0.0655
  421ACOH    C212263   9.129   7.647   4.847 -0.0826 -0.3069 -0.2011
  421ACOH    O112264   9.104   7.530   4.852  0.2006 -0.0902  0.2204
  421ACOH    C112265   9.252   7.706   4.778 -0.5034  0.7254  0.9175
  421ACOH    H112266   9.326   7.752   4.844  2.0808 -4.3905  1.8194
  421ACOH    H212267   9.209   7.793   4.728  1.8783  1.4903  0.1085
  421ACOH    H312268   9.305   7.637   4.713 -1.2448  1.6304 -0.6643
  422ACOH    H412269   5.638   5.340   0.215 -0.2836 -0.1009 -1.8621
  422ACOH    O212270   5.619   5.425   0.173  0.2039  0.6751 -0.5407
  422ACOH    C212271   5.487   5.448   0.192  0.5108 -0.2773  0.2186
  422ACOH    O112272   5.408   5.385   0.263  0.2084 -0.5835  0.1765
  422ACOH    C112273   5.453   5.574   0.136  0.6199  0.1353 -0.0410
  422ACOH    H112274   5.494   5.581   0.035 -0.9413 -0.6761 -0.7624
  422ACOH    H212275   5.497   5.651   0.199  3.3491 -0.4167 -1.2235
  422ACOH    H312276   5.346   5.597   0.128  0.4900 -0.1273  0.8926
  423ACOH    H412277   3.619   1.415   1.656  0.8445 -0.1153  0.3767
  423ACOH    O212278   3.574   1.329   1.652  0.5646  0.0486 -0.0741
  423ACOH    C212279   3.486   1.330   1.748 -0.9414  0.3089 -0.1282
  423ACOH    O112280   3.431   1.427   1.796  0.0850 -0.1081  0.4157
  423ACOH    C112281   3.430   1.192   1.752  0.1064 -0.1174  0.3810
  423ACOH    H112282   3.499   1.123   1.802  2.0667  2.1631  0.9193
  423ACOH    H212283   3.417   1.167   1.647  0.5236  2.0997 -0.2207
  423ACOH    H312284   3.334   1.201   1.801  0.8121 -1.8397  2.1406
  424ACOH    H412285   7.302   5.584   1.046  1.5553  0.1586  0.2894
  424ACOH    O212286   7.304   5.539   1.132 -0.6086 -0.2263  0.1616
  424ACOH    C212287   7.213   5.441   1.140  0.0129 -0.6419  0.0194
  424ACOH    O112288   7.111   5.440   1.074 -0.2834  0.0022  0.1930
  424ACOH    C112289   7.225   5.346   1.258 -0.0989 -0.3192  0.0241
  424ACOH    H112290   7.122   5.320   1.285  0.3705 -0.2352  1.9499
  424ACOH    H212291   7.274   5.400   1.338 -1.5561 -0.2465  0.8890
  424ACOH    H312292   7.275   5.257   1.220 -1.6740 -0.5677 -1.5651
  425ACOH    H412293   7.252   3.468   2.507  1.4245  0.2873 -0.9632
  425ACOH    O212294   7.238   3.548   2.561 -0.3125 -0.4338 -0.2902
  425ACOH    C212295   7.205   3.635   2.463  0.0549 -0.3895  0.4079
  425ACOH    O112296   7.170   3.609   2.351  0.4740  0.0632 -0.0440
  425ACOH    C112297   7.207   3.772   2.517  0.3708  0.0891  0.3598
  425ACOH    H112298   7.135   3.841   2.471  1.4247  0.5073 -0.6731
  425ACOH    H212299   7.308   3.811   2.508  0.3126  0.4215  1.1276
  425ACOH    H312300   7.173   3.772   2.621  1.4882 -1.9125  0.7363
  426ACOH    H412301   5.513   8.614   1.536 -0.4435  0.2628 -1.8888
  426ACOH    O212302   5.588   8.672   1.515  0.4861 -0.4949 -0.7192
  426ACOH    C212303   5.676   8.641   1.604 -0.4440  0.0927  0.0510
  426ACOH    O112304   5.685   8.547   1.682  0.5003 -0.2201 -0.2258
  426ACOH    C112305   5.786   8.746   1.606 -0.5629 -0.4233  0.3499
  426ACOH    H112306   5.746   8.844   1.633 -1.5008 -0.5091 -0.7201
  426ACOH    H212307   5.838   8.753   1.511  0.4674  0.5919  0.9740
  426ACOH    H312308   5.863   8.729   1.681 -0.2009 -2.4379 -0.4632
  427ACOH    H412309   0.263   5.040   5.282  0.9896 -0.8877 -1.3305
  427ACOH    O212310   0.267   5.129   5.243  0.6396 -0.2753  0.0200
  427ACOH    C212311   0.399   5.142   5.218 -0.1547 -0.0320 -0.2878
  427ACOH    O112312   0.480   5.047   5.219 -0.3210  0.1966 -0.3269
  427ACOH    C112313   0.433   5.285   5.224 -0.4462 -0.3227  0.1455
  427ACOH    H112314   0.380   5.333   5.306  1.7401  0.9853  0.8511
  427ACOH    H212315   0.407   5.330   5.128  0.1124  0.2390  0.2531
  427ACOH    H312316   0.540   5.305   5.231 -0.5467  0.8237 -1.1504
  428ACOH    H412317   6.748   5.968   0.264  0.1091 -0.1291  2.1841
  428ACOH    O212318   6.753   6.063   0.281  0.0780  0.4084 -0.5550
  428ACOH    C212319   6.768   6.078   0.414  0.2466 -0.0338  0.4133
  428ACOH    O112320   6.758   5.998   0.504 -0.1666  0.3527 -0.1145
  428ACOH    C112321   6.783   6.224   0.439  0.0195  0.2149  0.0310
  428ACOH    H112322   6.694   6.282   0.416  1.7853  2.8169 -0.4434
  428ACOH    H212323   6.865   6.267   0.382 -0.6919  1.2480 -0.2400
  428ACOH    H312324   6.794   6.239   0.547 -1.7090 -0.6797  0.3501
  429ACOH    H412325   4.585   1.791   5.320  0.5354  1.3725  0.2352
  429ACOH    O212326   4.563   1.764   5.411 -0.3266  0.3943 -0.2515
  429ACOH    C212327   4.489   1.860   5.468 -0.4968 -0.0131  0.0145
  429ACOH    O112328   4.496   1.979   5.442  0.3247 -0.6787 -0.1526
  429ACOH    C112329   4.426   1.809   5.592  0.3066 -0.2466 -0.4654
  429ACOH    H112330   4.491   1.819   5.680  0.4222  0.0815 -0.5889
  429ACOH    H212331   4.395   1.705   5.586  0.8104 -0.2384 -3.8345
  429ACOH    H312332   4.332   1.861   5.610  0.2924  0.3458 -2.1889
  430ACOH    H412333   4.118   9.086   3.911 -0.3248  0.5303 -0.3481
  430ACOH    O212334   4.154   9.133   3.988 -0.1022 -0.5003  0.1706
  430ACOH    C212335   4.287   9.140   3.976  0.7639 -0.8068 -0.0857
  430ACOH    O112336   4.359   9.063   3.913 -0.7168  0.4830  0.2371
  430ACOH    C112337   4.347   9.233   4.078  0.3148  0.4050 -0.0913
  430ACOH    H112338   4.344   9.187   4.177  2.8110  0.0603 -0.1408
  430ACOH    H212339   4.300   9.328   4.054 -2.1932 -0.1570  2.3457
  430ACOH    H312340   4.452   9.251   4.055  0.0080  1.6729 -0.5388
  431ACOH    H412341   4.869   9.609   6.333 -0.1211  0.2457 -0.4959
  431ACOH    O212342   4.963   9.589   6.344 -0.2975 -0.0441  0.5268
  431ACOH    C212343   4.988   9.643   6.464 -0.1768 -0.3617  0.1678
  431ACOH    O112344   4.913   9.690   6.553 -0.5470 -0.4347  0.1169
  431ACOH    C112345   5.130   9.613   6.501 -0.2429  0.4077 -0.1175
  431ACOH    H112346   5.150   9.625   6.608 -3.2527 -2.3583  0.8563
  431ACOH    H212347   5.197   9.675   6.442  0.6938 -1.4870 -1.1091
  431ACOH    H312348   5.142   9.507   6.477  1.8103  0.1631  1.8051
  432ACOH    H412349   0.211   6.294   0.429 -0.4078  0.6652  1.0580
  432ACOH    O212350   0.137   6.232   0.428  0.2742 -0.1546  0.1216
  432ACOH    C212351   0.173   6.139   0.333 -0.2475 -0.5155 -0.4071
  432ACOH    O112352   0.266   6.133   0.256  0.4067  0.2254  0.2089
  432ACOH    C112353   0.051   6.048   0.321 -0.0285 -0.5497  0.1639
  432ACOH    H112354   0.037   6.007   0.221  0.2972 -2.0533  0.7244
  432ACOH    H212355  -0.034   6.114   0.341 -0.7965 -0.9974 -1.5656
  432ACOH    H312356   0.056   5.963   0.389 -0.0578  1.0177  2.2004
  433ACOH    H412357   5.885   2.438   5.054 -1.1675 -2.2206 -0.4606
  433ACOH    O212358   5.903   2.408   5.144 -0.0847 -0.1006  0.0542
  433ACOH    C212359   6.031   2.439   5.179  0.4162  0.4895 -0.7605
  433ACOH    O112360   6.110   2.513   5.122  0.0125  0.3440 -0.0438
  433ACOH    C112361   6.063   2.377   5.308 -0.1943  0.0315  0.8448
  433ACOH    H112362   6.156   2.409   5.355  0.3371 -0.6138  0.2453
  433ACOH    H212363   6.065   2.272   5.278  0.3875  1.3273 -4.2154
  433ACOH    H312364   5.977   2.384   5.375  0.3599  2.3618  1.3558
  434ACOH    H412365   2.136   7.755   4.488  1.0472  1.1255  0.2077
  434ACOH    O212366   2.087   7.790   4.565 -0.4822 -0.5191  0.0245
  434ACOH    C212367   2.163   7.885   4.620 -0.3605  0.3741 -0.6628
  434ACOH    O112368   2.276   7.914   4.577  0.8706 -0.1521  0.4032
  434ACOH    C112369   2.116   7.937   4.747 -0.1879  1.0575 -0.0127
  434ACOH    H112370   2.108   7.846   4.807  1.5603  1.2800  0.5739
  434ACOH    H212371   2.024   7.993   4.730 -0.1787  1.7622  2.0903
  434ACOH    H312372   2.192   8.001   4.792  0.1923  0.5039  0.1266
  435ACOH    H412373   5.455   0.869   5.085  2.8842  0.6014  0.9510
  435ACOH    O212374   5.467   0.932   5.012  0.2687 -0.1498 -0.1753
  435ACOH    C212375   5.400   1.042   5.047 -0.1437 -0.6831  0.3093
  435ACOH    O112376   5.360   1.080   5.154 -0.0731  0.1941  0.2810
  435ACOH    C112377   5.404   1.133   4.932 -0.0889 -0.4266  0.8236
  435ACOH    H112378   5.393   1.080   4.837 -0.3718  0.5146  0.3297
  435ACOH    H212379   5.497   1.190   4.928  0.2446 -0.9908  0.4389
  435ACOH    H312380   5.315   1.196   4.940 -0.2071 -0.3926 -0.6150
  436ACOH    H412381   6.091   1.983   5.491 -1.2346  1.8881  0.9184
  436ACOH    O212382   6.143   1.977   5.573  0.0904 -0.3365 -0.0295
  436ACOH    C212383   6.242   2.060   5.549  0.3968 -0.1528  0.2926
  436ACOH    O112384   6.255   2.135   5.453  0.4683  0.3358  0.2155
  436ACOH    C112385   6.349   2.050   5.655  0.2326 -0.0175  0.6811
  436ACOH    H112386   6.340   1.979   5.737  2.0244  0.2521  1.1201
  436ACOH    H212387   6.374   2.148   5.695 -0.1608 -0.1780  1.3419
  436ACOH    H312388   6.441   2.015   5.610 -1.2552 -3.0959 -0.1177
  437ACOH    H412389   7.675   5.917   0.697 -1.3636  2.2312  2.8046
  437ACOH    O212390   7.706   5.846   0.756 -1.1191  0.1934  0.2983
  437ACOH    C212391   7.605   5.823   0.845  0.0280  0.4592 -0.5090
  437ACOH    O112392   7.502   5.883   0.853  0.4620 -0.1726 -0.3146
  437ACOH    C112393   7.644   5.716   0.944 -0.2949  0.2155  0.1963
  437ACOH    H112394   7.553   5.685   0.994 -1.0542  0.2845 -1.1249
  437ACOH    H212395   7.724   5.749   1.010 -0.6474  3.1635 -0.7848
  437ACOH    H312396   7.678   5.629   0.886 -1.5082 -0.1874  0.0748
  438ACOH    H412397   5.757   6.134   0.179  0.4493 -0.8416 -0.3701
  438ACOH    O212398   5.759   6.108   0.085  0.4083 -0.7631 -0.3927
  438ACOH    C212399   5.677   6.008   0.069 -0.0595  0.0626 -0.1185
  438ACOH    O112400   5.623   5.939   0.153 -0.2584 -0.0116  0.1077
  438ACOH    C112401   5.675   5.972  -0.077 -0.0038 -0.3143 -0.8021
  438ACOH    H112402   5.573   5.996  -0.108  0.3459 -1.1457 -2.6746
  438ACOH    H212403   5.690   5.865  -0.090 -2.7648 -0.8732  0.1374
  438ACOH    H312404   5.743   6.029  -0.139  0.2138  0.2481 -0.0595
  439ACOH    H412405   6.609   4.958   1.116 -1.5467 -0.8759 -0.5474
  439ACOH    O212406   6.584   4.920   1.202 -0.6619 -0.4189 -0.0804
  439ACOH    C212407   6.457   4.877   1.196  0.0978 -0.6343  0.2653
  439ACOH    O112408   6.372   4.889   1.109 -0.4559 -0.3536  0.2138
  439ACOH    C112409   6.419   4.853   1.332 -0.4464 -0.8102 -0.7108
  439ACOH    H112410   6.458   4.754   1.353  2.4631  0.8433  2.0752
  439ACOH    H212411   6.311   4.864   1.344 -0.1285  0.7268  0.9622
  439ACOH    H312412   6.464   4.929   1.397  0.9438  0.0611 -2.6227
  440ACOH    H412413   5.669   6.678   2.584 -0.9889  1.3466 -0.9046
  440ACOH    O212414   5.738   6.745   2.597 -0.3616  0.6153 -0.4251
  440ACOH    C212415   5.687   6.858   2.550  0.0935 -0.2123  0.9993
  440ACOH    O112416   5.579   6.889   2.512  0.3433  0.2503  0.8724
  440ACOH    C112417   5.776   6.971   2.579  0.1038  0.2463 -0.4661
  440ACOH    H112418   5.882   6.955   2.599 -0.2059 -0.1166  0.9032
  440ACOH    H212419   5.734   7.033   2.659 -0.2020  0.3302 -0.6915
  440ACOH    H312420   5.778   7.026   2.485  2.7007  0.6875 -0.1987
  441ACOH    H412421   2.960   6.728   4.321  1.6084 -0.1720  0.5982
  441ACOH    O212422   2.941   6.819   4.349 -0.1276 -0.3907  0.1896
  441ACOH    C212423   2.812   6.845   4.377  0.7896 -0.6961 -0.6127
  441ACOH    O112424   2.718   6.762   4.375 -0.2781  0.4100  0.3200
  441ACOH    C112425   2.790   6.980   4.431  0.2506  0.3228 -0.5868
  441ACOH    H112426   2.816   7.057   4.359 -0.2060  1.0082 -0.0356
  441ACOH    H212427   2.852   6.998   4.519  0.1377 -1.2113 -0.1736
  441ACOH    H312428   2.688   7.006   4.460 -0.0877 -1.1954 -0.3538
  442ACOH    H412429   0.227   6.232   0.836  1.8953  0.6882 -0.7912
  442ACOH    O212430   0.294   6.164   0.854  0.3107 -0.7814 -0.3662
  442ACOH    C212431   0.275   6.063   0.770  0.2640  0.3706 -0.0202
  442ACOH    O112432   0.196   6.056   0.676 -0.1440 -0.1894  0.0336
  442ACOH    C112433   0.362   5.938   0.780 -0.0291 -0.6479  0.0618
  442ACOH    H112434   0.437   5.924   0.702  0.6376 -0.2735  0.6389
  442ACOH    H212435   0.294   5.853   0.773 -1.1859  0.2267  0.4943
  442ACOH    H312436   0.414   5.939   0.875 -0.8762  1.9249  0.5254
  443ACOH    H412437   0.233   3.615   0.226 -1.1714  2.4560  2.4898
  443ACOH    O212438   0.269   3.555   0.294  0.1075  0.1885 -0.0748
  443ACOH    C212439   0.393   3.508   0.266 -0.0383  0.0184  0.7108
  443ACOH    O112440   0.447   3.421   0.338 -0.1906 -0.3665  0.6473
  443ACOH    C112441   0.442   3.571   0.147  0.3089 -0.3846  0.1249
  443ACOH    H112442   0.527   3.516   0.105  1.3944 -0.0881  1.8965
  443ACOH    H212443   0.475   3.674   0.161  3.9963 -1.3125 -1.0323
  443ACOH    H312444   0.354   3.577   0.083  0.8304 -0.8141 -0.6490
  444ACOH    H412445   7.921   5.558   3.696  0.1752 -0.6634  0.0856
  444ACOH    O212446   7.901   5.558   3.792 -0.5983  0.2106 -0.0668
  444ACOH    C212447   8.010   5.604   3.861  0.0813 -0.3078  0.6948
  444ACOH    O112448   8.125   5.575   3.826 -0.1088  0.1221 -0.2788
  444ACOH    C112449   7.973   5.659   3.996  0.1287  0.4069 -0.4186
  444ACOH    H112450   7.978   5.589   4.080 -1.1071 -0.7338 -1.2830
  444ACOH    H212451   7.871   5.698   3.996 -0.4083 -0.9743 -1.3913
  444ACOH    H312452   8.029   5.747   4.028 -1.0445  1.2589 -0.6773
  445ACOH    H412453   3.774   5.249   3.932 -0.6417 -0.5803 -1.2084
  445ACOH    O212454   3.831   5.177   3.902  0.1213 -0.2411 -0.5902
  445ACOH    C212455   3.799   5.149   3.774  0.6896  0.2361 -0.9934
  445ACOH    O112456   3.719   5.207   3.701  1.0310 -0.4424  0.2832
  445ACOH    C112457   3.848   5.012   3.741 -0.0179  0.8711  0.0935
  445ACOH    H112458   3.852   5.000   3.633 -1.0202  0.0633  0.1465
  445ACOH    H212459   3.768   4.942   3.765  0.8715 -0.0563  0.3903
  445ACOH    H312460   3.938   4.979   3.792 -0.7600 -0.4055  0.5931
  446ACOH    H412461   5.347   2.436   1.965 -1.7910  2.7000  2.5714
  446ACOH    O212462   5.399   2.501   1.916  0.0227 -0.5780 -0.0241
  446ACOH    C212463   5.316   2.572   1.848  0.8858  0.5889 -0.2122
  446ACOH    O112464   5.195   2.548   1.828  0.2026 -0.0050  0.5311
  446ACOH    C112465   5.400   2.670   1.778  0.0535 -0.2413  0.1678
  446ACOH    H112466   5.452   2.726   1.856 -0.7468 -0.1255  0.6233
  446ACOH    H212467   5.337   2.733   1.715  1.6369  2.1170  0.8658
  446ACOH    H312468   5.473   2.624   1.712  1.6792  1.3151  0.8071
  447ACOH    H412469   8.088   5.996   2.195 -4.7270 -3.2608  1.0873
  447ACOH    O212470   8.079   6.050   2.275  0.3906 -0.2183 -0.1425
  447ACOH    C212471   8.197   6.093   2.315  0.4668  0.5719 -0.0045
  447ACOH    O112472   8.301   6.071   2.256  0.0052 -0.0378 -0.2609
  447ACOH    C112473   8.188   6.194   2.426  0.1128  0.2200 -0.1445
  447ACOH    H112474   8.240   6.280   2.385  0.9024 -0.2399 -0.1167
  447ACOH    H212475   8.250   6.153   2.506  1.4311 -2.9239 -2.6510
  447ACOH    H312476   8.085   6.217   2.450 -0.4040  2.1610 -3.8288
  448ACOH    H412477   3.951   5.803   6.489 -0.5329 -1.5699  1.4478
  448ACOH    O212478   4.032   5.749   6.490  0.0588 -0.7364  0.0259
  448ACOH    C212479   4.074   5.755   6.619  0.1224  0.3879  0.5274
  448ACOH    O112480   4.099   5.856   6.681 -0.2671 -0.5456  0.5807
  448ACOH    C112481   4.163   5.638   6.647  0.8102 -0.1226  0.3820
  448ACOH    H112482   4.153   5.596   6.747  2.0188 -1.5083 -0.0682
  448ACOH    H212483   4.264   5.677   6.643 -0.2282  2.4613 -2.4278
  448ACOH    H312484   4.148   5.560   6.572  0.4717 -1.3651  1.7091
  449ACOH    H412485   5.278   3.105   4.112  0.4914 -0.2351  0.1709
  449ACOH    O212486   5.315   3.163   4.180 -0.0087  0.1848  0.0849
  449ACOH    C212487   5.410   3.094   4.241  0.9218 -0.3661  0.2258
  449ACOH    O112488   5.460   2.985   4.199 -0.3449 -0.1581 -0.4606
  449ACOH    C112489   5.461   3.171   4.354 -0.1558 -0.0056  0.1305
  449ACOH    H112490   5.486   3.102   4.435 -1.8844 -0.6279  0.1562
  449ACOH    H212491   5.388   3.243   4.392  0.8433  1.3725 -0.5383
  449ACOH    H312492   5.548   3.228   4.321 -0.4175 -0.2477 -0.9943
  450ACOH    H412493   7.292   3.598   2.969 -1.0741 -0.1387  0.6238
  450ACOH    O212494   7.308   3.644   3.053 -0.4246  0.1802  0.3249
  450ACOH    C212495   7.260   3.769   3.048 -0.8416 -0.0173 -0.2373
  450ACOH    O112496   7.206   3.817   2.954 -0.4764  0.3344  0.2991
  450ACOH    C112497   7.231   3.821   3.188  0.2042 -0.1041 -0.6079
  450ACOH    H112498   7.323   3.843   3.241  0.0104  0.6977 -0.5980
  450ACOH    H212499   7.173   3.752   3.250 -0.4226  0.2276 -0.8200
  450ACOH    H312500   7.172   3.912   3.182  1.8605  1.0086 -0.4532
  451ACOH    H412501   9.455   7.088   4.453 -1.8890 -0.6128 -0.8964
  451ACOH    O212502   9.441   7.053   4.543  0.0826 -0.3474 -0.4500
  451ACOH    C212503   9.518   6.943   4.553 -0.7407  0.1134 -0.0590
  451ACOH    O112504   9.590   6.904   4.462  0.1958  0.1684  0.4387
  451ACOH    C112505   9.503   6.861   4.676 -0.2590  0.0846  0.2678
  451ACOH    H112506   9.415   6.797   4.675  0.5406 -1.0124 -1.6264
  451ACOH    H212507   9.490   6.922   4.766 -2.4236  0.2960 -0.1644
  451ACOH    H312508   9.595   6.803   4.686  0.3454  0.8761 -0.7407
  452ACOH    H412509   6.174   2.131   2.543  0.6474  2.4885 -0.4228
  452ACOH    O212510   6.227   2.099   2.468  0.2971  0.4548  0.1804
  452ACOH    C212511   6.352   2.149   2.496 -0.3641 -0.3102 -0.4683
  452ACOH    O112512   6.385   2.177   2.608 -0.1207 -0.0560 -0.4333
  452ACOH    C112513   6.462   2.127   2.394  0.3002  1.0105 -0.1543
  452ACOH    H112514   6.422   2.073   2.308  0.9330  1.2465 -0.6005
  452ACOH    H212515   6.541   2.061   2.430  0.3731 -0.3933 -2.7607
  452ACOH    H312516   6.492   2.227   2.363  0.2910  0.3179 -2.5090
  453ACOH    H412517   3.469   3.648   5.039 -1.5563  1.3602 -0.6606
  453ACOH    O212518   3.527   3.677   4.967  0.2812 -0.4628  0.0216
  453ACOH    C212519   3.625   3.745   5.031 -0.3630 -0.1992 -0.6191
  453ACOH    O112520   3.654   3.735   5.151 -0.3042 -0.7109  0.9972
  453ACOH    C112521   3.708   3.824   4.936  0.2048 -0.4614 -0.3329
  453ACOH    H112522   3.757   3.908   4.985  0.6042  0.5357 -2.4087
  453ACOH    H212523   3.650   3.865   4.854 -0.1980  0.5074  0.4249
  453ACOH    H312524   3.786   3.758   4.899  0.1855 -0.5544 -0.2090
  454ACOH    H412525   7.299   3.737   5.681 -0.6555 -0.5620 -0.7280
  454ACOH    O212526   7.353   3.664   5.716 -0.0649  0.2337  0.0102
  454ACOH    C212527   7.431   3.692   5.827  0.0891 -0.5378 -0.0896
  454ACOH    O112528   7.435   3.805   5.877 -0.5101  0.9851 -0.1645
  454ACOH    C112529   7.532   3.589   5.847  0.1728 -0.6702 -0.3428
  454ACOH    H112530   7.622   3.616   5.792  0.6831 -2.5265 -0.4591
  454ACOH    H212531   7.501   3.486   5.830  0.5176 -0.7705 -0.3653
  454ACOH    H312532   7.538   3.591   5.956 -2.3582  0.3346 -0.1722
  455ACOH    H412533   3.327   1.002   6.697 -0.2532  2.5894 -0.3884
  455ACOH    O212534   3.393   1.002   6.625  0.1304  0.2503 -0.0833
  455ACOH    C212535   3.431   0.876   6.595  0.3393  0.0721  0.1730
  455ACOH    O112536   3.388   0.778   6.651 -1.3208  0.3435  0.0800
  455ACOH    C112537   3.507   0.873   6.467 -0.5552 -0.0276 -0.3129
  455ACOH    H112538   3.528   0.977   6.441 -0.5341  0.8915  3.0810
  455ACOH    H212539   3.451   0.829   6.384  0.8986  0.8062 -1.7574
  455ACOH    H312540   3.606   0.828   6.471 -0.2221  0.7781  0.9560
  456ACOH    H412541   6.105   8.466   2.027 -2.6814 -1.2367 -1.2511
  456ACOH    O212542   6.133   8.464   1.934  0.5961  0.0358 -0.3439
  456ACOH    C212543   6.016   8.490   1.878  0.2453  0.6677  0.2416
  456ACOH    O112544   5.924   8.558   1.920 -0.5029 -0.2280  0.2180
  456ACOH    C112545   6.012   8.436   1.739 -0.1837  0.7739  0.1465
  456ACOH    H112546   5.927   8.472   1.681  0.2990 -0.9176 -1.6753
  456ACOH    H212547   6.005   8.327   1.740  1.6408  0.6442 -0.3549
  456ACOH    H312548   6.104   8.455   1.684  0.0549  2.7849  1.1934
  457ACOH    H412549   3.777   3.133   5.153 -2.7200  0.2836 -0.7246
  457ACOH    O212550   3.752   3.089   5.236 -0.6250  0.2227 -0.0863
  457ACOH    C212551   3.849   3.132   5.327  0.6682 -0.1547 -0.5762
  457ACOH    O112552   3.930   3.222   5.314  0.2351  0.0371  0.1835
  457ACOH    C112553   3.821   3.065   5.452  0.1034 -0.3711 -0.0781
  457ACOH    H112554   3.738   3.119   5.498  0.7647  0.5190  0.0849
  457ACOH    H212555   3.907   3.066   5.518 -0.1048 -2.4793  0.2637
  457ACOH    H312556   3.783   2.965   5.432  0.1007 -0.3764 -0.0465
  458ACOH    H412557   0.285   7.878   4.036  0.8392  3.0794  2.3133
  458ACOH    O212558   0.205   7.923   4.003 -0.2173 -0.2860  0.0496
  458ACOH    C212559   0.244   8.046   3.976 -0.1286  0.4153  0.5460
  458ACOH    O112560   0.363   8.086   3.978  0.3401 -0.2543 -0.0863
  458ACOH    C112561   0.141   8.122   3.911 -0.3095  0.3136  0.4213
  458ACOH    H112562   0.160   8.229   3.902 -2.0036  0.5886  0.0130
  458ACOH    H212563   0.047   8.100   3.961 -1.3955  0.6948 -1.3881
  458ACOH    H312564   0.131   8.076   3.812  1.7349 -1.0466  0.7958
  459ACOH    H412565   0.565   8.183   4.993 -2.0030  0.5155  1.9722
  459ACOH    O212566   0.587   8.091   5.014  0.0584  0.5410  0.1750
  459ACOH    C212567   0.664   8.046   4.913 -0.0358  0.9475  1.5559
  459ACOH    O112568   0.648   8.079   4.795 -0.1438  0.1090 -0.1408
  459ACOH    C112569   0.723   7.914   4.941  0.0538 -0.1314 -0.1287
  459ACOH    H112570   0.770   7.901   5.039  2.3151 -0.4673 -1.2198
  459ACOH    H212571   0.795   7.899   4.861  0.1828  1.3322 -0.3100
  459ACOH    H312572   0.640   7.845   4.926  3.4531 -4.4970  0.1792
  460ACOH    H412573   4.903   7.996   4.402 -1.1943  0.0252 -1.6935
  460ACOH    O212574   4.981   8.033   4.357  0.3956 -0.5645  0.4862
  460ACOH    C212575   5.022   7.924   4.290  1.0469 -0.3245  0.7394
  460ACOH    O112576   5.002   7.808   4.321 -0.2115 -0.6529  0.0093
  460ACOH    C112577   5.123   7.953   4.187 -0.0333  0.0749  0.2583
  460ACOH    H112578   5.209   8.010   4.222 -0.9919  1.6649  0.0257
  460ACOH    H212579   5.080   8.003   4.100 -1.9491 -0.9530  0.5849
  460ACOH    H312580   5.171   7.862   4.150  0.4003  0.7426 -0.8526
  461ACOH    H412581   8.360   1.672   0.329  1.2405 -0.1359 -0.2289
  461ACOH    O212582   8.316   1.735   0.271  0.3488 -0.5259  0.0139
  461ACOH    C212583   8.393   1.765   0.166  0.5148 -0.5580 -0.0907
  461ACOH    O112584   8.350   1.808   0.062 -0.3438 -0.0233  0.2959
  461ACOH    C112585   8.531   1.720   0.173 -0.1274 -0.5061 -0.5652
  461ACOH    H112586   8.581   1.796   0.233  0.5788 -1.5101  0.1226
  461ACOH    H212587   8.594   1.721   0.084  1.3998  2.1282  0.5024
  461ACOH    H312588   8.540   1.624   0.223  0.0393 -0.2025 -0.0196
  462ACOH    H412589   4.769   4.674   4.839 -0.0080  2.9829 -0.0405
  462ACOH    O212590   4.763   4.669   4.742 -0.0647 -0.2586  0.0755
  462ACOH    C212591   4.722   4.541   4.713 -0.3152  0.2272  0.4173
  462ACOH    O112592   4.683   4.458   4.795 -0.5457  0.6090  0.4717
  462ACOH    C112593   4.711   4.519   4.570 -0.0781 -0.2845  0.1215
  462ACOH    H112594   4.810   4.495   4.531  0.5212  3.5166 -0.9855
  462ACOH    H212595   4.669   4.606   4.519  0.7939 -0.5572 -1.0920
  462ACOH    H312596   4.641   4.439   4.550 -0.8467  0.3024  0.4229
  463ACOH    H412597   6.889   4.371   5.583  0.9135  2.0529 -1.9149
  463ACOH    O212598   6.801   4.377   5.541 -0.1735 -0.2670 -0.0853
  463ACOH    C212599   6.791   4.503   5.488  0.4209 -0.0708 -1.3641
  463ACOH    O112600   6.843   4.606   5.523 -0.2006  0.5984 -0.0933
  463ACOH    C112601   6.670   4.512   5.406 -0.4961 -0.4289  0.1435
  463ACOH    H112602   6.692   4.566   5.313  0.2654  0.2773  0.7260
  463ACOH    H212603   6.590   4.570   5.452 -0.3498  0.5450 -0.7980
  463ACOH    H312604   6.627   4.414   5.390 -1.1679 -0.1214  0.0417
  464ACOH    H412605   7.112   9.795   0.891 -0.7163  0.7435 -0.9751
  464ACOH    O212606   7.058   9.724   0.853 -0.0852 -0.2700 -0.0105
  464ACOH    C212607   7.133   9.620   0.848 -0.2173  0.3753 -0.3333
  464ACOH    O112608   7.249   9.610   0.888 -0.5288  0.4928  0.0883
  464ACOH    C112609   7.070   9.507   0.785  0.5424 -0.0735 -0.5796
  464ACOH    H112610   7.137   9.423   0.766  1.0186  0.5812 -1.8400
  464ACOH    H212611   7.017   9.538   0.694  1.0593  0.0914 -0.8257
  464ACOH    H312612   6.993   9.459   0.845 -0.9973 -0.0211 -2.4605
  465SOL     OW12613   4.392   8.692   5.540  0.1302  0.4676 -0.7216
  465SOL    HW112614   4.385   8.614   5.602  0.8887 -1.9234 -3.5167
  465SOL    HW212615   4.303   8.736   5.531 -0.8416 -1.4596 -0.7794
  466SOL     OW12616   1.231   8.113   1.763 -0.4247 -0.7507  0.2624
  466SOL    HW112617   1.234   8.152   1.855 -0.0975 -0.0731 -0.0356
  466SOL    HW212618   1.191   8.021   1.767 -1.0570 -0.4462  0.9830
  467SOL     OW12619   0.472   7.893   3.388  0.1415 -0.0949 -0.2176
  467SOL    HW112620   0.442   7.917   3.296 -1.2347  0.2885  0.3201
  467SOL    HW212621   0.452   7.796   3.404  0.3164 -0.1438 -0.2936
  468SOL     OW12622   1.328   5.995   0.257 -0.0976 -0.0708 -0.1088
  468SOL    HW112623   1.406   6.027   0.311 -0.0254  0.6437 -0.6346
  468SOL    HW212624   1.324   5.895   0.262  0.7190 -0.1008  0.1096
  469SOL     OW12625   8.813   2.436   6.557 -0.5760  0.5431  0.4709
  469SOL    HW112626   8.788   2.523   6.597 -0.1344  1.0941 -0.4347
  469SOL    HW212627   8.912   2.427   6.554 -0.6041  0.3766 -0.1948
  470SOL     OW12628   9.170   0.652   2.955  0.3225  0.2753 -0.0785
  470SOL    HW112629   9.117   0.730   2.923  1.3727  0.8624 -0.4252
  470SOL    HW212630   9.259   0.684   2.990  0.8140 -0.7673 -0.3550
  471SOL     OW12631   9.286   1.355   6.258 -0.4580  0.5628  0.4662
  471SOL    HW112632   9.312   1.447   6.289  2.5160  0.2816 -1.0294
  471SOL    HW212633   9.334   1.287   6.313 -2.2996 -0.1333  1.2604
  472SOL     OW12634   1.671   9.091   3.496 -0.7017 -0.2397 -0.1825
  472SOL    HW112635   1.695   9.030   3.571  1.6600  0.0774 -0.6567
  472SOL    HW212636   1.623   9.172   3.533 -2.9276 -1.8303  0.5393
  473SOL     OW12637   3.528   0.960   1.057  0.0574  0.4597  0.0522
  473SOL    HW112638   3.438   0.942   1.096  0.2028  0.4491  0.3860
  473SOL    HW212639   3.536   1.057   1.034  0.6648  0.8642  1.8630
  474SOL     OW12640   0.527   4.962   3.562 -0.3119 -0.1126 -0.2724
  474SOL    HW112641   0.435   4.973   3.524 -0.2340 -0.1558 -0.4787
  474SOL    HW212642   0.550   4.865   3.564 -0.4589 -0.1373  0.2347
  475SOL     OW12643   5.234   0.061   4.913  0.5126  0.3505 -0.4431
  475SOL    HW112644   5.293   0.107   4.846 -0.6052  1.0442 -0.9572
  475SOL    HW212645   5.173  -0.002   4.865 -1.1135  1.7349 -0.2027
  476SOL     OW12646   6.368   1.652   2.882  0.3702  0.7526 -0.7881
  476SOL    HW112647   6.268   1.658   2.888  0.4952  2.1536  0.0391
  476SOL    HW212648   6.407   1.641   2.973  0.8909 -1.5264 -1.2564
  477SOL     OW12649   7.011   6.984   5.738 -0.1958  0.8854  0.2385
  477SOL    HW112650   7.083   7.054   5.738 -0.2911  1.0037  2.3013
  477SOL    HW212651   7.050   6.897   5.708 -0.2295  1.9209 -3.0170
  478SOL     OW12652   8.199   2.442   5.786  0.2324  0.0258  0.8053
  478SOL    HW112653   8.160   2.395   5.865 -0.1394  1.6953  1.6324
  478SOL    HW212654   8.126   2.483   5.732  0.5613 -0.2892  0.1040
  479SOL     OW12655   1.811   0.671   0.347  0.3352 -0.0696  0.0362
  479SOL    HW112656   1.766   0.675   0.436  1.6545  0.7788  0.6755
  479SOL    HW212657   1.869   0.751   0.336 -0.1742  0.0672 -1.7924
  480SOL     OW12658   9.862   0.055   0.452 -0.2202 -0.5630 -0.3167
  480SOL    HW112659   9.891  -0.028   0.500 -0.2242  0.1086  0.8662
  480SOL    HW212660   9.940   0.118   0.445 -0.0590 -0.8919 -1.7296
  481SOL     OW12661   8.477   7.036   4.636 -0.6446 -0.6362 -0.3684
  481SOL    HW112662   8.409   7.087   4.582  0.2992 -0.1471 -1.1202
  481SOL    HW212663   8.526   7.100   4.696 -1.1369 -1.0537  0.4865
  482SOL     OW12664   6.793   1.350   5.922 -0.1971 -0.1926  0.1577
  482SOL    HW112665   6.745   1.410   5.858 -1.3448 -0.7665  0.4474
  482SOL    HW212666   6.891   1.350   5.903 -0.5196 -0.2919 -1.5446
  483SOL     OW12667   5.787   1.282   4.214 -0.3061  0.0664  0.1797
  483SOL    HW112668   5.801   1.371   4.171  0.9096 -0.1054  0.1974
  483SOL    HW212669   5.706   1.238   4.175  1.2651 -0.4771 -2.6577
  484SOL     OW12670   6.533   7.134   4.876 -0.1482  0.5318 -0.1952
  484SOL    HW112671   6.525   7.157   4.779  0.6645  2.5524  0.1908
  484SOL    HW212672   6.628   7.111   4.897 -0.4075 -0.3601  0.0480
  485SOL     OW12673   8.604   0.339   5.820  0.5926 -0.3076 -0.2027
  485SOL    HW112674   8.578   0.266   5.883  1.3885 -0.3123  0.1162
  485SOL    HW212675   8.524   0.366   5.766 -0.2349  0.1580  1.2556
  486SOL     OW12676   0.453   0.698   2.014  0.5044  0.2791  0.2280
  486SOL    HW112677   0.455   0.678   1.916  0.3413 -1.6653  0.6019
  486SOL    HW212678   0.540   0.673   2.055 -0.2312 -1.1027  0.9731
  487SOL     OW12679   0.824   4.902   2.443 -0.1277  0.0519 -0.0685
  487SOL    HW112680   0.861   4.995   2.452  0.5171 -0.1676 -0.4611
  487SOL    HW212681   0.725   4.908   2.428  0.2429  0.8009 -2.5671
  488SOL     OW12682   2.309   4.091   3.532  0.3145  0.2989  0.4305
  488SOL    HW112683   2.211   4.103   3.547  0.3336  1.9005 -0.6200
  488SOL    HW212684   2.327   3.996   3.506 -1.0659  0.1967 -0.2180
  489SOL     OW12685   0.688   4.109   0.302  0.0109  0.1247 -0.1375
  489SOL    HW112686   0.677   4.015   0.269 -1.4811  0.5060 -0.7722
  489SOL    HW212687   0.648   4.117   0.393  1.1547 -0.1118  0.4038
  490SOL     OW12688   6.440   2.522   4.678  0.1977  0.5888  0.2410
  490SOL    HW112689   6.404   2.428   4.676  0.7876  0.3689 -0.0402
  490SOL    HW212690   6.446   2.553   4.772 -1.5462  0.9401  0.2521
  491SOL     OW12691   1.487   3.433   5.918 -0.1440  0.4651 -0.1538
  491SOL    HW112692   1.401   3.483   5.905 -0.3534  0.5479  1.4830
  491SOL    HW212693   1.562   3.498   5.930 -0.1606  0.3999  0.3263
  492SOL     OW12694   3.237   0.373   5.867 -0.0969 -0.7437  0.6054
  492SOL    HW112695   3.271   0.285   5.833  0.3521 -0.4014  0.1776
  492SOL    HW212696   3.142   0.384   5.840  1.1720  1.0413 -3.5328
  493SOL     OW12697   1.574   1.608   1.061  0.2132 -0.0866  0.2839
  493SOL    HW112698   1.500   1.675   1.050 -0.4684 -0.7458  0.7505
  493SOL    HW212699   1.600   1.572   0.972  0.2619  0.4558  0.0758
  494SOL     OW12700   1.277   2.371   0.528 -0.3526  0.2838 -0.0473
  494SOL    HW112701   1.207   2.418   0.581 -1.1533 -0.8153 -0.1263
  494SOL    HW212702   1.363   2.370   0.580 -0.4545  1.3737  0.1657
  495SOL     OW12703   2.978   4.534   5.448 -0.1803  0.7162  0.8751
  495SOL    HW112704   2.899   4.570   5.400  0.4092  1.0908  0.1728
  495SOL    HW212705   3.005   4.446   5.407 -0.8054  0.1287  1.7212
  496SOL     OW12706   8.447   6.395   2.764 -0.0713 -0.4341  0.2624
  496SOL    HW112707   8.470   6.433   2.854  0.2574  0.2691 -0.1140
  496SOL    HW212708   8.389   6.459   2.715  2.4858  0.7410 -1.3485
  497SOL     OW12709   3.655   9.133   0.451  0.4534 -0.3678  1.0751
  497SOL    HW112710   3.702   9.221   0.455 -0.1240  0.0188 -0.3646
  497SOL    HW212711   3.649   9.094   0.543  1.4888  0.6774  1.5955
  498SOL     OW12712   7.549   6.298   1.939 -0.0249  0.2866  0.2103
  498SOL    HW112713   7.462   6.345   1.956  0.4812  1.1323  0.4738
  498SOL    HW212714   7.600   6.290   2.024  1.0850  1.6694 -0.3062
  499SOL     OW12715   1.140   5.557   0.191  0.1183 -0.5671 -0.1032
  499SOL    HW112716   1.130   5.656   0.183  1.0698 -0.5679 -1.5468
  499SOL    HW212717   1.076   5.512   0.129  1.0231 -0.8069 -0.8673
  500SOL     OW12718   5.983   0.270   1.463  0.1734 -0.0324 -0.0314
  500SOL    HW112719   6.016   0.240   1.553  1.0349  1.5249  0.1932
  500SOL    HW212720   5.888   0.240   1.451  0.2414 -0.7670  1.1580
  501SOL     OW12721   9.696   0.585   2.999 -0.3565 -0.5261  0.1201
  501SOL    HW112722   9.744   0.669   2.975 -1.2766  0.1717  0.6714
  501SOL    HW212723   9.713   0.515   2.930 -0.4851  0.4675 -0.9230
  502SOL     OW12724   0.248   6.354   1.345 -0.2483  0.2001 -0.0390
  502SOL    HW112725   0.175   6.363   1.413  0.0487  0.3460  0.2623
  502SOL    HW212726   0.242   6.429   1.279 -0.8961 -0.2675 -0.5235
  503SOL     OW12727   4.156   8.521   4.287 -0.2886 -0.0390 -0.3494
  503SOL    HW112728   4.175   8.465   4.207 -0.2884  0.9650 -1.0654
  503SOL    HW212729   4.243   8.554   4.326 -0.2675 -0.8792  0.3249
  504SOL     OW12730   9.277   6.534   3.123  0.0881 -0.0574  0.2661
  504SOL    HW112731   9.261   6.629   3.098 -0.0594 -0.5816 -1.7250
  504SOL    HW212732   9.351   6.528   3.189  0.7498  1.3622 -0.3358
  505SOL     OW12733   8.398   9.643   2.144  0.1334  0.3173  0.3641
  505SOL    HW112734   8.409   9.544   2.152  0.7974  0.2365 -1.4145
  505SOL    HW212735   8.477   9.681   2.095 -1.5523  1.3552 -1.5867
  506SOL     OW12736   3.074   2.055   3.390 -0.0065  0.4133  0.0544
  506SOL    HW112737   3.106   2.110   3.467  2.2892 -0.5984 -0.1447
  506SOL    HW212738   2.974   2.061   3.385 -0.0350  2.1809  1.8080
  507SOL     OW12739   9.878   9.690   4.022 -0.2881 -0.6005  0.0579
  507SOL    HW112740   9.781   9.712   4.030 -0.1139  1.3579 -2.4294
  507SOL    HW212741   9.929   9.739   4.092 -0.9076 -0.2803  0.2898
  508SOL     OW12742   0.159   2.808   2.295  0.1588 -0.1189 -0.0771
  508SOL    HW112743   0.234   2.833   2.233  0.6415  0.5181  0.7646
  508SOL    HW212744   0.169   2.712   2.321 -0.1952 -0.4681 -1.1937
  509SOL     OW12745   6.441   6.879   5.894 -0.1302  0.3898 -0.1186
  509SOL    HW112746   6.437   6.818   5.815 -1.8564  1.8462 -1.2131
  509SOL    HW212747   6.523   6.936   5.888  0.4450 -0.4335 -0.1356
  510SOL     OW12748   4.542   4.656   0.958 -0.0503  0.4004  0.0280
  510SOL    HW112749   4.510   4.588   1.024  0.4414  0.2565  0.1178
  510SOL    HW212750   4.483   4.737   0.962 -1.3890 -0.5093 -0.9505
  511SOL     OW12751   8.411   2.524   2.820  0.7277 -0.0460 -0.1618
  511SOL    HW112752   8.464   2.462   2.762 -0.5605 -1.5391  0.2289
  511SOL    HW212753   8.316   2.494   2.823  0.1203  1.8487  0.2061
  512SOL     OW12754   7.365   4.517   0.092 -0.9210  0.0154 -0.1162
  512SOL    HW112755   7.326   4.602   0.055  0.9034  0.2228 -1.5888
  512SOL    HW212756   7.464   4.526   0.100 -0.7455 -1.8828 -0.0033
  513SOL     OW12757   0.103   6.968   5.277  0.6685 -0.0540 -0.0186
  513SOL    HW112758   0.145   6.974   5.186  2.1394 -1.5943  0.5336
  513SOL    HW212759   0.051   6.883   5.284 -1.5598  1.2536 -0.2614
  514SOL     OW12760   8.016   9.130   5.632 -0.2301 -0.1153 -0.1985
  514SOL    HW112761   7.953   9.166   5.564  0.4481  3.1373  0.7879
  514SOL    HW212762   7.991   9.167   5.722  1.0068 -1.5163  0.7319
  515SOL     OW12763   3.253   5.215   3.924  0.2974  0.2969  0.1429
  515SOL    HW112764   3.306   5.300   3.923 -0.9756  1.1053  0.2141
  515SOL    HW212765   3.209   5.204   4.013  0.0459 -0.1766 -0.0354
  516SOL     OW12766   7.500   0.600   0.202  0.0148  0.4989 -0.4182
  516SOL    HW112767   7.486   0.670   0.273  0.6032  1.5418 -1.3179
  516SOL    HW212768   7.589   0.557   0.215 -0.2969  0.0004  0.0663
  517SOL     OW12769   2.620   7.509   4.078 -0.1188 -0.0574 -0.9338
  517SOL    HW112770   2.679   7.473   4.006  0.7717  0.4214 -0.4430
  517SOL    HW212771   2.634   7.457   4.162 -1.2028 -0.6549 -1.1042
  518SOL     OW12772   9.401   0.637   4.502  0.3622  0.8461 -0.0948
  518SOL    HW112773   9.303   0.640   4.520  0.5953 -1.1711  1.6253
  518SOL    HW212774   9.416   0.608   4.407 -0.7221  3.5172 -1.1172
  519SOL     OW12775   3.566   7.948   3.851 -0.1334  0.5272  0.5940
  519SOL    HW112776   3.636   8.009   3.889 -0.9654  0.5092  2.1996
  519SOL    HW212777   3.590   7.925   3.756  1.1932  1.7902  0.6010
  520SOL     OW12778   1.828   0.691   2.119  0.5012 -0.0664 -0.0326
  520SOL    HW112779   1.741   0.646   2.139  0.4908 -0.2623 -0.5147
  520SOL    HW212780   1.888   0.686   2.199 -0.1097  0.4908  0.4722
  521SOL     OW12781   8.573   2.390   5.540 -0.6396 -0.5481  0.2160
  521SOL    HW112782   8.502   2.441   5.491 -1.5530  0.1612  2.2101
  521SOL    HW212783   8.547   2.382   5.636  2.7329  1.1281  1.3465
  522SOL     OW12784   9.977   8.009   5.571 -0.3186  0.0691  0.0315
  522SOL    HW112785   9.947   8.077   5.638  1.2705  0.6905  0.1271
  522SOL    HW212786  10.042   7.947   5.615 -1.9046 -1.6610  0.0048
  523SOL     OW12787   0.455   5.802   3.882 -0.1244 -0.1164  0.5755
  523SOL    HW112788   0.375   5.766   3.930 -0.7179 -0.7098 -0.8282
  523SOL    HW212789   0.536   5.750   3.908 -0.2994  0.0940  1.5458
  524SOL     OW12790   7.624   2.255   0.435 -0.4206  0.3781 -0.2664
  524SOL    HW112791   7.684   2.259   0.514 -0.3088 -0.3209 -0.3144
  524SOL    HW212792   7.621   2.162   0.399 -1.6389  0.3708 -0.1763
  525SOL     OW12793   1.006   7.639   0.871 -0.1207  0.1014 -0.2987
  525SOL    HW112794   0.963   7.550   0.859  2.2291 -0.8744 -1.7977
  525SOL    HW212795   1.093   7.629   0.919 -1.4475  2.0381  2.6664
  526SOL     OW12796   0.729   6.550   3.349  0.7702  0.7749 -0.1899
  526SOL    HW112797   0.775   6.621   3.403  2.2478  0.7072 -1.3124
  526SOL    HW212798   0.795   6.509   3.286 -0.7427  0.3386 -1.5119
  527SOL     OW12799   0.961   5.056   0.747 -0.8266 -0.1566  0.3200
  527SOL    HW112800   0.963   4.968   0.794 -0.2441 -0.0505  0.5000
  527SOL    HW212801   0.880   5.107   0.775  0.2251  0.4891  2.2759
  528SOL     OW12802   7.011   2.686   4.050 -0.3292  0.0015 -0.2033
  528SOL    HW112803   7.083   2.720   3.990  1.9331 -3.8950  0.1352
  528SOL    HW212804   6.959   2.615   4.003 -1.9804  0.6406  0.6309
  529SOL     OW12805   1.158   7.643   0.214 -0.4943 -0.1879 -0.7696
  529SOL    HW112806   1.106   7.723   0.185  0.3873  0.3971 -0.7725
  529SOL    HW212807   1.230   7.624   0.147  0.0722 -0.2339 -0.1601
  530SOL     OW12808   7.067   1.861   0.752  0.5533  0.0377 -0.4299
  530SOL    HW112809   7.029   1.954   0.746 -1.1580 -0.7084 -1.6334
  530SOL    HW212810   6.992   1.795   0.755  1.7438 -1.4794 -2.6394
  531SOL     OW12811   5.581   9.789   3.529 -0.1606 -0.4299  0.1046
  531SOL    HW112812   5.498   9.790   3.585  0.0663 -0.0948  0.4254
  531SOL    HW212813   5.597   9.880   3.491  1.0776 -0.0511  1.5091
  532SOL     OW12814   4.150   1.301   4.353  0.0311  0.4386  0.2262
  532SOL    HW112815   4.078   1.340   4.411 -1.2740 -0.2544 -0.9027
  532SOL    HW212816   4.239   1.321   4.393 -0.7932  1.1039  1.7829
  533SOL     OW12817   7.200   5.985   0.101 -0.1149 -0.1602 -0.0170
  533SOL    HW112818   7.173   5.891   0.083 -1.1850  0.1546 -0.1068
  533SOL    HW212819   7.132   6.029   0.160 -0.0898  0.8056 -0.6759
  534SOL     OW12820   4.312   9.832   5.497 -0.5653 -0.2306  0.1696
  534SOL    HW112821   4.320   9.896   5.421  0.9165 -0.6722 -0.0731
  534SOL    HW212822   4.396   9.836   5.552 -0.8041 -1.3393  0.6317
  535SOL     OW12823   0.055   5.841   6.158 -0.0118 -0.0149 -0.6097
  535SOL    HW112824   0.034   5.935   6.186  0.7956  0.1550 -0.5777
  535SOL    HW212825   0.102   5.794   6.233  4.0912  1.0780 -2.3660
  536SOL     OW12826   5.833   1.701   0.793  0.3368 -0.3731  0.1936
  536SOL    HW112827   5.765   1.771   0.771 -0.5584 -0.8519  1.4047
  536SOL    HW212828   5.787   1.614   0.811  1.4578 -1.3838 -1.6085
  537SOL     OW12829   6.134   8.925   4.157  0.6978  0.7000  0.6263
  537SOL    HW112830   6.184   8.878   4.229  1.0626  0.8906  0.4978
  537SOL    HW212831   6.149   9.024   4.165  0.8114  0.7152  0.2366
  538SOL     OW12832   9.858   3.313   1.041 -0.0361  0.1043  0.2790
  538SOL    HW112833   9.829   3.258   0.963  0.6811 -0.4842  0.4220
  538SOL    HW212834   9.805   3.287   1.122  0.7413 -0.8358  0.4970
  539SOL     OW12835   8.816   0.117   6.363 -0.2451 -0.3687  0.0572
  539SOL    HW112836   8.911   0.143   6.346 -0.3530  0.6806  0.9932
  539SOL    HW212837   8.791   0.040   6.304  0.6349  0.4935 -1.4793
  540SOL     OW12838   4.579   2.616   5.440  0.2212  0.4601 -0.2046
  540SOL    HW112839   4.589   2.592   5.343  0.2479  1.4215 -0.4419
  540SOL    HW212840   4.589   2.533   5.495  1.0082  0.0344 -0.9706
  541SOL     OW12841   2.303   9.795   4.624 -0.1097 -0.1233 -0.2845
  541SOL    HW112842   2.328   9.834   4.536  0.8072 -0.0222  0.0130
  541SOL    HW212843   2.205   9.775   4.626  0.0655 -1.1808 -1.7238
  542SOL     OW12844   9.334   9.546   5.383 -0.0696  0.3204 -0.0506
  542SOL    HW112845   9.303   9.641   5.376 -0.1714  0.1901 -1.4447
  542SOL    HW212846   9.258   9.484   5.363 -0.6905 -0.1266  3.3608
  543SOL     OW12847   6.975   9.538   2.907  0.6248 -0.6217  0.1808
  543SOL    HW112848   7.038   9.502   2.838 -0.3296 -0.4696 -0.7917
  543SOL    HW212849   7.000   9.632   2.930  0.0768 -0.1606 -1.0613
  544SOL     OW12850   1.629   9.695   4.815  0.0976  0.1619  0.1693
  544SOL    HW112851   1.631   9.720   4.718 -0.1611  1.5609  0.5150
  544SOL    HW212852   1.631   9.777   4.871 -2.1529 -0.5182  1.3294
  545SOL     OW12853   2.239   1.022   3.149 -0.2819  0.0603 -0.3335
  545SOL    HW112854   2.227   1.058   3.241  1.3914 -0.3203  0.0379
  545SOL    HW212855   2.205   0.928   3.144  2.8089 -1.1721  0.8318
  546SOL     OW12856   1.425   1.346   6.418 -0.3288  0.3741 -0.0032
  546SOL    HW112857   1.368   1.264   6.426  0.6820 -0.3352 -0.0276
  546SOL    HW212858   1.421   1.398   6.503 -1.8467  0.8947 -0.3621
  547SOL     OW12859   7.985   3.403   0.020 -0.3664  0.0632  0.0192
  547SOL    HW112860   7.935   3.317   0.032  0.1978 -0.4622 -1.2977
  547SOL    HW212861   7.923   3.472  -0.017 -0.3838 -0.2962 -0.6342
  548SOL     OW12862   4.972   9.912   2.139  0.0516 -0.0565  0.2606
  548SOL    HW112863   4.978   9.812   2.139  0.4605 -0.0319  0.3737
  548SOL    HW212864   5.036   9.949   2.072 -0.1146  0.1305  0.2050
  549SOL     OW12865   3.770   0.363   5.605 -0.1262 -0.0094  0.1689
  549SOL    HW112866   3.744   0.391   5.698 -2.4542 -1.9040  0.1428
  549SOL    HW212867   3.862   0.326   5.606  0.0505  0.4464  1.6331
  550SOL     OW12868   3.962   8.522   3.597  0.0531 -0.1036 -0.1396
  550SOL    HW112869   3.933   8.616   3.615 -0.0393  0.0913 -1.2941
  550SOL    HW212870   4.061   8.515   3.609  0.0984  0.2045 -0.3401
  551SOL     OW12871   9.274   8.547   4.298 -0.0016 -0.2091  0.2266
  551SOL    HW112872   9.284   8.475   4.368 -1.0387 -0.1655  0.4281
  551SOL    HW212873   9.323   8.520   4.215  1.0977 -0.3416  0.9055
  552SOL     OW12874   1.414   5.292   4.463  0.1123 -0.6053  0.7020
  552SOL    HW112875   1.498   5.257   4.504  0.4146 -0.1931  0.4366
  552SOL    HW212876   1.355   5.216   4.436 -0.7480 -0.8925  3.2636
  553SOL     OW12877   8.243   1.615   5.266 -0.2317  0.3998  0.7146
  553SOL    HW112878   8.324   1.659   5.228  0.2844  0.6770  2.1004
  553SOL    HW212879   8.224   1.531   5.216  1.2852  0.0146  0.7642
  554SOL     OW12880   0.213   3.269   0.285  0.8756 -0.2381 -0.0150
  554SOL    HW112881   0.287   3.327   0.320 -0.1913  1.2439 -0.2008
  554SOL    HW212882   0.139   3.264   0.352  0.2338 -0.0365 -0.7101
  555SOL     OW12883   2.500   6.020   2.852  0.4876  0.3047 -0.0449
  555SOL    HW112884   2.590   5.990   2.884 -0.0245 -0.0702  1.0526
  555SOL    HW212885   2.477   6.107   2.894  0.0764  0.1107  0.1320
  556SOL     OW12886   0.483   6.925   1.991 -0.1283  0.0361  0.8383
  556SOL    HW112887   0.541   6.868   2.050  0.0251 -0.3660  0.2992
  556SOL    HW212888   0.395   6.880   1.978 -0.0380 -0.0361  0.4820
  557SOL     OW12889   2.006   7.554   1.345  0.0495  0.7754 -0.2980
  557SOL    HW112890   2.059   7.471   1.325 -1.1519 -0.5345  1.7806
  557SOL    HW212891   2.059   7.614   1.404  0.3910  0.8504 -0.6811
  558SOL     OW12892   9.336   7.028   3.386  0.1732 -0.1100 -0.2552
  558SOL    HW112893   9.379   6.975   3.313  0.5214 -2.5317  1.6320
  558SOL    HW212894   9.273   6.969   3.437  2.2776  0.5871  3.3334
  559SOL     OW12895   0.491   8.923   1.427  0.4442  0.0458 -0.4381
  559SOL    HW112896   0.508   8.945   1.330 -0.4825 -0.0137 -0.6163
  559SOL    HW212897   0.558   8.855   1.457  0.1810 -0.6036 -1.2898
  560SOL     OW12898   2.570   6.543   4.527  0.2707 -0.3626  0.0438
  560SOL    HW112899   2.572   6.604   4.448  1.0504  0.7344  0.8833
  560SOL    HW212900   2.663   6.514   4.549  0.2148  0.3840  1.3281
  561SOL     OW12901   2.899   4.808   5.200 -0.1734  0.6320  0.1797
  561SOL    HW112902   2.887   4.842   5.294  3.1128  0.1978  0.8183
  561SOL    HW212903   2.971   4.861   5.155 -1.8649  0.9663 -2.1986
  562SOL     OW12904   0.127   0.335   6.036 -0.3206 -0.4018 -0.7265
  562SOL    HW112905   0.219   0.357   6.002 -0.1591 -1.2947 -0.8828
  562SOL    HW212906   0.081   0.419   6.064  0.9853 -0.0620  0.4488
  563SOL     OW12907   9.201   0.774   4.650  0.1050  0.1447  0.5866
  563SOL    HW112908   9.168   0.704   4.714 -0.5872  0.5000  0.6149
  563SOL    HW212909   9.278   0.823   4.692 -1.8637  1.9892  2.1218
  564SOL     OW12910   8.904   1.421   6.126  0.2005  0.3130 -0.0723
  564SOL    HW112911   8.978   1.359   6.101  0.4758  0.2018  0.9963
  564SOL    HW212912   8.836   1.371   6.180 -1.1812  0.1543 -1.9398
  565SOL     OW12913   4.962   8.789   4.648 -0.1819  0.6824  0.1362
  565SOL    HW112914   5.049   8.839   4.653  0.1068  0.1328  0.6290
  565SOL    HW212915   4.891   8.842   4.695 -0.3751  1.6609 -1.2239
  566SOL     OW12916   4.411   6.630   0.496  0.2478 -0.3423  0.0970
  566SOL    HW112917   4.453   6.697   0.435 -2.2568 -1.0707 -2.5110
  566SOL    HW212918   4.473   6.552   0.506  1.8035  0.9277  0.6228
  567SOL     OW12919   8.878   1.374   4.733  0.3532 -0.3252 -0.1482
  567SOL    HW112920   8.974   1.355   4.712  0.2219 -0.9709 -0.1768
  567SOL    HW212921   8.822   1.354   4.653 -0.1393 -2.6886  0.7344
  568SOL     OW12922   6.652   8.444   2.312  0.1558 -0.9700  0.4272
  568SOL    HW112923   6.672   8.413   2.405  1.6142  0.1559  0.4941
  568SOL    HW212924   6.735   8.479   2.269 -0.7838 -0.2191 -0.8191
  569SOL     OW12925   6.035   1.053   6.430 -0.2366 -0.2625  0.3516
  569SOL    HW112926   5.982   1.087   6.507  0.4385 -1.7954  1.5282
  569SOL    HW212927   6.122   1.103   6.425 -1.1392  1.2193 -0.6590
  570SOL     OW12928   2.139   6.338   0.318 -0.1167 -0.1586 -0.2689
  570SOL    HW112929   2.161   6.245   0.348  0.4935 -0.2173 -0.8950
  570SOL    HW212930   2.106   6.336   0.224 -2.0158  0.0279  0.3673
  571SOL     OW12931   4.450   1.407   0.467  0.1679  0.0059 -0.3758
  571SOL    HW112932   4.448   1.471   0.390 -0.1943 -0.1083 -0.4621
  571SOL    HW212933   4.371   1.346   0.462  1.6772 -1.9351 -1.5625
  572SOL     OW12934   9.792   0.380   6.600 -0.1970 -0.0537  0.0601
  572SOL    HW112935   9.822   0.361   6.506 -0.6783  1.2604 -0.3620
  572SOL    HW212936   9.815   0.302   6.658 -1.6004 -1.7084 -1.5283
  573SOL     OW12937   5.388   5.934   0.829 -0.5683 -0.0216  0.1328
  573SOL    HW112938   5.487   5.942   0.822 -0.8435  1.7887 -2.2402
  573SOL    HW212939   5.349   6.024   0.853 -1.7766 -0.2970 -0.7480
  574SOL     OW12940   8.960   0.789   1.764  0.0258  0.1191  0.0908
  574SOL    HW112941   8.941   0.715   1.699  1.3237 -1.0542  1.0097
  574SOL    HW212942   8.875   0.834   1.789 -1.0902 -2.4647  1.1601
  575SOL     OW12943   4.251   9.365   3.178  0.0593  0.1234 -0.1009
  575SOL    HW112944   4.151   9.362   3.182  0.1305 -0.1598  2.8375
  575SOL    HW212945   4.288   9.272   3.180  0.4224  0.2917  2.4963
  576SOL     OW12946   3.026   7.082   2.608  0.0530 -0.5168 -0.2502
  576SOL    HW112947   2.949   7.143   2.590 -1.1061 -2.9234 -4.1120
  576SOL    HW212948   3.026   7.057   2.705 -3.5283  0.2073  0.0201
  577SOL     OW12949   4.680   1.501   0.858  0.0346  0.0090 -0.2921
  577SOL    HW112950   4.684   1.406   0.890 -0.1251  0.0943 -0.0132
  577SOL    HW212951   4.629   1.556   0.924  1.0741  0.5219  0.0892
  578SOL     OW12952   9.611   5.380   3.522 -0.3686  0.0815 -0.0459
  578SOL    HW112953   9.620   5.437   3.441 -0.5315 -0.7498 -0.6479
  578SOL    HW212954   9.634   5.434   3.603 -0.7119  1.0562 -0.5904
  579SOL     OW12955   3.337   1.565   5.451  0.7250 -0.1575  0.0451
  579SOL    HW112956   3.436   1.571   5.458  0.6072  0.2081  1.6047
  579SOL    HW212957   3.298   1.551   5.542 -0.6018 -1.1391 -0.6561
  580SOL     OW12958   8.216   9.620   3.314  0.3342 -0.3880  0.2991
  580SOL    HW112959   8.164   9.700   3.285  0.6876 -0.0584  0.5755
  580SOL    HW212960   8.278   9.645   3.388  0.0553 -1.0351  0.7531
  581SOL     OW12961   8.330   6.417   1.847  0.2693 -0.1416 -0.0716
  581SOL    HW112962   8.364   6.323   1.852  2.6373  0.7140  1.1418
  581SOL    HW212963   8.355   6.465   1.932 -0.4144  1.7212 -0.9055
  582SOL     OW12964   1.134   6.275   1.366 -0.4336  0.0954  0.5434
  582SOL    HW112965   1.144   6.335   1.446  2.3378 -0.2596  0.4915
  582SOL    HW212966   1.128   6.180   1.396  2.2764 -0.1917  0.2989
  583SOL     OW12967   7.778   0.546   3.845 -0.2232  0.4881 -0.1106
  583SOL    HW112968   7.866   0.529   3.799 -0.8335  0.5113 -1.3165
  583SOL    HW212969   7.725   0.461   3.847 -0.1228  0.4413  0.7453
  584SOL     OW12970   2.096   8.909   4.273 -0.2688 -0.1450 -0.3376
  584SOL    HW112971   2.168   8.840   4.264  0.0067 -0.0523  1.0601
  584SOL    HW212972   2.039   8.909   4.190 -0.0340 -1.7849 -0.5167
  585SOL     OW12973   2.522   8.414   4.356 -0.0932  0.2024  0.7776
  585SOL    HW112974   2.486   8.331   4.398  0.9333 -0.3777  0.5416
  585SOL    HW212975   2.476   8.494   4.395 -2.8191 -0.5654 -0.7328
  586SOL     OW12976   8.601   9.645   2.585  0.4817  0.0892  0.1287
  586SOL    HW112977   8.577   9.634   2.681 -0.6991  0.8071 -0.0713
  586SOL    HW212978   8.525   9.613   2.528  2.1242 -2.6222 -0.6139
  587SOL     OW12979   0.586   7.104   1.339 -0.0393  0.2475  0.3979
  587SOL    HW112980   0.584   7.172   1.412  0.2855  0.4207  0.2449
  587SOL    HW212981   0.565   7.014   1.377  0.6110  0.2585  0.7866
  588SOL     OW12982   1.439   2.098   4.510 -0.5775  0.4949 -0.3055
  588SOL    HW112983   1.483   2.022   4.464  0.4669  0.8540  0.0864
  588SOL    HW212984   1.358   2.065   4.559 -0.5161 -0.2379 -0.6905
  589SOL     OW12985   2.275   1.434   6.472 -0.5698  0.0308  0.3251
  589SOL    HW112986   2.323   1.404   6.390  1.6828 -1.4763  2.1300
  589SOL    HW212987   2.198   1.372   6.491  0.4342 -1.1239  0.7075
  590SOL     OW12988   9.232   2.264   0.861 -0.6378 -0.0980 -0.2054
  590SOL    HW112989   9.291   2.187   0.885 -1.3618 -0.8050 -0.6739
  590SOL    HW212990   9.156   2.232   0.805 -2.4784  0.5077  1.8672
  591SOL     OW12991   4.835   0.220   5.493 -0.0847 -0.2219  0.1668
  591SOL    HW112992   4.795   0.141   5.540  1.3614 -1.7556 -1.1465
  591SOL    HW212993   4.930   0.232   5.523  0.3907 -0.3298 -1.2737
  592SOL     OW12994   3.133   5.925   6.044 -0.0993  0.6811  0.0999
  592SOL    HW112995   3.092   6.011   6.014  1.1688  1.3607  0.2724
  592SOL    HW212996   3.124   5.917   6.144 -1.6564 -0.1569 -0.1051
  593SOL     OW12997   0.157   7.869   2.526  0.1066 -0.1041 -0.0546
  593SOL    HW112998   0.241   7.845   2.575  0.3479 -1.0514 -0.9385
  593SOL    HW212999   0.079   7.863   2.589  0.6607  0.6010  0.7189
  594SOL     OW13000   7.167   3.043   2.017 -0.2581 -0.7806  0.0056
  594SOL    HW113001   7.202   3.001   2.100 -0.3705 -0.8245  0.0309
  594SOL    HW213002   7.073   3.014   2.002 -0.4417 -0.2897  0.1903
  595SOL     OW13003   1.172   3.838   6.684 -0.0815 -0.0738  0.1338
  595SOL    HW113004   1.200   3.907   6.617  0.8989 -0.4214  0.1721
  595SOL    HW213005   1.111   3.879   6.751 -1.2184  0.2365 -1.0753
  596SOL     OW13006   6.852   0.625   0.800 -0.4368  0.2280  0.3753
  596SOL    HW113007   6.930   0.596   0.854 -0.1695  1.7187  0.8111
  596SOL    HW213008   6.858   0.586   0.708  0.1638 -0.6632  0.7915
  597SOL     OW13009   0.687   7.697   5.186 -0.4179 -0.1800  0.2397
  597SOL    HW113010   0.690   7.634   5.108 -0.2393  1.0328 -0.7503
  597SOL    HW213011   0.726   7.652   5.267  2.1876 -0.4265 -1.1072
  598SOL     OW13012   3.249   9.241   3.600  0.4261 -0.1757 -0.0092
  598SOL    HW113013   3.239   9.152   3.644 -1.6030 -0.0191 -0.1036
  598SOL    HW213014   3.168   9.297   3.620  1.1985  1.2554 -0.8357
  599SOL     OW13015   1.881   9.316   4.511  0.1743 -0.1272 -0.4835
  599SOL    HW113016   1.800   9.261   4.491 -0.1337 -1.3847  3.6347
  599SOL    HW213017   1.963   9.261   4.496 -0.0427 -1.0101  1.3956
  600SOL     OW13018   0.822   6.114   5.517  0.4769  0.0756  0.1290
  600SOL    HW113019   0.801   6.104   5.615 -0.0373 -0.2650 -0.0137
  600SOL    HW213020   0.850   6.025   5.481  1.9618  0.4865  0.2698
  601SOL     OW13021   8.856   6.620   3.967 -0.5427  0.3413  0.0907
  601SOL    HW113022   8.886   6.685   3.897 -0.8101  1.6762  1.1979
  601SOL    HW213023   8.834   6.532   3.924  0.2638  0.8370 -1.3572
  602SOL     OW13024   6.863   9.061   2.289 -0.1651  0.0552  1.0427
  602SOL    HW113025   6.855   9.032   2.385  0.9170  1.8375  1.6929
  602SOL    HW213026   6.923   9.140   2.283 -0.1418 -0.0971 -1.1467
  603SOL     OW13027   0.404   3.215   3.532 -0.2925 -0.4596 -0.2541
  603SOL    HW113028   0.387   3.142   3.466 -1.1523  1.8375 -2.6090
  603SOL    HW213029   0.319   3.238   3.579 -0.3651  0.1694 -0.6953
  604SOL     OW13030   3.466   2.942   5.315 -0.5724  0.5855  0.5028
  604SOL    HW113031   3.546   3.001   5.310 -1.2389  1.5102  0.6139
  604SOL    HW213032   3.470   2.889   5.400  1.2427 -1.3414 -0.7206
  605SOL     OW13033   7.643   3.970   5.416  0.1954 -0.0889  0.5316
  605SOL    HW113034   7.715   4.039   5.413  0.5020 -0.3567  1.5028
  605SOL    HW213035   7.678   3.883   5.383 -0.0320  0.0750 -0.1524
  606SOL     OW13036   1.865   1.713   1.719  0.5108  0.1641  0.4902
  606SOL    HW113037   1.892   1.630   1.768  0.8242 -0.4502 -0.6997
  606SOL    HW213038   1.808   1.688   1.640 -2.1322  1.3197  1.9822
  607SOL     OW13039   1.518   2.468   0.668  0.2321  0.0261  0.1303
  607SOL    HW113040   1.616   2.474   0.648 -0.0148  1.1217 -0.7964
  607SOL    HW213041   1.498   2.379   0.707  1.3112 -0.8927 -1.3437
  608SOL     OW13042   5.397   1.415   1.784  0.1214 -0.5534  0.0096
  608SOL    HW113043   5.344   1.398   1.701  0.0700  1.6105 -0.4443
  608SOL    HW213044   5.487   1.374   1.776  0.0578 -0.4988 -1.0639
  609SOL     OW13045   9.633   9.031   2.040  0.3789 -0.3592 -0.2723
  609SOL    HW113046   9.703   9.082   1.990 -0.2354  0.7962  0.0198
  609SOL    HW213047   9.606   9.083   2.121 -0.5611 -0.9537 -0.2013
  610SOL     OW13048   8.117   0.536   4.317 -0.4674 -0.9489 -0.1360
  610SOL    HW113049   8.066   0.522   4.402  1.5635 -0.1822  1.2484
  610SOL    HW213050   8.143   0.448   4.279 -2.4173 -1.3343 -0.6298
  611SOL     OW13051   2.287   7.915   6.110 -1.0380 -0.0777  0.0257
  611SOL    HW113052   2.317   8.003   6.147  0.6931 -0.9615  0.8001
  611SOL    HW213053   2.344   7.890   6.032 -0.1658 -1.4433  1.0679
  612SOL     OW13054   7.939   6.482   1.473  0.2037 -0.0684 -0.0889
  612SOL    HW113055   7.981   6.505   1.385  0.2616 -2.6335 -0.7735
  612SOL    HW213056   7.855   6.534   1.484  1.0445  1.5152 -0.9048
  613SOL     OW13057   4.057   9.739   4.687  0.2331 -0.1139 -0.0771
  613SOL    HW113058   4.127   9.803   4.720  0.8170 -0.2639 -0.9973
  613SOL    HW213059   4.097   9.680   4.617 -0.4532 -1.1231  0.3693
  614SOL     OW13060   3.826   9.480   3.336 -0.2486 -0.4447 -0.6256
  614SOL    HW113061   3.903   9.543   3.325 -0.2123  0.0395  2.0112
  614SOL    HW213062   3.762   9.493   3.260  1.3282  0.4877 -1.8353
  615SOL     OW13063   3.215   3.991   2.776  0.1099  0.0923 -0.1344
  615SOL    HW113064   3.128   3.944   2.762  0.0764  0.3055 -0.6404
  615SOL    HW213065   3.225   4.065   2.709  2.2072 -2.0873 -2.3441
  616SOL     OW13066   4.547   9.825   2.258 -0.5878  0.0144  0.0793
  616SOL    HW113067   4.569   9.923   2.264 -3.6932  0.7904 -0.3374
  616SOL    HW213068   4.450   9.814   2.237 -0.1102 -3.1859 -0.6576
  617SOL     OW13069   8.712   9.618   5.537  0.2584 -0.3888 -0.9186
  617SOL    HW113070   8.787   9.645   5.477 -0.2853 -0.9583 -1.8561
  617SOL    HW213071   8.675   9.531   5.507 -1.6061  0.4912 -1.2361
  618SOL     OW13072   8.595   5.133   2.738 -0.1029  0.2169  0.0550
  618SOL    HW113073   8.667   5.182   2.788  0.1952 -0.3127  0.1465
  618SOL    HW213074   8.543   5.198   2.683  0.7882  0.5321 -0.4268
  619SOL     OW13075   1.690   7.054   5.753 -0.6579 -0.3003  0.7454
  619SOL    HW113076   1.768   7.011   5.797 -0.6808 -0.0660  1.0161
  619SOL    HW213077   1.670   7.007   5.667  1.2581  1.1228 -0.4903
  620SOL     OW13078   1.340   2.391   1.298  0.1930 -0.0811  0.3644
  620SOL    HW113079   1.277   2.435   1.362 -0.8600  0.7875 -1.2447
  620SOL    HW213080   1.306   2.300   1.275 -0.1430  0.1255  0.0247
  621SOL     OW13081   9.591   7.383   2.060  0.2265  0.3648 -0.2866
  621SOL    HW113082   9.667   7.318   2.055 -0.4231 -0.3551 -0.9697
  621SOL    HW213083   9.615   7.466   2.009  0.1956 -0.2391 -1.2978
  622SOL     OW13084   1.310   0.613   4.699  0.0695 -0.5226  0.3031
  622SOL    HW113085   1.393   0.590   4.648 -0.0840 -1.2828  0.3899
  622SOL    HW213086   1.317   0.577   4.792 -0.3585 -0.5836  0.3110
  623SOL     OW13087   5.694   9.773   5.150 -0.3687 -0.1428  0.3320
  623SOL    HW113088   5.672   9.694   5.093 -0.0353  0.6805 -0.9533
  623SOL    HW213089   5.793   9.789   5.147 -0.5454  0.8950 -0.1917
  624SOL     OW13090   7.840   9.757   4.004  0.2029 -0.1551 -0.4592
  624SOL    HW113091   7.751   9.713   4.012 -0.0946  0.2329 -1.5550
  624SOL    HW213092   7.903   9.716   4.070 -0.2840 -1.6705 -0.9144
  625SOL     OW13093   8.570   5.438   6.569 -0.1817  0.1269 -0.4190
  625SOL    HW113094   8.602   5.476   6.657  0.8864 -1.1014 -0.2540
  625SOL    HW213095   8.587   5.505   6.497  2.6848 -0.3821 -0.3041
  626SOL     OW13096   6.307   0.117   2.169  0.3020  0.7718  0.3403
  626SOL    HW113097   6.405   0.116   2.191 -0.1727 -1.1007  2.4593
  626SOL    HW213098   6.275   0.024   2.155 -1.2199  1.3680 -0.2017
  627SOL     OW13099   2.872   6.099   6.003  0.7050 -0.7197 -0.0903
  627SOL    HW113100   2.803   6.040   6.045 -1.4023  0.7390 -1.4400
  627SOL    HW213101   2.873   6.083   5.904  2.2490 -0.6365 -0.1040
  628SOL     OW13102   5.190   4.889   6.628  0.1105  0.6356 -0.0028
  628SOL    HW113103   5.099   4.905   6.665  0.0902  0.2668  0.1027
  628SOL    HW213104   5.200   4.793   6.604  0.5083  0.6574  0.0759
  629SOL     OW13105   3.890   5.034   6.273 -0.7611  0.2626  0.1395
  629SOL    HW113106   3.806   5.017   6.222 -0.3767 -0.0862 -0.3779
  629SOL    HW213107   3.874   5.106   6.341 -1.9764 -1.0702  1.2760
  630SOL     OW13108   8.385   5.908   3.960  0.1728 -0.3648  0.7706
  630SOL    HW113109   8.306   5.881   4.015  0.1766  0.8775  1.3967
  630SOL    HW213110   8.354   5.952   3.876  0.1852  0.4388  1.1772
  631SOL     OW13111   5.833   7.836   3.920  0.1761  0.1857 -0.2843
  631SOL    HW113112   5.899   7.910   3.935 -0.5538  0.5532  1.2690
  631SOL    HW213113   5.877   7.763   3.868  2.3340 -0.2598  2.0045
  632SOL     OW13114   1.331   3.042   5.039 -0.4267  0.0125 -0.2812
  632SOL    HW113115   1.409   3.100   5.012 -0.3639  0.1051  0.1006
  632SOL    HW213116   1.246   3.084   5.007 -0.8362  2.8395  4.0793
  633SOL     OW13117   3.290   1.837   5.321  0.0466  0.0309  0.8353
  633SOL    HW113118   3.290   1.906   5.394  1.1125  0.7206  0.2121
  633SOL    HW213119   3.309   1.747   5.360  0.3974  0.3610  1.4352
  634SOL     OW13120   7.822   2.453   5.855  0.2217 -0.4464 -0.2348
  634SOL    HW113121   7.812   2.449   5.954 -0.2851 -0.5569 -0.2870
  634SOL    HW213122   7.855   2.544   5.828 -2.7342  0.7123 -0.1978
  635SOL     OW13123   1.929   2.380   4.688  0.0722  0.0138 -0.1832
  635SOL    HW113124   1.893   2.457   4.740  0.8785 -0.4009  1.0464
  635SOL    HW213125   1.954   2.409   4.596 -0.0260  1.1133  0.1382
  636SOL     OW13126   3.535   1.630   1.145 -0.0067 -0.2815  0.5345
  636SOL    HW113127   3.532   1.627   1.245  0.6808 -1.7770  0.5096
  636SOL    HW213128   3.623   1.667   1.115  0.5644 -1.6788  0.4587
  637SOL     OW13129   7.566   1.979   4.197  0.1953 -0.0896 -0.2430
  637SOL    HW113130   7.640   1.960   4.262  0.7692  0.4161 -0.7423
  637SOL    HW213131   7.485   1.925   4.222  0.2557  0.4257  1.1513
  638SOL     OW13132   3.878   6.753   3.640 -0.2125  0.3414  0.4092
  638SOL    HW113133   3.858   6.668   3.592 -1.2965 -0.2077  1.7731
  638SOL    HW213134   3.809   6.767   3.712 -0.1045  2.4108  0.1431
  639SOL     OW13135   7.831   8.522   2.239  0.4310 -0.2641 -0.3632
  639SOL    HW113136   7.785   8.513   2.151  1.2811  0.5580 -0.8986
  639SOL    HW213137   7.828   8.618   2.269  0.7526 -0.4180  0.1685
  640SOL     OW13138   1.572   4.033   4.315 -0.1264 -0.0049 -0.1572
  640SOL    HW113139   1.613   4.025   4.406 -1.9281 -2.5953  0.4758
  640SOL    HW213140   1.644   4.030   4.246  1.0528 -0.8148  1.0744
  641SOL     OW13141   0.464   5.666   2.894  0.1280 -0.5141 -0.1230
  641SOL    HW113142   0.506   5.606   2.826  1.9083  1.2884 -0.6429
  641SOL    HW213143   0.466   5.621   2.983  1.8419 -1.0524 -0.4099
  642SOL     OW13144   9.425   9.447   5.667  0.2832 -0.4839 -0.0223
  642SOL    HW113145   9.419   9.433   5.766 -0.2153 -1.5284 -0.1840
  642SOL    HW213146   9.405   9.542   5.645  0.9286 -0.1254  0.9285
  643SOL     OW13147   2.772   9.478   5.640 -0.4742 -0.2477  0.3540
  643SOL    HW113148   2.861   9.437   5.662  0.1248  0.4934 -0.6403
  643SOL    HW213149   2.747   9.455   5.546 -0.8079  0.4838  0.2617
  644SOL     OW13150   8.079   9.950   2.374 -0.1888  0.1470 -1.0174
  644SOL    HW113151   8.063   9.857   2.406  1.7977  0.7041  1.9274
  644SOL    HW213152   8.156   9.951   2.310  1.9907  0.0612  1.4805
  645SOL     OW13153   3.828   2.298   2.616 -0.0989  0.4367 -0.3795
  645SOL    HW113154   3.866   2.293   2.708  0.4315  0.6277 -0.5878
  645SOL    HW213155   3.812   2.393   2.591  0.5921  0.4414 -0.8208
  646SOL     OW13156   3.667   3.572   1.115  0.5655  0.2170 -0.1053
  646SOL    HW113157   3.755   3.616   1.132  0.9062  0.2648 -1.8811
  646SOL    HW213158   3.617   3.623   1.045  0.2829 -1.2773 -1.0298
  647SOL     OW13159   3.774   2.625   5.597  0.9448  0.5797 -0.5774
  647SOL    HW113160   3.714   2.545   5.597  0.2902  1.0474 -1.6649
  647SOL    HW213161   3.719   2.708   5.585  1.6614  1.1568  0.0744
  648SOL     OW13162   9.318   2.304   6.478 -0.4351 -0.0939  0.2299
  648SOL    HW113163   9.302   2.365   6.400 -1.4441  1.2011  1.4396
  648SOL    HW213164   9.395   2.244   6.457  0.5151  1.5192 -1.0107
  649SOL     OW13165   9.181   5.709   3.868  0.0915 -0.9125 -0.2198
  649SOL    HW113166   9.120   5.630   3.878  2.1689 -2.3480  1.6303
  649SOL    HW213167   9.269   5.679   3.833  1.2961  0.3833  1.6167
  650SOL     OW13168   1.231   9.676   6.292 -0.4619 -0.3226  0.1094
  650SOL    HW113169   1.165   9.711   6.358  2.0834  3.2149  0.9344
  650SOL    HW213170   1.211   9.714   6.202 -2.9377 -3.8587 -0.9579
  651SOL     OW13171   6.601   7.946   4.289 -0.2882  0.3508 -0.9855
  651SOL    HW113172   6.649   7.910   4.369 -3.2833  0.3532  0.8709
  651SOL    HW213173   6.667   7.990   4.228  2.4327 -2.0151  0.1261
  652SOL     OW13174   5.833   8.607   2.245  0.5201 -0.3303  0.2329
  652SOL    HW113175   5.891   8.685   2.225 -0.3168 -0.0374 -1.0718
  652SOL    HW213176   5.847   8.579   2.340  1.0912  1.1653  0.6026
  653SOL     OW13177   8.186   6.088   1.068 -0.0498 -0.1856  0.2729
  653SOL    HW113178   8.125   6.066   0.992 -1.0375  0.1179  0.9631
  653SOL    HW213179   8.215   6.003   1.112 -0.3672 -0.3156  0.2374
  654SOL     OW13180   3.294   9.248   3.312 -0.4150 -0.0623 -0.6121
  654SOL    HW113181   3.302   9.246   3.412  0.4805  1.9067 -0.6221
  654SOL    HW213182   3.368   9.194   3.272  0.4797  0.8858 -0.2495
  655SOL     OW13183   8.362   6.457   1.580  0.6635  0.4756 -0.2270
  655SOL    HW113184   8.357   6.468   1.680 -2.3611 -0.6517 -0.2116
  655SOL    HW213185   8.373   6.546   1.537  2.1514  0.9585  1.0912
  656SOL     OW13186   7.584   4.335   0.424 -0.0433 -0.3133 -0.0448
  656SOL    HW113187   7.509   4.363   0.485  0.1418  1.1559 -0.4691
  656SOL    HW213188   7.548   4.321   0.332 -0.0373 -0.9608  0.0512
  657SOL     OW13189   2.678   5.238   0.847 -0.0355  0.0868  0.1248
  657SOL    HW113190   2.637   5.301   0.913  2.1828  1.3123  0.3738
  657SOL    HW213191   2.615   5.224   0.770 -1.1624  1.4231  0.7824
  658SOL     OW13192   9.653   2.366   3.223  0.3857  0.6436  0.0757
  658SOL    HW113193   9.571   2.396   3.173 -1.4190 -0.3459  2.3840
  658SOL    HW213194   9.689   2.443   3.276 -0.5944  0.4094  1.1003
  659SOL     OW13195   3.361   4.441   1.858  0.0601 -0.4071 -0.5423
  659SOL    HW113196   3.454   4.410   1.876 -0.1260 -1.4044 -1.2235
  659SOL    HW213197   3.363   4.508   1.783  0.0598 -1.7681 -1.7923
  660SOL     OW13198   2.360   6.613   0.889 -0.0841  0.8022  0.0415
  660SOL    HW113199   2.275   6.630   0.939 -0.3479  0.1166 -0.1744
  660SOL    HW213200   2.353   6.527   0.839  0.3120  1.3036 -0.8940
  661SOL     OW13201   8.519   7.589   0.752  0.0430  0.3086 -0.3262
  661SOL    HW113202   8.615   7.561   0.748 -0.4175 -1.2494 -0.7990
  661SOL    HW213203   8.478   7.580   0.662 -1.2986 -1.8335  0.4606
  662SOL     OW13204   0.201   1.845   0.914  0.0848  0.2477  0.9497
  662SOL    HW113205   0.209   1.873   1.010  1.0776 -1.5392  1.4163
  662SOL    HW213206   0.293   1.837   0.875 -0.2767 -0.1531  0.1853
  663SOL     OW13207   6.903   8.266   4.405  0.1485 -1.0428  0.2442
  663SOL    HW113208   6.867   8.349   4.362  0.7160 -0.8307  0.1786
  663SOL    HW213209   6.865   8.186   4.359  1.1793 -0.8174 -1.0114
  664SOL     OW13210   8.051   2.728   5.962  0.4583  0.0179  0.0957
  664SOL    HW113211   8.076   2.807   5.906  1.6459 -1.0801 -0.9360
  664SOL    HW213212   8.133   2.685   5.998 -0.2248 -0.2823  1.3071
  665SOL     OW13213   5.327   0.330   4.766  0.0803  0.0638 -0.3095
  665SOL    HW113214   5.235   0.364   4.747 -0.4077 -0.2678  1.3740
  665SOL    HW213215   5.362   0.374   4.849  0.5747 -1.3967  0.2736
  666SOL     OW13216   5.139   0.436   4.356  0.0211 -0.1389 -0.3863
  666SOL    HW113217   5.061   0.440   4.294  0.3672  0.0411 -0.8176
  666SOL    HW213218   5.119   0.489   4.439 -0.2695  0.0066 -0.5487
  667SOL     OW13219   1.027   2.319   0.990  0.0641 -0.0681  0.2053
  667SOL    HW113220   0.991   2.377   1.063  0.1748 -0.5250  0.6249
  667SOL    HW213221   0.951   2.268   0.948  0.0380 -0.0081  0.1787
  668SOL     OW13222   7.188   6.307   5.735 -0.3158  0.2648  0.2127
  668SOL    HW113223   7.162   6.345   5.646  0.9867 -0.6518 -0.5827
  668SOL    HW213224   7.224   6.215   5.722  1.1158  0.6235  1.5573
  669SOL     OW13225   8.915   0.580   4.685 -0.1505  0.2842  0.1330
  669SOL    HW113226   8.987   0.572   4.755  1.7933  1.6583 -1.6513
  669SOL    HW213227   8.840   0.635   4.722  0.6547  0.6409  1.2975
  670SOL     OW13228   7.290   0.752   6.586 -0.0984  0.1989  0.6445
  670SOL    HW113229   7.209   0.811   6.585 -0.1394  0.1624 -1.8502
  670SOL    HW213230   7.372   0.807   6.569 -0.1987 -0.4566 -2.3436
  671SOL     OW13231   7.735   6.426   3.046 -0.1107  0.2642  0.3213
  671SOL    HW113232   7.679   6.507   3.024 -0.2309 -0.1563 -0.9382
  671SOL    HW213233   7.687   6.344   3.017  0.4168 -0.2081  0.7853
  672SOL     OW13234   4.201   8.836   2.640  0.3129 -0.5538  0.2849
  672SOL    HW113235   4.110   8.845   2.599  0.7560  1.5178 -0.3064
  672SOL    HW213236   4.264   8.898   2.594  1.9596 -1.7703  0.8873
  673SOL     OW13237   7.559   0.807   1.916 -0.0970  0.6077 -0.2275
  673SOL    HW113238   7.525   0.778   1.827  1.1587  0.2119 -0.5936
  673SOL    HW213239   7.521   0.897   1.938 -1.6258  0.0326 -0.4556
  674SOL     OW13240   1.221   4.375   4.322 -0.4218 -0.1977 -0.1437
  674SOL    HW113241   1.227   4.321   4.405  1.0455  0.2791  0.0742
  674SOL    HW213242   1.224   4.315   4.242 -0.8150 -0.5773  0.1255
  675SOL     OW13243   2.303   0.806   2.617  0.1138 -0.3269  0.3629
  675SOL    HW113244   2.302   0.709   2.641  1.4163 -0.4027  0.1162
  675SOL    HW213245   2.216   0.830   2.574 -0.7342 -1.0799  1.6212
  676SOL     OW13246   2.507   9.572   3.523  0.1745 -0.4371  0.2100
  676SOL    HW113247   2.533   9.490   3.575  1.0652 -0.5460 -0.4016
  676SOL    HW213248   2.448   9.546   3.447  0.5234 -0.5272 -0.0326
  677SOL     OW13249   8.361   2.001   3.144  0.1541 -0.0495  0.5303
  677SOL    HW113250   8.358   1.918   3.089 -0.5832  0.9556 -0.9843
  677SOL    HW213251   8.389   1.979   3.238  2.0009 -1.6987 -0.3963
  678SOL     OW13252   2.873   0.429   4.253  0.1844 -0.0503 -0.0969
  678SOL    HW113253   2.949   0.413   4.315  0.5260 -0.0985 -0.5262
  678SOL    HW213254   2.907   0.436   4.159 -0.3543 -0.2502 -0.3113
  679SOL     OW13255   2.812   4.574   2.039 -0.7290 -0.0206 -0.9471
  679SOL    HW113256   2.840   4.534   1.952  1.6894 -0.5437  0.0264
  679SOL    HW213257   2.842   4.669   2.043  2.2336 -0.9639  0.6416
  680SOL     OW13258   3.213   5.377   4.289  0.1408  0.0677  0.3601
  680SOL    HW113259   3.246   5.450   4.229 -0.5960 -0.0396 -0.1739
  680SOL    HW213260   3.210   5.291   4.237 -1.1065  0.1040  0.3682
  681SOL     OW13261   8.667   4.829   1.312  0.8598  0.1434  0.1966
  681SOL    HW113262   8.579   4.866   1.281  0.5414 -0.8555 -0.1181
  681SOL    HW213263   8.688   4.747   1.260  0.7339 -1.0933  2.0539
  682SOL     OW13264   0.003   4.368   2.729  0.0357 -0.3644 -0.1247
  682SOL    HW113265  -0.049   4.406   2.805  0.3294 -0.8383  0.3153
  682SOL    HW213266   0.091   4.416   2.722 -0.1413 -0.0755 -0.3951
  683SOL     OW13267   1.173   8.650   4.413  0.2818 -0.3824 -0.2791
  683SOL    HW113268   1.126   8.689   4.491  0.8879 -1.7578  0.7936
  683SOL    HW213269   1.107   8.607   4.352 -0.3746  2.0560 -1.3752
  684SOL     OW13270   1.164   5.676   3.819 -0.2624 -0.3940 -0.0514
  684SOL    HW113271   1.093   5.626   3.869 -1.7667  2.2319  0.5646
  684SOL    HW213272   1.252   5.666   3.866 -0.9114 -1.0016  1.0555
  685SOL     OW13273   8.722   3.267   3.599  0.2955  0.2678  0.3480
  685SOL    HW113274   8.650   3.227   3.656 -0.5124  1.2296  0.0180
  685SOL    HW213275   8.727   3.217   3.512 -1.3255  1.4182 -0.4338
  686SOL     OW13276   2.648   8.016   1.174  0.3935 -0.0558 -0.3397
  686SOL    HW113277   2.659   7.966   1.088 -1.3981 -0.8327 -0.1326
  686SOL    HW213278   2.553   8.043   1.186  0.7663  0.7188  1.0322
  687SOL     OW13279   5.683   9.841   2.685  0.6113 -0.3263 -0.4495
  687SOL    HW113280   5.682   9.762   2.746 -4.3671  0.2278  0.3907
  687SOL    HW213281   5.659   9.812   2.593 -1.2270  0.1133 -0.1393
  688SOL     OW13282   8.350   4.106   4.312  1.1623  0.9697 -0.1901
  688SOL    HW113283   8.294   4.034   4.352  1.7047  0.8037  0.2707
  688SOL    HW213284   8.363   4.088   4.214  3.3480 -0.9012  0.3978
  689SOL     OW13285   2.375   9.309   5.713  0.7341  0.2279  0.2156
  689SOL    HW113286   2.371   9.393   5.767  0.3934  1.2626 -1.3972
  689SOL    HW213287   2.342   9.232   5.768  0.4232  1.2531  1.4793
  690SOL     OW13288   8.142   4.257   0.611  0.7119  0.5568 -0.3532
  690SOL    HW113289   8.205   4.228   0.539  1.0177  2.0500 -0.7147
  690SOL    HW213290   8.084   4.180   0.638  1.9338 -0.5407 -0.7939
  691SOL     OW13291   2.146   5.974   1.996  0.2166  0.5444  0.2941
  691SOL    HW113292   2.126   5.880   2.023  1.7487 -0.6116 -2.4189
  691SOL    HW213293   2.242   5.994   2.013 -0.0356  1.5231  0.5845
  692SOL     OW13294   3.375   4.177   1.643 -0.3600  0.4226 -0.7443
  692SOL    HW113295   3.317   4.098   1.661  0.3206 -0.4491 -2.3067
  692SOL    HW213296   3.347   4.220   1.557  0.7690  0.5071 -1.0707
  693SOL     OW13297   8.694   0.898   0.202 -0.5307  0.2898 -0.1568
  693SOL    HW113298   8.596   0.900   0.181 -0.6668 -0.5350  0.3359
  693SOL    HW213299   8.744   0.856   0.125 -0.7447 -0.6054  0.1819
  694SOL     OW13300   2.106   9.057   2.112 -0.3489  0.0208  0.1337
  694SOL    HW113301   2.115   9.055   2.211  0.1391  0.1305  0.0939
  694SOL    HW213302   2.043   9.130   2.086 -0.1448  0.2709  0.3400
  695SOL     OW13303   0.733   3.113   5.400 -0.0119  0.2418  0.2048
  695SOL    HW113304   0.824   3.073   5.392 -0.4086 -0.6668  0.1285
  695SOL    HW213305   0.722   3.186   5.334  0.1076 -0.7224 -0.8926
  696SOL     OW13306   7.776   5.654   1.311 -0.3711 -0.0702 -0.2816
  696SOL    HW113307   7.857   5.601   1.337 -1.2077 -1.5455 -0.6498
  696SOL    HW213308   7.794   5.751   1.328  1.5582 -0.3468 -0.5713
  697SOL     OW13309   8.869   6.378   0.546  0.9444  0.4466  0.3810
  697SOL    HW113310   8.872   6.353   0.643  0.7010  0.7356  0.4631
  697SOL    HW213311   8.887   6.297   0.490  0.1578  0.0866  0.6470
  698SOL     OW13312   0.469   5.463   6.417  0.9874 -0.2030 -0.3765
  698SOL    HW113313   0.370   5.457   6.401  0.6380  0.1135  1.5208
  698SOL    HW213314   0.512   5.510   6.340 -0.7526  2.3909  0.1503
  699SOL     OW13315   7.675   9.530   0.540  0.0231 -0.1385  0.5664
  699SOL    HW113316   7.743   9.550   0.469  0.5428  3.0784  1.9116
  699SOL    HW213317   7.591   9.497   0.496  2.0711 -3.3680 -1.1644
  700SOL     OW13318   1.222   0.167   3.899  0.0772 -1.1051  0.2190
  700SOL    HW113319   1.212   0.260   3.865 -0.8912 -0.9668  0.8741
  700SOL    HW213320   1.313   0.156   3.939 -0.6962  0.3269  2.4670
  701SOL     OW13321   1.858   9.952   5.953  0.1596 -0.2018  0.4281
  701SOL    HW113322   1.770   9.987   5.920 -0.1267 -1.6851 -0.4829
  701SOL    HW213323   1.862   9.959   6.052 -0.9972 -0.1251  0.4775
  702SOL     OW13324   9.817   0.866   0.858  0.5084  0.7571  0.5842
  702SOL    HW113325   9.861   0.786   0.898 -1.0908 -0.5439 -0.1968
  702SOL    HW213326   9.754   0.907   0.925  1.0683  1.1747  0.8637
  703SOL     OW13327   2.729   0.400   4.729 -0.1104  0.2891  0.6267
  703SOL    HW113328   2.731   0.469   4.657  0.2837  0.8869  1.2036
  703SOL    HW213329   2.813   0.346   4.726 -0.1091  0.2916  0.6174
  704SOL     OW13330   8.433   9.884   6.320 -0.2301 -0.6688  0.3978
  704SOL    HW113331   8.530   9.860   6.318 -0.4139 -1.4661  0.8341
  704SOL    HW213332   8.378   9.805   6.294 -0.7047  0.1747 -1.2188
  705SOL     OW13333   3.801   1.452   0.637 -0.2556  0.7275 -0.5038
  705SOL    HW113334   3.793   1.385   0.563 -0.7984  0.3562 -0.1012
  705SOL    HW213335   3.898   1.470   0.655 -0.1014 -0.3390 -0.2541
  706SOL     OW13336   5.200   1.715   2.043 -0.1676  0.3869  0.6264
  706SOL    HW113337   5.272   1.707   1.974 -0.1332  0.3555  0.6650
  706SOL    HW213338   5.240   1.754   2.127 -0.3862  1.2099  0.3539
  707SOL     OW13339   3.527   6.501   0.181  0.4307  0.1260 -0.4165
  707SOL    HW113340   3.465   6.543   0.115  0.2832 -0.9040 -0.9555
  707SOL    HW213341   3.523   6.401   0.171 -0.0118 -0.0815  1.5245
  708SOL     OW13342   8.644   5.676   6.384  0.5141  0.3190  0.0705
  708SOL    HW113343   8.710   5.620   6.335 -0.2203 -0.8591  0.4242
  708SOL    HW213344   8.633   5.764   6.337  0.4938 -0.4455 -1.3634
  709SOL     OW13345   1.967   9.285   1.993  0.4214 -0.3646 -0.2874
  709SOL    HW113346   1.990   9.370   1.945 -1.4269  1.7167  2.3440
  709SOL    HW213347   1.892   9.240   1.945 -0.9744  1.3575  0.2032
  710SOL     OW13348   0.066   5.273   0.608 -0.3936 -0.3386 -0.3319
  710SOL    HW113349   0.047   5.368   0.584 -2.6669 -0.5111  0.6934
  710SOL    HW213350   0.007   5.213   0.555 -1.2681 -0.9989  1.3352
  711SOL     OW13351   3.035   6.327   3.320 -0.3606  0.2431 -0.5926
  711SOL    HW113352   2.993   6.366   3.238  1.5326  0.8643 -1.2940
  711SOL    HW213353   3.068   6.401   3.379 -3.1755 -0.1413  1.5690
  712SOL     OW13354   2.271   7.207   3.538  0.3072  0.3230  0.1287
  712SOL    HW113355   2.252   7.216   3.440  2.6576  2.3907 -0.1891
  712SOL    HW213356   2.361   7.166   3.552 -0.8242 -1.8064  1.4883
  713SOL     OW13357   1.520   5.382   5.657  0.4018  0.4513 -0.3933
  713SOL    HW113358   1.440   5.381   5.597  1.3807 -0.6602 -1.7368
  713SOL    HW213359   1.576   5.462   5.635 -0.7226  1.6632  1.0932
  714SOL     OW13360   8.421   0.349   5.012  0.4922 -0.5750 -0.1323
  714SOL    HW113361   8.360   0.420   5.048  0.5109 -0.1414 -0.9468
  714SOL    HW213362   8.488   0.324   5.081  0.7692  0.5246  0.0056
  715SOL     OW13363   6.950   8.524   4.504 -0.4948  0.0743 -0.2197
  715SOL    HW113364   6.946   8.606   4.562 -0.8769  0.1672 -0.3742
  715SOL    HW213365   6.941   8.442   4.562 -2.5253  0.2112 -0.3036
  716SOL     OW13366   8.791   3.371   0.131  0.1348  0.0280 -0.8479
  716SOL    HW113367   8.845   3.345   0.211  1.3074  1.8566 -1.0132
  716SOL    HW213368   8.696   3.387   0.160  0.1945 -0.8758 -0.1200
  717SOL     OW13369   2.076   0.772   0.361  0.3376  0.3567 -0.9104
  717SOL    HW113370   2.103   0.865   0.335  0.8982  0.3923 -0.2301
  717SOL    HW213371   2.133   0.742   0.437  0.0171 -0.4704 -0.9970
  718SOL     OW13372   8.170   0.301   6.313 -0.0973  1.1507  0.7140
  718SOL    HW113373   8.236   0.374   6.295 -0.2763  1.2870  0.6044
  718SOL    HW213374   8.094   0.338   6.367 -1.1582  1.5351 -0.9946
  719SOL     OW13375   6.048   8.640   3.903 -0.1711  0.0395 -0.0892
  719SOL    HW113376   6.046   8.735   3.870 -1.3237 -0.5666 -1.8187
  719SOL    HW213377   6.143   8.609   3.907  0.3222  1.6705  1.7410
  720SOL     OW13378   0.744   4.097   4.959 -0.3357  0.3333 -0.4112
  720SOL    HW113379   0.767   4.173   5.020  0.0401 -0.3938  0.3682
  720SOL    HW213380   0.650   4.107   4.928 -1.4465 -0.6824  2.4278
  721SOL     OW13381   2.514   3.720   1.524 -0.0646 -0.2306 -0.2424
  721SOL    HW113382   2.575   3.662   1.470  0.1098  0.0302 -0.3282
  721SOL    HW213383   2.557   3.809   1.538  0.7563 -0.9535  1.9943
  722SOL     OW13384   9.666   3.205   1.240 -0.1293 -0.2933 -0.4600
  722SOL    HW113385   9.570   3.229   1.257 -0.3481 -0.2199 -1.7298
  722SOL    HW213386   9.707   3.171   1.324 -1.2886 -0.3836  0.0829
  723SOL     OW13387   1.546   1.729   0.219  0.0409 -0.0296 -0.0199
  723SOL    HW113388   1.585   1.735   0.127 -0.7189  0.3645 -0.3262
  723SOL    HW213389   1.533   1.822   0.255 -0.0194 -0.1738  0.3272
  724SOL     OW13390   3.050   2.170   6.480 -0.0982  0.3265  0.0514
  724SOL    HW113391   3.069   2.165   6.578 -1.5570  1.1862  0.3943
  724SOL    HW213392   3.055   2.078   6.440 -2.0812 -0.4185  1.4472
  725SOL     OW13393   1.324   0.657   0.690  0.7842  0.3081 -0.0819
  725SOL    HW113394   1.351   0.728   0.624  2.7550  1.2138  1.6303
  725SOL    HW213395   1.393   0.584   0.690 -0.0313 -0.4702 -0.1575
  726SOL     OW13396   1.546   8.554   3.097  0.0849 -0.3988  0.3693
  726SOL    HW113397   1.563   8.594   3.187 -0.3213 -0.1051  0.3151
  726SOL    HW213398   1.591   8.609   3.027  0.8280 -0.9109  0.4331
  727SOL     OW13399   0.668   9.821   5.453 -0.0126 -0.0483  0.0717
  727SOL    HW113400   0.584   9.871   5.432  0.5980  1.0925  0.3120
  727SOL    HW213401   0.733   9.882   5.499  0.4819 -1.2425  0.9966
  728SOL     OW13402   1.861   6.396   4.860  0.2870 -0.1545 -0.1534
  728SOL    HW113403   1.791   6.468   4.865 -0.0254 -0.3599 -1.3984
  728SOL    HW213404   1.872   6.355   4.951 -1.1409 -0.0403  0.0963
  729SOL     OW13405   0.184   4.179   0.474 -0.6842 -0.3135  0.2406
  729SOL    HW113406   0.142   4.251   0.419 -0.2348 -0.9746 -1.0030
  729SOL    HW213407   0.245   4.124   0.416  2.1183  0.7691  2.0443
  730SOL     OW13408   9.698   5.130   0.362 -0.3483 -0.0379 -0.2527
  730SOL    HW113409   9.676   5.191   0.285 -0.6587 -0.5064 -0.5368
  730SOL    HW213410   9.798   5.120   0.368 -0.3746 -1.0548 -1.4250
  731SOL     OW13411   2.579   9.628   5.030 -0.4443 -0.0243  0.5060
  731SOL    HW113412   2.553   9.532   5.038  2.9648 -1.0531  0.2761
  731SOL    HW213413   2.600   9.664   5.120 -0.1027 -0.0097  0.4229
  732SOL     OW13414   9.406   8.727   3.025 -0.3766 -0.0235  0.5097
  732SOL    HW113415   9.368   8.751   2.936 -0.1705 -0.9843  0.1587
  732SOL    HW213416   9.401   8.628   3.038  0.0156  0.0664  1.3739
  733SOL     OW13417   7.235   9.529   5.770  0.1315 -0.0908 -0.3765
  733SOL    HW113418   7.149   9.574   5.795 -1.5497 -3.8326  0.9011
  733SOL    HW213419   7.222   9.475   5.687  0.5031 -2.6833  1.2117
  734SOL     OW13420   0.576   3.383   6.580  0.2481 -0.8472 -0.0565
  734SOL    HW113421   0.513   3.452   6.615  0.9820  0.2371 -0.8469
  734SOL    HW213422   0.543   3.292   6.606  0.3665 -0.1314  2.7552
  735SOL     OW13423   8.967   0.572   5.116 -0.3254  0.0702 -0.4872
  735SOL    HW113424   9.020   0.513   5.054  0.1162 -0.1470  0.0999
  735SOL    HW213425   8.991   0.668   5.099 -1.2804  0.1159 -1.6637
  736SOL     OW13426   5.311   0.167   3.104  0.5661 -0.3284  0.0596
  736SOL    HW113427   5.234   0.204   3.156  0.3563 -0.4513 -0.1640
  736SOL    HW213428   5.317   0.068   3.120 -0.4502 -0.6297 -1.3649
  737SOL     OW13429   2.014   5.061   3.825  0.1299  0.5306  0.1411
  737SOL    HW113430   2.090   4.995   3.822 -1.1849 -0.9138 -2.8774
  737SOL    HW213431   1.936   5.020   3.872 -0.5687 -0.0129 -1.4361
  738SOL     OW13432   6.833   3.180   3.357  0.0141  0.1880  0.0673
  738SOL    HW113433   6.833   3.204   3.260 -1.3576  1.3350  0.3365
  738SOL    HW213434   6.740   3.181   3.392  0.5857  0.7024  1.6244
  739SOL     OW13435   0.558   9.302   0.540 -0.1610 -0.4202  0.0315
  739SOL    HW113436   0.619   9.239   0.588  0.9366  0.1572 -0.5646
  739SOL    HW213437   0.513   9.254   0.465 -1.5035 -1.1942  1.3213
  740SOL     OW13438   1.776   3.956   1.099  0.1095 -0.2555  0.3544
  740SOL    HW113439   1.747   4.050   1.087 -1.1406 -0.7128 -0.2246
  740SOL    HW213440   1.747   3.901   1.020  0.9274 -1.0997  0.6275
  741SOL     OW13441   6.250   1.384   1.568  0.3506 -0.0899 -0.1574
  741SOL    HW113442   6.231   1.398   1.471 -0.1410 -1.5419 -0.2890
  741SOL    HW213443   6.315   1.452   1.600  0.1164  0.7191 -1.3855
  742SOL     OW13444   9.076   3.438   5.082 -0.3444  0.2238 -0.2668
  742SOL    HW113445   8.976   3.446   5.085 -0.3317  0.9004 -1.6218
  742SOL    HW213446   9.113   3.459   5.173 -1.4384 -0.2730  0.3152
  743SOL     OW13447   8.378   5.020   2.932 -0.2479 -0.5300 -0.0013
  743SOL    HW113448   8.448   5.030   2.861 -0.3132 -0.8097 -0.1063
  743SOL    HW213449   8.327   4.935   2.917  1.5983 -2.0702  1.9612
  744SOL     OW13450   0.697   5.381   0.541 -0.7986 -0.3639 -0.5563
  744SOL    HW113451   0.627   5.415   0.604 -2.1518 -0.0408 -2.1747
  744SOL    HW213452   0.660   5.303   0.491  0.5313 -1.0970 -0.3944
  745SOL     OW13453   9.442   2.877   4.137  0.0737  0.2428  0.2415
  745SOL    HW113454   9.518   2.854   4.075  0.8045  1.4631  0.6714
  745SOL    HW213455   9.476   2.877   4.232  0.0847  2.9584  0.2666
  746SOL     OW13456   9.277   3.436   4.424 -0.4074  0.3394  0.6301
  746SOL    HW113457   9.331   3.353   4.407  1.6929  1.2482  2.5485
  746SOL    HW213458   9.333   3.516   4.402 -1.4978  1.2980  1.3026
  747SOL     OW13459   4.875   7.967   2.478 -0.2383 -0.4299 -0.3893
  747SOL    HW113460   4.903   8.050   2.430 -1.4642  1.3122  1.7962
  747SOL    HW213461   4.936   7.951   2.555  0.3069 -1.8904 -1.1022
  748SOL     OW13462   7.422   9.742   5.743  0.3858 -0.3201 -0.1986
  748SOL    HW113463   7.513   9.714   5.776  0.7474  1.3419  0.2655
  748SOL    HW213464   7.357   9.668   5.759  1.5583 -1.3697 -0.1274
  749SOL     OW13465   3.761   0.356   6.289 -0.0697  0.2566  0.0431
  749SOL    HW113466   3.785   0.426   6.357  1.8248 -1.1095  0.7887
  749SOL    HW213467   3.686   0.301   6.324  1.3332 -0.8627  1.3366
  750SOL     OW13468   8.785   7.429   4.629  0.0143 -0.1647  0.2163
  750SOL    HW113469   8.766   7.484   4.710  0.3070  0.3002 -0.0320
  750SOL    HW213470   8.825   7.486   4.558 -1.5925 -0.2579 -0.7982
  751SOL     OW13471   3.999   9.643   6.576 -0.3349  0.4716  0.0027
  751SOL    HW113472   3.953   9.730   6.559 -1.4990  0.3262  2.1347
  751SOL    HW213473   4.030   9.641   6.671  1.3443 -0.7079 -0.5526
  752SOL     OW13474   7.264   2.183   4.266  0.0225  0.2070  0.0395
  752SOL    HW113475   7.310   2.244   4.331  0.9668  0.3689 -0.7629
  752SOL    HW213476   7.257   2.091   4.306 -0.4194  0.5774  0.8165
  753SOL     OW13477   9.905   5.749   5.085 -0.6832 -0.3349  0.3199
  753SOL    HW113478   9.948   5.813   5.022  0.3867 -1.3695 -0.0004
  753SOL    HW213479   9.824   5.709   5.042 -1.1930  0.5687  0.4151
  754SOL     OW13480   4.027   9.930   0.917  0.2229  0.1374  0.1143
  754SOL    HW113481   4.059   9.960   1.007 -2.1336  2.0265  0.3586
  754SOL    HW213482   3.942   9.976   0.895 -0.6965 -2.4115 -1.8840
  755SOL     OW13483   7.123   1.879   6.166 -0.4863  0.2133 -0.1677
  755SOL    HW113484   7.183   1.800   6.168 -0.6537  0.0903 -0.0248
  755SOL    HW213485   7.028   1.849   6.171 -0.4917  0.5108  1.7590
  756SOL     OW13486   5.411   0.577   4.557  0.8810 -0.5067 -0.3662
  756SOL    HW113487   5.470   0.502   4.526  1.6164 -0.3000  0.4996
  756SOL    HW213488   5.373   0.555   4.646  2.3991  0.8277  0.6427
  757SOL     OW13489   9.639   7.125   0.363 -0.1299  0.2897 -0.6041
  757SOL    HW113490   9.553   7.131   0.312 -0.4648 -0.5683 -0.1452
  757SOL    HW213491   9.713   7.100   0.301 -0.1105  1.5152 -1.0969
  758SOL     OW13492   4.571   0.490   0.954  0.0277  0.0319  0.0227
  758SOL    HW113493   4.632   0.474   1.031 -0.7699  3.4340  1.4620
  758SOL    HW213494   4.602   0.569   0.902 -2.2255  0.8749 -0.1251
  759SOL     OW13495   4.454   5.496   0.064 -0.1159 -0.1265  0.1271
  759SOL    HW113496   4.412   5.418   0.017  1.1757 -0.6637 -0.1626
  759SOL    HW213497   4.528   5.463   0.122 -0.7375  0.7029  1.3998
  760SOL     OW13498   9.588   8.637   1.040  0.1394 -0.0293 -0.0434
  760SOL    HW113499   9.618   8.695   0.964  1.0642 -1.4577 -0.7972
  760SOL    HW213500   9.548   8.694   1.111 -1.5314  1.2663 -1.9624
  761SOL     OW13501   6.348   2.896   3.147  0.3523 -0.7704 -0.1691
  761SOL    HW113502   6.250   2.885   3.165  0.1321 -2.3052 -2.0575
  761SOL    HW213503   6.400   2.833   3.204  0.0964 -1.2584 -0.4670
  762SOL     OW13504   3.822   0.304   2.705 -0.8932 -0.0380 -0.0106
  762SOL    HW113505   3.775   0.386   2.673  1.8127  1.0724 -1.2544
  762SOL    HW213506   3.884   0.329   2.780  0.8349 -0.7095 -1.1944
  763SOL     OW13507   5.295   1.944   0.889  0.8315  0.1546  0.5575
  763SOL    HW113508   5.377   1.960   0.945  0.9975 -2.8704  1.2479
  763SOL    HW213509   5.316   1.877   0.818 -0.5010  0.9695 -0.6263
  764SOL     OW13510   2.132   0.364   1.634 -0.2753 -0.3013 -0.0042
  764SOL    HW113511   2.124   0.448   1.688  0.3599  0.5792 -1.2588
  764SOL    HW213512   2.154   0.287   1.695  0.0755  0.6134  1.0362
  765SOL     OW13513   5.561   0.768   1.490  0.4771 -0.2851 -0.7822
  765SOL    HW113514   5.525   0.854   1.526  0.2808 -1.1996  1.3095
  765SOL    HW213515   5.485   0.710   1.461  0.4979 -0.4722 -0.4684
  766SOL     OW13516   3.463   8.796   1.973  0.2480 -0.0191  0.1913
  766SOL    HW113517   3.377   8.845   1.978  0.3694  0.2609 -0.4376
  766SOL    HW213518   3.471   8.733   2.051 -1.7774 -2.1194 -1.2450
  767SOL     OW13519   9.696   4.916   0.178  0.5707  0.3240 -0.5796
  767SOL    HW113520   9.707   4.995   0.238  1.0205  1.1191 -1.7004
  767SOL    HW213521   9.785   4.875   0.160  0.4071 -0.0724 -0.5053
  768SOL     OW13522   4.920   2.766   2.553  0.2614 -0.3969 -0.0118
  768SOL    HW113523   5.019   2.773   2.548  0.2579 -0.4757 -0.2014
  768SOL    HW213524   4.887   2.811   2.636  0.6539 -2.4285  1.2657
  769SOL     OW13525   3.985   7.676   3.183  0.0768  0.2596  0.0060
  769SOL    HW113526   4.038   7.759   3.202 -0.0690  0.4921 -0.6044
  769SOL    HW213527   3.895   7.702   3.147 -0.2758 -0.1443  0.5896
  770SOL     OW13528   1.108   6.621   6.292  0.9242 -0.5403 -0.5836
  770SOL    HW113529   1.167   6.666   6.224  2.3346 -2.2122 -0.4928
  770SOL    HW213530   1.013   6.623   6.260  0.8724  2.7614 -0.4315
  771SOL     OW13531   8.794   6.878   6.692  0.8382 -0.2292 -0.1574
  771SOL    HW113532   8.702   6.848   6.666  0.7130  0.5518 -0.6389
  771SOL    HW213533   8.858   6.802   6.683  0.7989 -0.0201 -2.7606
  772SOL     OW13534   9.394   9.979   2.714 -0.3294  0.3418 -0.0200
  772SOL    HW113535   9.331   9.903   2.700 -3.1142  1.7965  3.5978
  772SOL    HW213536   9.347  10.065   2.695  1.8211  1.3266 -1.0453
  773SOL     OW13537   5.522   7.548   2.916 -0.4803 -0.5178 -0.1653
  773SOL    HW113538   5.601   7.523   2.861  1.5980 -0.2714  2.5820
  773SOL    HW213539   5.503   7.475   2.982 -0.5088  0.8092  1.3222
  774SOL     OW13540   1.332   6.649   5.147 -0.4099 -0.4169 -0.0760
  774SOL    HW113541   1.269   6.628   5.221  0.5334 -0.7179  0.6492
  774SOL    HW213542   1.422   6.672   5.185 -0.5747  1.8696 -1.0094
  775SOL     OW13543   9.394   9.438   5.934  0.1864  0.2523  0.0444
  775SOL    HW113544   9.308   9.416   5.979 -1.1581 -0.4815 -2.7931
  775SOL    HW213545   9.466   9.376   5.968 -0.9176 -0.6985  0.6854
  776SOL     OW13546   0.164   2.418   5.657  0.1865 -0.5369 -0.0508
  776SOL    HW113547   0.224   2.449   5.731 -1.5234 -0.1806  1.2371
  776SOL    HW213548   0.126   2.497   5.609 -1.3288 -0.6681  0.8836
  777SOL     OW13549   9.366   9.177   5.747  0.3800 -0.5985 -0.1346
  777SOL    HW113550   9.452   9.217   5.778  1.1637 -0.5671 -2.2674
  777SOL    HW213551   9.358   9.187   5.648 -2.9556  1.0468  0.2297
  778SOL     OW13552   4.587   7.753   2.739 -0.2480  0.3627  0.1915
  778SOL    HW113553   4.626   7.824   2.679 -0.4032 -0.3926 -0.8080
  778SOL    HW213554   4.662   7.706   2.787 -0.0685  0.4129 -0.0380
  779SOL     OW13555   2.766   7.048   0.760  0.0117  0.2241  0.7481
  779SOL    HW113556   2.836   7.118   0.773  1.0504 -0.5155 -0.8237
  779SOL    HW213557   2.772   6.981   0.834  0.0052  0.9386  1.4121
  780SOL     OW13558   4.677   3.773   2.489 -0.2705  0.9189 -0.0117
  780SOL    HW113559   4.749   3.838   2.514 -0.2226  0.7182  0.3652
  780SOL    HW213560   4.598   3.824   2.454 -0.3235  1.2000  0.5050
  781SOL     OW13561   6.687   1.500   2.668 -0.5347 -0.1612  0.0122
  781SOL    HW113562   6.706   1.433   2.740  1.7387  1.0035  0.5385
  781SOL    HW213563   6.588   1.514   2.662 -0.8759 -1.4795  1.7984
  782SOL     OW13564   7.556   2.384   5.463  0.5806  0.1718  0.2589
  782SOL    HW113565   7.544   2.467   5.409  0.6253 -0.2088 -0.3364
  782SOL    HW213566   7.467   2.347   5.489  0.4884 -1.2473 -2.0077
  783SOL     OW13567   2.376   2.328   2.412 -0.1111  0.5697 -0.6467
  783SOL    HW113568   2.449   2.260   2.408 -0.4959  0.0709  0.5258
  783SOL    HW213569   2.393   2.400   2.344  0.4902 -0.5024 -1.6358
  784SOL     OW13570   8.353   2.783   4.819 -0.1197  0.3543  0.0306
  784SOL    HW113571   8.332   2.729   4.737  2.1078 -1.4896  0.6163
  784SOL    HW213572   8.388   2.872   4.792 -1.5689  0.6450 -0.9753
  785SOL     OW13573   7.419   4.408   6.459  0.5775 -0.6258 -0.2875
  785SOL    HW113574   7.487   4.393   6.531 -0.5860 -1.7636  0.5902
  785SOL    HW213575   7.327   4.404   6.498 -0.0006  1.3339 -1.3948
  786SOL     OW13576   3.709   9.202   1.258 -0.2372  0.1181  0.0727
  786SOL    HW113577   3.700   9.298   1.283  1.5623 -0.3051  2.6306
  786SOL    HW213578   3.652   9.146   1.319  0.1251 -0.5792 -0.2185
  787SOL     OW13579   4.446   2.627   3.551 -0.5687  0.0424 -0.1661
  787SOL    HW113580   4.523   2.566   3.574 -1.7934 -0.8607  1.7416
  787SOL    HW213581   4.390   2.584   3.481 -0.6214 -0.3798  0.1276
  788SOL     OW13582   3.720   1.592   6.491  0.5001 -0.1976 -0.0604
  788SOL    HW113583   3.728   1.687   6.522  1.1597  0.1207 -1.1571
  788SOL    HW213584   3.730   1.531   6.569  0.4087  0.6214  0.6105
  789SOL     OW13585   6.741   9.816   2.806  0.4397 -0.1075 -0.1022
  789SOL    HW113586   6.820   9.781   2.755  2.0798 -0.5834  2.6776
  789SOL    HW213587   6.765   9.904   2.847 -1.0537  0.5254 -0.5601
  790SOL     OW13588   7.841   7.113   6.471 -0.5101  0.0996 -0.2615
  790SOL    HW113589   7.933   7.082   6.496 -0.9599  0.3300  1.7898
  790SOL    HW213590   7.841   7.213   6.464 -0.3378  0.0239 -1.4644
  791SOL     OW13591   8.354   8.093   0.335  0.2644 -0.8108  0.4967
  791SOL    HW113592   8.419   8.153   0.290 -0.5759  1.3583  2.0789
  791SOL    HW213593   8.398   8.049   0.414  0.1017 -0.0873  0.9955
  792SOL     OW13594   7.117   9.250   3.009 -0.7570  0.7003  0.0711
  792SOL    HW113595   7.072   9.292   3.087 -0.1626 -0.9926  1.3474
  792SOL    HW213596   7.119   9.151   3.020 -0.4859  0.4385 -1.9977
  793SOL     OW13597   8.411   1.164   6.552  0.7132 -0.6513  0.0401
  793SOL    HW113598   8.314   1.166   6.528  0.4889 -2.2368  0.7705
  793SOL    HW213599   8.459   1.097   6.494  1.1154 -0.8491  0.5923
  794SOL     OW13600   2.610   3.997   4.617 -0.1133  0.3681 -0.2004
  794SOL    HW113601   2.647   3.975   4.527 -0.3716 -0.0954 -0.1968
  794SOL    HW213602   2.523   3.949   4.630 -0.2326  0.6799  0.1702
  795SOL     OW13603   1.648   4.732   4.663 -0.0225 -0.2032  0.0128
  795SOL    HW113604   1.616   4.659   4.724 -1.7912  0.3770 -0.1894
  795SOL    HW213605   1.648   4.819   4.713 -0.5761  0.1163 -0.5376
  796SOL     OW13606   2.220   2.492   6.026 -0.0807 -0.4156  0.7388
  796SOL    HW113607   2.208   2.469   5.929 -1.3459  0.9873  0.5475
  796SOL    HW213608   2.163   2.431   6.081 -0.3536 -0.3545  0.5240
  797SOL     OW13609   6.904   7.888   3.266 -0.2265 -0.0465  0.9349
  797SOL    HW113610   6.970   7.903   3.341  0.0681  0.1507  0.6399
  797SOL    HW213611   6.953   7.883   3.179 -0.5462 -0.5460  0.7836
  798SOL     OW13612   4.858   7.203   2.394  0.4062 -0.5762 -0.1781
  798SOL    HW113613   4.821   7.112   2.412 -1.7558 -0.3274 -2.9600
  798SOL    HW213614   4.831   7.232   2.302  1.0418  2.8729  0.6535
  799SOL     OW13615   3.680   3.661   4.588 -0.0788 -0.2678 -0.3012
  799SOL    HW113616   3.607   3.619   4.642  0.5683  0.7894  1.4266
  799SOL    HW213617   3.666   3.760   4.585  1.7382  0.0316  0.7537
  800SOL     OW13618   0.825   7.394   3.619 -0.1161  0.1840 -0.3982
  800SOL    HW113619   0.866   7.321   3.675  1.1572  0.4165 -0.9958
  800SOL    HW213620   0.864   7.482   3.646 -1.5116  0.6182  0.1912
  801SOL     OW13621   9.955   7.283   4.399 -0.0519 -0.4286 -0.0783
  801SOL    HW113622   9.958   7.261   4.302  0.3589  0.0934 -0.1841
  801SOL    HW213623   9.975   7.380   4.413 -0.4899 -0.4138  0.4976
  802SOL     OW13624   4.881   1.973   4.614 -0.0506 -0.1140  0.1501
  802SOL    HW113625   4.904   1.878   4.636 -1.6143 -0.5951 -0.2110
  802SOL    HW213626   4.932   2.001   4.532 -0.4541 -1.0209 -0.4219
  803SOL     OW13627   8.244   6.759   0.087  0.2359 -0.2785 -0.5987
  803SOL    HW113628   8.309   6.688   0.113 -0.1067 -1.5203 -2.9268
  803SOL    HW213629   8.151   6.727   0.106  0.1682  0.2268 -0.0944
  804SOL     OW13630   4.776   6.279   1.547 -0.1923  0.2952 -0.5676
  804SOL    HW113631   4.749   6.369   1.582  0.7478  0.8411 -1.2044
  804SOL    HW213632   4.712   6.250   1.476  0.6616  1.4395 -1.8574
  805SOL     OW13633   1.029   3.138   2.664 -0.5557 -0.2943 -0.1454
  805SOL    HW113634   1.090   3.166   2.590  1.5549 -2.6383  0.6346
  805SOL    HW213635   0.990   3.048   2.643  1.1242 -1.6146  2.1417
  806SOL     OW13636   9.967   7.425   4.092 -0.2357  0.0630  0.1649
  806SOL    HW113637   9.950   7.330   4.117  2.0075  0.1373  2.2010
  806SOL    HW213638   9.887   7.481   4.112 -0.5827 -0.9480  1.5959
  807SOL     OW13639   0.486   9.666   5.022 -0.1042 -0.4471 -0.3691
  807SOL    HW113640   0.503   9.630   5.114 -0.6969 -0.5543 -0.2996
  807SOL    HW213641   0.545   9.745   5.007  1.4812 -1.6616 -0.6742
  808SOL     OW13642   7.857   1.673   4.257 -0.7005  0.0865 -0.1079
  808SOL    HW113643   7.860   1.573   4.244 -0.8253  0.2303 -1.3349
  808SOL    HW213644   7.845   1.694   4.354 -2.1035 -1.1317  0.0072
  809SOL     OW13645   0.846   4.229   6.659 -0.7124 -0.5311  0.3290
  809SOL    HW113646   0.854   4.262   6.565 -0.9255 -2.0756 -0.2418
  809SOL    HW213647   0.770   4.275   6.704  0.0019  0.9283  0.0561
  810SOL     OW13648   3.139   3.324   6.632 -0.1368 -0.0462 -0.5844
  810SOL    HW113649   3.047   3.284   6.632 -0.5507  0.8927 -0.6060
  810SOL    HW213650   3.134   3.419   6.601  1.0299 -0.4128 -1.9298
  811SOL     OW13651   2.943   5.859   3.312 -0.0610  0.5192  0.0567
  811SOL    HW113652   2.862   5.801   3.312  1.0900 -1.1412 -0.0531
  811SOL    HW213653   2.919   5.951   3.283 -1.4786 -0.5813 -2.4122
  812SOL     OW13654   9.848   8.057   2.798  0.0662  0.0639  0.0016
  812SOL    HW113655   9.935   8.076   2.751 -0.2937  0.9748 -0.2955
  812SOL    HW213656   9.783   8.130   2.778 -0.3214  0.0942  1.3543
  813SOL     OW13657   9.925   3.543   0.466  0.3163  0.6129  0.0706
  813SOL    HW113658   9.983   3.607   0.517  1.0375  0.3477 -0.4165
  813SOL    HW213659   9.963   3.451   0.474  0.1223  0.4847 -0.4955
  814SOL     OW13660   6.409   7.836   4.822  0.6353  0.0580 -0.3672
  814SOL    HW113661   6.362   7.921   4.798 -2.0230 -1.0858  0.5826
  814SOL    HW213662   6.381   7.764   4.758  1.2615 -0.6080  0.1050
  815SOL     OW13663   2.988   0.202   4.602  0.3057  0.2325  0.7791
  815SOL    HW113664   3.036   0.116   4.584 -2.3259 -1.1449  0.1212
  815SOL    HW213665   2.924   0.189   4.678 -1.8286  0.9197 -0.8550
  816SOL     OW13666   0.904   6.720   2.622  0.7742  0.0557 -0.5604
  816SOL    HW113667   0.911   6.621   2.631 -0.0751  0.0045 -0.3882
  816SOL    HW213668   0.990   6.757   2.588  0.2695 -1.0265 -3.0820
  817SOL     OW13669   3.402   9.336   2.467  0.1722  0.0150 -0.2093
  817SOL    HW113670   3.321   9.347   2.410 -1.0089  0.8441  1.5630
  817SOL    HW213671   3.394   9.251   2.520  0.6465 -0.1005 -0.3224
  818SOL     OW13672   2.117   5.403   6.098  0.0206  0.3986  0.5510
  818SOL    HW113673   2.127   5.466   6.174 -0.5199 -0.0824  1.0213
  818SOL    HW213674   2.029   5.356   6.104  0.5742 -0.6772  0.4291
  819SOL     OW13675   2.107   1.366   1.281  0.1253  0.1765 -0.4650
  819SOL    HW113676   2.036   1.427   1.244 -0.8171 -0.7073 -0.1381
  819SOL    HW213677   2.119   1.385   1.379  1.0410  0.9881 -0.7236
  820SOL     OW13678   3.238   0.178   3.116 -0.3725  0.8109 -0.0875
  820SOL    HW113679   3.318   0.172   3.057  0.1835 -2.4456  0.9242
  820SOL    HW213680   3.267   0.211   3.207 -0.0846 -0.8307  0.4233
  821SOL     OW13681   4.701   8.798   2.170 -0.2270  0.1264  0.1946
  821SOL    HW113682   4.692   8.773   2.074 -0.6219  0.8455  0.0378
  821SOL    HW213683   4.798   8.801   2.195 -0.1756 -1.4843  0.2071
  822SOL     OW13684   0.216   3.572   4.204 -0.0035 -0.2636  0.6191
  822SOL    HW113685   0.300   3.563   4.256  0.1736  1.2140  0.6275
  822SOL    HW213686   0.228   3.641   4.132 -0.9821 -0.5329  0.1777
  823SOL     OW13687   4.197   5.479   0.682 -0.0182  0.3548 -0.0590
  823SOL    HW113688   4.123   5.515   0.739 -1.8651 -1.6884 -1.0592
  823SOL    HW213689   4.192   5.520   0.591  0.0875  0.2002 -0.1340
  824SOL     OW13690   2.844   8.470   4.649  0.4535 -0.1000  0.2995
  824SOL    HW113691   2.759   8.437   4.689 -0.1365  1.3572  0.2700
  824SOL    HW213692   2.856   8.430   4.558 -0.2979 -0.1777  0.2331
  825SOL     OW13693   2.558   5.392   1.042  0.1629  0.2079 -0.1815
  825SOL    HW113694   2.594   5.486   1.039 -0.0685  0.2445 -2.4886
  825SOL    HW213695   2.459   5.395   1.057  0.0570  0.3520 -0.9173
  826SOL     OW13696   7.900   3.669   3.592  0.3787  0.4574  0.4781
  826SOL    HW113697   7.964   3.744   3.608 -1.3955  1.8221  1.3094
  826SOL    HW213698   7.853   3.645   3.677  1.3714 -2.0446  0.3647
  827SOL     OW13699   1.772   8.555   6.179 -0.2068 -0.6720  0.0616
  827SOL    HW113700   1.677   8.533   6.199  0.7609 -1.8305  3.7083
  827SOL    HW213701   1.824   8.470   6.169  0.9569 -0.0407  0.7283
  828SOL     OW13702   3.984   9.648   0.086 -0.4419 -0.3349 -0.0667
  828SOL    HW113703   4.060   9.658   0.149 -0.5066 -3.2464  0.5529
  828SOL    HW213704   3.938   9.560   0.103 -2.9953  0.6832 -1.4249
  829SOL     OW13705   1.163   0.949   5.180 -0.2971  0.2023 -0.1122
  829SOL    HW113706   1.210   1.029   5.220  0.3168  0.2508 -0.9039
  829SOL    HW213707   1.144   0.968   5.083 -0.3257 -0.5319 -0.2487
  830SOL     OW13708   6.319   8.234   3.630  0.1876 -0.6444 -0.0984
  830SOL    HW113709   6.341   8.324   3.592 -0.9177 -0.3485 -0.0540
  830SOL    HW213710   6.262   8.245   3.711  1.2788 -1.3404  0.7756
  831SOL     OW13711   3.149   3.547   5.880 -0.0910  0.9759 -0.1124
  831SOL    HW113712   3.061   3.513   5.913  0.2274  0.0515 -0.1872
  831SOL    HW213713   3.181   3.488   5.806 -0.1071  2.1748 -1.0783
  832SOL     OW13714   7.063   9.553   1.550  0.0400  0.3311 -0.3247
  832SOL    HW113715   7.085   9.563   1.453  1.4262  1.4351  0.0863
  832SOL    HW213716   6.996   9.480   1.562 -1.1182  1.0547 -2.2438
  833SOL     OW13717   7.841   7.763   1.167  0.0981  0.1902  0.0922
  833SOL    HW113718   7.776   7.687   1.173 -0.9947  1.0183 -0.8831
  833SOL    HW213719   7.852   7.805   1.257  1.8481 -2.0380  0.9382
  834SOL     OW13720   4.200   0.301   0.409  0.8287 -0.3735 -0.4079
  834SOL    HW113721   4.223   0.397   0.426 -2.0530  0.2772  0.0923
  834SOL    HW213722   4.277   0.243   0.437  2.3378  1.7291 -0.0645
  835SOL     OW13723   4.289   9.641   3.666  0.2426 -0.2908 -0.2305
  835SOL    HW113724   4.309   9.652   3.569  0.6722 -0.1101 -0.1271
  835SOL    HW213725   4.191   9.634   3.680  0.1756 -0.2332 -0.6698
  836SOL     OW13726   8.040   0.119   5.073 -0.8552 -0.4844  0.5447
  836SOL    HW113727   8.120   0.162   5.116 -0.5647 -1.4444  0.9754
  836SOL    HW213728   8.060   0.103   4.976 -1.1581  0.8177  0.2628
  837SOL     OW13729   1.030   3.558   4.571  0.2933  0.0206 -0.2104
  837SOL    HW113730   1.061   3.487   4.634  3.0849  1.9802  0.7271
  837SOL    HW213731   1.089   3.559   4.490  0.7426  1.6823  0.1100
  838SOL     OW13732   8.226   6.908   0.502 -0.7794  0.2250  0.0659
  838SOL    HW113733   8.177   6.984   0.461 -0.9560 -0.2176 -0.5530
  838SOL    HW213734   8.189   6.888   0.593  0.5932  2.1828  1.0984
  839SOL     OW13735   0.330   0.239   0.377 -0.4637  0.1465 -0.0297
  839SOL    HW113736   0.336   0.305   0.452 -4.2786  0.9758 -0.3420
  839SOL    HW213737   0.328   0.288   0.290  0.2338 -0.6134 -0.4837
  840SOL     OW13738   1.763   0.713   3.099 -0.3977  0.8163  0.2995
  840SOL    HW113739   1.773   0.756   3.009  0.4275  0.1044  0.0473
  840SOL    HW213740   1.666   0.693   3.115 -0.6932  2.0755  0.1045
  841SOL     OW13741   8.882   9.006   3.806 -0.4294  0.6128  0.9648
  841SOL    HW113742   8.924   9.088   3.768  0.3965  0.4617  1.5483
  841SOL    HW213743   8.952   8.949   3.848 -0.7808 -1.0649 -0.6326
  842SOL     OW13744   8.998   5.293   2.290  0.1057  0.4072  0.0112
  842SOL    HW113745   9.004   5.236   2.372  2.6484  0.6095 -0.0153
  842SOL    HW213746   8.970   5.386   2.317 -1.6944 -0.1839  0.3069
  843SOL     OW13747   4.817   0.357   3.174 -0.5943 -0.2687  0.1074
  843SOL    HW113748   4.860   0.399   3.094  0.8019 -1.2186  0.3372
  843SOL    HW213749   4.787   0.428   3.238  0.3822  0.4179 -0.1949
  844SOL     OW13750   4.264   2.495   3.374  0.2467  0.4799  0.3885
  844SOL    HW113751   4.222   2.407   3.353  1.9226 -0.3074  0.2515
  844SOL    HW213752   4.289   2.542   3.290  0.3022  0.6056  0.4738
  845SOL     OW13753   1.882   4.850   2.926  0.4490  0.3339  0.1587
  845SOL    HW113754   1.958   4.786   2.925 -1.4716 -1.9606 -1.8009
  845SOL    HW213755   1.801   4.808   2.885 -1.0547  3.7734 -0.5817
  846SOL     OW13756   3.766   5.181   0.972  0.1340 -0.3346 -0.2204
  846SOL    HW113757   3.684   5.227   1.005  1.0780  0.2947  1.2929
  846SOL    HW213758   3.846   5.216   1.021  1.3703 -0.6152 -1.9892
  847SOL     OW13759   7.520   3.208   2.332  0.0338 -0.7628 -0.0312
  847SOL    HW113760   7.583   3.251   2.268  0.4653  0.7751  1.3878
  847SOL    HW213761   7.572   3.171   2.410 -0.4273 -3.0261 -0.7682
  848SOL     OW13762   2.763   8.736   4.030  1.0449 -0.0622  0.3682
  848SOL    HW113763   2.847   8.766   3.986  1.1754 -0.1931  0.5314
  848SOL    HW213764   2.775   8.735   4.129  0.4885  1.0713  0.4651
  849SOL     OW13765   5.771   9.752   3.345  0.0164  0.2971 -0.4043
  849SOL    HW113766   5.731   9.816   3.280  0.4420 -0.4756 -1.4480
  849SOL    HW213767   5.706   9.736   3.420 -0.3795  1.3798 -0.5054
  850SOL     OW13768   7.452   3.425   2.098 -0.4507 -0.6906 -0.4636
  850SOL    HW113769   7.533   3.367   2.088  0.0996 -0.0404  0.1117
  850SOL    HW213770   7.386   3.380   2.157  1.0303  0.2966  2.0575
  851SOL     OW13771   0.588   4.020   4.308  0.3755 -0.1899 -0.0186
  851SOL    HW113772   0.502   4.055   4.344  1.5210  1.5876  1.1063
  851SOL    HW213773   0.581   4.011   4.209 -1.7720 -2.0844  0.2702
  852SOL     OW13774   3.377   1.917   4.016  0.0627  0.1827  0.5653
  852SOL    HW113775   3.279   1.937   4.016  0.0305  0.0704 -1.0574
  852SOL    HW213776   3.425   1.987   3.963  1.1991  1.7287  3.5003
  853SOL     OW13777   7.800   9.711   1.153  0.4046 -0.0456  0.2644
  853SOL    HW113778   7.810   9.726   1.251 -1.8813 -0.8187  0.6432
  853SOL    HW213779   7.870   9.646   1.123  1.3628  0.4810  1.2845
  854SOL     OW13780   2.173   9.198   5.354  0.0952  0.0408 -0.1544
  854SOL    HW113781   2.172   9.266   5.427 -1.0072 -0.5362  0.3800
  854SOL    HW213782   2.262   9.198   5.309  0.3331  1.3504  0.2970
  855SOL     OW13783   4.125   1.556   2.162  0.0391 -0.2571  0.2213
  855SOL    HW113784   4.201   1.574   2.224  0.7602 -0.4280 -0.5995
  855SOL    HW213785   4.156   1.497   2.087 -0.8712 -0.2454 -0.1798
  856SOL     OW13786   0.330   5.155   6.386 -0.2073 -0.2004 -0.4241
  856SOL    HW113787   0.262   5.089   6.355  0.0551 -0.4477 -0.4802
  856SOL    HW213788   0.296   5.248   6.373 -0.6661 -0.3299 -0.1454
  857SOL     OW13789   1.046   3.205   5.250  0.8468  0.1471 -0.4508
  857SOL    HW113790   0.969   3.261   5.281  0.3917  0.2878 -1.8025
  857SOL    HW213791   1.049   3.120   5.303  0.8628  0.9313  0.8465
  858SOL     OW13792   7.102   1.086   5.076 -0.5852 -0.0167  0.5512
  858SOL    HW113793   7.075   1.169   5.125 -0.3456  0.2904  0.1657
  858SOL    HW213794   7.195   1.097   5.042 -0.0962 -0.9405  1.5801
  859SOL     OW13795   3.998   0.724   5.777 -0.1923  0.1143  0.0803
  859SOL    HW113796   3.997   0.642   5.835  0.1560  0.0762  0.0361
  859SOL    HW213797   3.905   0.755   5.762 -0.2567  0.4333  1.1016
  860SOL     OW13798   9.013   0.233   2.672 -0.7661 -0.0449 -0.0110
  860SOL    HW113799   8.951   0.165   2.711  1.0346 -1.1581  0.9270
  860SOL    HW213800   9.040   0.297   2.744  1.3193 -1.1743  0.2264
  861SOL     OW13801   2.219   2.567   2.475  0.4161  0.1423  0.0574
  861SOL    HW113802   2.293   2.634   2.475  2.0209 -1.5957  0.0222
  861SOL    HW213803   2.257   2.475   2.464 -1.6694 -0.8705  1.0900
  862SOL     OW13804   0.607   8.460   0.835 -0.5392  0.6521  0.0980
  862SOL    HW113805   0.591   8.475   0.933  0.5372 -2.3766  0.7846
  862SOL    HW213806   0.706   8.461   0.817 -0.5761 -2.1031 -0.3694
  863SOL     OW13807   8.202   6.358   6.591 -0.6632 -0.0517  0.3146
  863SOL    HW113808   8.142   6.332   6.667  1.6596  2.0243  2.9564
  863SOL    HW213809   8.195   6.457   6.576  1.2911  0.0410 -0.0706
  864SOL     OW13810   5.935   2.049   5.360  0.1306 -0.5695 -0.1337
  864SOL    HW113811   5.848   2.068   5.315  0.7112  1.5140 -0.4324
  864SOL    HW213812   6.006   2.034   5.291  0.0151 -2.3773  0.1053
  865SOL     OW13813   9.495   8.234   1.007  0.2229 -0.1214  0.3570
  865SOL    HW113814   9.516   8.318   0.956  0.4682  0.1499  0.8947
  865SOL    HW213815   9.409   8.195   0.974  2.0376 -1.8104 -2.6097
  866SOL     OW13816   7.098   2.358   1.673 -0.0164 -0.0049  0.1140
  866SOL    HW113817   7.015   2.372   1.619  1.4270  0.2733 -2.0470
  866SOL    HW213818   7.178   2.377   1.618  1.6416 -3.5242  1.1843
  867SOL     OW13819   0.926   9.294   2.655 -0.2886 -0.2535 -0.5974
  867SOL    HW113820   0.995   9.348   2.607  0.4374 -1.7971 -1.3293
  867SOL    HW213821   0.882   9.231   2.591 -1.3748 -0.2748  0.1599
  868SOL     OW13822   6.514   9.148   3.512 -0.9240 -0.2849 -0.7266
  868SOL    HW113823   6.569   9.068   3.534 -0.1369  0.5802  0.4646
  868SOL    HW213824   6.493   9.148   3.414  1.2941 -0.5583 -1.2160
  869SOL     OW13825   0.631   6.951   3.958  0.2784 -0.0904  0.3336
  869SOL    HW113826   0.609   6.973   4.053  0.8305  0.9524  0.2245
  869SOL    HW213827   0.557   6.897   3.918 -0.4689  0.4417  1.0097
  870SOL     OW13828   2.327   9.637   4.862  0.3846 -0.5400 -0.1229
  870SOL    HW113829   2.418   9.657   4.897 -0.0723  0.7620  0.3481
  870SOL    HW213830   2.315   9.682   4.773  0.6681 -1.8179 -0.8246
  871SOL     OW13831   3.159   8.999   1.807 -0.0891 -0.1868 -0.0830
  871SOL    HW113832   3.090   9.062   1.841  1.2506  0.4729  1.4754
  871SOL    HW213833   3.115   8.913   1.780 -1.7286  0.8688 -0.8337
  872SOL     OW13834   1.700   3.978   6.206 -0.0057 -0.0916 -0.3663
  872SOL    HW113835   1.783   3.966   6.151 -0.1388 -1.3704 -0.3207
  872SOL    HW213836   1.639   4.042   6.161 -0.4537 -1.6976 -2.1235
  873SOL     OW13837   3.799   7.667   0.798 -0.2801  0.1557 -0.0785
  873SOL    HW113838   3.868   7.731   0.829  0.7952  0.2514 -2.5877
  873SOL    HW213839   3.837   7.574   0.797 -0.9359 -0.1343  0.7735
  874SOL     OW13840   7.120   2.834   2.936  0.6952 -0.3495 -0.1564
  874SOL    HW113841   7.069   2.782   3.005  0.0399 -0.2627 -0.5760
  874SOL    HW213842   7.056   2.873   2.870  1.0026  2.6804  1.2799
  875SOL     OW13843   1.364   1.380   0.795 -0.1387 -0.1545 -0.0722
  875SOL    HW113844   1.344   1.283   0.813 -1.9143 -0.0042 -1.0313
  875SOL    HW213845   1.312   1.437   0.858  2.9740  0.1689  2.2932
  876SOL     OW13846   9.723   1.685   0.230  0.1306  0.7572  0.7514
  876SOL    HW113847   9.730   1.731   0.318 -2.2952  0.5127  1.1143
  876SOL    HW213848   9.692   1.591   0.244 -0.0835  0.6563 -0.3456
  877SOL     OW13849   4.829   2.539   1.942  0.5880  0.1254 -0.0518
  877SOL    HW113850   4.803   2.506   2.033 -1.0858  0.0822 -0.5155
  877SOL    HW213851   4.873   2.466   1.891 -2.0375 -1.1180 -0.6494
  878SOL     OW13852   9.651   6.238   1.356 -0.7315 -0.3467  0.3745
  878SOL    HW113853   9.638   6.220   1.453 -1.4423  0.8458  0.5009
  878SOL    HW213854   9.740   6.280   1.341 -0.8586 -0.0091  0.5732
  879SOL     OW13855   0.726   0.179   6.506 -0.2871 -0.1673  0.0796
  879SOL    HW113856   0.790   0.161   6.581 -0.8144 -1.1168  0.2968
  879SOL    HW213857   0.768   0.151   6.420 -0.5386 -1.1140  0.2592
  880SOL     OW13858   9.214   4.584   2.428  0.0057 -0.0848  0.1516
  880SOL    HW113859   9.314   4.579   2.421  0.0975  0.3231  1.0561
  880SOL    HW213860   9.188   4.673   2.466 -0.6153 -0.7258  1.2633
  881SOL     OW13861   9.995   9.290   4.722  0.0087  0.1963  1.0422
  881SOL    HW113862   9.970   9.199   4.690  0.1785  0.5768 -0.2184
  881SOL    HW213863  10.095   9.296   4.730  0.2334  1.1649 -1.7763
  882SOL     OW13864   2.974   7.805   5.654 -0.0061  0.0991  0.0893
  882SOL    HW113865   3.068   7.812   5.622  0.2519  1.8731  1.2056
  882SOL    HW213866   2.972   7.774   5.749 -0.5651 -0.1312  0.0095
  883SOL     OW13867   0.496   8.034   1.758  0.4240 -0.2260 -0.3978
  883SOL    HW113868   0.566   8.021   1.829 -0.1270 -0.7993  0.0436
  883SOL    HW213869   0.452   8.123   1.771  1.7736  0.5801 -1.2955
  884SOL     OW13870   4.685   2.074   5.632  0.1081 -0.2479  0.2281
  884SOL    HW113871   4.600   2.055   5.583 -1.4419  2.2927  1.8396
  884SOL    HW213872   4.667   2.081   5.730  1.9850  1.3301  0.5103
  885SOL     OW13873   9.880   0.775   6.609  0.1250  0.0152  0.1846
  885SOL    HW113874   9.835   0.861   6.634  0.0863 -0.3982  1.6144
  885SOL    HW213875   9.935   0.788   6.527 -0.3132  1.2667  0.0844
  886SOL     OW13876   4.883   0.744   0.409  0.2394  0.4240  0.8014
  886SOL    HW113877   4.915   0.774   0.319 -0.2689 -0.8154  0.1971
  886SOL    HW213878   4.784   0.729   0.405  0.6170 -2.1928  0.8263
  887SOL     OW13879   4.341   9.422   1.005  0.0050 -0.4079  0.1109
  887SOL    HW113880   4.441   9.420   0.996  0.0087  1.6009 -0.6061
  887SOL    HW213881   4.315   9.502   1.059 -1.2396 -0.5852 -0.2279
  888SOL     OW13882   4.260   3.483   6.001 -0.0496  0.0322 -0.3229
  888SOL    HW113883   4.274   3.553   6.071 -2.5745 -1.6674  2.0292
  888SOL    HW213884   4.212   3.522   5.923 -1.7485  0.9113  1.1181
  889SOL     OW13885   8.407   7.341   5.776 -0.2594  0.3032 -0.0874
  889SOL    HW113886   8.451   7.307   5.859  0.2456  1.4862  0.1469
  889SOL    HW213887   8.462   7.416   5.738 -0.9961  0.4132 -0.9438
  890SOL     OW13888   1.339   1.724   6.723  0.0345 -0.2995  0.0407
  890SOL    HW113889   1.291   1.742   6.809 -2.2019  1.0942 -1.4259
  890SOL    HW213890   1.380   1.809   6.689  1.0220 -0.8647 -0.1971
  891SOL     OW13891   4.060   4.960   4.207  0.1001  0.6969  0.7457
  891SOL    HW113892   3.962   4.978   4.197  0.1412  0.8855  0.6833
  891SOL    HW213893   4.110   5.006   4.134  0.2949  1.1732  1.1774
  892SOL     OW13894   2.716   4.535   4.074 -0.0341  0.2252 -0.5628
  892SOL    HW113895   2.622   4.509   4.095 -0.1825  0.7781 -0.5503
  892SOL    HW213896   2.726   4.549   3.975 -0.2621  1.3458 -0.4333
  893SOL     OW13897   2.176   9.121   4.441  0.1441  0.3750 -0.7859
  893SOL    HW113898   2.157   9.051   4.371 -0.3597  0.1093 -0.3873
  893SOL    HW213899   2.229   9.081   4.515  1.4737  0.8892 -1.4466
  894SOL     OW13900   5.376   5.261   0.758  0.5480  0.5512  0.5688
  894SOL    HW113901   5.443   5.263   0.833 -1.0204 -1.5644  2.0925
  894SOL    HW213902   5.408   5.199   0.686  1.1131  1.0255  0.4062
  895SOL     OW13903   8.714   4.498   5.783 -0.3630 -0.1874  0.1920
  895SOL    HW113904   8.635   4.448   5.748  0.0454 -1.1791  0.6290
  895SOL    HW213905   8.684   4.578   5.835 -1.1372 -1.1622  1.2748
  896SOL     OW13906   7.177   2.358   3.772 -0.1700 -0.9566  0.8510
  896SOL    HW113907   7.259   2.393   3.817 -0.0959 -0.7654  0.5682
  896SOL    HW213908   7.161   2.263   3.800  1.1740 -1.5969 -0.4933
  897SOL     OW13909   1.779   6.154   1.608 -1.3053 -0.8604  0.1420
  897SOL    HW113910   1.772   6.244   1.566 -2.2229 -1.2222 -0.4861
  897SOL    HW213911   1.693   6.132   1.654 -0.8629 -1.1474  0.8399
  898SOL     OW13912   6.924   0.938   6.599 -0.5372 -0.1755 -0.2529
  898SOL    HW113913   6.921   0.945   6.699 -0.0340 -1.9082 -0.1035
  898SOL    HW213914   6.840   0.896   6.565  0.2646 -1.7084 -0.3563
  899SOL     OW13915   2.097   7.419   4.551  0.3036 -0.0752  0.3185
  899SOL    HW113916   2.165   7.415   4.477 -0.5887 -0.8738 -0.4848
  899SOL    HW213917   2.010   7.452   4.513  0.0690  0.3065  1.1943
  900SOL     OW13918   3.507   9.631   0.945  0.2479 -0.1722  0.8502
  900SOL    HW113919   3.483   9.554   0.885 -1.0298 -0.5890  1.8695
  900SOL    HW213920   3.602   9.623   0.973  0.2407 -1.1731  0.6226
  901SOL     OW13921   7.877   6.722   6.645  0.2642 -0.2087 -0.5785
  901SOL    HW113922   7.838   6.720   6.553 -0.7976 -1.1245 -0.1139
  901SOL    HW213923   7.804   6.738   6.712  0.7137 -1.6078  0.2670
  902SOL     OW13924   8.904   3.773   2.697  0.1279 -0.0779  0.0866
  902SOL    HW113925   8.908   3.873   2.698  0.3520 -0.0873  1.4548
  902SOL    HW213926   8.819   3.743   2.739  0.5310 -0.4797  0.6200
  903SOL     OW13927   5.105   0.910   1.895  0.2881 -0.4086 -0.1085
  903SOL    HW113928   5.051   0.929   1.977  0.0313 -1.9448  0.0787
  903SOL    HW213929   5.097   0.988   1.832 -0.9229  0.0328  0.5701
  904SOL     OW13930   9.552   2.219   0.375  0.3877  0.0272  0.0354
  904SOL    HW113931   9.594   2.189   0.290 -1.7891 -0.1825 -0.9873
  904SOL    HW213932   9.624   2.242   0.441  2.0899 -0.3607 -1.6384
  905SOL     OW13933   6.920   9.541   5.358 -0.4246 -0.4678 -0.0448
  905SOL    HW113934   6.972   9.552   5.273 -1.5104  1.0229 -0.5229
  905SOL    HW213935   6.832   9.500   5.338 -0.2257 -1.1737  0.5158
  906SOL     OW13936   9.657   3.265   5.157 -0.0952 -0.5782  0.7401
  906SOL    HW113937   9.610   3.221   5.234  0.4835 -0.4950  1.1353
  906SOL    HW213938   9.693   3.353   5.185  0.3102 -0.6461  0.4304
  907SOL     OW13939   1.213   9.499   5.031  0.3955  0.3240  0.5384
  907SOL    HW113940   1.301   9.515   5.077  1.3594 -1.1098 -0.7692
  907SOL    HW213941   1.157   9.438   5.087  1.7900 -1.8660 -0.3979
  908SOL     OW13942   3.146   6.518   3.522 -0.3727 -0.7237 -0.3878
  908SOL    HW113943   3.079   6.514   3.596 -0.1961 -2.8481 -0.3239
  908SOL    HW213944   3.141   6.608   3.478 -3.6119 -0.9739 -0.7106
  909SOL     OW13945   9.720   1.120   6.370 -0.1673 -0.1313  0.0054
  909SOL    HW113946   9.731   1.152   6.464  0.0767  1.6809 -0.6216
  909SOL    HW213947   9.808   1.121   6.324 -0.2318 -1.3274 -0.1508
  910SOL     OW13948   6.793   9.674   4.261 -0.6652  0.3514  0.0102
  910SOL    HW113949   6.707   9.658   4.213 -1.0623  1.6469  0.2895
  910SOL    HW213950   6.774   9.708   4.354  0.1390  0.2151  0.2286
  911SOL     OW13951   4.833   1.370   2.646  0.0648  0.1835 -0.2656
  911SOL    HW113952   4.838   1.274   2.672 -0.2273  0.2571  0.0586
  911SOL    HW213953   4.742   1.406   2.667  0.9547  1.2119  1.9543
  912SOL     OW13954   9.462   0.661   3.542  0.0991  0.2847 -0.0780
  912SOL    HW113955   9.543   0.627   3.591 -0.4356 -0.4510  0.3071
  912SOL    HW213956   9.416   0.584   3.497 -0.9202  0.5548  0.4945
  913SOL     OW13957   4.102   8.787   4.339 -0.5785  0.8140 -0.5580
  913SOL    HW113958   4.118   8.701   4.291 -1.6644  1.6203 -2.4444
  913SOL    HW213959   4.102   8.771   4.438 -0.4425 -1.2788 -0.8711
  914SOL     OW13960   2.758   4.345   4.669  0.2596  0.0720 -0.2326
  914SOL    HW113961   2.791   4.326   4.577  0.5342 -0.1819 -0.0815
  914SOL    HW213962   2.665   4.310   4.679 -0.3015  1.3289 -0.8523
  915SOL     OW13963   3.029   2.283   1.915  0.2509  0.5007  0.5698
  915SOL    HW113964   3.033   2.189   1.946 -2.6296  1.2426  3.4818
  915SOL    HW213965   3.094   2.339   1.966  0.7625  0.4152  0.0221
  916SOL     OW13966   7.100   0.780   6.289 -0.3809  0.0445  0.1556
  916SOL    HW113967   7.017   0.734   6.321 -0.7769  1.7365  1.6385
  916SOL    HW213968   7.124   0.854   6.352  0.6254  1.4243 -1.7714
  917SOL     OW13969   2.941   8.279   4.057  0.0443  0.9252 -0.6444
  917SOL    HW113970   2.849   8.299   4.091 -0.3870  0.0728 -1.3054
  917SOL    HW213971   2.941   8.192   4.008  1.5553  0.1140  0.7392
  918SOL     OW13972   8.536   8.661   2.821 -0.5187  0.1844 -0.2638
  918SOL    HW113973   8.553   8.746   2.871  1.4212  0.1545 -0.8585
  918SOL    HW213974   8.443   8.662   2.785 -1.4203  0.8876  2.0066
  919SOL     OW13975   3.255   4.798   3.164 -0.7716  0.4367  0.1018
  919SOL    HW113976   3.349   4.790   3.133 -0.5517  0.5678  0.7200
  919SOL    HW213977   3.251   4.787   3.264 -1.6020 -1.1798 -0.0917
  920SOL     OW13978   0.723   8.492   3.644 -0.1662  0.0382 -0.3774
  920SOL    HW113979   0.690   8.449   3.560  0.8347 -2.0186  0.2533
  920SOL    HW213980   0.713   8.428   3.721  1.4377  0.8830  0.5719
  921SOL     OW13981   2.763   5.836   5.897  0.3037  1.0430  0.1038
  921SOL    HW113982   2.742   5.919   5.846 -0.3064 -0.0106 -1.3800
  921SOL    HW213983   2.801   5.767   5.835 -0.9645 -0.4543  0.9474
  922SOL     OW13984   2.057   7.158   1.102  0.0599 -0.2983 -0.5445
  922SOL    HW113985   1.977   7.205   1.064 -1.9305 -2.0155  1.3707
  922SOL    HW213986   2.096   7.098   1.033 -0.7584 -0.0235 -1.2538
  923SOL     OW13987   0.095   4.125   2.008 -0.0856 -0.2415  0.8499
  923SOL    HW113988   0.149   4.089   1.931 -0.0233 -0.1257  0.8398
  923SOL    HW213989   0.040   4.051   2.047 -1.1289 -0.0074 -0.1593
  924SOL     OW13990   9.772   0.318   0.609 -0.1565  0.5351  0.0199
  924SOL    HW113991   9.780   0.228   0.567  0.5888  0.3979  0.4434
  924SOL    HW213992   9.759   0.387   0.538  1.8525  0.3990 -0.4942
  925SOL     OW13993   3.793   8.976   3.490  0.5031  0.2860  0.2114
  925SOL    HW113994   3.793   9.071   3.523 -0.3479  0.9421 -1.5854
  925SOL    HW213995   3.698   8.946   3.477  0.8188  0.1423 -1.8206
  926SOL     OW13996   0.257   3.945   1.843 -0.3097 -0.7072  0.1380
  926SOL    HW113997   0.312   3.896   1.911 -1.1120 -0.1028  1.2369
  926SOL    HW213998   0.312   3.960   1.761  0.9581 -0.6886  0.9678
  927SOL     OW13999   9.298   4.249   4.448 -0.1093  0.3752  0.4161
  927SOL    HW114000   9.337   4.341   4.455 -0.7096  0.6011  0.8600
  927SOL    HW214001   9.302   4.205   4.538  2.1080 -0.8444 -0.2212
  928SOL     OW14002   3.450   0.068   6.708 -0.3098 -0.0363  0.0564
  928SOL    HW114003   3.533   0.057   6.762 -0.4551  1.6412  0.6542
  928SOL    HW214004   3.432   0.166   6.695 -0.3003 -0.4066 -2.9872
  929SOL     OW14005   2.812   7.375   3.909 -0.3897  0.1287  0.1035
  929SOL    HW114006   2.785   7.352   3.815  1.8695  1.4915 -0.9171
  929SOL    HW214007   2.829   7.291   3.961 -1.3574 -0.6260 -0.7819
  930SOL     OW14008   1.194   3.484   5.909 -0.2200  0.0231 -0.4635
  930SOL    HW114009   1.131   3.562   5.908 -0.1827  0.1097  1.6916
  930SOL    HW214010   1.141   3.399   5.902 -0.7523  0.0349  2.6265
  931SOL     OW14011   2.040   1.090   2.119 -0.0507  0.0845  0.0553
  931SOL    HW114012   2.099   1.010   2.116  1.6473  1.3467 -1.2856
  931SOL    HW214013   2.067   1.154   2.047  1.1487  3.5904  3.4508
  932SOL     OW14014   9.569   0.279   2.175 -0.4323 -0.6705  0.4029
  932SOL    HW114015   9.589   0.352   2.110 -2.2900 -0.2520  0.2709
  932SOL    HW214016   9.621   0.197   2.151  1.2652  0.4443  0.2526
  933SOL     OW14017   5.710   0.688   1.879 -0.4747 -0.3769  0.3507
  933SOL    HW114018   5.612   0.708   1.881 -0.2297  0.7698  1.4206
  933SOL    HW214019   5.758   0.761   1.830 -0.0411 -0.4546  0.6568
  934SOL     OW14020   1.838   6.045   6.553 -0.2993  0.0419  0.0998
  934SOL    HW114021   1.840   6.045   6.453  0.2119 -0.3051  0.1084
  934SOL    HW214022   1.748   6.013   6.584 -1.3714  2.6572 -0.2403
  935SOL     OW14023   9.649   9.437   1.054  0.4164 -0.4830  0.1427
  935SOL    HW114024   9.692   9.354   1.018  2.3678  1.3326 -1.9243
  935SOL    HW214025   9.552   9.420   1.070  0.7905 -3.1576 -0.1849
  936SOL     OW14026   7.488   6.522   1.536  0.1056 -0.5165 -0.0505
  936SOL    HW114027   7.554   6.558   1.602 -0.1226  0.9595 -0.5971
  936SOL    HW214028   7.398   6.563   1.555 -0.2964 -1.2736 -0.3147
  937SOL     OW14029   0.868   0.306   3.338 -0.3308 -0.5962 -0.0833
  937SOL    HW114030   0.889   0.321   3.434  1.2666 -1.6796 -0.2434
  937SOL    HW214031   0.879   0.392   3.288  2.4785 -0.7990  0.0909
  938SOL     OW14032   8.113   9.101   4.324  0.2267 -0.0296 -0.5116
  938SOL    HW114033   8.064   9.181   4.288  0.4798 -0.2183 -1.2804
  938SOL    HW214034   8.075   9.077   4.413 -1.6672 -0.6958 -1.4760
  939SOL     OW14035   9.553   3.407   4.054  0.2443  0.2459  0.0852
  939SOL    HW114036   9.472   3.466   4.060  0.2520  0.1443  1.3496
  939SOL    HW214037   9.607   3.416   4.138  0.3290 -1.4513  0.2255
  940SOL     OW14038   1.430   9.173   4.264 -0.0360 -0.3587 -0.5061
  940SOL    HW114039   1.335   9.199   4.282  0.0243 -0.4940  0.0306
  940SOL    HW214040   1.446   9.080   4.296  0.3236 -0.2738 -0.4359
  941SOL     OW14041   7.625   4.543   4.669 -0.1162 -0.1814  0.4643
  941SOL    HW114042   7.626   4.445   4.648 -0.5914 -0.0929  0.0048
  941SOL    HW214043   7.684   4.561   4.747  1.6798 -0.5362 -0.7721
  942SOL     OW14044   9.354   2.134   2.088 -0.3348 -0.6097  1.2485
  942SOL    HW114045   9.287   2.101   2.022 -1.1316 -1.5078  2.4857
  942SOL    HW214046   9.443   2.093   2.067 -0.6989 -1.3075  1.0296
  943SOL     OW14047   6.120   1.787   2.414  0.0282  0.0554  0.0917
  943SOL    HW114048   6.153   1.742   2.331 -0.5092  0.6767 -0.4713
  943SOL    HW214049   6.078   1.875   2.389 -1.5330 -0.4631  0.8616
  944SOL     OW14050   0.357   3.025   0.508 -0.0548  0.1393 -0.6666
  944SOL    HW114051   0.349   3.111   0.457  0.0129  1.7146  1.8493
  944SOL    HW214052   0.266   2.990   0.529 -0.0788 -0.6275 -2.0672
  945SOL     OW14053   1.812   8.513   0.339 -0.0522 -0.0183  0.6375
  945SOL    HW114054   1.814   8.450   0.261  3.9975 -0.5082  1.0013
  945SOL    HW214055   1.823   8.460   0.424  1.8412  0.9935  1.0510
  946SOL     OW14056   1.387   1.103   2.314  0.2918 -0.4054 -0.3700
  946SOL    HW114057   1.340   1.144   2.235 -0.2140 -2.0465 -0.9448
  946SOL    HW214058   1.470   1.058   2.283  1.1608  0.6692  0.3506
  947SOL     OW14059   8.088   0.363   3.260  0.1602  0.4146 -0.1393
  947SOL    HW114060   8.017   0.293   3.256  2.0820 -1.6679  1.2018
  947SOL    HW214061   8.061   0.434   3.325 -0.0126 -1.1538  1.5293
  948SOL     OW14062   3.926   0.032   4.080 -0.1387 -0.5422 -0.1201
  948SOL    HW114063   4.008  -0.018   4.054  0.2539 -0.1178  0.2867
  948SOL    HW214064   3.850   0.007   4.019  0.2977 -0.9104 -0.5128
  949SOL     OW14065   9.136   0.828   0.982  0.6992  0.2424  0.1412
  949SOL    HW114066   9.106   0.819   0.887  0.4567  0.0943  0.2337
  949SOL    HW214067   9.171   0.740   1.014  1.5126  0.4822 -0.0617
  950SOL     OW14068   1.453   9.475   4.651  0.7211 -0.6882 -0.3868
  950SOL    HW114069   1.374   9.415   4.664  1.2850 -1.5693 -0.9648
  950SOL    HW214070   1.516   9.465   4.727  0.5434 -0.3951 -0.1993
  951SOL     OW14071   3.656   6.747   0.602 -0.2197  0.0196  0.6758
  951SOL    HW114072   3.617   6.828   0.559  1.9359  1.3007  1.0442
  951SOL    HW214073   3.634   6.747   0.699 -0.2085  0.1875  0.6791
  952SOL     OW14074   2.305   7.632   1.241 -0.2279  0.3080 -0.3557
  952SOL    HW114075   2.332   7.652   1.335  0.5327 -0.8197 -0.3308
  952SOL    HW214076   2.263   7.541   1.237 -0.3691  0.4035 -1.0802
  953SOL     OW14077   3.879   8.798   0.747 -0.7249 -0.1792 -0.7997
  953SOL    HW114078   3.791   8.751   0.738  0.1109 -1.3365 -3.8482
  953SOL    HW214079   3.914   8.820   0.656  0.8459  2.7980  0.4545
  954SOL     OW14080   8.792   4.021   2.075  0.0920 -0.5820  0.3226
  954SOL    HW114081   8.796   3.984   2.168  0.2788 -1.9787 -0.2338
  954SOL    HW214082   8.865   4.088   2.063 -0.3633  0.1315  1.3948
  955SOL     OW14083   8.887   5.251   5.564 -0.7878 -0.1145 -0.0197
  955SOL    HW114084   8.831   5.200   5.499  1.3536 -1.4659 -0.8854
  955SOL    HW214085   8.873   5.215   5.656 -2.2909  0.4369 -0.0192
  956SOL     OW14086   4.081   5.043   1.862  0.2414 -0.1653 -0.5343
  956SOL    HW114087   4.092   4.949   1.894  1.5463 -0.0202 -0.5287
  956SOL    HW214088   4.170   5.088   1.861 -0.3984  1.1049 -0.4379
  957SOL     OW14089   0.178   8.698   3.852  0.1841  0.2750 -0.1106
  957SOL    HW114090   0.201   8.644   3.771  0.7474  1.1562 -0.5509
  957SOL    HW214091   0.152   8.791   3.824 -1.5493  0.0038  0.5718
  958SOL     OW14092   3.931   2.388   5.890 -0.1946  0.4025  0.0515
  958SOL    HW114093   3.938   2.359   5.985 -1.0176 -0.8502 -0.2741
  958SOL    HW214094   3.890   2.316   5.835  0.7189  0.9264 -1.3527
  959SOL     OW14095   9.835   2.702   2.637  0.2275 -0.2605 -0.2235
  959SOL    HW114096   9.810   2.606   2.642 -3.9416  0.7191 -0.3878
  959SOL    HW214097   9.798   2.751   2.717  0.8887  1.5001 -0.9605
  960SOL     OW14098   7.670   7.008   5.801  0.2939  0.2496  0.8503
  960SOL    HW114099   7.596   7.043   5.858  1.0208  0.1088  1.9210
  960SOL    HW214100   7.735   6.958   5.859  0.0774 -1.5332 -0.4055
  961SOL     OW14101   3.585   0.462   4.889  0.3967  0.1678  0.0031
  961SOL    HW114102   3.611   0.482   4.984 -1.7400  1.5678  0.3308
  961SOL    HW214103   3.589   0.364   4.873  1.2617 -0.0293  1.4131
  962SOL     OW14104   3.196   1.992   6.299 -0.2152 -0.1803  0.5148
  962SOL    HW114105   3.160   1.978   6.207  0.4358 -1.0170  0.3864
  962SOL    HW214106   3.237   2.083   6.305  1.1303 -0.7203 -0.4746
  963SOL     OW14107   3.076   7.940   4.779 -0.1833  0.1019 -0.0483
  963SOL    HW114108   3.161   7.990   4.765  0.2279 -0.0395  1.9206
  963SOL    HW214109   3.000   7.993   4.740  0.3827  1.7533  1.0579
  964SOL     OW14110   0.294   8.641   0.995 -0.0501  0.1220 -0.4480
  964SOL    HW114111   0.321   8.734   1.020 -1.5937  0.2185  1.0021
  964SOL    HW214112   0.205   8.620   1.036  0.3619 -2.0696 -0.5812
  965SOL     OW14113   4.390   1.364   4.742  0.5991 -0.6535  0.0603
  965SOL    HW114114   4.460   1.342   4.810  0.7671 -1.5427 -0.3939
  965SOL    HW214115   4.308   1.309   4.761  0.1230  0.1822  0.4287
  966SOL     OW14116   0.943   0.561   5.197  0.2454  0.0287  0.3980
  966SOL    HW114117   0.969   0.479   5.248  3.3067 -0.3296 -1.6040
  966SOL    HW214118   1.010   0.578   5.125 -1.1626  3.4440 -0.2041
  967SOL     OW14119   2.269   3.964   1.073 -0.6904 -0.5325 -0.0363
  967SOL    HW114120   2.258   3.917   0.985  0.5576 -1.0606  0.0769
  967SOL    HW214121   2.243   4.060   1.063 -2.8279 -1.1175 -0.3905
  968SOL     OW14122   3.851   4.377   5.310 -0.5890  0.2343  0.0097
  968SOL    HW114123   3.902   4.323   5.377  0.0988  0.5298 -0.2713
  968SOL    HW214124   3.876   4.473   5.319 -2.2704  0.6135  0.9274
  969SOL     OW14125   0.584   7.495   2.054 -0.1646 -0.5677 -0.2862
  969SOL    HW114126   0.510   7.438   2.089 -0.2337 -1.1093 -1.3009
  969SOL    HW214127   0.672   7.460   2.087 -0.1916 -1.3912 -1.0702
  970SOL     OW14128   1.067   7.819   2.501  0.0182  0.4797  0.5310
  970SOL    HW114129   1.040   7.832   2.405  0.2470  1.1402  0.5488
  970SOL    HW214130   1.101   7.906   2.537 -1.4571  0.5935  1.6553
  971SOL     OW14131   2.289   0.290   2.267 -0.4081  0.2478  0.1754
  971SOL    HW114132   2.322   0.384   2.259 -0.5563  0.4768  1.9362
  971SOL    HW214133   2.210   0.276   2.207 -0.2657  1.2045 -0.2251
  972SOL     OW14134   7.993   2.977   4.305  0.2680 -0.0445  0.0582
  972SOL    HW114135   8.046   3.023   4.234  0.7176 -0.3683  0.1854
  972SOL    HW214136   7.904   3.022   4.315  0.3748  0.2673 -0.4090
  973SOL     OW14137   9.413   5.475   1.864 -0.6594 -0.3641  0.2278
  973SOL    HW114138   9.434   5.558   1.916 -1.2975 -0.0188 -0.0550
  973SOL    HW214139   9.365   5.410   1.922  0.3215 -0.7562  0.6017
  974SOL     OW14140   6.886   7.332   4.788  0.5969 -0.1862 -0.3062
  974SOL    HW114141   6.808   7.390   4.812  1.0170  0.4721 -0.5004
  974SOL    HW214142   6.964   7.356   4.845  0.6592 -0.8437 -0.1095
  975SOL     OW14143   6.777   1.111   1.905  0.1125 -1.3237  0.7822
  975SOL    HW114144   6.703   1.046   1.889 -2.4786  1.8482 -0.8549
  975SOL    HW214145   6.775   1.142   2.000 -0.6454 -1.3129  0.7676
  976SOL     OW14146   2.600   2.456   4.235  0.1630  0.3205 -0.3271
  976SOL    HW114147   2.622   2.553   4.238 -0.0565  0.3734 -0.4251
  976SOL    HW214148   2.542   2.433   4.313 -1.2842  0.6391 -1.2946
  977SOL     OW14149   8.811   5.737   0.811  0.0114  0.7541 -0.1254
  977SOL    HW114150   8.882   5.801   0.843  0.9314 -0.1286 -0.3794
  977SOL    HW214151   8.815   5.653   0.865  0.5384 -0.1266 -1.5329
  978SOL     OW14152   4.992   9.705   2.986  0.6087  0.3123  0.0170
  978SOL    HW114153   5.045   9.646   2.925 -1.6502  0.1079 -1.8185
  978SOL    HW214154   4.909   9.735   2.940 -0.8161  0.7645  2.7587
  979SOL     OW14155   5.144   0.675   5.590 -0.6953 -0.0836 -0.2118
  979SOL    HW114156   5.086   0.732   5.649 -0.5314 -0.7912  0.6429
  979SOL    HW214157   5.237   0.712   5.590 -0.9434  0.5415 -0.8828
  980SOL     OW14158   3.065   8.570   1.283  0.5572 -0.1639 -0.8148
  980SOL    HW114159   2.974   8.598   1.252  0.5464 -1.3739 -1.9065
  980SOL    HW214160   3.107   8.646   1.332 -0.9050  0.5289 -0.5798
  981SOL     OW14161   1.703   6.669   4.648 -0.3096 -0.3079 -0.0419
  981SOL    HW114162   1.746   6.759   4.652 -2.3898  0.7528 -0.8070
  981SOL    HW214163   1.686   6.636   4.741  0.1735  0.2399  0.2432
  982SOL     OW14164   0.697   2.458   4.726  0.1702 -0.2606 -0.0518
  982SOL    HW114165   0.733   2.441   4.818 -0.5016 -3.0253 -0.2357
  982SOL    HW214166   0.766   2.432   4.658 -0.7741 -2.0596 -0.3553
  983SOL     OW14167   0.524   5.320   2.308  0.0538  0.5686  0.3995
  983SOL    HW114168   0.623   5.308   2.315  0.1626  1.0692 -0.2454
  983SOL    HW214169   0.478   5.252   2.365  0.7290 -0.9956 -0.8629
  984SOL     OW14170   4.396   6.582   2.645  0.2639 -0.2389 -0.0242
  984SOL    HW114171   4.393   6.532   2.558 -3.4213 -2.0688  1.0619
  984SOL    HW214172   4.351   6.671   2.633 -0.8802 -0.7851  0.1655
  985SOL     OW14173   8.219   7.747   2.470 -0.3171 -0.1764 -0.0344
  985SOL    HW114174   8.135   7.797   2.448  0.2485  0.7680 -0.0939
  985SOL    HW214175   8.229   7.741   2.569 -0.3735 -0.1382 -0.0260
  986SOL     OW14176   0.881   1.515   1.907 -0.0854 -0.5912  0.3403
  986SOL    HW114177   0.805   1.539   1.848 -0.1976 -1.9198 -0.0569
  986SOL    HW214178   0.849   1.508   2.002 -0.3906 -0.8333  0.2195
  987SOL     OW14179   0.206   4.411   4.837  0.5109  0.6238 -0.1619
  987SOL    HW114180   0.286   4.430   4.894  1.8294  1.4568 -2.2521
  987SOL    HW214181   0.129   4.469   4.865  0.5553 -0.3212  1.9775
  988SOL     OW14182   0.868   7.016   1.210  0.1932 -0.1620  0.8663
  988SOL    HW114183   0.849   7.102   1.256 -1.0182 -0.3359  0.7018
  988SOL    HW214184   0.794   6.995   1.146  0.5920 -1.2103  0.7350
  989SOL     OW14185   1.640   6.191   3.326  0.0017 -0.0460 -0.4534
  989SOL    HW114186   1.615   6.271   3.272  0.7937  0.3989 -0.1748
  989SOL    HW214187   1.584   6.113   3.298 -3.3698  1.4556  1.8162
  990SOL     OW14188   1.745   3.407   0.121 -0.6116  0.2729 -0.0173
  990SOL    HW114189   1.672   3.471   0.096 -1.4364 -0.6217  0.0593
  990SOL    HW214190   1.829   3.432   0.073 -1.3966  0.3424 -1.4018
  991SOL     OW14191   8.021   2.723   2.216  0.1317  0.0198 -0.4004
  991SOL    HW114192   8.042   2.703   2.312  0.6696 -0.4903 -0.6206
  991SOL    HW214193   7.939   2.780   2.211 -0.5661 -0.9001  0.3198
  992SOL     OW14194   2.402   2.737   1.228 -0.4794 -0.0056 -0.2707
  992SOL    HW114195   2.420   2.699   1.138 -2.3212 -1.5201 -0.0241
  992SOL    HW214196   2.359   2.827   1.218 -1.6806 -0.6433 -0.9254
  993SOL     OW14197   1.666   0.177   0.087 -0.7255 -0.0986 -0.0039
  993SOL    HW114198   1.709   0.267   0.095  0.3839 -0.4900 -1.1656
  993SOL    HW214199   1.700   0.132   0.004 -0.2174 -2.1364  1.2615
  994SOL     OW14200   7.334   8.651   2.694 -0.2017 -0.2035 -0.4123
  994SOL    HW114201   7.422   8.686   2.664 -0.1891 -0.8986 -1.1953
  994SOL    HW214202   7.261   8.713   2.662 -0.1452 -0.6342 -1.3999
  995SOL     OW14203   0.565   6.109   4.387 -0.3389  0.2403  0.2337
  995SOL    HW114204   0.633   6.062   4.444 -1.8246  0.6976  2.4573
  995SOL    HW214205   0.575   6.208   4.399 -1.1436  0.3182  0.2965
  996SOL     OW14206   4.128   7.533   3.687 -0.9517  0.7349  0.8496
  996SOL    HW114207   4.195   7.561   3.756  0.7405 -0.9624 -0.0898
  996SOL    HW214208   4.110   7.610   3.626  1.6143  0.6647 -0.0633
  997SOL     OW14209   7.247   7.642   4.936  0.7819  0.1253 -0.3093
  997SOL    HW114210   7.174   7.710   4.933 -0.1158 -0.7452  1.1200
  997SOL    HW214211   7.335   7.686   4.916  0.0905  1.5017 -0.3556
  998SOL     OW14212   7.763   7.105   4.064  0.0013  0.1016  0.1501
  998SOL    HW114213   7.718   7.056   4.139  0.7667  1.4351  1.4944
  998SOL    HW214214   7.728   7.071   3.977 -2.8631  0.3714  1.1377
  999SOL     OW14215   6.662   0.779   1.479 -0.3751 -0.1747 -0.5197
  999SOL    HW114216   6.694   0.722   1.403  0.1244  0.0403 -0.4684
  999SOL    HW214217   6.630   0.720   1.553 -1.5030 -0.3883 -1.1580
 1000SOL     OW14218   5.720   1.268   3.715  0.0179 -0.4892  0.1041
 1000SOL    HW114219   5.726   1.203   3.791 -1.9346 -0.9429 -0.1074
 1000SOL    HW214220   5.634   1.255   3.666  1.2249 -0.1729 -2.1896
 1001SOL     OW14221   4.465   3.100   4.554  0.6112  0.7140 -0.3239
 1001SOL    HW114222   4.560   3.069   4.554  0.9817  1.8248 -0.0131
 1001SOL    HW214223   4.427   3.089   4.462  1.7074  2.1960 -0.9896
 1002SOL     OW14224   7.278   8.333   2.651 -0.0830  0.7911 -0.6063
 1002SOL    HW114225   7.300   8.308   2.745 -2.1239  3.7507  0.7264
 1002SOL    HW214226   7.326   8.417   2.627 -0.9700  1.0233 -1.5979
 1003SOL     OW14227   8.491   9.569   5.891  0.0091 -0.0512 -0.1364
 1003SOL    HW114228   8.420   9.591   5.823  0.1265 -0.1143 -0.2802
 1003SOL    HW214229   8.564   9.517   5.847 -0.2604 -0.7094  0.2027
 1004SOL     OW14230   4.341   5.442   1.930  0.3899 -0.2726  0.0151
 1004SOL    HW114231   4.355   5.523   1.988 -1.7556  0.8489 -0.9381
 1004SOL    HW214232   4.349   5.469   1.834  1.3004 -1.5549 -0.2700
 1005SOL     OW14233   1.910   5.702   3.588 -0.1565  0.2601  0.8956
 1005SOL    HW114234   1.915   5.799   3.565  0.7524 -0.0667 -0.2998
 1005SOL    HW214235   1.828   5.662   3.547  1.8373 -0.4903 -2.4833
 1006SOL     OW14236   4.604   0.735   0.463 -0.0528 -0.1753  0.0316
 1006SOL    HW114237   4.540   0.784   0.405  1.1354  0.7884 -0.4909
 1006SOL    HW214238   4.611   0.782   0.552  0.8659  0.4540 -0.3646
 1007SOL     OW14239   3.266   1.520   0.569  0.1396  0.2952  0.0887
 1007SOL    HW114240   3.218   1.544   0.485  0.1639 -0.8314 -0.2479
 1007SOL    HW214241   3.363   1.541   0.559  0.5466 -1.9276 -1.0140
 1008SOL     OW14242   8.756   6.413   2.123  0.2476 -0.1675 -0.9298
 1008SOL    HW114243   8.825   6.474   2.162 -1.2871  1.8447 -1.2983
 1008SOL    HW214244   8.703   6.371   2.197  1.1633 -0.9350 -0.6876
 1009SOL     OW14245   6.734   5.447   5.774  0.0251 -0.3642  0.9311
 1009SOL    HW114246   6.765   5.529   5.822 -1.1707  0.8058 -0.2417
 1009SOL    HW214247   6.639   5.429   5.796 -0.7986  0.6847 -1.5806
 1010SOL     OW14248   4.137   6.803   2.762 -0.4938  0.7430 -0.4388
 1010SOL    HW114249   4.128   6.722   2.820  0.6129  0.2647 -0.9355
 1010SOL    HW214250   4.178   6.877   2.814 -1.1570  0.8788 -0.0962
 1011SOL     OW14251   4.742   9.686   2.106  0.1364  0.6229 -0.1685
 1011SOL    HW114252   4.680   9.755   2.141 -1.0457  0.1235 -1.2087
 1011SOL    HW214253   4.696   9.634   2.034  1.6949  0.1059 -0.8203
 1012SOL     OW14254   3.317   6.299   0.812  0.2737  0.0159 -0.1556
 1012SOL    HW114255   3.415   6.286   0.798  0.4643  0.6223  0.5498
 1012SOL    HW214256   3.272   6.312   0.724  1.1215  1.7072 -0.3694
 1013SOL     OW14257   8.361   4.392   1.104 -0.1513 -0.2866 -0.1561
 1013SOL    HW114258   8.389   4.452   1.180  0.3914  1.5005 -1.7227
 1013SOL    HW214259   8.429   4.397   1.031 -1.4537 -0.7547 -1.4286
 1014SOL     OW14260   9.089   4.494   6.088 -0.3928 -0.3528 -0.1364
 1014SOL    HW114261   9.107   4.395   6.093 -0.7066 -0.4314 -0.5466
 1014SOL    HW214262   9.144   4.533   6.014  0.7355  0.0083  0.8780
 1015SOL     OW14263   4.671   6.996   2.380  0.0134  0.1934 -0.5523
 1015SOL    HW114264   4.580   7.038   2.389 -0.1760 -0.0528 -1.2424
 1015SOL    HW214265   4.666   6.900   2.409  0.7998  1.0380  2.5234
 1016SOL     OW14266   1.566   7.203   6.179 -0.6105 -0.0182  0.0012
 1016SOL    HW114267   1.637   7.221   6.112  0.0016 -1.7036  0.1685
 1016SOL    HW214268   1.573   7.268   6.255 -0.4150  0.9826 -0.8773
 1017SOL     OW14269   2.036   8.681   3.449 -0.6277 -0.3788  0.3754
 1017SOL    HW114270   2.098   8.758   3.441 -1.8695  0.4962 -1.0874
 1017SOL    HW214271   2.085   8.602   3.485  0.7657  0.9470  1.4123
 1018SOL     OW14272   0.888   9.286   6.268 -0.2272  0.3310  0.4897
 1018SOL    HW114273   0.952   9.215   6.297 -1.3047 -0.7749  0.2250
 1018SOL    HW214274   0.803   9.243   6.236 -0.4680  1.6892 -0.7609
 1019SOL     OW14275   9.215   2.460   0.423  0.6987 -0.1192  0.1101
 1019SOL    HW114276   9.158   2.391   0.379  1.1983  0.0773 -0.8786
 1019SOL    HW214277   9.184   2.475   0.516 -0.5672 -0.3507 -0.2664
 1020SOL     OW14278   4.216   7.003   2.931 -0.2126 -0.0284  0.6071
 1020SOL    HW114279   4.296   6.954   2.967  0.2216 -0.2060 -0.5646
 1020SOL    HW214280   4.241   7.098   2.911 -0.3163 -0.0629  0.3133
 1021SOL     OW14281   7.345   2.374   0.326  0.1937  0.7957  0.3534
 1021SOL    HW114282   7.371   2.343   0.418  1.7514  1.3024  0.0897
 1021SOL    HW214283   7.418   2.431   0.288 -0.6083  0.8980 -1.0568
 1022SOL     OW14284   0.153   1.532   6.394  0.0080  0.4658 -0.1548
 1022SOL    HW114285   0.184   1.507   6.302  0.4236  2.8265 -0.7028
 1022SOL    HW214286   0.189   1.623   6.417 -0.3216  0.0132  2.2386
 1023SOL     OW14287   4.101   1.883   4.150  0.4618 -0.0364 -0.3514
 1023SOL    HW114288   4.088   1.789   4.184  0.5527  0.2067  0.3512
 1023SOL    HW214289   4.032   1.943   4.191  0.1332  0.1227 -1.1328
 1024SOL     OW14290   9.564   2.928   4.861  0.4222 -0.0803 -0.2656
 1024SOL    HW114291   9.536   2.875   4.941  1.4303 -0.5728 -0.2272
 1024SOL    HW214292   9.664   2.936   4.859  0.4386 -0.3558 -1.6450
 1025SOL     OW14293   4.170   0.791   5.553 -0.0311  0.3066  0.4184
 1025SOL    HW114294   4.200   0.880   5.586  0.8744  0.8431 -1.7493
 1025SOL    HW214295   4.107   0.750   5.619  0.9420  1.7437  2.2825
 1026SOL     OW14296   4.394   9.166   6.524  0.0140  0.3043 -0.0282
 1026SOL    HW114297   4.441   9.244   6.566 -0.4893  0.5396  0.1069
 1026SOL    HW214298   4.330   9.127   6.590  1.3015 -1.1288  0.3980
 1027SOL     OW14299   3.300   7.886   4.513 -0.3341 -0.1429  0.0788
 1027SOL    HW114300   3.282   7.948   4.437  0.2753 -0.2029 -0.1142
 1027SOL    HW214301   3.215   7.841   4.540 -1.0031  1.5770  0.9173
 1028SOL     OW14302   9.327   9.104   6.732  0.3432 -0.7272  0.1450
 1028SOL    HW114303   9.227   9.092   6.732  0.1386  0.9200 -0.4162
 1028SOL    HW214304   9.349   9.195   6.767  1.5912 -0.6326 -0.8811
 1029SOL     OW14305   1.769   2.740   1.215 -0.1676 -0.2033  0.0260
 1029SOL    HW114306   1.675   2.742   1.250 -0.3890  1.4223 -0.6070
 1029SOL    HW214307   1.773   2.678   1.136 -0.7115 -0.2753  0.0473
 1030SOL     OW14308   2.633   4.218   5.533  0.5499  0.4425 -0.0511
 1030SOL    HW114309   2.710   4.157   5.549 -0.0962 -0.3188  0.1733
 1030SOL    HW214310   2.593   4.199   5.443 -0.2754 -0.1551  0.4364
 1031SOL     OW14311   9.507   0.335   3.974  0.3840 -0.0109  0.3993
 1031SOL    HW114312   9.417   0.318   4.015 -0.3731 -2.0388 -1.9420
 1031SOL    HW214313   9.568   0.258   3.993 -0.2536 -1.4256 -2.7999
 1032SOL     OW14314   1.672   6.582   3.596  0.3464  0.1847 -0.1983
 1032SOL    HW114315   1.638   6.643   3.524 -1.7777 -0.4992  0.1786
 1032SOL    HW214316   1.595   6.535   3.638  1.5699  0.5126  2.4877
 1033SOL     OW14317   9.142   9.419   3.884 -0.1457  0.2821 -0.1246
 1033SOL    HW114318   9.179   9.328   3.905 -1.6912 -0.2860  0.2536
 1033SOL    HW214319   9.192   9.459   3.808  1.5021 -0.2744  0.6416
 1034SOL     OW14320   0.537   0.650   1.162 -0.5389  0.3062 -0.0796
 1034SOL    HW114321   0.536   0.687   1.068 -0.5142  0.2756 -0.0915
 1034SOL    HW214322   0.483   0.710   1.221 -0.0798  0.6379  0.0063
 1035SOL     OW14323   1.820   8.784   5.734  0.9013  0.1389 -0.0313
 1035SOL    HW114324   1.730   8.787   5.690  0.8094  1.7891  0.2393
 1035SOL    HW214325   1.850   8.877   5.755  0.6732 -0.5983  3.9439
 1036SOL     OW14326   6.539   0.914   4.147  0.1403  0.3656  0.2857
 1036SOL    HW114327   6.615   0.899   4.209  0.2248  0.1425  0.1278
 1036SOL    HW214328   6.453   0.910   4.198  0.0413 -2.5125 -0.0508
 1037SOL     OW14329   6.067   9.290   3.223  0.6474  0.1137  0.1304
 1037SOL    HW114330   6.124   9.238   3.160  1.1245 -1.2643  1.6679
 1037SOL    HW214331   6.116   9.372   3.254  1.0228 -0.0346 -0.0771
 1038SOL     OW14332   7.337   6.539   6.244 -0.2974  0.4007 -0.4021
 1038SOL    HW114333   7.322   6.457   6.188 -2.5630 -0.0283  0.7787
 1038SOL    HW214334   7.325   6.620   6.187  0.7029 -0.0442 -1.2855
 1039SOL     OW14335   9.324   2.432   4.437  0.1401  0.2215 -0.0001
 1039SOL    HW114336   9.342   2.393   4.527  0.1704 -1.0277 -0.5373
 1039SOL    HW214337   9.407   2.475   4.402  0.8793 -1.5596 -0.5238
 1040SOL     OW14338   6.187   9.904   4.950 -0.1111  0.3106 -0.4481
 1040SOL    HW114339   6.224   9.853   4.873 -1.6483  1.1973 -1.7984
 1040SOL    HW214340   6.212  10.001   4.941  1.1565  0.1588  1.0911
 1041SOL     OW14341   8.974   7.521   0.191  0.2984  0.4829 -0.5996
 1041SOL    HW114342   8.899   7.457   0.174  1.0658 -0.1040 -1.8007
 1041SOL    HW214343   8.937   7.603   0.235 -0.7341 -0.6483  0.7103
 1042SOL     OW14344   8.680   0.955   1.072  0.4319  0.1087  0.0359
 1042SOL    HW114345   8.640   0.898   1.001 -1.0614  1.7280 -0.4849
 1042SOL    HW214346   8.759   1.004   1.036  0.6603 -0.3067 -0.0265
 1043SOL     OW14347   9.196   5.527   1.703  0.0606 -0.0453 -0.5399
 1043SOL    HW114348   9.295   5.520   1.720  0.2821 -0.8895 -2.0502
 1043SOL    HW214349   9.152   5.441   1.727 -0.3909  0.4860  0.5691
 1044SOL     OW14350   4.506   6.682   2.854 -0.0780  0.4278  0.9741
 1044SOL    HW114351   4.463   6.631   2.780 -1.3414  0.5580  1.5933
 1044SOL    HW214352   4.445   6.683   2.934 -0.0922  2.8638  0.9888
 1045SOL     OW14353   8.805   2.220   2.178  0.4197  0.0765  0.2658
 1045SOL    HW114354   8.885   2.274   2.153 -0.5522  0.9399 -0.9899
 1045SOL    HW214355   8.731   2.236   2.113 -0.0931 -2.3212  0.2123
 1046SOL     OW14356   9.941   4.717   1.134  0.5088  0.3966 -0.0950
 1046SOL    HW114357   9.845   4.733   1.110  0.7172 -0.1284 -1.2943
 1046SOL    HW214358   9.948   4.633   1.188 -0.0404  1.9190  2.4769
 1047SOL     OW14359   1.894   8.925   5.314  0.1206 -0.5217  0.2327
 1047SOL    HW114360   1.958   8.910   5.390 -2.0782  1.0779  2.4651
 1047SOL    HW214361   1.889   9.022   5.293 -2.4260 -0.4762  0.8792
 1048SOL     OW14362   3.752   9.313   5.793  0.4533 -0.0850  0.1824
 1048SOL    HW114363   3.725   9.217   5.802 -0.1051  0.0043 -0.4503
 1048SOL    HW214364   3.834   9.319   5.736 -1.1661  0.0065 -2.2134
 1049SOL     OW14365   0.762   6.073   1.173 -0.1287  0.1129  0.0727
 1049SOL    HW114366   0.763   6.128   1.089 -1.5295  1.8626  1.1563
 1049SOL    HW214367   0.744   6.133   1.251 -0.8229 -1.7922  1.3916
 1050SOL     OW14368   6.100   7.143   4.138 -0.4655 -0.5485 -0.3358
 1050SOL    HW114369   6.149   7.186   4.062  0.1728 -0.4960  0.0936
 1050SOL    HW214370   6.142   7.054   4.159  0.8679  0.4491  1.4378
 1051SOL     OW14371   3.346   3.693   6.346 -0.1739  0.1630  0.0063
 1051SOL    HW114372   3.287   3.696   6.266 -0.6532  2.5275  0.4232
 1051SOL    HW214373   3.290   3.690   6.429  0.3178 -2.1577  0.2875
 1052SOL     OW14374   1.349   5.502   2.858 -0.3744 -0.4276 -0.1315
 1052SOL    HW114375   1.426   5.516   2.795 -0.5525 -0.6866 -0.4108
 1052SOL    HW214376   1.274   5.564   2.834 -0.0091  0.2868  0.5513
 1053SOL     OW14377   2.823   1.195   0.751 -0.1370 -0.3827 -0.2306
 1053SOL    HW114378   2.846   1.135   0.674  0.1314 -0.2856 -0.2257
 1053SOL    HW214379   2.726   1.216   0.749  0.1224  0.6974 -1.2950
 1054SOL     OW14380   2.787   1.989   6.625 -0.2033 -0.1300 -0.1323
 1054SOL    HW114381   2.789   1.998   6.724  1.0726 -0.5511 -0.1040
 1054SOL    HW214382   2.769   2.078   6.584  0.3346  0.2568  0.4576
 1055SOL     OW14383   4.806   9.405   6.530 -0.0421 -0.6927  0.8551
 1055SOL    HW114384   4.840   9.472   6.596  1.1751 -0.5098  0.0551
 1055SOL    HW214385   4.777   9.452   6.446  0.2912 -1.0984  0.5057
 1056SOL     OW14386   9.667   0.008   1.179 -0.7358 -0.1989  0.7435
 1056SOL    HW114387   9.672   0.018   1.279  0.6868 -0.1843  0.6725
 1056SOL    HW214388   9.676  -0.089   1.155 -0.7750 -0.1696  0.6129
 1057SOL     OW14389   0.995   2.665   5.888 -0.5322 -0.6297 -0.3393
 1057SOL    HW114390   0.926   2.593   5.887 -1.4354  0.2014  0.9795
 1057SOL    HW214391   1.031   2.676   5.981  1.3161 -0.9843 -0.9891
 1058SOL     OW14392   1.435   1.638   2.980  0.1994 -1.0870  0.4083
 1058SOL    HW114393   1.393   1.549   2.993  1.4228 -1.5873  0.9988
 1058SOL    HW214394   1.441   1.685   3.068  0.6278 -0.9036  0.2801
 1059SOL     OW14395   6.971   4.146   0.943 -0.1742 -0.1810  0.2911
 1059SOL    HW114396   6.875   4.151   0.913 -0.0301 -0.5772 -0.2419
 1059SOL    HW214397   6.981   4.194   1.030 -0.7443  0.3492  0.0658
 1060SOL     OW14398   6.865   2.659   4.927 -0.6231 -0.0192  0.1085
 1060SOL    HW114399   6.841   2.730   4.862 -2.5556 -0.0363  0.7384
 1060SOL    HW214400   6.862   2.569   4.882  0.4893  0.1728 -0.3592
 1061SOL     OW14401   1.096   7.867   1.832  0.0231  0.0028  0.2306
 1061SOL    HW114402   1.147   7.819   1.762  0.4364  0.8204 -0.0423
 1061SOL    HW214403   1.078   7.806   1.909 -0.1516 -0.7984 -0.4527
 1062SOL     OW14404   1.147   3.153   5.868  0.2013 -0.1222 -0.6375
 1062SOL    HW114405   1.235   3.184   5.832  0.7364  0.7331  1.3064
 1062SOL    HW214406   1.137   3.055   5.853  2.6004 -0.7031  1.2697
 1063SOL     OW14407   8.872   2.539   2.694  0.4648  0.4144  0.4188
 1063SOL    HW114408   8.950   2.484   2.664 -0.0813 -1.1510  1.7990
 1063SOL    HW214409   8.870   2.542   2.794 -2.3150 -1.1450  0.4577
 1064SOL     OW14410   2.755   5.928   2.968 -0.3159  0.0384  0.1666
 1064SOL    HW114411   2.855   5.928   2.965 -0.3384 -1.3921 -4.0684
 1064SOL    HW214412   2.722   5.834   2.976 -1.3298  0.2992 -0.8920
 1065SOL     OW14413   6.399   8.417   5.345 -0.3118  0.9769  0.5747
 1065SOL    HW114414   6.472   8.470   5.389  0.5942 -0.2790  0.5916
 1065SOL    HW214415   6.413   8.320   5.363 -1.8780  0.7129  0.3975
 1066SOL     OW14416   4.714   9.318   1.606 -0.5019  0.1910 -0.2977
 1066SOL    HW114417   4.756   9.302   1.695 -1.2101 -0.3203 -0.0477
 1066SOL    HW214418   4.656   9.240   1.583  0.1679  0.0387 -1.4888
 1067SOL     OW14419   4.731   3.539   1.894 -0.3308  0.0029  0.1738
 1067SOL    HW114420   4.666   3.569   1.824  1.1820  0.5987 -1.0218
 1067SOL    HW214421   4.725   3.440   1.905 -1.7012  0.0964  0.3561
 1068SOL     OW14422   9.581   4.652   1.371 -0.8493 -0.0876 -0.7612
 1068SOL    HW114423   9.652   4.679   1.437  1.2297 -2.1096 -2.1053
 1068SOL    HW214424   9.531   4.574   1.406  0.3986 -1.2995 -1.6248
 1069SOL     OW14425   1.881   3.616   1.415 -0.4510  0.0843  0.2854
 1069SOL    HW114426   1.910   3.705   1.379 -0.7662 -0.4267 -1.2781
 1069SOL    HW214427   1.917   3.603   1.507  0.5612  1.3419  0.0656
 1070SOL     OW14428   0.538   2.675   4.701  0.0845  1.0322  0.0901
 1070SOL    HW114429   0.574   2.765   4.726  1.6194 -0.1615  2.2962
 1070SOL    HW214430   0.612   2.608   4.703 -1.2746 -0.5053 -0.4391
 1071SOL     OW14431   8.087   2.214   1.323 -0.2337  0.2359  0.0958
 1071SOL    HW114432   8.141   2.169   1.252  0.0022  0.7389 -0.0418
 1071SOL    HW214433   8.147   2.242   1.397 -0.2737  0.9829 -0.1523
 1072SOL     OW14434   5.254   1.862   0.239 -1.0618  0.5384 -0.1587
 1072SOL    HW114435   5.205   1.827   0.159 -1.1882  0.0561  0.1291
 1072SOL    HW214436   5.209   1.944   0.273 -1.5804  0.1828  0.0111
 1073SOL     OW14437   3.077   0.624   1.899  0.0437  0.1197 -0.6815
 1073SOL    HW114438   3.120   0.546   1.945 -0.0512  0.2273 -0.4050
 1073SOL    HW214439   3.146   0.693   1.879 -0.1481  0.7383  0.6823
 1074SOL     OW14440   7.164   4.650   1.316 -0.1310 -0.5006  0.7333
 1074SOL    HW114441   7.143   4.596   1.398 -0.4475  1.0636  1.7165
 1074SOL    HW214442   7.178   4.589   1.238 -1.5539 -1.9337  1.5682
 1075SOL     OW14443   4.602   4.526   3.456 -0.6859 -0.0388 -0.3852
 1075SOL    HW114444   4.591   4.437   3.501 -1.4680  0.0722 -0.3541
 1075SOL    HW214445   4.699   4.550   3.454 -0.4797 -0.8500 -0.3103
 1076SOL     OW14446   1.934   1.768   2.516  0.3174  0.2250 -0.0882
 1076SOL    HW114447   1.838   1.796   2.517  0.5195  1.0299 -1.5483
 1076SOL    HW214448   1.988   1.831   2.573 -0.0544 -0.4285  1.0086
 1077SOL     OW14449   8.341   4.417   0.224 -0.3464 -0.0893 -0.3156
 1077SOL    HW114450   8.433   4.436   0.259 -0.3031 -1.5660  0.4126
 1077SOL    HW214451   8.344   4.416   0.124  0.3376  0.3458 -0.3052
 1078SOL     OW14452   2.312   1.962   6.216  0.4452  0.1250 -0.1292
 1078SOL    HW114453   2.259   1.924   6.139  1.3802  0.9504 -1.2003
 1078SOL    HW214454   2.274   2.051   6.241  0.6141  0.2010 -0.1448
 1079SOL     OW14455   8.557   3.378   6.617  0.4049  0.0227 -0.4098
 1079SOL    HW114456   8.465   3.417   6.609 -0.2378 -1.4982 -0.6931
 1079SOL    HW214457   8.624   3.442   6.578 -0.6885  0.5518 -1.4605
 1080SOL     OW14458   3.681   6.377   2.709 -0.0181 -0.2295  0.2457
 1080SOL    HW114459   3.582   6.374   2.692  0.5994 -2.9295 -3.3874
 1080SOL    HW214460   3.708   6.295   2.761  0.2762  0.7584  1.6767
 1081SOL     OW14461   2.582   1.915   2.299 -0.2741 -0.1068  0.2681
 1081SOL    HW114462   2.640   1.857   2.240  0.1750  2.0944 -1.5306
 1081SOL    HW214463   2.487   1.886   2.290 -0.0390 -0.6912 -0.4402
 1082SOL     OW14464   2.881   6.082   0.170  0.2794  0.8182  0.0615
 1082SOL    HW114465   2.875   6.143   0.092 -1.1168  0.8207  0.1605
 1082SOL    HW214466   2.917   5.993   0.140  0.1315  0.9492 -0.5096
 1083SOL     OW14467   0.903   2.445   4.921 -0.0918 -0.1214  0.4287
 1083SOL    HW114468   0.962   2.525   4.919  0.3894 -0.4871 -1.7625
 1083SOL    HW214469   0.955   2.365   4.952 -0.2640  0.1768  1.4886
 1084SOL     OW14470   7.108   2.020   2.302 -0.1675  0.6331 -0.2799
 1084SOL    HW114471   7.102   1.923   2.276 -0.4467  0.9417 -1.4046
 1084SOL    HW214472   7.095   2.029   2.400 -2.2453 -0.2901 -0.4377
 1085SOL     OW14473   2.289   0.738   1.434  0.0853 -0.2069 -0.6095
 1085SOL    HW114474   2.197   0.763   1.465 -0.0915 -0.4197 -0.9582
 1085SOL    HW214475   2.309   0.787   1.348 -0.5619 -1.8506 -1.7116
 1086SOL     OW14476   2.685   9.894   1.290  0.4495 -0.4271 -0.1493
 1086SOL    HW114477   2.680   9.991   1.264  0.0022 -0.0805  1.2198
 1086SOL    HW214478   2.708   9.839   1.209 -0.9961  0.6261 -1.2900
 1087SOL     OW14479   1.774   9.327   1.464 -0.1605  0.0549  0.3859
 1087SOL    HW114480   1.854   9.295   1.414  0.4660  0.3274  1.2039
 1087SOL    HW214481   1.691   9.310   1.410  0.5618  0.9369 -1.0183
 1088SOL     OW14482   9.884   1.892   3.666  0.0724  0.1556 -0.5107
 1088SOL    HW114483   9.923   1.890   3.574  2.4610  0.4357  0.4409
 1088SOL    HW214484   9.856   1.800   3.693  1.6893 -0.3795 -0.5928
 1089SOL     OW14485   0.994   2.976   5.422  0.1007 -0.1366 -0.1467
 1089SOL    HW114486   0.941   2.892   5.413  0.4453 -0.2878 -0.7900
 1089SOL    HW214487   1.086   2.955   5.455 -0.2242  0.1264  0.9711
 1090SOL     OW14488   2.380   5.940   4.170 -0.3071  0.4386 -0.0557
 1090SOL    HW114489   2.390   5.941   4.071 -1.7384  0.9470 -0.2111
 1090SOL    HW214490   2.309   5.875   4.196 -0.0734  0.4514  0.6207
 1091SOL     OW14491   0.371   6.961   3.187  0.2883 -0.3234  0.1371
 1091SOL    HW114492   0.351   6.884   3.247  1.8817  1.0788  2.5666
 1091SOL    HW214493   0.463   6.994   3.205 -0.1799  1.8228 -1.1986
 1092SOL     OW14494   8.799   2.057   5.113  0.1790  0.0041  0.2205
 1092SOL    HW114495   8.761   1.983   5.168  0.4515 -0.0367  0.3537
 1092SOL    HW214496   8.725   2.104   5.064 -0.2750  1.1459  1.9469
 1093SOL     OW14497   8.378   9.346   0.327  0.5982 -0.1355  0.5220
 1093SOL    HW114498   8.346   9.269   0.272  1.1331 -0.9183  1.2897
 1093SOL    HW214499   8.381   9.319   0.423  0.3718  0.9884  0.8546
 1094SOL     OW14500   3.110   0.575   4.976  0.5697  0.4428  0.1537
 1094SOL    HW114501   3.059   0.605   4.895  0.4609 -0.4716 -0.1143
 1094SOL    HW214502   3.197   0.534   4.948  0.0282 -0.9051  0.4329
 1095SOL     OW14503   2.806   7.027   5.025  0.3795 -0.0887 -0.2356
 1095SOL    HW114504   2.806   7.090   5.102  2.3866 -0.6394  0.2436
 1095SOL    HW214505   2.723   6.972   5.027 -1.5111  2.6690 -0.7969
 1096SOL     OW14506   9.492   0.023   0.109 -0.3044  0.7376  0.3900
 1096SOL    HW114507   9.415   0.079   0.080 -0.4437 -0.4948 -1.7177
 1096SOL    HW214508   9.578   0.070   0.087 -0.4311  0.8828  0.2040
 1097SOL     OW14509   2.180   4.575   4.025  0.4321  0.1446  0.5199
 1097SOL    HW114510   2.135   4.649   3.974  2.0081  0.8238  0.0754
 1097SOL    HW214511   2.193   4.603   4.120  3.4209  1.5788 -0.2375
 1098SOL     OW14512   9.300   4.842   3.426  0.4900 -0.0406 -0.9373
 1098SOL    HW114513   9.257   4.868   3.339 -2.1702 -0.5239  0.1783
 1098SOL    HW214514   9.288   4.916   3.493 -0.9879 -1.2387  0.1657
 1099SOL     OW14515   4.808   1.128   4.099 -0.4191 -0.0440 -0.3521
 1099SOL    HW114516   4.877   1.149   4.169 -1.0424 -0.5121  0.4099
 1099SOL    HW214517   4.824   1.185   4.019 -0.5306  1.4816  0.7000
 1100SOL     OW14518   7.921   0.593   0.588 -0.1955  0.4633  0.1237
 1100SOL    HW114519   7.884   0.612   0.679  0.0237  1.6756 -0.0300
 1100SOL    HW214520   7.915   0.495   0.569  0.5903  0.0683  1.8136
 1101SOL     OW14521   1.593   8.261   0.467 -0.3629  0.1119  0.2352
 1101SOL    HW114522   1.644   8.322   0.528  0.5715 -1.1842  0.7490
 1101SOL    HW214523   1.557   8.184   0.519  1.6629 -1.7743 -1.0460
 1102SOL     OW14524   8.330   1.090   5.397 -0.3080  0.2271 -0.9205
 1102SOL    HW114525   8.252   1.047   5.441  0.2808 -0.4649 -0.5263
 1102SOL    HW214526   8.325   1.074   5.298 -0.2958 -0.4381 -0.8170
 1103SOL     OW14527   7.734   8.338   0.967  0.2528  0.0897 -0.2864
 1103SOL    HW114528   7.782   8.336   0.879 -0.7205 -1.8124 -0.7981
 1103SOL    HW214529   7.712   8.245   0.995  0.7611  0.6627  2.1175
 1104SOL     OW14530   0.138   8.410   5.787 -0.5043 -0.2302  0.8414
 1104SOL    HW114531   0.210   8.342   5.769 -0.0671  0.6822 -0.9256
 1104SOL    HW214532   0.069   8.405   5.715 -0.1151  1.6566  0.3049
 1105SOL     OW14533   1.583   4.426   6.133 -0.1760 -0.7797 -0.2392
 1105SOL    HW114534   1.514   4.482   6.179  1.5184  2.4177 -1.4688
 1105SOL    HW214535   1.605   4.347   6.190  0.2542  1.8785  3.4518
 1106SOL     OW14536   2.738   4.472   0.642  0.3847  0.1872  0.4258
 1106SOL    HW114537   2.747   4.507   0.548  0.7234  3.2067  1.5379
 1106SOL    HW214538   2.807   4.401   0.657  0.6237 -0.0239 -1.4768
 1107SOL     OW14539   2.054   1.731   0.591 -0.7741  0.3998  0.6844
 1107SOL    HW114540   2.148   1.709   0.616 -0.9855  0.6736  1.7517
 1107SOL    HW214541   2.031   1.685   0.505  1.2452  2.5464 -1.1028
 1108SOL     OW14542   9.336   4.758   3.060  0.4565  0.2397 -0.2522
 1108SOL    HW114543   9.371   4.699   3.132  0.2380 -0.0843 -0.4118
 1108SOL    HW214544   9.287   4.835   3.102 -0.3242 -0.3499 -0.0606
 1109SOL     OW14545   3.743   0.516   0.342  0.4650  0.5381  0.4161
 1109SOL    HW114546   3.811   0.543   0.273  2.1183  0.7083  2.0568
 1109SOL    HW214547   3.787   0.458   0.411 -0.9572  1.0431  1.7712
 1110SOL     OW14548   3.058   6.718   2.789  0.0282 -0.1314 -0.4390
 1110SOL    HW114549   3.015   6.646   2.844 -1.4334  1.8900  1.1000
 1110SOL    HW214550   3.156   6.721   2.809  0.0591 -1.4968 -0.3099
 1111SOL     OW14551   9.864   5.682   3.233  0.5565 -0.4269 -0.1000
 1111SOL    HW114552   9.844   5.756   3.169  2.5832  0.8164  0.6765
 1111SOL    HW214553   9.959   5.654   3.224 -0.3527 -3.5215 -0.9191
 1112SOL     OW14554   1.216   7.610   1.043 -0.6256  0.6429 -0.4130
 1112SOL    HW114555   1.212   7.683   1.112 -0.9766  1.5034 -1.3327
 1112SOL    HW214556   1.197   7.522   1.086 -1.1075  1.2073  0.5352
 1113SOL     OW14557   9.749   7.153   2.743  0.6056  0.4006 -0.2861
 1113SOL    HW114558   9.667   7.207   2.758  0.0126 -0.8573  1.1427
 1113SOL    HW214559   9.726   7.071   2.691  1.0725  0.3634 -0.4344
 1114SOL     OW14560   4.923   4.901   6.681  0.2126  0.8684 -0.4142
 1114SOL    HW114561   4.884   4.941   6.764  0.9732 -2.1885  1.5096
 1114SOL    HW214562   4.849   4.871   6.621 -0.3802  0.9974  0.2433
 1115SOL     OW14563   7.798   2.917   5.303 -0.4071  0.0485  0.7096
 1115SOL    HW114564   7.852   2.835   5.320 -1.7269 -0.7856  0.9974
 1115SOL    HW214565   7.721   2.895   5.243 -0.0740  1.3567 -0.2371
 1116SOL     OW14566   4.439   1.259   5.634  0.1287 -0.5868 -0.3420
 1116SOL    HW114567   4.467   1.336   5.576 -2.9357  0.7612 -0.1439
 1116SOL    HW214568   4.402   1.294   5.720 -0.0271 -2.3688  0.3319
 1117SOL     OW14569   3.164   8.575   5.174 -0.3351 -0.0168  0.4407
 1117SOL    HW114570   3.180   8.661   5.124 -0.0654 -0.8786 -0.9864
 1117SOL    HW214571   3.249   8.523   5.179 -0.0265  0.7007  3.0699
 1118SOL     OW14572   9.972   8.925   3.051  0.1892 -0.4753  0.2077
 1118SOL    HW114573  10.034   8.894   2.980  0.0234 -0.2222 -0.0496
 1118SOL    HW214574  10.012   8.908   3.141  0.3925 -0.8064  0.0532
 1119SOL     OW14575   0.198   5.249   3.567 -0.6491  0.2022  0.5524
 1119SOL    HW114576   0.216   5.156   3.535 -0.0576 -0.0688  1.6597
 1119SOL    HW214577   0.114   5.283   3.524 -1.2220 -1.0828  0.6325
 1120SOL     OW14578   0.315   7.338   3.723  0.0909  0.2438 -0.3171
 1120SOL    HW114579   0.240   7.369   3.665  0.7081  1.6742 -0.3845
 1120SOL    HW214580   0.286   7.338   3.819 -0.5929 -1.0750 -0.5238
 1121SOL     OW14581   1.873   6.805   5.550  0.1663 -0.5583 -0.4761
 1121SOL    HW114582   1.891   6.712   5.583  0.1457  0.7187  3.3696
 1121SOL    HW214583   1.956   6.860   5.558 -0.5589  0.4920 -0.1016
 1122SOL     OW14584   7.431   1.563   6.630  0.1916 -0.1904  0.1542
 1122SOL    HW114585   7.450   1.626   6.705  0.1497  1.0499 -0.8503
 1122SOL    HW214586   7.334   1.537   6.632  0.4399 -1.0416  1.1791
 1123SOL     OW14587   1.083   9.400   3.248  0.6851 -0.3656 -0.4142
 1123SOL    HW114588   1.179   9.384   3.225  1.2628  3.2874 -0.9092
 1123SOL    HW214589   1.077   9.453   3.332 -0.8832 -0.5111 -0.4236
 1124SOL     OW14590   3.410   9.100   4.137 -0.1756  0.2744 -0.2535
 1124SOL    HW114591   3.363   9.178   4.179 -1.1240  0.0206 -0.8311
 1124SOL    HW214592   3.508   9.106   4.157 -0.6231  0.0639  2.1255
 1125SOL     OW14593   6.154   8.668   2.947  0.2992  0.2768  0.2091
 1125SOL    HW114594   6.253   8.679   2.947  0.2898  0.3879 -0.5806
 1125SOL    HW214595   6.122   8.657   3.041  1.0791  0.0420  0.4524
 1126SOL     OW14596   1.360   5.329   2.247 -0.0558  0.5066  0.1607
 1126SOL    HW114597   1.454   5.356   2.224 -0.2107  1.7866  0.9803
 1126SOL    HW214598   1.350   5.325   2.347 -1.2976  2.0091  0.1293
 1127SOL     OW14599   8.148   0.989   6.308 -0.6992 -0.1852  0.1947
 1127SOL    HW114600   8.134   0.983   6.407 -0.7622 -0.3797  0.1732
 1127SOL    HW214601   8.070   0.948   6.261  1.0068 -3.4460  0.0887
 1128SOL     OW14602   4.009   9.654   3.652  0.0620  0.1216  0.0499
 1128SOL    HW114603   3.954   9.598   3.714 -0.3564  0.9466  0.4314
 1128SOL    HW214604   3.978   9.639   3.558  0.0487 -0.3909  0.1326
 1129SOL     OW14605   6.413   0.328   3.994 -0.0992  0.9425 -0.0840
 1129SOL    HW114606   6.475   0.249   3.999 -1.7636 -0.5088 -1.7367
 1129SOL    HW214607   6.332   0.311   4.050 -0.1856  1.7506  0.0439
 1130SOL     OW14608   9.392   5.788   2.494 -0.1944  0.3683 -0.0950
 1130SOL    HW114609   9.393   5.773   2.592  0.8685 -0.3214 -0.2096
 1130SOL    HW214610   9.390   5.887   2.476 -0.0542  0.5055  0.6187
 1131SOL     OW14611   2.230   8.466   0.228  0.7032  0.4988 -0.0736
 1131SOL    HW114612   2.306   8.411   0.194  0.7484  0.6978 -0.2999
 1131SOL    HW214613   2.210   8.441   0.323 -0.2603 -0.9417 -0.6510
 1132SOL     OW14614   1.064   7.564   3.147  0.4884  0.1116  0.2785
 1132SOL    HW114615   1.049   7.534   3.053  1.6760  1.6296 -0.4177
 1132SOL    HW214616   0.994   7.524   3.207 -1.8188  1.1860 -1.6493
 1133SOL     OW14617   2.416   9.151   5.235  0.3566  0.0112 -0.0923
 1133SOL    HW114618   2.447   9.116   5.147  0.2547 -0.0741 -0.0941
 1133SOL    HW214619   2.441   9.087   5.308 -3.2761 -2.0327 -0.5353
 1134SOL     OW14620   8.418   1.771   4.875 -0.3593  0.2359  0.2749
 1134SOL    HW114621   8.498   1.790   4.819 -0.1520 -1.2239  0.0614
 1134SOL    HW214622   8.335   1.792   4.823 -0.1305  1.7723  0.5057
 1135SOL     OW14623   3.333   4.441   6.133 -0.2108  0.1947  0.1349
 1135SOL    HW114624   3.283   4.514   6.179 -0.6230  0.0667 -0.1012
 1135SOL    HW214625   3.407   4.480   6.078  0.0789  0.3706  0.6532
 1136SOL     OW14626   3.774   1.069   2.440  0.1783  0.0393 -0.5148
 1136SOL    HW114627   3.852   1.112   2.394  0.2859  0.3503 -0.0422
 1136SOL    HW214628   3.699   1.134   2.446 -1.1255 -1.0959 -3.4163
 1137SOL     OW14629   9.147   1.871   4.520 -0.2394  0.3843 -0.4218
 1137SOL    HW114630   9.173   1.961   4.556  0.7010  0.6609 -1.7321
 1137SOL    HW214631   9.059   1.843   4.559  1.3624  0.0242  3.1540
 1138SOL     OW14632   3.205   8.526   1.782 -0.3967  0.1785  0.2418
 1138SOL    HW114633   3.219   8.523   1.683  1.8730 -3.6930  0.5732
 1138SOL    HW214634   3.290   8.555   1.827 -1.0489  0.7372  1.1307
 1139SOL     OW14635   6.918   3.270   3.115  0.1827  0.6974  0.2860
 1139SOL    HW114636   6.950   3.228   3.031 -0.6906  1.8076 -0.6184
 1139SOL    HW214637   6.989   3.331   3.150 -0.1424  1.6086 -0.6225
 1140SOL     OW14638   4.927   1.614   6.386 -0.2692 -0.1461 -0.1284
 1140SOL    HW114639   4.992   1.543   6.413 -0.9110 -0.0688  1.7026
 1140SOL    HW214640   4.861   1.576   6.321  0.0773 -0.9142 -0.0387
 1141SOL     OW14641   2.259   4.924   3.796 -0.2448  0.1492 -0.1604
 1141SOL    HW114642   2.260   4.825   3.785  0.0854  0.3234 -1.9594
 1141SOL    HW214643   2.299   4.967   3.714 -3.0731  1.8640 -0.6984
 1142SOL     OW14644   6.540   9.100   3.100  0.7518  0.3653 -0.3141
 1142SOL    HW114645   6.493   9.139   3.020  1.6236 -0.6105 -1.3306
 1142SOL    HW214646   6.493   9.128   3.183  0.3699  2.1783 -1.1195
 1143SOL     OW14647   5.384   9.517   2.812 -0.0212 -0.3046  0.2344
 1143SOL    HW114648   5.397   9.524   2.911  0.2522  2.6368  0.0352
 1143SOL    HW214649   5.472   9.501   2.767 -0.0181 -0.7844  0.4181
 1144SOL     OW14650   7.483   2.897   4.252 -0.2938 -0.1549  0.1849
 1144SOL    HW114651   7.440   2.976   4.208 -0.9068  0.0296  1.0958
 1144SOL    HW214652   7.412   2.840   4.295  0.3688  0.2758  1.8945
 1145SOL     OW14653   9.047   9.190   3.676  0.0381 -0.0306  0.1435
 1145SOL    HW114654   9.122   9.148   3.625  0.0190  0.5425 -0.3588
 1145SOL    HW214655   9.042   9.288   3.654 -2.2564 -0.4984 -1.5370
 1146SOL     OW14656   0.497   4.015   1.023  0.1909 -0.4308  0.2945
 1146SOL    HW114657   0.478   4.007   0.925  0.1833  0.8203  0.1810
 1146SOL    HW214658   0.595   4.004   1.039  0.1616 -0.8661  0.1739
 1147SOL     OW14659   1.603   9.560   6.685 -0.2597 -0.5438 -0.3878
 1147SOL    HW114660   1.535   9.487   6.696  0.1683 -0.6186  2.2109
 1147SOL    HW214661   1.690   9.530   6.724  0.0649  1.1289  0.2225
 1148SOL     OW14662   9.084   8.041   0.657 -0.1003  0.0185  0.0336
 1148SOL    HW114663   9.016   8.089   0.712 -1.0184 -2.1226  0.8328
 1148SOL    HW214664   9.127   8.105   0.593  0.7362  2.4753  2.9721
 1149SOL     OW14665   6.242   3.006   4.233 -0.0831 -0.1152  0.3178
 1149SOL    HW114666   6.290   3.062   4.300 -0.9799 -1.0069  1.7400
 1149SOL    HW214667   6.177   3.063   4.181 -0.2833  0.3462  1.0727
 1150SOL     OW14668   0.239   0.042   4.216  0.6981 -0.3495  0.0727
 1150SOL    HW114669   0.213   0.059   4.311  0.0000 -0.3632 -0.1154
 1150SOL    HW214670   0.326  -0.007   4.214  0.1755 -1.3218  0.7300
 1151SOL     OW14671   9.330   2.468   6.232 -0.6359  0.1833  0.2085
 1151SOL    HW114672   9.247   2.413   6.219 -0.2194 -0.1676 -0.9917
 1151SOL    HW214673   9.330   2.545   6.168  0.1737 -0.0584 -0.0891
 1152SOL     OW14674   9.473   1.313   4.471 -0.3735  0.1715 -0.4664
 1152SOL    HW114675   9.374   1.320   4.457 -0.3990 -0.2359 -0.4898
 1152SOL    HW214676   9.520   1.370   4.404 -0.5633 -0.2605 -0.9619
 1153SOL     OW14677   4.125   6.562   2.870  0.6921  0.3047 -0.2921
 1153SOL    HW114678   4.190   6.495   2.835  0.2618 -0.9890  1.3105
 1153SOL    HW214679   4.041   6.515   2.898  0.1014  1.6073  0.1669
 1154SOL     OW14680   6.057   4.293   0.719 -0.1088 -0.0572 -0.6299
 1154SOL    HW114681   6.036   4.306   0.622 -1.1794  2.0812 -0.1645
 1154SOL    HW214682   6.155   4.277   0.731  0.0648 -0.0534 -2.0382
 1155SOL     OW14683   0.097   3.081   1.735 -0.0145 -0.0468 -0.3310
 1155SOL    HW114684   0.062   3.163   1.781  1.9139  0.2089  0.7059
 1155SOL    HW214685   0.082   3.001   1.793  1.8930  0.1926  0.5220
 1156SOL     OW14686   1.649   8.457   3.522  0.1237 -0.0749 -0.4280
 1156SOL    HW114687   1.618   8.462   3.617  2.2761  0.1278  0.2808
 1156SOL    HW214688   1.652   8.361   3.493 -0.1397 -0.1664 -0.1554
 1157SOL     OW14689   2.635   4.235   6.370  0.4544 -0.2472  0.3333
 1157SOL    HW114690   2.640   4.147   6.417  1.1958 -1.1337 -1.3391
 1157SOL    HW214691   2.561   4.232   6.303 -1.0849  1.2634  1.9242
 1158SOL     OW14692   3.688   8.625   2.940 -0.2566 -0.1926 -0.0875
 1158SOL    HW114693   3.691   8.560   3.016 -3.5207  0.1205  0.3899
 1158SOL    HW214694   3.748   8.703   2.961  0.0278 -0.8160  1.4866
 1159SOL     OW14695   9.826   6.792   3.910  0.5087 -0.0376 -0.5937
 1159SOL    HW114696   9.734   6.799   3.950  1.3313  0.5673  1.2837
 1159SOL    HW214697   9.844   6.698   3.882 -0.9832  0.0101 -1.7397
 1160SOL     OW14698   4.866   1.803   3.527  0.4795  0.4583 -0.4586
 1160SOL    HW114699   4.934   1.763   3.466 -0.3128 -1.8275  0.1198
 1160SOL    HW214700   4.865   1.753   3.614 -3.7686 -1.3147 -1.4108
 1161SOL     OW14701   8.824   4.847   3.683 -0.4806  0.3580  0.6837
 1161SOL    HW114702   8.754   4.873   3.749  1.4063 -0.4740  3.0961
 1161SOL    HW214703   8.839   4.748   3.687  0.2679  0.4112 -0.4250
 1162SOL     OW14704   5.654   5.182   1.312 -0.1484  0.1195  0.8364
 1162SOL    HW114705   5.631   5.144   1.402 -2.3511  1.4530  0.8590
 1162SOL    HW214706   5.715   5.260   1.323 -0.2609  0.1633  1.1428
 1163SOL     OW14707   4.380   0.226   3.596  0.0425 -0.2793  0.4876
 1163SOL    HW114708   4.460   0.167   3.605 -0.3065 -0.5674  1.7101
 1163SOL    HW214709   4.297   0.171   3.588 -0.1146  0.0280 -0.0714
 1164SOL     OW14710   7.630   7.708   4.144 -0.4881 -0.0638 -0.1162
 1164SOL    HW114711   7.532   7.714   4.128 -0.1312  0.9411 -2.0079
 1164SOL    HW214712   7.666   7.626   4.100 -0.7740 -1.5354  2.2784
 1165SOL     OW14713   1.961   1.142   3.974  0.6662  0.2611  0.1646
 1165SOL    HW114714   1.936   1.145   3.877  0.6739 -0.7057  0.1272
 1165SOL    HW214715   2.047   1.190   3.987  1.0235 -0.1982 -0.4289
 1166SOL     OW14716   1.774   4.752   6.223 -0.6270  0.5079 -0.4446
 1166SOL    HW114717   1.708   4.679   6.241 -1.2578  0.6650 -2.0669
 1166SOL    HW214718   1.798   4.752   6.126 -0.3436  2.2213 -0.3873
 1167SOL     OW14719   3.043   6.834   5.037  0.4355 -0.0669  0.3135
 1167SOL    HW114720   3.054   6.829   4.938 -2.8451  1.0825 -0.1701
 1167SOL    HW214721   2.969   6.898   5.059 -0.8612 -2.5006  3.3557
 1168SOL     OW14722   8.700   9.902   1.121 -0.5896 -0.3577 -0.2937
 1168SOL    HW114723   8.685   9.996   1.089  1.1544 -0.1575 -0.6039
 1168SOL    HW214724   8.743   9.904   1.212  0.1605 -0.8237 -0.6289
 1169SOL     OW14725   7.013   0.495   5.096  0.6559  0.4094 -0.0900
 1169SOL    HW114726   7.061   0.414   5.129 -0.7249 -0.1731  0.4946
 1169SOL    HW214727   7.041   0.575   5.149 -0.7757 -0.3376  1.8350
 1170SOL     OW14728   1.787   5.085   2.377  0.1266  0.5289 -0.0219
 1170SOL    HW114729   1.751   5.153   2.313  0.0029  0.4083 -0.0805
 1170SOL    HW214730   1.880   5.061   2.351  1.0236  2.3776  1.3291
 1171SOL     OW14731   9.228   3.228   5.512  0.3017  0.4539  0.0125
 1171SOL    HW114732   9.204   3.142   5.556  0.3426  0.5002  0.1250
 1171SOL    HW214733   9.296   3.275   5.567  1.8670 -0.4315 -1.0991
 1172SOL     OW14734   1.996   3.548   6.739 -0.2563  0.7407 -0.5689
 1172SOL    HW114735   2.021   3.620   6.804  1.0469  0.1589 -0.4157
 1172SOL    HW214736   1.981   3.588   6.649 -0.8387  1.3843 -0.1878
 1173SOL     OW14737   7.515   2.006   0.883  0.7567  0.2912  0.1299
 1173SOL    HW114738   7.449   1.971   0.949  1.4757 -0.8308  0.2606
 1173SOL    HW214739   7.529   1.938   0.810  1.4431  0.6914 -0.1209
 1174SOL     OW14740   0.855   3.855   0.707 -0.6381 -0.3869  1.0263
 1174SOL    HW114741   0.804   3.770   0.719 -0.5881 -0.1690  2.9549
 1174SOL    HW214742   0.796   3.933   0.729 -0.4358  0.0371  0.0880
 1175SOL     OW14743   0.775   7.405   6.112 -0.0409  0.2397 -0.0244
 1175SOL    HW114744   0.869   7.379   6.090 -0.5554 -0.8442 -1.0092
 1175SOL    HW214745   0.732   7.330   6.162 -1.2632 -0.4825 -2.0992
 1176SOL     OW14746   2.751   3.763   2.279 -0.0034 -0.2348 -0.5126
 1176SOL    HW114747   2.813   3.841   2.278  2.0427 -1.8010  0.6881
 1176SOL    HW214748   2.737   3.730   2.185  1.9653 -0.6295 -0.6785
 1177SOL     OW14749   9.094   0.777   0.055  0.3499 -0.3301  0.0096
 1177SOL    HW114750   9.078   0.873   0.031  1.3795 -0.5571 -1.6888
 1177SOL    HW214751   9.178   0.769   0.108 -0.5216 -0.1331  1.4349
 1178SOL     OW14752   4.419   1.851   1.583  0.4523  0.1801 -0.5148
 1178SOL    HW114753   4.328   1.878   1.615  0.3087 -0.3936 -0.4303
 1178SOL    HW214754   4.480   1.930   1.585 -0.0183  0.5444 -0.4745
 1179SOL     OW14755   0.722   1.956   0.837  0.0227  0.1563 -0.7223
 1179SOL    HW114756   0.748   2.052   0.820  1.4560 -0.4315 -1.9540
 1179SOL    HW214757   0.666   1.951   0.920 -0.1493  2.0740 -0.6979
 1180SOL     OW14758   9.611   0.760   5.951 -0.5832  0.0709  0.0042
 1180SOL    HW114759   9.573   0.667   5.954 -0.2371 -0.2076 -2.6339
 1180SOL    HW214760   9.561   0.819   6.014 -0.6625 -1.9614  1.8850
 1181SOL     OW14761   1.910   8.106   1.388  0.0293  0.6649 -0.1588
 1181SOL    HW114762   1.963   8.050   1.324  1.6711  1.8076  0.1753
 1181SOL    HW214763   1.917   8.202   1.363 -1.3957  0.8896  0.2615
 1182SOL     OW14764   3.570   7.221   0.977  0.5808  0.5366 -0.0887
 1182SOL    HW114765   3.575   7.131   0.933 -0.8171 -0.2587  1.3340
 1182SOL    HW214766   3.622   7.219   1.062 -1.9075  0.1333  1.4625
 1183SOL     OW14767   2.627   2.682   4.585 -0.5038 -0.2804  0.1718
 1183SOL    HW114768   2.664   2.688   4.678 -0.9017 -1.0662  0.3930
 1183SOL    HW214769   2.616   2.586   4.560  0.7397 -0.0851 -1.1644
 1184SOL     OW14770   8.872   6.763   2.020 -0.0564  0.1729  0.8374
 1184SOL    HW114771   8.839   6.696   1.954  1.4712 -0.6978  0.9265
 1184SOL    HW214772   8.966   6.739   2.048  0.3987  2.1621  1.1003
 1185SOL     OW14773   3.925   5.782   3.065  0.1114  0.5961  0.3527
 1185SOL    HW114774   4.022   5.801   3.082  0.3522  1.9094 -2.2177
 1185SOL    HW214775   3.874   5.867   3.064 -1.0737 -0.0949  1.6512
 1186SOL     OW14776   0.375   4.407   6.303  0.5284 -0.1121 -0.1811
 1186SOL    HW114777   0.289   4.365   6.274  0.0390  1.4459 -1.0171
 1186SOL    HW214778   0.380   4.406   6.403 -1.5167  1.8016 -0.0187
 1187SOL     OW14779   7.211   9.406   6.019  0.0844  0.2289 -0.2270
 1187SOL    HW114780   7.173   9.447   5.936 -0.2615  0.7159  0.1717
 1187SOL    HW214781   7.308   9.386   6.005 -0.1939 -0.5402 -1.0656
 1188SOL     OW14782   8.858   6.151   6.094 -0.1207 -0.4624  0.3062
 1188SOL    HW114783   8.804   6.122   6.174 -1.2733  0.1094 -0.2471
 1188SOL    HW214784   8.846   6.083   6.021 -2.5512  1.1419 -0.8735
 1189SOL     OW14785   4.113   9.874   2.715  0.4720 -0.2444 -0.1827
 1189SOL    HW114786   4.077   9.930   2.640 -0.9666  0.0886  0.7452
 1189SOL    HW214787   4.073   9.783   2.711 -1.7892  0.6360  1.8345
 1190SOL     OW14788   3.803   7.727   1.485 -0.4696 -0.3895  0.3182
 1190SOL    HW114789   3.816   7.737   1.584 -0.5919  1.3997  0.1727
 1190SOL    HW214790   3.787   7.631   1.463  2.8790 -1.2844  1.6221
 1191SOL     OW14791   0.556   9.133   4.479  1.5400  0.4783 -0.1798
 1191SOL    HW114792   0.486   9.205   4.479  1.3844  0.4004 -2.6816
 1191SOL    HW214793   0.643   9.170   4.510  1.4266  1.7331 -1.3311
 1192SOL     OW14794   3.968   0.005   2.161  0.1951  0.5496  0.4296
 1192SOL    HW114795   3.908   0.084   2.174  0.1821  0.2282  2.5912
 1192SOL    HW214796   4.050   0.033   2.111 -0.5797  1.5611 -0.2913
 1193SOL     OW14797   3.514   5.579   5.887 -0.6503 -0.0637 -0.2559
 1193SOL    HW114798   3.486   5.591   5.792 -0.6871 -0.4746 -0.2966
 1193SOL    HW214799   3.552   5.665   5.922 -1.6360  0.3994 -0.3028
 1194SOL     OW14800   5.160   1.100   0.648 -0.1339 -0.0523 -0.0610
 1194SOL    HW114801   5.210   1.015   0.666  0.1679 -0.0567 -0.8911
 1194SOL    HW214802   5.216   1.177   0.678 -0.1409 -0.1131  0.1130
 1195SOL     OW14803   0.159   0.036   4.474 -0.7651 -0.3073  0.1768
 1195SOL    HW114804   0.215   0.066   4.552 -0.6954 -0.8781  0.3490
 1195SOL    HW214805   0.070   0.005   4.507 -0.6812 -0.6896  0.0438
 1196SOL     OW14806   8.947   2.021   2.036 -0.2381 -0.3783 -0.7548
 1196SOL    HW114807   8.890   2.076   2.096  1.6434  0.9847 -0.1783
 1196SOL    HW214808   8.984   2.079   1.962 -0.0218 -1.3417 -1.4140
 1197SOL     OW14809   2.570   1.309   4.389  0.0724 -0.1833 -0.3088
 1197SOL    HW114810   2.658   1.356   4.386 -0.5180  0.9033 -0.6721
 1197SOL    HW214811   2.586   1.211   4.404  1.3305  0.0211 -0.2079
 1198SOL     OW14812   8.578   7.367   3.871  0.1822 -0.7666  0.8572
 1198SOL    HW114813   8.675   7.346   3.857  0.6508  1.4430  0.6307
 1198SOL    HW214814   8.562   7.388   3.968  0.2810  0.4830  0.6173
 1199SOL     OW14815   1.787   5.866   5.056 -0.0287 -0.2095 -0.1204
 1199SOL    HW114816   1.881   5.866   5.021 -0.3067  0.6039 -0.8619
 1199SOL    HW214817   1.789   5.845   5.154  0.7988 -1.8479 -0.4556
 1200SOL     OW14818   1.797   6.428   0.736 -0.0912  1.0074 -0.0617
 1200SOL    HW114819   1.890   6.462   0.748  0.1712  0.1148  0.5239
 1200SOL    HW214820   1.739   6.500   0.698  0.6791  1.7820  0.2296
 1201SOL     OW14821   4.904   9.713   5.551 -0.4144  1.2518 -0.2043
 1201SOL    HW114822   4.942   9.711   5.644 -0.4769 -0.2750 -0.1982
 1201SOL    HW214823   4.806   9.693   5.554  0.1609 -2.0077 -0.8377
 1202SOL     OW14824   8.234   2.133   2.354  0.4930 -0.8210 -0.2955
 1202SOL    HW114825   8.271   2.212   2.306 -1.2327 -0.4820 -1.0970
 1202SOL    HW214826   8.208   2.063   2.288 -0.4600 -0.9776  0.2367
 1203SOL     OW14827   4.096   4.159   0.288  0.4206  0.5684 -0.1774
 1203SOL    HW114828   4.004   4.199   0.288  0.1691  0.0157  0.5298
 1203SOL    HW214829   4.094   4.071   0.240  0.3523  0.0931  0.6686
 1204SOL     OW14830   8.880   7.906   2.692 -0.1469 -0.2744  0.1212
 1204SOL    HW114831   8.945   7.963   2.642  0.2042 -0.2669  0.5755
 1204SOL    HW214832   8.908   7.901   2.788  0.0693 -1.5797 -0.0016
 1205SOL     OW14833   2.777   7.828   2.845 -0.0705 -0.4374 -0.0909
 1205SOL    HW114834   2.722   7.770   2.905 -0.3778 -1.7922 -1.6412
 1205SOL    HW214835   2.821   7.771   2.775 -0.3448  1.1927 -1.6145
 1206SOL     OW14836   4.322   7.537   3.457 -0.6490  0.8247 -0.2658
 1206SOL    HW114837   4.293   7.471   3.388 -0.0924  0.7691 -0.4517
 1206SOL    HW214838   4.301   7.501   3.548  1.0716 -0.3422 -0.2961
 1207SOL     OW14839   2.588   2.683   1.932  0.7352 -0.3302  0.1912
 1207SOL    HW114840   2.631   2.656   1.846 -0.7227  0.2733 -0.7376
 1207SOL    HW214841   2.546   2.603   1.975  1.1938 -0.5741  0.1880
 1208SOL     OW14842   1.688   0.036   4.237 -0.2060 -0.5534  0.2794
 1208SOL    HW114843   1.763   0.100   4.253  1.6942 -2.6871  0.1919
 1208SOL    HW214844   1.646   0.010   4.324  0.2536 -0.6379  0.4736
 1209SOL     OW14845   8.739   2.794   3.083 -0.0550  0.3746  0.8127
 1209SOL    HW114846   8.715   2.728   3.011 -2.3274 -0.4208  2.2402
 1209SOL    HW214847   8.784   2.873   3.042 -2.1152  0.3517 -1.6124
 1210SOL     OW14848   9.748   2.130   3.585  0.6732 -0.0524  0.2696
 1210SOL    HW114849   9.820   2.066   3.611 -0.1147 -0.6695  0.9213
 1210SOL    HW214850   9.675   2.128   3.653  0.1999  0.8344 -0.2042
 1211SOL     OW14851   3.905   3.369   0.104  1.0527  0.1197  0.1685
 1211SOL    HW114852   3.990   3.405   0.066  0.4748  0.4791 -0.8227
 1211SOL    HW214853   3.862   3.308   0.037  1.2825 -1.2619  1.2615
 1212SOL     OW14854   1.952   7.773   0.620 -0.3362 -0.3085  0.3657
 1212SOL    HW114855   1.879   7.762   0.687  0.6537  0.1085  1.5293
 1212SOL    HW214856   2.012   7.693   0.623 -1.4865 -1.2832 -1.5410
 1213SOL     OW14857   0.914   6.086   2.571 -0.9393  0.0069 -0.1030
 1213SOL    HW114858   0.819   6.054   2.569 -0.2598 -2.1408 -0.0239
 1213SOL    HW214859   0.956   6.058   2.656  0.6857 -1.9220 -1.4943
 1214SOL     OW14860   8.451   0.086   4.582  0.6470 -0.0824  0.3972
 1214SOL    HW114861   8.508   0.133   4.515  0.0489  0.6731  0.4106
 1214SOL    HW214862   8.447   0.140   4.666  1.0095 -0.7956  0.8873
 1215SOL     OW14863   5.257   1.891   4.559 -0.6383 -0.9474  0.0657
 1215SOL    HW114864   5.304   1.808   4.591  0.3550  0.4304  2.3107
 1215SOL    HW214865   5.306   1.928   4.480 -0.3302 -1.7704 -0.1391
 1216SOL     OW14866   3.545   5.074   4.660  0.9411 -0.2826 -0.2919
 1216SOL    HW114867   3.591   5.068   4.749  1.1530  1.7357 -0.2324
 1216SOL    HW214868   3.450   5.102   4.675  0.4098 -1.8654 -0.5921
 1217SOL     OW14869   6.832   4.976   1.440  0.1378 -0.1566  0.0973
 1217SOL    HW114870   6.751   4.927   1.472 -0.8278  1.6691  0.5080
 1217SOL    HW214871   6.882   5.011   1.520  0.9875 -0.7390 -0.1798
 1218SOL     OW14872   2.313   3.619   5.272  0.0857  0.3723 -0.2886
 1218SOL    HW114873   2.228   3.658   5.304 -0.5652 -0.8549 -0.4826
 1218SOL    HW214874   2.356   3.681   5.206  0.4431  1.9804  1.4319
 1219SOL     OW14875   1.542   0.870   0.026 -0.7250  0.0924  0.0481
 1219SOL    HW114876   1.529   0.794   0.089 -0.1412  1.0417  1.3281
 1219SOL    HW214877   1.640   0.887   0.013 -0.8483  1.0744  0.3320
 1220SOL     OW14878   8.008   5.386   2.437  0.4568 -0.5921  0.2138
 1220SOL    HW114879   7.965   5.314   2.382  0.8204 -0.7388  0.1190
 1220SOL    HW214880   7.970   5.385   2.529 -1.0998  0.4951 -0.3923
 1221SOL     OW14881   3.930   2.424   2.219  0.3238 -0.0301  0.4969
 1221SOL    HW114882   3.870   2.485   2.166  0.2755  0.3723  1.0158
 1221SOL    HW214883   3.976   2.475   2.291 -0.8993 -0.8974  1.9324
 1222SOL     OW14884   9.080   6.725   1.212  0.8553  0.2110  0.0557
 1222SOL    HW114885   9.117   6.679   1.293  3.2997 -2.7102 -2.5980
 1222SOL    HW214886   9.151   6.781   1.170 -0.1394  0.9825 -0.6272
 1223SOL     OW14887   2.211   4.082   4.585 -0.4797  0.0477  0.5111
 1223SOL    HW114888   2.183   4.157   4.645  1.4235  0.7098  0.6050
 1223SOL    HW214889   2.185   4.103   4.491  1.6511  1.7266  0.2464
 1224SOL     OW14890   2.447   7.285   6.612  0.1296 -0.0472 -0.0155
 1224SOL    HW114891   2.469   7.193   6.581  0.0986  0.3765 -1.3308
 1224SOL    HW214892   2.350   7.289   6.638  0.4282 -0.6930  1.2252
 1225SOL     OW14893   0.380   6.066   2.963 -0.1968 -0.7649  0.3853
 1225SOL    HW114894   0.440   5.992   2.933 -1.6151 -1.6776 -0.1861
 1225SOL    HW214895   0.334   6.107   2.884 -1.2176 -0.8305  0.9392
 1226SOL     OW14896   1.827   0.160   3.056 -0.3148  0.0492 -0.0482
 1226SOL    HW114897   1.837   0.067   3.091  0.2401 -0.0379 -0.4227
 1226SOL    HW214898   1.809   0.222   3.132  2.0818  0.0319  0.5782
 1227SOL     OW14899   9.039   4.443   6.481 -0.0501 -0.7104  0.1481
 1227SOL    HW114900   9.023   4.352   6.442 -2.1167  0.3118 -1.4588
 1227SOL    HW214901   9.127   4.477   6.449  0.0469 -1.5102 -0.4706
 1228SOL     OW14902   8.421   4.088   1.333 -0.8378 -0.2238 -0.3111
 1228SOL    HW114903   8.349   4.113   1.397 -0.1308  0.4834  0.2097
 1228SOL    HW214904   8.495   4.154   1.339 -0.6078 -0.3559 -1.5994
 1229SOL     OW14905   5.239   0.112   4.156 -0.4379 -0.3570  0.4504
 1229SOL    HW114906   5.202   0.162   4.077 -0.4338  0.0260  0.6920
 1229SOL    HW214907   5.338   0.103   4.146 -0.2971  0.5768  0.9014
 1230SOL     OW14908   8.867   0.634   1.543 -0.3684  0.2394  0.3928
 1230SOL    HW114909   8.889   0.674   1.454 -2.4310  1.9695  0.6136
 1230SOL    HW214910   8.792   0.569   1.533 -0.0037 -0.2297  0.7207
 1231SOL     OW14911   8.438   1.560   3.463 -0.2055  0.1276  0.2491
 1231SOL    HW114912   8.387   1.538   3.380 -0.7666  0.0802  0.6049
 1231SOL    HW214913   8.485   1.647   3.451 -1.4926  0.8586  0.4172
 1232SOL     OW14914   1.071   8.563   3.720  0.2150  0.2743  0.2182
 1232SOL    HW114915   1.047   8.641   3.777  1.1197  0.5856  0.1706
 1232SOL    HW214916   1.048   8.583   3.625 -1.2149 -0.2118  0.4483
 1233SOL     OW14917   0.769   8.599   6.403 -0.3148 -0.3779 -0.7018
 1233SOL    HW114918   0.827   8.649   6.468 -0.0902 -1.0105 -0.4093
 1233SOL    HW214919   0.735   8.662   6.333 -0.3950  0.2699 -0.0816
 1234SOL     OW14920   8.054   4.150   5.898 -0.1330 -0.2361  0.0599
 1234SOL    HW114921   8.108   4.230   5.926 -0.2527  0.2604 -1.0910
 1234SOL    HW214922   8.004   4.114   5.976  0.8011  0.1389  0.8365
 1235SOL     OW14923   8.446   0.779   2.833 -0.3523  0.0763 -0.0747
 1235SOL    HW114924   8.381   0.725   2.780  0.4877 -1.7658  0.7301
 1235SOL    HW214925   8.415   0.874   2.837 -2.2515 -0.4905 -0.8678
 1236SOL     OW14926   1.280   8.668   1.297  0.4973 -0.5965  0.3898
 1236SOL    HW114927   1.366   8.638   1.338  0.5688  0.6573  1.1759
 1236SOL    HW214928   1.295   8.752   1.245 -0.7460  1.1750  2.7980
 1237SOL     OW14929   8.777   6.822   6.276  0.3191 -0.1625  0.2768
 1237SOL    HW114930   8.739   6.730   6.277  2.0139 -0.8871  1.9253
 1237SOL    HW214931   8.728   6.879   6.343  1.3061 -0.7652  1.5387
 1238SOL     OW14932   1.921   2.775   4.011 -0.1491  0.1450  0.0095
 1238SOL    HW114933   1.835   2.726   4.024 -0.2148  0.3314  0.2792
 1238SOL    HW214934   1.902   2.864   3.969  0.0943 -0.6008 -1.6975
 1239SOL     OW14935   4.455   9.817   3.272 -0.2514  0.8344  0.3880
 1239SOL    HW114936   4.414   9.743   3.326  0.3626 -0.2695 -0.6555
 1239SOL    HW214937   4.417   9.816   3.180 -0.5114  2.0653  0.4696
 1240SOL     OW14938   2.356   2.724   1.498  0.0664  0.1542 -0.1378
 1240SOL    HW114939   2.256   2.732   1.505  0.0152 -0.8964  0.5112
 1240SOL    HW214940   2.382   2.712   1.403 -0.4486  0.1435 -0.2800
 1241SOL     OW14941   9.793   4.166   0.045 -0.2748 -0.1803 -0.4160
 1241SOL    HW114942   9.885   4.139   0.076 -0.1661  0.6304 -0.0280
 1241SOL    HW214943   9.750   4.223   0.115 -0.7301  0.1787 -0.9869
 1242SOL     OW14944   8.585   8.438   4.058 -0.2858 -0.1671 -0.4595
 1242SOL    HW114945   8.590   8.366   4.127  1.3038  1.2595  0.9716
 1242SOL    HW214946   8.631   8.407   3.975 -0.3637 -1.1188 -0.1540
 1243SOL     OW14947   1.933   8.976   4.811 -0.2449 -0.4044 -0.1055
 1243SOL    HW114948   1.964   8.925   4.892  1.2016 -0.1146 -0.4782
 1243SOL    HW214949   1.960   8.927   4.728  0.8789  0.8062 -0.4638
 1244SOL     OW14950   7.338   1.655   0.391  0.3434  0.0553  0.1556
 1244SOL    HW114951   7.425   1.614   0.418  0.6395  0.2108 -0.5496
 1244SOL    HW214952   7.274   1.652   0.468  0.9914 -0.0022  0.6949
 1245SOL     OW14953   5.022   7.664   3.330 -0.1909 -0.7523 -0.1896
 1245SOL    HW114954   5.119   7.655   3.311 -0.3458 -1.7812 -0.5231
 1245SOL    HW214955   5.009   7.717   3.414  0.6496 -0.4653 -0.2413
 1246SOL     OW14956   2.483   4.862   2.512  0.1355 -0.0912  0.2548
 1246SOL    HW114957   2.549   4.794   2.481  0.4386 -0.3151  1.3590
 1246SOL    HW214958   2.511   4.953   2.480  1.7468  0.0055  1.8516
 1247SOL     OW14959   8.495   9.095   3.210  0.0864  0.0592 -0.3783
 1247SOL    HW114960   8.429   9.062   3.278 -2.5542  2.2352 -1.7790
 1247SOL    HW214961   8.531   9.017   3.158 -1.1756 -1.1986  0.5870
 1248SOL     OW14962   9.170   3.379   6.588  0.6886 -0.2431 -0.4716
 1248SOL    HW114963   9.076   3.344   6.590  0.4015  0.5285 -0.5025
 1248SOL    HW214964   9.185   3.438   6.667  0.5294  1.2236 -1.5046
 1249SOL     OW14965   0.998   6.864   1.410 -0.5747  0.5778 -0.4080
 1249SOL    HW114966   1.085   6.912   1.408  0.2092 -0.8499 -0.9955
 1249SOL    HW214967   0.938   6.903   1.339  0.4074  0.0675 -1.5472
 1250SOL     OW14968   2.466   6.132   1.517  0.1105  0.1894  0.1727
 1250SOL    HW114969   2.508   6.073   1.448 -1.3214 -0.3095 -0.2934
 1250SOL    HW214970   2.505   6.111   1.607 -1.7806 -2.9132  0.3394
 1251SOL     OW14971   5.912   2.753   4.360  0.1559 -0.5474 -0.4534
 1251SOL    HW114972   5.949   2.800   4.280  0.4726 -1.8963 -1.1202
 1251SOL    HW214973   5.984   2.697   4.401 -0.6154 -1.6653 -0.6008
 1252SOL     OW14974   2.184   3.005   2.925  0.0749 -0.0725 -0.1485
 1252SOL    HW114975   2.227   2.933   2.871  2.7422  3.1145 -2.4708
 1252SOL    HW214976   2.090   3.019   2.894  0.2048 -1.1413 -1.0614
 1253SOL     OW14977   2.371   8.164   6.183 -0.9050  0.3195 -0.2177
 1253SOL    HW114978   2.309   8.198   6.254 -0.1804  2.7006 -0.7010
 1253SOL    HW214979   2.459   8.209   6.190 -0.5950  0.0973 -2.2123
 1254SOL     OW14980   0.486   2.334   5.446  0.8628  0.4386 -0.4214
 1254SOL    HW114981   0.493   2.409   5.380  0.4222  0.9427  0.1015
 1254SOL    HW214982   0.475   2.372   5.538  0.9271 -0.2680 -0.1247
 1255SOL     OW14983   7.840   7.079   5.094  0.0505 -0.2932 -0.0455
 1255SOL    HW114984   7.799   7.170   5.085 -1.2337 -0.7498  1.0485
 1255SOL    HW214985   7.932   7.088   5.132  0.5049  0.6447 -1.3029
 1256SOL     OW14986   0.531   4.469   0.672  0.9814  0.6221 -0.2076
 1256SOL    HW114987   0.560   4.519   0.590  0.0311  1.5836  0.0366
 1256SOL    HW214988   0.436   4.440   0.661  0.7654  1.0006  0.6817
 1257SOL     OW14989   1.712   2.802   6.189  1.2304 -0.4540 -0.0334
 1257SOL    HW114990   1.719   2.732   6.117  2.1820  0.1003 -0.4858
 1257SOL    HW214991   1.799   2.851   6.196  0.6298  0.5433  0.4419
 1258SOL     OW14992   7.731   1.337   2.524  0.6716 -0.2551  0.3546
 1258SOL    HW114993   7.744   1.341   2.623  0.0979  1.0398  0.3949
 1258SOL    HW214994   7.800   1.277   2.484 -0.3922 -2.4674  1.7480
 1259SOL     OW14995   9.915   0.250   6.358  0.0084  0.0970  0.2302
 1259SOL    HW114996  10.005   0.271   6.396  0.7678 -1.1690 -0.7951
 1259SOL    HW214997   9.883   0.162   6.394 -0.2853 -0.0152 -0.2943
 1260SOL     OW14998   4.500   9.921   3.519  0.1768 -0.0309 -0.1295
 1260SOL    HW114999   4.554  10.005   3.527  0.6258 -0.3354  0.1053
 1260SOL    HW215000   4.487   9.899   3.423  2.0786 -0.9654 -0.1990
 1261SOL     OW15001   2.032   0.596   3.886  0.1590 -0.1521  0.1083
 1261SOL    HW115002   2.100   0.576   3.957  1.4816 -0.5723 -1.2357
 1261SOL    HW215003   2.006   0.511   3.840 -2.4782 -0.2075  1.6372
 1262SOL     OW15004   7.634   7.502   3.194 -0.0860 -0.3921 -0.3454
 1262SOL    HW115005   7.601   7.532   3.104 -1.0188 -1.2250 -0.2973
 1262SOL    HW215006   7.557   7.463   3.246  0.6906 -0.9981  0.3554
 1263SOL     OW15007   3.279   7.540   1.361 -0.2392  0.2609 -0.4680
 1263SOL    HW115008   3.356   7.603   1.342 -0.2346  0.2858 -0.3664
 1263SOL    HW215009   3.206   7.557   1.295  0.3958 -0.6995 -1.4276
 1264SOL     OW15010   9.338   5.226   1.128  0.0717 -0.4908  0.1119
 1264SOL    HW115011   9.285   5.234   1.213  1.4080 -0.8640  1.0139
 1264SOL    HW215012   9.358   5.317   1.093  0.6883 -0.2895  0.9646
 1265SOL     OW15013   3.337   4.851   0.940 -0.1241  0.1531 -0.2593
 1265SOL    HW115014   3.278   4.925   0.911 -2.1790 -1.0398  0.7670
 1265SOL    HW215015   3.283   4.768   0.955  1.8496 -1.0776  0.3602
 1266SOL     OW15016   1.428   3.378   2.106  0.3092 -0.3444 -0.3530
 1266SOL    HW115017   1.424   3.374   2.006  1.8519 -0.1928 -0.4324
 1266SOL    HW215018   1.485   3.304   2.140  2.2163  1.3571  0.2175
 1267SOL     OW15019   1.271   2.893   0.657  0.4132 -0.0407  0.1363
 1267SOL    HW115020   1.278   2.856   0.564  2.2860 -0.7888  0.5497
 1267SOL    HW215021   1.178   2.878   0.692 -0.3185  0.2895 -1.6244
 1268SOL     OW15022   2.098   1.270   0.642 -0.3883 -0.1906  0.2303
 1268SOL    HW115023   2.099   1.321   0.728 -0.1082 -0.8023  0.5980
 1268SOL    HW215024   2.048   1.184   0.655 -1.4872  0.3179 -0.5772
 1269SOL     OW15025   8.226   3.689   4.894  0.7054  0.1510  0.0737
 1269SOL    HW115026   8.284   3.770   4.905  1.0397 -0.3405  2.3397
 1269SOL    HW215027   8.162   3.684   4.971  1.8511 -2.6181  0.9197
 1270SOL     OW15028   6.171   1.329   5.319 -0.4627  0.3299 -0.2510
 1270SOL    HW115029   6.199   1.377   5.403 -0.0283  0.8452 -0.6865
 1270SOL    HW215030   6.252   1.302   5.267 -0.7366  0.3169 -0.6780
 1271SOL     OW15031   3.737   1.403   6.712  0.0506  0.1776 -0.1552
 1271SOL    HW115032   3.653   1.348   6.710 -0.6203  1.1743  0.1660
 1271SOL    HW215033   3.750   1.440   6.804  0.6269  0.3662 -0.3116
 1272SOL     OW15034   2.919   6.927   6.521 -0.1317 -1.1531  0.1433
 1272SOL    HW115035   2.998   6.950   6.577  0.4669 -2.3424 -0.1837
 1272SOL    HW215036   2.913   6.991   6.444  0.9861 -1.5040 -0.2616
 1273SOL     OW15037   1.175   9.064   6.015  0.2319  0.0021  0.0916
 1273SOL    HW115038   1.203   9.151   6.056 -0.2217  0.0060  0.3938
 1273SOL    HW215039   1.102   9.080   5.949 -1.4749 -0.4321  1.8584
 1274SOL     OW15040   1.160   8.524   0.836  0.6450 -0.0880  0.4395
 1274SOL    HW115041   1.130   8.489   0.747  1.5004  0.2850 -0.0004
 1274SOL    HW215042   1.119   8.469   0.909  0.1721 -0.5791 -0.1894
 1275SOL     OW15043   7.032   9.112   2.503  0.1130  0.2032 -0.0253
 1275SOL    HW115044   6.981   9.089   2.586  1.6856 -0.5701  0.7712
 1275SOL    HW215045   7.021   9.209   2.483 -1.2182  0.1508  0.4385
 1276SOL     OW15046   8.406   3.044   4.722  0.2501  0.0931 -0.1570
 1276SOL    HW115047   8.363   3.059   4.811  0.1147 -0.4678 -0.1264
 1276SOL    HW215048   8.504   3.058   4.730  0.3395 -0.7137  0.2669
 1277SOL     OW15049   3.886   1.529   4.939  0.2762 -0.2554 -0.7849
 1277SOL    HW115050   3.802   1.523   4.994 -0.3208  1.3760 -1.4845
 1277SOL    HW215051   3.964   1.500   4.994 -0.5073 -0.0213  0.4665
 1278SOL     OW15052   0.217   2.136   0.544  0.4497 -0.0479  0.4098
 1278SOL    HW115053   0.301   2.140   0.597  2.1371 -0.1646 -2.1519
 1278SOL    HW215054   0.229   2.073   0.467 -2.1867 -0.5251  0.3237
 1279SOL     OW15055   8.190   4.939   4.572 -0.6215 -0.2760  0.1338
 1279SOL    HW115056   8.114   4.903   4.517 -0.5578 -0.0453 -0.1053
 1279SOL    HW215057   8.273   4.938   4.517 -0.5346 -0.1468  0.2656
 1280SOL     OW15058   1.546   0.065   6.256 -0.3304 -0.0195 -0.0938
 1280SOL    HW115059   1.489   0.027   6.329  0.3312  0.9550  0.9386
 1280SOL    HW215060   1.541   0.165   6.257 -0.5098  0.0022 -1.5442
 1281SOL     OW15061   4.028   9.672   3.295  0.3597  0.2287  0.4611
 1281SOL    HW115062   4.019   9.693   3.198 -4.2038  0.1592  0.7622
 1281SOL    HW215063   4.053   9.754   3.345  1.2195  0.6104 -0.5952
 1282SOL     OW15064   6.018   7.752   4.339  0.6855 -0.0276 -0.7936
 1282SOL    HW115065   6.058   7.717   4.423 -0.4911 -1.1196 -0.6786
 1282SOL    HW215066   5.919   7.744   4.343  0.6421 -0.4918 -2.4599
 1283SOL     OW15067   6.280   0.353   5.105 -0.3537 -0.3579  0.0129
 1283SOL    HW115068   6.368   0.384   5.142 -0.6697 -0.1279  0.5726
 1283SOL    HW215069   6.255   0.409   5.026  1.0361 -1.7843 -1.4750
 1284SOL     OW15070   2.956   2.652   1.042 -0.1937  0.1214 -0.4770
 1284SOL    HW115071   2.981   2.747   1.025 -2.2589  0.8532  0.4162
 1284SOL    HW215072   2.868   2.633   0.999 -1.4220 -0.4001  2.2054
 1285SOL     OW15073   0.445   4.869   2.175  0.3733 -0.9084  0.0962
 1285SOL    HW115074   0.372   4.803   2.154 -1.3924  1.1529 -0.3850
 1285SOL    HW215075   0.510   4.871   2.099 -0.4729 -0.9005 -0.6424
 1286SOL     OW15076   2.117   6.581   6.577 -0.4453 -0.1102  0.5073
 1286SOL    HW115077   2.060   6.505   6.608  0.1782 -0.3599  1.0599
 1286SOL    HW215078   2.144   6.566   6.482 -1.3404  0.0350  0.2260
 1287SOL     OW15079   9.210   9.481   6.644  0.1899 -0.2226 -0.4943
 1287SOL    HW115080   9.136   9.447   6.587 -1.1661  0.6864  0.7029
 1287SOL    HW215081   9.286   9.510   6.585 -1.3589  1.1398 -1.8842
 1288SOL     OW15082   0.730   5.975   2.161 -0.3513  0.2246  0.1342
 1288SOL    HW115083   0.796   6.027   2.107 -0.9441  0.5550 -0.2774
 1288SOL    HW215084   0.644   6.025   2.165 -0.1593  0.4267  1.7946
 1289SOL     OW15085   5.811   1.466   1.627 -1.0692  0.2488 -0.3316
 1289SOL    HW115086   5.842   1.477   1.533 -2.4165 -1.9151 -1.0699
 1289SOL    HW215087   5.888   1.479   1.690 -0.0557  1.2030 -1.7463
 1290SOL     OW15088   8.484   2.010   2.474 -0.4752  0.0148  0.0870
 1290SOL    HW115089   8.436   1.931   2.512 -3.1905  1.4010 -0.3382
 1290SOL    HW215090   8.473   2.089   2.534  1.1769  0.4067 -0.0956
 1291SOL     OW15091   9.925   8.519   0.747  0.1952 -0.3913  0.4974
 1291SOL    HW115092   9.924   8.614   0.779 -1.3102 -0.0561 -0.5148
 1291SOL    HW215093   9.846   8.471   0.783  1.3000 -1.4652  1.5456
 1292SOL     OW15094   8.883   3.655   6.073 -0.1314  0.1773  0.0037
 1292SOL    HW115095   8.965   3.681   6.124 -0.4810  1.8343 -0.2654
 1292SOL    HW215096   8.819   3.731   6.070 -1.8346 -1.2028  0.4738
 1293SOL     OW15097   1.117   2.569   3.026 -0.1012 -0.5230  0.3335
 1293SOL    HW115098   1.146   2.518   3.107  1.8712 -1.1689 -0.7510
 1293SOL    HW215099   1.082   2.658   3.054 -0.2328 -1.0727  1.9689
 1294SOL     OW15100   1.350   5.686   1.613  0.8429 -0.0648  0.4856
 1294SOL    HW115101   1.326   5.632   1.693 -1.2862 -0.4106 -0.3601
 1294SOL    HW215102   1.304   5.649   1.533  2.0089  1.0005 -0.6907
 1295SOL     OW15103   7.456   6.509   5.818  0.0676 -0.3554  0.1511
 1295SOL    HW115104   7.526   6.483   5.885 -2.2388 -1.6656  2.1021
 1295SOL    HW215105   7.402   6.429   5.794 -2.2740  1.1220  0.4183
 1296SOL     OW15106   7.769   7.563   6.268  0.3768 -0.2071  0.2602
 1296SOL    HW115107   7.856   7.580   6.223  0.6390 -0.0478  0.8179
 1296SOL    HW215108   7.782   7.499   6.344 -0.2116 -1.1421 -0.4119
 1297SOL     OW15109   7.685   1.684   1.822  0.2851 -0.1929 -0.2503
 1297SOL    HW115110   7.704   1.667   1.725 -0.9210  0.6276 -0.6424
 1297SOL    HW215111   7.655   1.779   1.834  1.8038  0.1364  1.1360
 1298SOL     OW15112   1.448   8.146   4.687 -0.3808 -0.6770  0.6167
 1298SOL    HW115113   1.481   8.066   4.636  3.2742 -1.0042  3.2595
 1298SOL    HW215114   1.473   8.229   4.638  0.0161 -1.0579  0.1614
 1299SOL     OW15115   5.847   0.261   1.873  1.0478  0.2378 -0.0386
 1299SOL    HW115116   5.935   0.270   1.825  1.1559  0.4293  0.1950
 1299SOL    HW215117   5.775   0.301   1.817  0.9930 -0.5824 -0.5631
 1300SOL     OW15118   0.833   9.883   3.566 -1.0177  0.3189  0.6193
 1300SOL    HW115119   0.842   9.948   3.491  0.8848 -1.6323 -0.8809
 1300SOL    HW215120   0.782   9.803   3.536 -0.1655 -0.5228  1.3845
 1301SOL     OW15121   7.807   1.324   2.806 -0.3106 -0.2291  0.4202
 1301SOL    HW115122   7.886   1.267   2.782 -0.7559 -0.7216  0.0989
 1301SOL    HW215123   7.740   1.268   2.855 -0.4842  0.1709  0.6365
 1302SOL     OW15124   9.420   6.495   4.701 -0.5098 -0.9764 -0.8361
 1302SOL    HW115125   9.493   6.481   4.635  0.6034  0.5525  0.0404
 1302SOL    HW215126   9.342   6.538   4.655  0.0790 -0.3428 -1.2453
 1303SOL     OW15127   4.422   9.972   5.297 -0.0712 -0.2566 -0.1563
 1303SOL    HW115128   4.422   9.921   5.211 -4.4621  1.1931 -1.1327
 1303SOL    HW215129   4.506  10.025   5.305  1.0539 -1.5527 -2.8043
 1304SOL     OW15130   6.491   0.988   2.514 -0.7233 -0.1057 -0.1864
 1304SOL    HW115131   6.505   1.076   2.560 -0.0987 -0.2425 -0.1056
 1304SOL    HW215132   6.433   1.001   2.434 -0.8486  0.3367 -0.0261
 1305SOL     OW15133   0.672   3.853   0.173 -0.4769  0.5976 -0.3336
 1305SOL    HW115134   0.740   3.780   0.173 -0.6095  0.4751 -0.9803
 1305SOL    HW215135   0.643   3.872   0.080 -1.8408  0.1744 -0.0167
 1306SOL     OW15136   7.177   8.449   3.128 -0.0251  0.5056 -0.3805
 1306SOL    HW115137   7.182   8.361   3.081  0.7871 -0.4970  1.5348
 1306SOL    HW215138   7.194   8.436   3.226  0.0920  2.7854 -0.0629
 1307SOL     OW15139   2.723   1.767   6.309 -0.4182 -0.1862  0.2607
 1307SOL    HW115140   2.665   1.726   6.380  0.5998  0.5774  1.5669
 1307SOL    HW215141   2.689   1.741   6.219 -2.5424 -0.0822  1.0045
 1308SOL     OW15142   7.076   5.103   6.393  0.3547 -0.3561  0.3616
 1308SOL    HW115143   7.043   5.177   6.452 -1.1299 -0.3544 -0.4300
 1308SOL    HW215144   7.132   5.142   6.320  0.1403 -0.0852  0.3377
 1309SOL     OW15145   2.423   4.492   6.160  0.2323 -0.1918  0.0675
 1309SOL    HW115146   2.344   4.552   6.146 -0.2537 -0.8331  0.0300
 1309SOL    HW215147   2.474   4.483   6.075  1.0603  1.2190  0.4022
 1310SOL     OW15148   7.411   1.019   0.996 -0.0887  0.6280 -0.6179
 1310SOL    HW115149   7.448   0.927   0.986 -1.8208 -0.0281 -1.0677
 1310SOL    HW215150   7.367   1.028   1.085 -0.0536  0.9681 -0.6338
 1311SOL     OW15151   0.808   5.423   5.794 -0.2346 -0.2317  0.0490
 1311SOL    HW115152   0.718   5.411   5.752  0.6567 -0.5699 -1.8087
 1311SOL    HW215153   0.850   5.506   5.759 -0.4412  0.7734  2.0970
 1312SOL     OW15154   9.356   9.419   1.086  0.2008  0.6011  0.2205
 1312SOL    HW115155   9.348   9.432   1.185 -0.2680 -2.3127  0.6066
 1312SOL    HW215156   9.269   9.440   1.042 -0.1761 -0.0149  0.6677
 1313SOL     OW15157   3.830   4.727   5.079 -0.1807 -0.3404 -0.1280
 1313SOL    HW115158   3.758   4.678   5.029 -0.3060 -1.1231  0.7943
 1313SOL    HW215159   3.896   4.661   5.114 -0.5636  0.0936  1.4811
 1314SOL     OW15160   6.998   2.604   0.508  0.4051 -0.1349 -0.0115
 1314SOL    HW115161   7.053   2.612   0.425 -1.4703 -1.7426 -1.4275
 1314SOL    HW215162   7.057   2.617   0.588  2.2483  1.3074 -1.5591
 1315SOL     OW15163   9.010   5.475   4.269 -0.2967 -0.1593 -0.1958
 1315SOL    HW115164   8.988   5.444   4.362 -0.8756  0.6584 -0.0531
 1315SOL    HW215165   9.016   5.575   4.268  1.2382 -0.2526 -0.7130
 1316SOL     OW15166   9.416   7.834   2.831  0.3445 -0.2566  1.0020
 1316SOL    HW115167   9.502   7.832   2.779  0.5176  1.7942  1.1655
 1316SOL    HW215168   9.353   7.899   2.788 -1.2519 -1.9403  0.7325
 1317SOL     OW15169   1.007   8.128   4.314 -0.2458 -0.0344 -0.6511
 1317SOL    HW115170   1.106   8.130   4.330 -0.1162  0.2417 -1.4383
 1317SOL    HW215171   0.967   8.216   4.339 -0.5647 -0.7218  1.2974
 1318SOL     OW15172   1.171   0.731   6.583  0.1661 -0.4543  0.1649
 1318SOL    HW115173   1.210   0.767   6.667  2.1720 -0.4288 -0.7305
 1318SOL    HW215174   1.245   0.706   6.520 -1.2050 -3.2581 -0.4508
 1319SOL     OW15175   4.211   1.224   1.050  0.1483  0.3472  0.0197
 1319SOL    HW115176   4.241   1.146   1.106 -0.4069  0.4861  0.5127
 1319SOL    HW215177   4.265   1.304   1.075  0.3233  0.2631 -0.0826
 1320SOL     OW15178   8.406   9.249   4.906  0.0214  0.0752  0.1239
 1320SOL    HW115179   8.323   9.213   4.951 -0.7950  3.3560  1.3729
 1320SOL    HW215180   8.476   9.267   4.976  1.0153 -0.6493 -0.6801
 1321SOL     OW15181   5.001   9.991   1.662  0.3214 -0.0657  0.3765
 1321SOL    HW115182   5.087   9.943   1.675  0.1026 -0.7060 -0.4402
 1321SOL    HW215183   4.935   9.929   1.619  0.4842  1.3705 -2.0817
 1322SOL     OW15184   7.464   3.158   3.239  0.1911  0.0465  0.0560
 1322SOL    HW115185   7.529   3.234   3.245 -0.1065  0.4398 -1.4488
 1322SOL    HW215186   7.420   3.158   3.149 -1.4277 -0.6068  0.8204
 1323SOL     OW15187   0.989   0.711   4.519  0.2762  0.5032  0.0400
 1323SOL    HW115188   0.910   0.658   4.549  0.4289 -0.4277 -1.1470
 1323SOL    HW215189   0.958   0.793   4.471  0.0402  1.0702  1.1467
 1324SOL     OW15190   0.370   7.196   4.957 -0.1278  0.0532 -0.0244
 1324SOL    HW115191   0.381   7.273   4.894  0.9793  0.3064  0.4670
 1324SOL    HW215192   0.377   7.229   5.051 -0.4199 -0.5334  0.2061
 1325SOL     OW15193   2.030   1.811   4.328 -0.0394 -0.4262  0.5195
 1325SOL    HW115194   2.015   1.872   4.251 -1.9341 -1.8592 -0.2864
 1325SOL    HW215195   2.101   1.744   4.305 -0.2616 -0.5509  0.1955
 1326SOL     OW15196   3.343   5.140   1.259  0.1990  0.0575  0.4562
 1326SOL    HW115197   3.374   5.234   1.251  1.0540 -0.3059 -0.6236
 1326SOL    HW215198   3.249   5.133   1.224 -0.5559  0.8525  2.2712
 1327SOL     OW15199   5.726   9.179   2.827 -0.2020  0.5567 -0.5890
 1327SOL    HW115200   5.775   9.254   2.871  0.6622 -0.4340  0.1479
 1327SOL    HW215201   5.763   9.092   2.858 -2.3216 -0.2116 -0.1440
 1328SOL     OW15202   3.731   0.859   1.505 -0.2053 -0.0376 -0.3458
 1328SOL    HW115203   3.740   0.959   1.510  1.1408 -0.1079 -1.1847
 1328SOL    HW215204   3.655   0.830   1.562 -2.1984  1.7094 -2.0218
 1329SOL     OW15205   7.476   5.983   2.310  0.0444 -0.3272 -0.0283
 1329SOL    HW115206   7.487   6.069   2.358  0.1087  0.1002 -0.8042
 1329SOL    HW215207   7.414   5.923   2.362 -0.7495  0.5435  0.0410
 1330SOL     OW15208   3.609   5.734   5.597  0.2415 -0.4108  0.3886
 1330SOL    HW115209   3.678   5.662   5.590 -0.8815 -1.6230  1.6421
 1330SOL    HW215210   3.649   5.814   5.642  0.4729 -1.5941  2.3141
 1331SOL     OW15211   0.976   1.188   5.394 -0.4314  0.3856  0.1103
 1331SOL    HW115212   0.947   1.097   5.421  0.1245  0.4480  0.9664
 1331SOL    HW215213   1.008   1.238   5.475  0.1867  0.9905 -0.4922
 1332SOL     OW15214   0.279   1.440   6.657  0.7613  0.4733  0.1847
 1332SOL    HW115215   0.205   1.425   6.592 -0.8790  0.3834  2.0548
 1332SOL    HW215216   0.339   1.360   6.657 -1.1281 -0.9842  1.2216
 1333SOL     OW15217   2.656   5.638   3.986 -0.2011  0.4914 -0.3762
 1333SOL    HW115218   2.661   5.731   4.022  0.6160  0.3732 -0.1690
 1333SOL    HW215219   2.588   5.586   4.037  2.0450 -0.1320  2.0818
 1334SOL     OW15220   1.088   0.817   3.085 -0.2348  0.1285 -0.2927
 1334SOL    HW115221   1.005   0.873   3.083  0.7032  1.5776  0.5544
 1334SOL    HW215222   1.107   0.789   3.179  1.4335  1.6502 -0.1529
 1335SOL     OW15223   1.778   2.377   1.542 -0.2296 -0.1280  0.2253
 1335SOL    HW115224   1.831   2.293   1.531  0.0673 -0.2266  2.3698
 1335SOL    HW215225   1.823   2.451   1.491  0.4669 -0.8449 -0.2135
 1336SOL     OW15226   1.812   7.592   4.857  0.1468 -0.1990 -0.6857
 1336SOL    HW115227   1.759   7.613   4.940  0.0645  0.4060 -0.8928
 1336SOL    HW215228   1.749   7.572   4.782  0.2159  0.4823 -0.9227
 1337SOL     OW15229   2.472   2.393   3.991 -0.1201  0.2691  1.0636
 1337SOL    HW115230   2.524   2.423   3.911  0.7646  1.7457  2.1664
 1337SOL    HW215231   2.521   2.417   4.074 -1.3793 -0.5854  2.0758
 1338SOL     OW15232   6.852   0.511   1.650  0.9289 -0.0865 -0.3206
 1338SOL    HW115233   6.860   0.590   1.589  2.6404  1.3157  1.6427
 1338SOL    HW215234   6.940   0.465   1.658 -0.0003 -2.0906 -1.2542
 1339SOL     OW15235   2.347   3.610   4.625 -0.0107  0.5651  0.1988
 1339SOL    HW115236   2.354   3.614   4.525  3.0186  0.6609  0.3873
 1339SOL    HW215237   2.279   3.542   4.651  1.3986 -1.7002 -1.8890
 1340SOL     OW15238   2.107   8.800   4.927 -0.2142  0.9212 -0.3466
 1340SOL    HW115239   2.048   8.789   5.007  1.2227  1.2432  0.7849
 1340SOL    HW215240   2.199   8.828   4.956  1.3975 -2.4687 -1.7957
 1341SOL     OW15241   4.220   4.821   2.949 -0.5367  0.4988  0.0070
 1341SOL    HW115242   4.275   4.902   2.968 -0.0359  0.1023  0.2752
 1341SOL    HW215243   4.280   4.742   2.940 -1.0986 -0.0134  0.7150
 1342SOL     OW15244   4.039   0.240   5.595  0.0528  0.2062 -0.6423
 1342SOL    HW115245   4.085   0.310   5.540  0.4559 -0.6720 -1.4415
 1342SOL    HW215246   4.014   0.163   5.536 -0.8078 -0.1176  0.1387
 1343SOL     OW15247   0.057   2.085   5.414  0.3448  0.2354 -0.2504
 1343SOL    HW115248  -0.014   2.142   5.373  0.3926  0.2001 -0.3858
 1343SOL    HW215249   0.147   2.124   5.394  0.3279  0.7130  0.6028
 1344SOL     OW15250   2.238   1.037   0.535 -0.5351  0.1260  0.7921
 1344SOL    HW115251   2.183   1.011   0.614 -1.4371  1.5944  0.6720
 1344SOL    HW215252   2.251   1.136   0.534  2.6800 -0.2463  1.1673
 1345SOL     OW15253   9.971   5.984   4.933  0.7384 -0.3033  0.0996
 1345SOL    HW115254  10.002   6.050   5.002  0.9183 -0.1077 -0.1691
 1345SOL    HW215255   9.899   6.027   4.877  0.4897 -0.5109  0.2578
 1346SOL     OW15256   0.149   6.617   2.129  0.0556 -0.1783  0.0152
 1346SOL    HW115257   0.109   6.610   2.220  0.0471  0.9591  0.0989
 1346SOL    HW215258   0.242   6.579   2.130 -0.3129 -1.0873  0.2570
 1347SOL     OW15259   6.982   7.421   4.540 -0.3378  0.8673  0.2616
 1347SOL    HW115260   6.926   7.394   4.618  0.3214 -2.3643 -0.3162
 1347SOL    HW215261   6.924   7.431   4.460 -0.5766  0.9820  0.4468
 1348SOL     OW15262   6.567   2.848   3.698 -0.2778 -0.2879 -0.5950
 1348SOL    HW115263   6.579   2.930   3.642  2.3067 -0.8353 -0.8858
 1348SOL    HW215264   6.572   2.766   3.640 -0.0916 -0.7671  0.0872
 1349SOL     OW15265   1.920   6.521   0.317 -0.4790 -0.1350 -0.0012
 1349SOL    HW115266   1.999   6.465   0.342  0.2522  1.1000  0.4829
 1349SOL    HW215267   1.856   6.525   0.394  0.6481  1.7179  0.8634
 1350SOL     OW15268   6.607   9.353   4.231  0.5149 -0.5922 -0.0465
 1350SOL    HW115269   6.528   9.294   4.247 -0.1147  0.2440 -0.0500
 1350SOL    HW215270   6.663   9.358   4.314 -0.1094 -0.1865  0.3488
 1351SOL     OW15271   5.605   0.151   2.836 -0.4608  0.2696 -0.3023
 1351SOL    HW115272   5.600   0.117   2.930  0.2553 -2.0457 -1.0566
 1351SOL    HW215273   5.674   0.099   2.786 -0.5752  1.7260 -2.0273
 1352SOL     OW15274   7.948   5.555   3.539 -0.4192  0.0320  0.3443
 1352SOL    HW115275   7.985   5.608   3.463 -2.6644  2.8957  1.1769
 1352SOL    HW215276   7.959   5.458   3.520  1.5741  0.7260 -2.3377
 1353SOL     OW15277   2.194   7.764   5.475 -0.2022  0.0147  0.6009
 1353SOL    HW115278   2.140   7.763   5.559  1.7064  0.4519  1.8707
 1353SOL    HW215279   2.209   7.671   5.443 -0.6183 -0.1725  0.9550
 1354SOL     OW15280   7.506   2.524   1.411 -0.3408  0.2482  0.0905
 1354SOL    HW115281   7.428   2.528   1.473 -1.0072 -0.5529 -0.6802
 1354SOL    HW215282   7.540   2.430   1.407  1.5115  0.8292  1.4409
 1355SOL     OW15283   4.813   0.698   3.131 -0.5469  0.5560 -0.0450
 1355SOL    HW115284   4.865   0.639   3.070 -2.2340 -0.8412 -0.1709
 1355SOL    HW215285   4.822   0.665   3.225 -1.4709  0.0905 -0.1111
 1356SOL     OW15286   9.030   0.338   0.146  0.0724  0.5117 -0.1040
 1356SOL    HW115287   9.056   0.262   0.087  0.3761 -0.2993  1.0405
 1356SOL    HW215288   9.053   0.425   0.103 -2.2539  0.0512 -2.3871
 1357SOL     OW15289   6.680   0.116   1.273  0.1826  0.0233 -0.3986
 1357SOL    HW115290   6.670   0.208   1.234 -0.3820 -0.2913 -1.0044
 1357SOL    HW215291   6.689   0.049   1.199  0.4316 -0.4333  0.0379
 1358SOL     OW15292   2.198   6.777   5.341  0.2122 -0.0316  0.1833
 1358SOL    HW115293   2.253   6.834   5.402 -0.6999 -0.2467  1.2126
 1358SOL    HW215294   2.168   6.832   5.263  1.8218  0.1033 -0.3628
 1359SOL     OW15295   3.855   2.086   4.141 -0.4436  0.1964  0.1500
 1359SOL    HW115296   3.907   2.146   4.080 -0.7449  0.6395  0.3271
 1359SOL    HW215297   3.801   2.021   4.087  0.2916 -0.2644 -0.0362
 1360SOL     OW15298   8.660   8.966   1.300  0.1201  0.4926 -0.4277
 1360SOL    HW115299   8.709   9.012   1.374 -4.7431  0.1981  3.1787
 1360SOL    HW215300   8.682   8.868   1.301  1.7717  0.8387 -0.8812
 1361SOL     OW15301   9.998   0.896   1.998 -0.1573  0.6544 -0.5200
 1361SOL    HW115302  10.096   0.906   2.014 -0.5892  1.9932  1.5596
 1361SOL    HW215303   9.976   0.799   1.986  1.3272  0.2835 -0.3309
 1362SOL     OW15304   1.738   0.942   4.032  0.6300 -0.1122  0.0890
 1362SOL    HW115305   1.655   0.975   3.986 -0.0328 -0.2118  1.2048
 1362SOL    HW215306   1.813   1.006   4.014  0.5296 -0.4235 -1.5799
 1363SOL     OW15307   2.239   5.068   4.926 -0.6699  0.0511  0.1479
 1363SOL    HW115308   2.232   4.974   4.893  0.4292  0.2073 -0.5640
 1363SOL    HW215309   2.150   5.113   4.917 -0.7888 -0.4087 -1.0972
 1364SOL     OW15310   2.307   2.001   5.494 -0.6519 -0.5055  0.0677
 1364SOL    HW115311   2.368   1.924   5.509 -0.1974  0.2878  2.4603
 1364SOL    HW215312   2.229   1.971   5.438 -0.3991 -2.6582  0.8136
 1365SOL     OW15313   0.601   6.228   6.682 -0.0203 -0.3620 -0.3305
 1365SOL    HW115314   0.688   6.185   6.704 -1.1181 -2.1549  0.6134
 1365SOL    HW215315   0.550   6.246   6.766  0.2821  2.5807 -0.7138
 1366SOL     OW15316   4.658   9.632   3.223  0.0681 -0.1298 -0.4700
 1366SOL    HW115317   4.584   9.579   3.183  0.1896  0.3692 -1.3751
 1366SOL    HW215318   4.627   9.726   3.239 -0.0395 -0.3735  0.8040
 1367SOL     OW15319   2.982   9.003   4.921 -0.3002  0.2839  0.1922
 1367SOL    HW115320   2.990   9.102   4.913  0.6852  0.1957 -0.0311
 1367SOL    HW215321   3.050   8.960   4.862 -1.7916 -0.5469 -0.9430
 1368SOL     OW15322   9.009   0.404   3.713 -0.1438 -0.4486 -0.0149
 1368SOL    HW115323   8.940   0.463   3.670 -0.2377 -0.9988 -0.6265
 1368SOL    HW215324   9.059   0.457   3.782 -0.3292  0.3107 -0.4514
 1369SOL     OW15325   1.265   8.255   4.931 -0.5608  0.5853  0.5152
 1369SOL    HW115326   1.185   8.204   4.899 -1.0252  1.4176  0.3367
 1369SOL    HW215327   1.348   8.203   4.910 -1.0714 -0.4340  0.9987
 1370SOL     OW15328   8.686   1.020   3.201 -0.5528  1.1586 -0.2813
 1370SOL    HW115329   8.701   0.943   3.139 -0.9279 -0.5510  1.7025
 1370SOL    HW215330   8.650   1.098   3.150  1.6628  0.6849 -2.6701
 1371SOL     OW15331   0.022   2.349   6.351  0.3113  0.5624 -0.6227
 1371SOL    HW115332   0.119   2.337   6.367 -0.0684 -0.1110  1.2920
 1371SOL    HW215333  -0.026   2.262   6.367 -0.4229  0.4526 -3.1310
 1372SOL     OW15334   8.638   9.449   0.255 -0.2948 -0.4615  0.5776
 1372SOL    HW115335   8.677   9.396   0.330 -0.2898 -0.1557  0.7924
 1372SOL    HW215336   8.542   9.423   0.241 -0.3638 -0.3514  0.8469
 1373SOL     OW15337   1.933   5.338   4.922 -0.2554 -0.2278  0.2153
 1373SOL    HW115338   1.930   5.238   4.927 -1.6482 -0.3011 -1.5198
 1373SOL    HW215339   2.005   5.365   4.858  0.0049 -0.1249  0.5527
 1374SOL     OW15340   2.330   1.612   1.549 -0.6934  0.0323  0.3529
 1374SOL    HW115341   2.322   1.666   1.465  0.4917 -1.3027 -0.6463
 1374SOL    HW215342   2.287   1.522   1.535  0.1607 -0.4769  0.9172
 1375SOL     OW15343   3.224   9.794   1.493  0.5292  0.0413 -0.3125
 1375SOL    HW115344   3.252   9.867   1.431  1.0577 -0.1160 -0.2640
 1375SOL    HW215345   3.165   9.729   1.444  0.7154  0.0683 -0.5714
 1376SOL     OW15346   2.225   6.928   0.395 -0.0047 -0.2264 -0.9967
 1376SOL    HW115347   2.274   6.945   0.480 -0.8763 -3.2010  0.1708
 1376SOL    HW215348   2.282   6.873   0.334 -1.0231 -1.8325 -0.5227
 1377SOL     OW15349   1.364   1.713   0.722 -0.2289 -0.2654  0.1880
 1377SOL    HW115350   1.436   1.651   0.752 -1.2934 -0.2984  2.8058
 1377SOL    HW215351   1.290   1.660   0.679  0.2934 -0.4518 -0.4920
 1378SOL     OW15352   8.224   2.311   5.327 -0.0451  0.1746 -0.5713
 1378SOL    HW115353   8.217   2.299   5.426 -1.3895  0.2534 -0.6454
 1378SOL    HW215354   8.312   2.276   5.295  0.2144 -0.2473  0.5914
 1379SOL     OW15355   8.994   9.631   5.839  0.1013  0.4899 -0.3773
 1379SOL    HW115356   8.998   9.706   5.773  0.8993  1.5783  0.8929
 1379SOL    HW215357   8.904   9.630   5.882 -0.0381  0.4764 -0.6605
 1380SOL     OW15358   3.345   6.596   3.091 -0.9542  0.0611 -0.2332
 1380SOL    HW115359   3.416   6.601   3.161 -0.4622 -1.7328 -0.5781
 1380SOL    HW215360   3.255   6.595   3.135 -0.6913  0.1586  0.3086
 1381SOL     OW15361   3.971   8.083   5.766  0.2324  0.6959  0.2356
 1381SOL    HW115362   4.018   8.082   5.678 -1.0366 -1.4728 -0.4836
 1381SOL    HW215363   3.882   8.127   5.756 -1.8768 -3.4664 -0.7740
 1382SOL     OW15364   5.145   1.957   2.684 -0.4423 -0.6700 -0.4391
 1382SOL    HW115365   5.226   1.901   2.704  0.5348  0.0100 -2.3243
 1382SOL    HW215366   5.064   1.915   2.724  0.8048 -1.4831  1.3109
 1383SOL     OW15367   5.451   7.207   2.850 -0.0732  0.1701 -0.1721
 1383SOL    HW115368   5.384   7.238   2.919  2.2829 -0.2462  2.3847
 1383SOL    HW215369   5.409   7.137   2.793 -1.7272 -0.3934  1.6636
 1384SOL     OW15370   3.121   9.597   2.502  0.1048 -0.5635 -0.4436
 1384SOL    HW115371   3.155   9.514   2.458  0.5281  0.2446 -1.6821
 1384SOL    HW215372   3.147   9.676   2.447  0.3943  0.4595  1.1453
 1385SOL     OW15373   1.400   3.378   2.384  0.4326 -0.1069  0.1743
 1385SOL    HW115374   1.384   3.386   2.286 -0.7339  0.6303  0.4098
 1385SOL    HW215375   1.494   3.405   2.405  0.1161  1.6371 -0.5189
 1386SOL     OW15376   0.028   6.697   6.434 -0.3001  0.3281 -0.4039
 1386SOL    HW115377   0.052   6.602   6.451  0.9894  0.7280  0.0894
 1386SOL    HW215378   0.058   6.724   6.343  1.2728  0.8584  0.2524
 1387SOL     OW15379   4.521   8.881   6.307 -0.4446 -0.1687 -0.4877
 1387SOL    HW115380   4.607   8.907   6.351 -0.7178  1.3009 -0.7763
 1387SOL    HW215381   4.498   8.949   6.237 -2.1599 -0.1849  0.0327
 1388SOL     OW15382   7.127   2.419   0.976 -0.1631  0.4360 -0.3073
 1388SOL    HW115383   7.210   2.364   0.978 -0.9030 -0.7805 -1.7157
 1388SOL    HW215384   7.049   2.361   0.952 -1.1361  1.8821 -0.7414
 1389SOL     OW15385   9.537   8.881   4.183 -0.5234  0.2004  0.3314
 1389SOL    HW115386   9.532   8.842   4.275  1.9642  0.0091  0.4259
 1389SOL    HW215387   9.569   8.812   4.119 -1.4525  0.5589 -0.5268
 1390SOL     OW15388   9.058   0.196   0.677 -0.6331  0.1877 -0.2192
 1390SOL    HW115389   9.008   0.261   0.620  1.2975  0.8252 -1.2257
 1390SOL    HW215390   9.052   0.105   0.637 -3.2313 -0.2818  1.1223
 1391SOL     OW15391   3.471   8.977   4.574 -0.3822  0.1917  0.9521
 1391SOL    HW115392   3.491   9.073   4.557  0.3314  0.0903  1.2120
 1391SOL    HW215393   3.430   8.937   4.491  0.1295  0.5000  0.5462
 1392SOL     OW15394   2.844   8.280   5.965 -0.2828  0.3600 -0.1128
 1392SOL    HW115395   2.822   8.372   5.934  0.0172 -0.0019 -1.4081
 1392SOL    HW215396   2.859   8.220   5.886  1.7196 -0.2727  0.7249
 1393SOL     OW15397   2.832   3.968   1.609  0.2967  0.1385 -0.1423
 1393SOL    HW115398   2.750   4.011   1.648  1.0923  0.7968  0.8554
 1393SOL    HW215399   2.863   4.019   1.529  0.3641  0.5480  0.1431
 1394SOL     OW15400   0.551   6.209   1.026  0.0456  0.4767  0.1431
 1394SOL    HW115401   0.553   6.136   0.958 -0.5183  1.0733 -0.5255
 1394SOL    HW215402   0.516   6.173   1.113 -0.2770 -0.0352 -0.1958
 1395SOL     OW15403   9.934   5.134   6.708  0.2846  0.0809  0.0526
 1395SOL    HW115404   9.971   5.041   6.715 -0.4415 -0.4554 -2.5318
 1395SOL    HW215405   9.857   5.144   6.771  0.8593 -0.8272  0.9047
 1396SOL     OW15406   3.650   9.950   3.708 -0.1090  0.1910 -0.3859
 1396SOL    HW115407   3.609   9.884   3.645  0.2468  0.7893 -1.2620
 1396SOL    HW215408   3.605   9.944   3.797 -1.0728 -0.2169 -0.8893
 1397SOL     OW15409   7.408   1.198   2.056 -0.6228  0.3637 -0.7787
 1397SOL    HW115410   7.404   1.206   1.957  1.5613  0.1989 -0.9180
 1397SOL    HW215411   7.391   1.287   2.098 -0.2452  0.7046 -1.3500
 1398SOL     OW15412   2.291   8.130   0.245  0.1263  0.1434  0.0330
 1398SOL    HW115413   2.364   8.112   0.180  1.1761  3.4413  0.1847
 1398SOL    HW215414   2.205   8.094   0.209  1.0324  0.1205 -2.2259
 1399SOL     OW15415   9.916   5.387   1.506  0.1824  0.5736  0.0533
 1399SOL    HW115416   9.836   5.356   1.559  0.8773 -0.9976  0.2143
 1399SOL    HW215417   9.936   5.482   1.529 -1.5315  0.9320  0.1536
 1400SOL     OW15418   8.280   4.387   6.706 -0.0670 -0.2666  0.0217
 1400SOL    HW115419   8.247   4.477   6.735 -0.7394 -0.4366 -0.2149
 1400SOL    HW215420   8.265   4.376   6.608  0.6248 -0.3779 -0.0764
 1401SOL     OW15421   2.877   1.255   0.435  0.0256  0.4514 -0.0266
 1401SOL    HW115422   2.821   1.177   0.407 -0.2007  0.3496  0.7003
 1401SOL    HW215423   2.963   1.222   0.473 -0.2212  0.5404  0.6142
 1402SOL     OW15424   2.433   9.566   0.264  0.0522 -0.7810 -0.1925
 1402SOL    HW115425   2.392   9.508   0.194  0.0735 -1.0249 -0.0029
 1402SOL    HW215426   2.532   9.571   0.249  0.5063 -3.3936  1.6711
 1403SOL     OW15427   0.855   1.185   0.587 -0.4321 -0.5091  0.7049
 1403SOL    HW115428   0.902   1.097   0.578 -1.9282 -1.3336  0.7502
 1403SOL    HW215429   0.776   1.174   0.647  0.3651  1.2924  2.1367
 1404SOL     OW15430   4.397   7.551   1.614  0.2147  0.3557  0.4091
 1404SOL    HW115431   4.344   7.600   1.545 -2.2578 -0.8952  1.3428
 1404SOL    HW215432   4.434   7.467   1.574 -2.0179 -0.8540  0.8082
 1405SOL     OW15433   9.219   6.113   3.059 -0.9936 -0.1032 -0.5941
 1405SOL    HW115434   9.316   6.135   3.048 -0.7975  0.0471  1.2474
 1405SOL    HW215435   9.164   6.177   3.006 -0.1326  0.6289 -0.6166
 1406SOL     OW15436   9.323   3.275   0.922 -0.0934 -0.3158 -0.1524
 1406SOL    HW115437   9.311   3.233   1.012 -0.9853 -1.7049 -0.9135
 1406SOL    HW215438   9.418   3.306   0.913 -0.6357  2.2995  2.2994
 1407SOL     OW15439   4.308   7.253   2.893  0.4295 -0.3586  0.0367
 1407SOL    HW115440   4.301   7.337   2.947 -1.6038  0.9035 -2.1194
 1407SOL    HW215441   4.404   7.226   2.887  1.0084  1.2020  1.6529
 1408SOL     OW15442   1.746   8.390   5.582 -0.1650  0.5217 -0.7678
 1408SOL    HW115443   1.659   8.357   5.620  0.0659 -0.6795 -1.2561
 1408SOL    HW215444   1.807   8.417   5.656 -0.5796  0.4019 -0.3815
 1409SOL     OW15445   5.665   0.126   2.035  0.0079 -0.1132  0.2645
 1409SOL    HW115446   5.716   0.210   2.020 -1.0279  0.1380 -2.0599
 1409SOL    HW215447   5.676   0.065   1.957 -1.0878 -1.1918  0.9184
 1410SOL     OW15448   8.289   1.455   4.655 -0.1049 -0.2715  0.0412
 1410SOL    HW115449   8.370   1.396   4.664  1.4150  1.8450  0.5947
 1410SOL    HW215450   8.316   1.543   4.617 -2.3640  0.0839 -0.7970
 1411SOL     OW15451   3.876   0.397   0.546  0.1755 -0.0675 -0.0477
 1411SOL    HW115452   3.902   0.303   0.524 -0.8080 -0.7026  1.4260
 1411SOL    HW215453   3.929   0.429   0.625  1.7889  1.2688 -1.6174
 1412SOL     OW15454   3.009   2.924   2.084  0.0063  0.0733 -0.5024
 1412SOL    HW115455   3.021   2.827   2.064 -0.8959 -0.2528  0.4579
 1412SOL    HW215456   3.095   2.963   2.115 -0.1013 -0.9214  1.1013
 1413SOL     OW15457   5.875   1.281   5.325  0.0346  0.2018 -0.1608
 1413SOL    HW115458   5.975   1.270   5.322  0.2962  2.2929 -0.4089
 1413SOL    HW215459   5.835   1.242   5.242  0.9779  2.0364 -1.5255
 1414SOL     OW15460   3.004   7.884   1.185 -0.3618 -0.2626 -0.0849
 1414SOL    HW115461   2.983   7.935   1.268  1.8193 -0.0516  0.3658
 1414SOL    HW215462   2.923   7.880   1.127 -0.9919  2.3614  0.5701
 1415SOL     OW15463   8.451   3.818   4.645  0.1635  0.2509 -0.5460
 1415SOL    HW115464   8.353   3.828   4.629 -0.3779 -0.9980  1.6570
 1415SOL    HW215465   8.478   3.877   4.721  0.9362 -0.0661 -0.5669
 1416SOL     OW15466   2.405   1.899   1.945 -0.3991 -0.1075  0.0672
 1416SOL    HW115467   2.424   1.877   1.849  1.2345  0.0491  0.3431
 1416SOL    HW215468   2.421   1.818   2.001  1.5211  0.5854  0.5591
 1417SOL     OW15469   9.055   3.503   5.887  0.1555  0.2892 -0.1305
 1417SOL    HW115470   9.084   3.548   5.802 -1.2533 -0.6701 -1.1283
 1417SOL    HW215471   8.996   3.565   5.938 -0.5320  0.1697 -0.7681
 1418SOL     OW15472   6.752   8.965   2.977  0.0221 -0.1079  0.3305
 1418SOL    HW115473   6.667   9.007   3.008  0.0084 -0.0463  0.2097
 1418SOL    HW215474   6.780   8.894   3.042 -0.1963 -0.2252  0.2953
 1419SOL     OW15475   0.303   9.412   5.833 -0.1546 -0.4079 -0.5149
 1419SOL    HW115476   0.287   9.446   5.926  1.1625  1.0519 -0.8072
 1419SOL    HW215477   0.267   9.479   5.767  0.1018 -0.8202 -1.0723
 1420SOL     OW15478   8.636   0.773   2.620 -0.4931 -0.4613 -0.6560
 1420SOL    HW115479   8.553   0.767   2.675 -0.7728 -0.2362 -1.0504
 1420SOL    HW215480   8.692   0.691   2.636 -0.7984 -0.6234 -0.4036
 1421SOL     OW15481   7.966   5.071   0.690 -0.1956  0.2635  0.1137
 1421SOL    HW115482   7.905   4.995   0.712  0.6610 -1.7535 -4.0544
 1421SOL    HW215483   7.916   5.158   0.701 -3.0700 -1.2062 -0.7218
 1422SOL     OW15484   3.780   8.329   3.718  0.1843  0.5696 -0.3894
 1422SOL    HW115485   3.690   8.356   3.685  0.6265  1.5885 -0.8070
 1422SOL    HW215486   3.849   8.390   3.678  1.1205 -0.6134 -0.6133
 1423SOL     OW15487   9.784   9.155   4.131 -0.1297  0.3899  1.0434
 1423SOL    HW115488   9.719   9.178   4.059  1.6651  2.1650 -0.0643
 1423SOL    HW215489   9.857   9.223   4.134  0.8414 -0.6742  3.3167
 1424SOL     OW15490   9.911   8.088   0.240 -0.0619  0.0139  0.3266
 1424SOL    HW115491   9.854   8.059   0.316  0.2123 -0.0909  0.4936
 1424SOL    HW215492   9.878   8.046   0.155  0.8007 -1.4224  0.6782
 1425SOL     OW15493   0.633   1.326   3.834  0.2953  0.0845 -0.2125
 1425SOL    HW115494   0.573   1.316   3.755  0.8460 -0.3082 -0.5857
 1425SOL    HW215495   0.600   1.401   3.891  1.1748  1.8988 -2.0104
 1426SOL     OW15496   3.476   7.752   1.336  0.7144 -1.2371  0.0937
 1426SOL    HW115497   3.499   7.788   1.246 -2.0545 -0.0723 -0.1908
 1426SOL    HW215498   3.561   7.728   1.384  2.4503  1.4287 -1.4448
 1427SOL     OW15499   2.333   1.206   4.556 -0.1399  0.4816  0.2133
 1427SOL    HW115500   2.372   1.263   4.484  1.3936 -2.4118 -1.3344
 1427SOL    HW215501   2.236   1.193   4.539 -0.1671  1.3198 -0.3123
 1428SOL     OW15502   1.115   9.035   1.602 -0.2605 -0.0983 -0.8503
 1428SOL    HW115503   1.136   9.079   1.515  0.5525  0.3589 -0.4226
 1428SOL    HW215504   1.121   9.102   1.676  0.1263 -0.7294 -0.3007
 1429SOL     OW15505   7.748   1.832   4.742 -0.3843 -0.5509 -0.1780
 1429SOL    HW115506   7.749   1.749   4.797  0.2210  0.5015  1.4364
 1429SOL    HW215507   7.782   1.909   4.797 -0.6951  0.7102 -1.7171
 1430SOL     OW15508   0.140   8.113   2.813 -0.0834 -0.5509 -0.5796
 1430SOL    HW115509   0.226   8.164   2.810 -0.3718  0.0492  0.7318
 1430SOL    HW215510   0.158   8.020   2.847 -0.2258  0.2594  1.8229
 1431SOL     OW15511   4.682   9.572   3.834  0.2259 -0.3589  0.3427
 1431SOL    HW115512   4.725   9.486   3.806  0.3505 -0.5731  1.2025
 1431SOL    HW215513   4.684   9.636   3.757 -0.1516 -1.2301 -0.4003
 1432SOL     OW15514   1.487   4.886   1.024 -0.0141 -0.7643  0.6413
 1432SOL    HW115515   1.459   4.897   1.120  2.8700 -1.8577  1.6704
 1432SOL    HW215516   1.468   4.793   0.994  1.9995 -1.3705  1.1955
 1433SOL     OW15517   8.371   7.465   0.521 -0.0962  0.1084 -0.5474
 1433SOL    HW115518   8.293   7.506   0.474  0.4430  0.6685 -0.9600
 1433SOL    HW215519   8.406   7.388   0.467 -0.3105 -0.0940 -0.4006
 1434SOL     OW15520   1.778   0.702   3.906  0.1228 -0.1947 -0.0477
 1434SOL    HW115521   1.771   0.778   3.971 -0.7279 -0.0987 -0.2486
 1434SOL    HW215522   1.849   0.638   3.937  0.9924  0.7809  0.0094
 1435SOL     OW15523   7.816   9.462   2.894  0.1439 -0.0963 -0.2949
 1435SOL    HW115524   7.859   9.475   2.983  1.8155 -2.0055 -0.7839
 1435SOL    HW215525   7.717   9.469   2.903  0.3880  1.3035  1.4174
 1436SOL     OW15526   0.178   4.835   3.695 -0.2269 -0.1849  0.3732
 1436SOL    HW115527   0.078   4.836   3.701 -0.2780 -0.7101 -0.2453
 1436SOL    HW215528   0.211   4.743   3.717  0.1017 -0.0646  0.3733
 1437SOL     OW15529   0.885   6.063   1.930 -0.1620 -0.4226 -0.4680
 1437SOL    HW115530   0.961   6.099   1.984 -1.1433  0.8706  0.0680
 1437SOL    HW215531   0.910   5.973   1.895  0.4172 -1.3867  2.2832
 1438SOL     OW15532   9.607   4.201   4.778  0.5034 -0.8969  0.3285
 1438SOL    HW115533   9.526   4.248   4.813  0.0136 -2.2804  1.0994
 1438SOL    HW215534   9.688   4.257   4.795 -0.3691  0.9174 -1.2684
 1439SOL     OW15535   7.522   2.554   5.712 -0.0582 -0.5359 -0.8087
 1439SOL    HW115536   7.524   2.457   5.736 -1.5765 -0.6931 -1.3064
 1439SOL    HW215537   7.436   2.595   5.743  1.5137  1.1906  1.4560
 1440SOL     OW15538   7.901   2.481   2.617 -0.2589 -0.1373  0.2968
 1440SOL    HW115539   7.993   2.479   2.579 -0.2891  2.7355 -0.0132
 1440SOL    HW215540   7.901   2.532   2.704 -1.1327 -2.2058  1.5523
 1441SOL     OW15541   1.700   7.962   5.250 -0.1364 -0.5202 -0.2356
 1441SOL    HW115542   1.722   7.921   5.338 -0.2189 -0.9509 -0.4144
 1441SOL    HW215543   1.721   7.898   5.177 -1.3673 -0.6996 -0.4493
 1442SOL     OW15544   0.159   6.403   0.849 -0.0485  0.2686  0.0034
 1442SOL    HW115545   0.120   6.432   0.761 -1.6728  0.1406  0.6741
 1442SOL    HW215546   0.189   6.484   0.900  1.9776  0.2749 -1.1443
 1443SOL     OW15547   3.392   2.368   1.313 -0.4901 -0.0274  0.1302
 1443SOL    HW115548   3.343   2.422   1.244 -0.7438 -1.6299 -0.9779
 1443SOL    HW215549   3.441   2.293   1.267  0.6594 -0.1594  1.5364
 1444SOL     OW15550   1.057   3.602   3.070  0.2787 -0.0268 -0.1088
 1444SOL    HW115551   1.129   3.670   3.081  0.1086  0.5333 -2.1723
 1444SOL    HW215552   1.090   3.528   3.011 -0.5928 -0.1447 -0.4522
 1445SOL     OW15553   3.597   2.509   2.226  0.0331  0.0217  0.5383
 1445SOL    HW115554   3.671   2.517   2.292 -0.1285  1.5885  0.5496
 1445SOL    HW215555   3.515   2.554   2.262 -0.4806 -0.3765 -0.1128
 1446SOL     OW15556   3.913   6.032   0.025 -0.0335 -0.3509 -0.3523
 1446SOL    HW115557   3.892   5.959   0.090  1.0859 -0.0110  0.4069
 1446SOL    HW215558   3.983   6.001  -0.039  0.6635  0.1271  0.1560
 1447SOL     OW15559   1.816   2.189   5.993 -0.3118 -0.2086 -0.4108
 1447SOL    HW115560   1.855   2.105   6.031 -2.0270 -1.3482 -1.1108
 1447SOL    HW215561   1.840   2.266   6.051  2.1496 -1.0239 -0.3084
 1448SOL     OW15562   8.621   3.607   4.984 -0.3493  0.1859 -0.5500
 1448SOL    HW115563   8.689   3.542   4.949  0.1950  0.9489 -0.9110
 1448SOL    HW215564   8.538   3.557   5.009  0.6986 -0.8904  0.8486
 1449SOL     OW15565   1.970   3.918   5.160 -0.2466 -0.4141  0.7866
 1449SOL    HW115566   2.005   4.008   5.136 -2.6263 -0.0846 -1.5724
 1449SOL    HW215567   1.990   3.853   5.086  0.8641 -1.7125  2.1689
 1450SOL     OW15568   4.523   5.436   1.654  0.0700 -0.9377  0.1170
 1450SOL    HW115569   4.507   5.394   1.565  3.7460 -0.9118 -0.6542
 1450SOL    HW215570   4.617   5.470   1.658 -0.6579  0.8904  3.2931
 1451SOL     OW15571   6.829   0.001   2.042 -0.6395  0.0192 -0.2065
 1451SOL    HW115572   6.745   0.050   2.063 -0.0464  1.0707 -0.2504
 1451SOL    HW215573   6.810  -0.072   1.977 -1.3710  0.7406 -0.8012
 1452SOL     OW15574   9.245   2.355   1.240  0.3683 -0.6073 -0.2715
 1452SOL    HW115575   9.278   2.449   1.237  0.3282 -0.4797  2.4523
 1452SOL    HW215576   9.177   2.341   1.168  1.2099  1.1034 -1.4272
 1453SOL     OW15577   0.196   5.058   4.984  0.2402  0.5102 -0.4048
 1453SOL    HW115578   0.261   5.110   4.928  0.3261 -0.5896 -1.3501
 1453SOL    HW215579   0.200   5.090   5.078  0.7255  1.7999 -0.8496
 1454SOL     OW15580   3.059   9.003   2.277  0.4668 -0.3724 -0.1106
 1454SOL    HW115581   2.989   8.937   2.249  0.1314 -0.1762  0.2490
 1454SOL    HW215582   3.017   9.071   2.337  1.0630 -0.4806  0.4237
 1455SOL     OW15583   1.868   0.774   4.649 -0.7210 -0.3654  0.7325
 1455SOL    HW115584   1.825   0.739   4.566 -0.0111 -0.5145  0.4232
 1455SOL    HW215585   1.934   0.845   4.625 -1.0591  0.1231  1.2324
 1456SOL     OW15586   8.754   3.130   3.372  0.0982 -0.2660  0.4491
 1456SOL    HW115587   8.728   3.035   3.390  0.4906 -0.9729 -2.3876
 1456SOL    HW215588   8.709   3.161   3.288 -0.1059  2.1190  1.3886
 1457SOL     OW15589   2.548   0.052   4.213 -0.2244  0.0583 -0.1749
 1457SOL    HW115590   2.554   0.009   4.123  0.0735  0.7580 -0.4927
 1457SOL    HW215591   2.628   0.111   4.227 -0.4384  0.2095  0.4082
 1458SOL     OW15592   9.062   8.380   3.600 -0.1986  0.1802  0.2322
 1458SOL    HW115593   9.102   8.393   3.690 -1.9416 -2.1105  1.3785
 1458SOL    HW215594   8.986   8.444   3.588 -0.3255  0.0957  0.5985
 1459SOL     OW15595   9.451   6.178   0.850  0.5396 -0.0276 -0.0357
 1459SOL    HW115596   9.402   6.193   0.765  0.5346 -1.1068 -0.2391
 1459SOL    HW215597   9.440   6.257   0.911 -0.5071  0.2029 -0.5273
 1460SOL     OW15598   5.737   0.357   4.864  0.0586 -0.7601 -0.6442
 1460SOL    HW115599   5.831   0.393   4.862 -0.0619 -0.3123  0.8653
 1460SOL    HW215600   5.733   0.279   4.928 -1.1504  0.9202  1.4123
 1461SOL     OW15601   3.903   9.493   5.360  0.1337  0.1889 -0.0143
 1461SOL    HW115602   3.978   9.505   5.295 -2.0977  1.6105 -2.4377
 1461SOL    HW215603   3.879   9.581   5.400 -1.7589  0.1315 -1.0096
 1462SOL     OW15604   9.334   2.819   0.554 -0.1739  0.0811  0.0185
 1462SOL    HW115605   9.360   2.864   0.468 -0.4899 -1.2117 -0.7893
 1462SOL    HW215606   9.362   2.875   0.631  0.7188  0.9655 -0.9213
 1463SOL     OW15607   9.944   2.568   1.306 -0.1905  0.1536 -0.0761
 1463SOL    HW115608   9.955   2.563   1.207 -1.5253 -0.1844 -0.2081
 1463SOL    HW215609  10.015   2.512   1.350  0.1471 -0.0255 -0.8464
 1464SOL     OW15610   6.108   2.680   4.136 -0.5994  0.3725 -0.1425
 1464SOL    HW115611   6.130   2.586   4.109 -0.3676  0.4166 -0.1104
 1464SOL    HW215612   6.130   2.742   4.061 -0.3457  0.4488 -0.0070
 1465SOL     OW15613   1.399   6.592   5.689  0.2549 -0.0654  0.4390
 1465SOL    HW115614   1.405   6.673   5.630 -1.5473  0.1390  0.5293
 1465SOL    HW215615   1.349   6.520   5.643  1.2239 -0.8879  0.6534
 1466SOL     OW15616   7.378   8.372   4.690  0.0368  0.2287  0.7036
 1466SOL    HW115617   7.349   8.395   4.597 -0.4280 -0.0028  0.7909
 1466SOL    HW215618   7.359   8.449   4.751 -0.0677  0.2094  0.6953
 1467SOL     OW15619   3.278   1.737   1.379 -0.0537  0.6321  0.6662
 1467SOL    HW115620   3.258   1.697   1.290 -0.7004  1.0802  0.6064
 1467SOL    HW215621   3.193   1.753   1.428  0.2736  0.8151  1.1789
 1468SOL     OW15622   4.167   6.428   1.319 -0.6562 -0.1757 -0.3173
 1468SOL    HW115623   4.214   6.372   1.387  0.1309 -1.4268 -1.8591
 1468SOL    HW215624   4.234   6.475   1.263 -1.3148  2.0427  0.7012
 1469SOL     OW15625   6.164   1.254   6.739  0.3866 -0.7673  0.2355
 1469SOL    HW115626   6.083   1.254   6.797  0.7049 -2.5069  0.7150
 1469SOL    HW215627   6.226   1.326   6.768  0.3290 -1.3114  1.7636
 1470SOL     OW15628   2.354   8.635   0.598 -0.7037  0.1481 -0.2671
 1470SOL    HW115629   2.452   8.622   0.613 -0.6431 -0.9052 -1.4660
 1470SOL    HW215630   2.323   8.716   0.647  0.8820  0.8016 -0.3236
 1471SOL     OW15631   3.172   5.056   5.954  0.0213  0.4156  0.3993
 1471SOL    HW115632   3.108   5.000   5.901 -0.0094  0.8261 -0.0019
 1471SOL    HW215633   3.210   5.001   6.028 -0.8738  0.1890  0.7073
 1472SOL     OW15634   0.131   1.768   5.704 -0.0298 -0.7388  0.6340
 1472SOL    HW115635   0.062   1.729   5.643  0.4033  1.9105 -1.6637
 1472SOL    HW215636   0.222   1.752   5.666  0.1678  2.1361 -0.1844
 1473SOL     OW15637   4.061   3.426   3.298 -0.3427 -0.3255  0.5000
 1473SOL    HW115638   4.026   3.335   3.322 -0.8532 -0.1727  0.3352
 1473SOL    HW215639   4.140   3.447   3.355  0.2437 -1.1895  0.0183
 1474SOL     OW15640   1.293   9.063   2.506 -0.5485  0.1157  0.4359
 1474SOL    HW115641   1.216   9.028   2.453 -1.7440  0.6034  1.8198
 1474SOL    HW215642   1.356   9.110   2.445 -2.1781  1.1543 -0.4974
 1475SOL     OW15643   2.170   0.033   2.721 -0.4044  0.3847 -0.1402
 1475SOL    HW115644   2.173   0.056   2.818  0.6723 -1.3114  0.2314
 1475SOL    HW215645   2.247  -0.026   2.697 -1.5518 -0.5246 -1.6899
 1476SOL     OW15646   9.403   8.990   1.399  0.1059  0.6233  0.3700
 1476SOL    HW115647   9.369   8.947   1.483 -0.7267  0.5478 -0.0008
 1476SOL    HW215648   9.333   9.051   1.362 -0.0383 -0.3159 -0.9530
 1477SOL     OW15649   5.943   2.810   4.771 -0.5880  0.6341  0.1989
 1477SOL    HW115650   6.012   2.830   4.840 -0.2774  1.3036 -0.2908
 1477SOL    HW215651   5.966   2.725   4.724  0.0129  0.9549 -0.0932
 1478SOL     OW15652   3.793   3.557   2.373  0.8433  0.4576  0.4499
 1478SOL    HW115653   3.872   3.532   2.318 -0.6256 -1.1376 -1.0156
 1478SOL    HW215654   3.767   3.480   2.431 -1.2574 -0.0422 -1.0848
 1479SOL     OW15655   2.395   3.427   0.716 -0.1692 -0.9745  0.3003
 1479SOL    HW115656   2.389   3.448   0.813 -0.1715 -3.2695  0.8252
 1479SOL    HW215657   2.412   3.329   0.704 -0.8942 -0.8465 -2.0285
 1480SOL     OW15658   2.599   8.934   1.695 -0.6668 -0.7789 -0.0453
 1480SOL    HW115659   2.621   9.002   1.626  1.9476 -1.3947  0.1410
 1480SOL    HW215660   2.552   8.857   1.653 -3.6678  1.0448 -0.2595
 1481SOL     OW15661   1.069   6.249   3.918  0.1262  0.4713  0.3869
 1481SOL    HW115662   1.134   6.179   3.946 -0.9838 -0.2865  1.1576
 1481SOL    HW215663   1.091   6.281   3.826 -0.1460 -1.8825 -0.5503
 1482SOL     OW15664   2.149   6.171   2.653  0.0006  0.1824 -0.3273
 1482SOL    HW115665   2.109   6.160   2.562 -1.1014 -1.6644  0.3355
 1482SOL    HW215666   2.202   6.089   2.676  2.1541  1.5901 -0.1964
 1483SOL     OW15667   4.084   0.366   0.164 -0.4853  0.2786 -0.0262
 1483SOL    HW115668   4.171   0.380   0.116 -0.4184  0.6615  0.2044
 1483SOL    HW215669   4.103   0.332   0.257 -0.4507  2.8513  0.9606
 1484SOL     OW15670   0.294   7.477   4.508 -0.0076  0.3213 -0.5165
 1484SOL    HW115671   0.346   7.467   4.423  1.3784  1.7545  0.1201
 1484SOL    HW215672   0.334   7.551   4.562 -1.1937 -0.2248  1.1476
 1485SOL     OW15673   4.857   5.302   2.360  0.3508  0.0809  0.3115
 1485SOL    HW115674   4.881   5.365   2.285 -1.9410 -0.0898 -0.5832
 1485SOL    HW215675   4.762   5.315   2.386  0.1352 -2.3284  0.8278
 1486SOL     OW15676   0.853   7.552   1.886  0.4626  0.4932  0.2562
 1486SOL    HW115677   0.952   7.561   1.887  0.6004 -0.9173 -0.2748
 1486SOL    HW215678   0.824   7.488   1.958 -0.3082  3.0119  2.3006
 1487SOL     OW15679   7.424   1.185   4.269  0.0314 -0.3893 -0.4089
 1487SOL    HW115680   7.339   1.165   4.220  1.3683 -3.3756 -1.6122
 1487SOL    HW215681   7.408   1.180   4.367 -0.9413 -2.0548 -0.6389
 1488SOL     OW15682   7.520   1.796   6.456  0.2289  0.3081 -0.1650
 1488SOL    HW115683   7.582   1.819   6.531  0.3038  0.5453 -0.2979
 1488SOL    HW215684   7.434   1.761   6.493 -0.4826  2.2825  0.1055
 1489SOL     OW15685   1.659   3.698   0.145 -0.1296  0.1130  0.6943
 1489SOL    HW115686   1.689   3.738   0.231 -0.7405 -0.8595  1.3708
 1489SOL    HW215687   1.705   3.744   0.069 -2.3596  3.5216  1.2970
 1490SOL     OW15688   8.774   4.423   1.901 -0.4657 -0.3515  0.0530
 1490SOL    HW115689   8.822   4.400   1.985 -0.9350 -0.0139  0.4192
 1490SOL    HW215690   8.677   4.439   1.921 -1.2851 -3.4912 -1.0338
 1491SOL     OW15691   8.817   4.728   4.386 -0.7768 -0.0899 -0.0582
 1491SOL    HW115692   8.793   4.656   4.321  0.4782 -1.1484  0.6164
 1491SOL    HW215693   8.838   4.812   4.337 -1.8124 -0.3170 -0.8873
 1492SOL     OW15694   8.235   1.737   1.358  0.3630 -0.5715 -0.6637
 1492SOL    HW115695   8.179   1.658   1.380  2.3793 -2.2062 -1.2230
 1492SOL    HW215696   8.331   1.717   1.380  0.7408  2.2377  0.5313
 1493SOL     OW15697   3.116   0.597   0.729 -0.1460  0.0619 -0.2327
 1493SOL    HW115698   3.188   0.569   0.666  0.0412  1.0026 -0.4478
 1493SOL    HW215699   3.057   0.519   0.750  0.0150 -0.3426 -1.2766
 1494SOL     OW15700   4.394   2.260   5.383  0.1028  0.2853 -0.2411
 1494SOL    HW115701   4.449   2.184   5.350 -1.1770 -0.8527  0.1752
 1494SOL    HW215702   4.443   2.308   5.456 -0.8211 -2.8486  2.5827
 1495SOL     OW15703   9.506   2.256   5.150  0.2329 -0.6540 -0.2052
 1495SOL    HW115704   9.498   2.177   5.211 -0.6414 -1.4536 -1.3188
 1495SOL    HW215705   9.595   2.254   5.104 -0.3033 -1.7557 -1.2338
 1496SOL     OW15706   7.211   6.273   0.842 -0.0380  0.1246  0.5804
 1496SOL    HW115707   7.186   6.266   0.745 -0.2187  0.4463  0.6038
 1496SOL    HW215708   7.128   6.269   0.898  0.2053 -2.0644  0.8314
 1497SOL     OW15709   3.356   8.265   4.431 -0.3394 -0.5016 -0.0348
 1497SOL    HW115710   3.278   8.327   4.428 -0.1756 -0.2914 -0.0158
 1497SOL    HW215711   3.339   8.193   4.499 -1.4540 -1.7362 -1.5781
 1498SOL     OW15712   5.295   0.845   4.646 -0.6307 -0.5737 -0.2879
 1498SOL    HW115713   5.209   0.891   4.628 -1.6788 -1.4060  2.3032
 1498SOL    HW215714   5.302   0.764   4.588 -1.1426  0.0230 -1.1896
 1499SOL     OW15715   7.932   2.463   3.908  0.4171  0.1037 -0.6398
 1499SOL    HW115716   7.886   2.419   3.830  1.3908 -0.1786 -1.0658
 1499SOL    HW215717   7.875   2.455   3.989 -0.7554  0.6689 -1.3931
 1500SOL     OW15718   7.155   3.839   0.308  0.3704  0.4604 -0.1109
 1500SOL    HW115719   7.192   3.930   0.289 -0.2920  1.0406  1.3391
 1500SOL    HW215720   7.180   3.810   0.400 -1.0490 -0.0038  0.1526
 1501SOL     OW15721   1.295   9.594   3.009  0.3177  0.0808  0.4804
 1501SOL    HW115722   1.361   9.533   3.052  0.0550  0.4468  1.4196
 1501SOL    HW215723   1.228   9.541   2.958  2.2854 -0.2186 -1.8659
 1502SOL     OW15724   7.173   1.017   5.354 -0.7417  0.7525 -0.2722
 1502SOL    HW115725   7.172   1.106   5.400 -0.3568  0.5786  0.0732
 1502SOL    HW215726   7.145   1.028   5.258  0.5625  1.4435 -0.5792
 1503SOL     OW15727   7.569   1.617   3.884  0.5898 -0.5201  0.2083
 1503SOL    HW115728   7.599   1.525   3.859  1.3278 -0.0087 -0.8072
 1503SOL    HW215729   7.649   1.677   3.891 -0.0970  0.6139 -1.5220
 1504SOL     OW15730   3.331   3.360   1.254 -0.7872  0.3248  0.3745
 1504SOL    HW115731   3.413   3.341   1.200 -1.6171  0.3426 -0.9289
 1504SOL    HW215732   3.260   3.397   1.194 -1.5988  0.7190  1.5675
 1505SOL     OW15733   0.213   3.214   1.349 -0.3546 -0.2111 -0.1273
 1505SOL    HW115734   0.205   3.179   1.255 -1.2563 -1.1691  0.2862
 1505SOL    HW215735   0.309   3.229   1.371 -0.1445  0.1994 -1.2690
 1506SOL     OW15736   1.135   8.301   5.262  0.4143 -0.1676 -0.2219
 1506SOL    HW115737   1.066   8.276   5.194 -1.2131 -0.0798  1.3419
 1506SOL    HW215738   1.165   8.220   5.311  0.4608 -0.0311 -0.0244
 1507SOL     OW15739   9.815   8.671   2.723  0.4013  0.0243 -0.0209
 1507SOL    HW115740   9.786   8.593   2.668  0.9165 -0.8710  0.9509
 1507SOL    HW215741   9.828   8.642   2.818 -2.5881  2.0221  1.0776
 1508SOL     OW15742   2.496   6.243   1.891 -0.1319  0.4859  0.0562
 1508SOL    HW115743   2.532   6.167   1.837  0.5649  0.6196  0.3180
 1508SOL    HW215744   2.434   6.207   1.961 -0.7297  0.2772 -0.5731
 1509SOL     OW15745   0.508   0.379   2.716  0.2140  0.5831 -0.0160
 1509SOL    HW115746   0.496   0.448   2.644  1.5295  0.2003 -0.6085
 1509SOL    HW215747   0.497   0.423   2.806 -0.5757  1.2283 -0.4194
 1510SOL     OW15748   8.841   2.135   1.698 -0.6371  0.0240 -0.4146
 1510SOL    HW115749   8.830   2.202   1.624  1.2380  0.2328 -0.5177
 1510SOL    HW215750   8.867   2.046   1.659 -1.1955 -0.2652 -0.1275
 1511SOL     OW15751   1.791   0.803   6.075 -0.3817 -0.1522  0.5183
 1511SOL    HW115752   1.884   0.766   6.069 -0.6556 -0.7957  0.1310
 1511SOL    HW215753   1.761   0.831   5.983 -0.6730 -0.2218  0.5910
 1512SOL     OW15754   8.432   8.894   6.181  0.5578  0.3613 -0.2402
 1512SOL    HW115755   8.344   8.861   6.147  0.5140 -0.7426  0.9247
 1512SOL    HW215756   8.444   8.990   6.155 -0.4422  0.1666 -1.4510
 1513SOL     OW15757   0.871   0.746   0.965  0.2030 -0.0041  0.2183
 1513SOL    HW115758   0.776   0.715   0.961  0.4394 -1.1028  2.4716
 1513SOL    HW215759   0.929   0.671   0.996  1.6756  0.9897 -0.0630
 1514SOL     OW15760   0.886   2.426   6.188 -0.6368 -0.0396 -0.9250
 1514SOL    HW115761   0.951   2.352   6.206  1.1895  1.4101 -1.4624
 1514SOL    HW215762   0.839   2.408   6.101 -0.2531 -0.6086 -1.0172
 1515SOL     OW15763   2.379   8.954   5.637 -0.1216  0.4003 -0.7192
 1515SOL    HW115764   2.362   9.018   5.712 -1.6481 -0.3433 -0.4049
 1515SOL    HW215765   2.376   8.861   5.671  1.7846  0.1407 -1.2400
 1516SOL     OW15766   9.991   3.719   6.654  0.4771  0.1580  0.4035
 1516SOL    HW115767  10.048   3.639   6.640  0.5622  0.3962 -0.6698
 1516SOL    HW215768  10.026   3.795   6.599 -0.5699  0.4512  0.1216
 1517SOL     OW15769   3.568   3.821   3.268 -0.3938  0.0244  0.5819
 1517SOL    HW115770   3.529   3.732   3.292 -0.4504  0.6821  3.0978
 1517SOL    HW215771   3.494   3.882   3.238 -0.5815 -0.2832  0.4112
 1518SOL     OW15772   3.208   9.824   1.923  0.0189  0.4070  0.7017
 1518SOL    HW115773   3.225   9.849   1.828 -1.0541 -1.5371 -0.0150
 1518SOL    HW215774   3.258   9.741   1.946  1.6840  1.8107  2.3911
 1519SOL     OW15775   9.111   1.686   4.837  0.2211  0.0104  0.4869
 1519SOL    HW115776   9.102   1.669   4.935 -0.8634  0.4663  0.4774
 1519SOL    HW215777   9.032   1.739   4.805  0.9546  0.5330 -0.4823
 1520SOL     OW15778   4.966   2.995   4.434  0.0408  0.6678  0.3020
 1520SOL    HW115779   5.027   2.955   4.366 -0.2899  0.0890  0.3441
 1520SOL    HW215780   5.001   3.085   4.461  1.9182 -0.4514  1.7371
 1521SOL     OW15781   4.711   4.229   1.846 -0.0926 -0.4993  0.7413
 1521SOL    HW115782   4.693   4.134   1.818 -1.0559  0.1303 -0.8630
 1521SOL    HW215783   4.750   4.279   1.769 -2.5038  1.2085  0.5681
 1522SOL     OW15784   1.996   8.026   0.145 -0.3638  0.2310  0.1940
 1522SOL    HW115785   2.000   7.996   0.050 -2.0492  0.4796  0.0409
 1522SOL    HW215786   1.906   8.009   0.183  0.3518 -0.0515  1.8307
 1523SOL     OW15787   3.529   7.579   0.788  0.0934  0.0220 -0.1235
 1523SOL    HW115788   3.468   7.658   0.791 -0.6937 -0.5482 -0.9195
 1523SOL    HW215789   3.623   7.610   0.775 -0.0354  0.8962  0.9641
 1524SOL     OW15790   1.418   4.570   2.478 -0.4139 -0.0774 -0.4617
 1524SOL    HW115791   1.328   4.533   2.457 -1.6870  2.0052  1.1236
 1524SOL    HW215792   1.456   4.521   2.557 -1.6334  1.2219  0.9666
 1525SOL     OW15793   6.059   0.391   2.647 -0.2421  0.1950  0.3111
 1525SOL    HW115794   6.102   0.477   2.673 -0.4691  0.8198 -1.3060
 1525SOL    HW215795   6.096   0.361   2.559  0.0127 -1.4943  0.9790
 1526SOL     OW15796   0.826   9.436   0.331 -0.1094  0.2174 -0.3044
 1526SOL    HW115797   0.746   9.430   0.271 -0.7465  2.1714  0.2987
 1526SOL    HW215798   0.843   9.347   0.373 -1.0512 -0.5961 -1.6020
 1527SOL     OW15799   9.868   2.876   4.608 -0.2741 -0.2785  0.1409
 1527SOL    HW115800   9.966   2.895   4.607 -0.5914  1.3579 -0.3503
 1527SOL    HW215801   9.853   2.778   4.593  1.2732 -0.5286  0.1599
 1528SOL     OW15802   1.278   5.788   5.797 -0.3393 -0.0895 -0.0111
 1528SOL    HW115803   1.338   5.818   5.871 -0.4924  0.6054 -0.1745
 1528SOL    HW215804   1.238   5.700   5.821  0.6793 -0.5248  0.1435
 1529SOL     OW15805   4.096   8.159   4.524  0.5536 -0.2822 -0.9320
 1529SOL    HW115806   4.088   8.155   4.424  2.2993  2.1638 -1.2079
 1529SOL    HW215807   4.017   8.207   4.562  1.0239  0.8231 -1.3424
 1530SOL     OW15808   7.966   2.377   0.284 -0.1207  0.1739 -0.5051
 1530SOL    HW115809   8.042   2.362   0.348 -1.1213 -0.4663  0.5371
 1530SOL    HW215810   8.002   2.383   0.191  1.0983 -1.1767 -0.1300
 1531SOL     OW15811   8.125   1.878   4.729 -0.5888 -0.0833  0.3803
 1531SOL    HW115812   8.095   1.818   4.803  2.0750 -0.9342  0.8231
 1531SOL    HW215813   8.178   1.954   4.766  0.5763 -0.3868 -0.6183
 1532SOL     OW15814   5.393   8.527   1.549  0.4927 -0.1063  0.2434
 1532SOL    HW115815   5.307   8.571   1.523  0.8085  0.6491  0.4791
 1532SOL    HW215816   5.374   8.433   1.578 -0.2574  0.0603  0.3190
 1533SOL     OW15817   1.909   1.815   1.042 -0.9284 -0.5864 -0.3146
 1533SOL    HW115818   1.824   1.802   1.093  1.2469 -2.3686  3.0386
 1533SOL    HW215819   1.936   1.911   1.046 -1.6318 -0.4182  0.4596
 1534SOL     OW15820   9.733   0.591   4.751 -0.2351 -0.5148  1.0443
 1534SOL    HW115821   9.819   0.586   4.701 -0.8268 -0.6280  0.0368
 1534SOL    HW215822   9.715   0.685   4.779 -1.8688  0.2956 -2.4505
 1535SOL     OW15823   3.252   9.476   0.128 -0.1923 -0.4230 -0.0980
 1535SOL    HW115824   3.344   9.449   0.100 -0.8025 -1.4009 -1.2059
 1535SOL    HW215825   3.234   9.570   0.097  0.4166 -0.2258  0.1242
 1536SOL     OW15826   9.708   9.271   6.499  0.2802 -0.1100  0.2170
 1536SOL    HW115827   9.677   9.177   6.514  1.6614 -0.8730 -1.6019
 1536SOL    HW215828   9.723   9.315   6.588 -1.2207 -1.2932  1.0953
 1537SOL     OW15829   8.223   0.091   5.905 -0.1624 -0.4844 -0.3319
 1537SOL    HW115830   8.174   0.007   5.929  0.0923 -0.6046 -0.2302
 1537SOL    HW215831   8.247   0.141   5.988  1.5332 -1.3639 -0.2734
 1538SOL     OW15832   0.621   2.845   5.458  0.7153 -0.3445  0.2670
 1538SOL    HW115833   0.607   2.936   5.419 -1.7275 -0.8089  0.0203
 1538SOL    HW215834   0.612   2.850   5.558  0.1210 -0.4055  0.2146
 1539SOL     OW15835   0.121   7.086   6.375 -0.5116 -0.2418 -0.2390
 1539SOL    HW115836   0.030   7.053   6.349 -0.1139 -2.1938  0.7211
 1539SOL    HW215837   0.177   7.009   6.405  1.7564  0.8075 -1.6310
 1540SOL     OW15838   8.387   4.661   6.266  0.0813 -0.3798  0.0761
 1540SOL    HW115839   8.290   4.640   6.277 -0.1608 -0.0392 -1.3597
 1540SOL    HW215840   8.401   4.707   6.179  1.4439  0.1634  0.5820
 1541SOL     OW15841   3.547   8.763   5.639  0.8180  0.4051  0.6570
 1541SOL    HW115842   3.545   8.831   5.566  2.4345 -0.3815 -0.1479
 1541SOL    HW215843   3.502   8.799   5.720 -1.2443  1.1975 -0.8017
 1542SOL     OW15844   4.700   0.356   3.623 -0.1595 -0.1991 -0.3798
 1542SOL    HW115845   4.659   0.430   3.570 -0.8257  0.2488  0.7582
 1542SOL    HW215846   4.677   0.366   3.719  1.1893 -0.9098  0.0423
 1543SOL     OW15847   8.599   0.101   1.567 -0.6114 -0.4824  0.2322
 1543SOL    HW115848   8.547   0.100   1.482 -0.5407 -0.0290  0.1828
 1543SOL    HW215849   8.660   0.180   1.568 -0.7007 -0.4194  0.7554
 1544SOL     OW15850   2.525   1.265   3.059  0.7218  0.4298 -0.0319
 1544SOL    HW115851   2.544   1.167   3.062 -0.0208  0.3100  1.5368
 1544SOL    HW215852   2.452   1.283   2.993  0.4393 -0.1485  0.1231
 1545SOL     OW15853   0.508   8.999   6.316 -0.2821 -0.4709 -0.2884
 1545SOL    HW115854   0.418   8.956   6.321 -0.3982 -0.2894 -0.8467
 1545SOL    HW215855   0.579   8.929   6.308 -0.4133 -0.5861 -0.4188
 1546SOL     OW15856   1.914   4.408   3.759 -0.2294  0.2281 -0.3816
 1546SOL    HW115857   1.895   4.310   3.760 -0.3735  0.2488 -0.8000
 1546SOL    HW215858   1.860   4.454   3.830  0.6043 -0.1313  0.4898
 1547SOL     OW15859   8.612   4.195   4.959  0.0739  0.5367 -0.0937
 1547SOL    HW115860   8.693   4.146   4.927 -0.6288 -0.0042 -1.0840
 1547SOL    HW215861   8.623   4.293   4.940  1.2786  0.7189  1.4651
 1548SOL     OW15862   6.901   1.014   2.369 -0.6155 -0.0505  0.5482
 1548SOL    HW115863   6.950   1.099   2.349  0.0071 -0.6276 -0.4400
 1548SOL    HW215864   6.964   0.946   2.405 -0.3196 -1.3176 -2.2262
 1549SOL     OW15865   9.146   8.041   2.989 -0.3882 -0.6283  0.3390
 1549SOL    HW115866   9.057   8.001   2.967  0.0645 -2.5029  1.7547
 1549SOL    HW215867   9.155   8.051   3.088  0.6492  0.3467  0.1571
 1550SOL     OW15868   0.675   9.670   3.488 -0.5081  0.2725  0.2070
 1550SOL    HW115869   0.679   9.575   3.456 -2.9296  0.3135 -0.3193
 1550SOL    HW215870   0.607   9.720   3.435  1.1737  2.4840  0.0964
 1551SOL     OW15871   0.589   3.613   3.521  0.0167  0.3612  0.5245
 1551SOL    HW115872   0.658   3.657   3.464 -0.8970  1.0670 -0.0626
 1551SOL    HW215873   0.508   3.594   3.467  0.0779 -1.3029  0.9916
 1552SOL     OW15874   6.194   9.222   4.168 -0.2150  0.9781 -0.4845
 1552SOL    HW115875   6.217   9.266   4.081 -1.8084 -0.7453 -1.8063
 1552SOL    HW215876   6.109   9.260   4.203  0.5073  1.7814  0.4210
 1553SOL     OW15877   5.317   8.665   2.245 -0.8206  0.6457  0.4119
 1553SOL    HW115878   5.395   8.646   2.186 -0.3798  0.8852  0.9129
 1553SOL    HW215879   5.238   8.692   2.189 -1.3073 -2.1270 -0.2845
 1554SOL     OW15880   7.111   1.795   5.500  0.0821 -0.0009 -0.2854
 1554SOL    HW115881   7.150   1.871   5.448 -1.0506  1.8026  1.4289
 1554SOL    HW215882   7.183   1.749   5.552  0.9103 -0.6619 -1.9797
 1555SOL     OW15883   9.705   5.814   0.995 -0.4825  0.1178 -0.2983
 1555SOL    HW115884   9.655   5.900   1.009 -0.2698  0.5868 -2.3315
 1555SOL    HW215885   9.704   5.790   0.898  3.4306  0.2791 -0.4512
 1556SOL     OW15886   8.264   3.220   0.535  0.0652 -0.1039  0.5076
 1556SOL    HW115887   8.297   3.208   0.441  0.1560  1.7611  0.2986
 1556SOL    HW215888   8.170   3.255   0.533  0.2816  0.5207  1.1073
 1557SOL     OW15889   0.438   9.222   1.083  0.2080 -0.3103  0.9186
 1557SOL    HW115890   0.345   9.191   1.068  0.8640 -2.2198  0.6419
 1557SOL    HW215891   0.439   9.292   1.155 -1.3983 -0.3949  1.0380
 1558SOL     OW15892   9.702   3.685   2.070  0.0102 -0.0829 -0.7793
 1558SOL    HW115893   9.747   3.704   2.157 -0.3772 -1.1731 -0.3263
 1558SOL    HW215894   9.693   3.586   2.059 -2.7749  0.1115 -0.5866
 1559SOL     OW15895   1.294   5.476   5.532  0.0806 -0.2888  1.0006
 1559SOL    HW115896   1.263   5.540   5.461  0.8358 -0.0846  0.8486
 1559SOL    HW215897   1.215   5.441   5.582 -0.3775  0.3893  0.7629
 1560SOL     OW15898   0.288   9.047   2.865  0.2635  0.0616  0.1870
 1560SOL    HW115899   0.237   8.985   2.806 -0.6658  0.3927  0.6288
 1560SOL    HW215900   0.385   9.046   2.840 -0.1716  0.4410 -1.5666
 1561SOL     OW15901   9.754   8.884   0.221  0.1599  0.0050 -0.5220
 1561SOL    HW115902   9.798   8.872   0.310 -0.9214  3.1393  0.4980
 1561SOL    HW215903   9.655   8.874   0.231  0.0412  0.2144 -1.4257
 1562SOL     OW15904   3.560   4.788   4.014 -0.1908  0.2195 -0.1683
 1562SOL    HW115905   3.570   4.704   3.962  2.7824  0.3281  0.1583
 1562SOL    HW215906   3.532   4.766   4.108  0.3966 -0.3910 -0.1359
 1563SOL     OW15907   0.922   5.649   4.548  0.5753  0.7823  0.2453
 1563SOL    HW115908   0.921   5.563   4.600  0.0293  0.9896  0.5874
 1563SOL    HW215909   0.845   5.650   4.484  0.9928  0.7167 -0.2562
 1564SOL     OW15910   3.892   1.299   1.087 -0.3158 -0.0092 -0.1156
 1564SOL    HW115911   3.913   1.293   1.184  0.3267 -0.4449 -0.2805
 1564SOL    HW215912   3.977   1.305   1.034 -0.5882 -1.8191 -0.7763
 1565SOL     OW15913   1.011   3.541   3.990  0.1248  0.0082  0.0294
 1565SOL    HW115914   1.095   3.528   3.936 -0.0216  0.5071 -0.3238
 1565SOL    HW215915   1.029   3.517   4.086  0.5946 -0.1579 -0.0974
 1566SOL     OW15916   2.984   3.950   2.243 -0.1571 -0.0999  0.6046
 1566SOL    HW115917   3.010   3.922   2.151  1.2171 -0.4410  1.0858
 1566SOL    HW215918   3.001   4.048   2.255 -1.9414  0.2983 -0.0463
 1567SOL     OW15919   9.800   3.099   4.294 -0.8648  0.3087  0.4211
 1567SOL    HW115920   9.746   3.095   4.210 -0.3466 -0.0112  0.1012
 1567SOL    HW215921   9.743   3.073   4.372 -0.8792 -1.0939 -0.0563
 1568SOL     OW15922   4.821   3.953   1.533  0.1565 -0.6870 -0.1571
 1568SOL    HW115923   4.829   3.951   1.433  2.1436  2.7484 -0.1432
 1568SOL    HW215924   4.898   3.904   1.573 -0.4224 -1.7161 -0.2876
 1569SOL     OW15925   9.681   3.960   2.461 -0.0409  0.2618 -0.2631
 1569SOL    HW115926   9.762   3.901   2.463 -0.1918  0.0725  0.4966
 1569SOL    HW215927   9.651   3.973   2.367  0.7597  0.1738 -0.5315
 1570SOL     OW15928   5.049   8.334   2.451 -0.3045  0.2448 -0.1388
 1570SOL    HW115929   5.047   8.264   2.380  0.9987 -0.1862  0.2309
 1570SOL    HW215930   4.995   8.303   2.529  0.2970 -0.3740  0.0377
 1571SOL     OW15931   7.301   0.681   4.016  0.3299 -0.0373 -0.4872
 1571SOL    HW115932   7.223   0.688   3.953  1.2473  0.6663 -1.5566
 1571SOL    HW215933   7.271   0.636   4.100 -1.1843  0.0240 -0.9692
 1572SOL     OW15934   8.131   3.772   1.267  0.2487 -0.6078  0.1392
 1572SOL    HW115935   8.098   3.779   1.362  0.7092 -1.5575  0.3671
 1572SOL    HW215936   8.085   3.841   1.211  1.1541  1.0392  1.3803
 1573SOL     OW15937   1.496   0.880   4.899 -0.7402  0.3507 -0.3172
 1573SOL    HW115938   1.498   0.910   4.803 -0.8891  2.4227  0.3011
 1573SOL    HW215939   1.494   0.960   4.959 -1.4003 -0.9299  1.4155
 1574SOL     OW15940   9.767   4.980   6.063 -0.2627  0.0802 -1.1664
 1574SOL    HW115941   9.801   4.892   6.031  0.9755  0.2174 -0.3097
 1574SOL    HW215942   9.690   5.009   6.007 -0.9642 -1.7522 -1.1667
 1575SOL     OW15943   9.263   2.900   5.018  0.5979  0.3489 -0.2794
 1575SOL    HW115944   9.223   2.984   5.053  0.0825  0.1266 -0.3192
 1575SOL    HW215945   9.192   2.847   4.971  1.4102  0.9159 -2.1805
 1576SOL     OW15946   0.861   1.364   1.630 -0.5293  0.7315  0.4829
 1576SOL    HW115947   0.807   1.448   1.619 -0.2515  0.7950 -0.4051
 1576SOL    HW215948   0.942   1.384   1.686 -0.6460  0.9746  0.5657
 1577SOL     OW15949   0.470   9.124   2.112  0.2687  0.7266 -0.3154
 1577SOL    HW115950   0.382   9.166   2.131 -0.4546 -0.6439 -0.6023
 1577SOL    HW215951   0.472   9.031   2.149  0.4042 -0.4200 -3.0603
 1578SOL     OW15952   5.320   2.081   3.825 -0.1015  0.0908 -0.1202
 1578SOL    HW115953   5.410   2.050   3.854  0.2771  0.6632 -0.6795
 1578SOL    HW215954   5.250   2.018   3.859  0.5790 -0.8308 -0.4368
 1579SOL     OW15955   7.040   1.666   5.928 -0.4388  0.5860 -0.1938
 1579SOL    HW115956   7.120   1.679   5.987 -0.4677 -0.2350  0.0311
 1579SOL    HW215957   7.030   1.569   5.906 -0.9230  0.7859 -0.8596
 1580SOL     OW15958   1.879   2.395   2.073 -0.7894 -0.1530 -0.5897
 1580SOL    HW115959   1.802   2.388   2.011 -1.5066 -0.6200  0.3350
 1580SOL    HW215960   1.914   2.303   2.094 -0.4419  0.0104 -0.4396
 1581SOL     OW15961   1.020   0.966   0.652  0.4649 -0.1218 -0.0405
 1581SOL    HW115962   1.019   0.874   0.614  2.4107 -0.0183 -0.4049
 1581SOL    HW215963   0.965   0.968   0.735  0.8595 -1.7632  0.2893
 1582SOL     OW15964   0.277   7.524   6.304 -0.7564  0.2447 -0.0071
 1582SOL    HW115965   0.255   7.612   6.262 -0.3352 -0.3174 -1.4114
 1582SOL    HW215966   0.359   7.535   6.362 -1.4683  1.0627  0.8828
 1583SOL     OW15967   7.946   0.565   2.975 -0.0579 -0.0646 -0.0958
 1583SOL    HW115968   7.976   0.470   2.979 -0.2857 -0.0685  2.2342
 1583SOL    HW215969   7.930   0.599   3.068 -0.5133  2.0815 -0.9281
 1584SOL     OW15970   1.371   4.417   4.777 -0.1743 -0.3739  0.0530
 1584SOL    HW115971   1.300   4.394   4.844  0.9569 -1.6987  0.8196
 1584SOL    HW215972   1.452   4.451   4.825  0.1968 -0.1353 -0.7310
 1585SOL     OW15973   7.373   2.081   4.754  0.3496 -0.3765  0.1309
 1585SOL    HW115974   7.443   2.029   4.705 -0.3878 -1.3589  0.1090
 1585SOL    HW215975   7.298   2.020   4.779  0.4260  0.2441  1.9361
 1586SOL     OW15976   7.693   0.028   1.727 -0.6765  0.0054  0.7434
 1586SOL    HW115977   7.666   0.089   1.801  0.2009  1.2573  0.0562
 1586SOL    HW215978   7.646   0.055   1.643  1.9040  1.6633 -0.2634
 1587SOL     OW15979   3.017   7.051   1.062  0.2230 -0.4057  0.2013
 1587SOL    HW115980   3.008   7.098   0.975 -1.7853 -0.1535  0.5250
 1587SOL    HW215981   3.107   7.007   1.067  0.2331 -0.7125 -2.1310
 1588SOL     OW15982   6.907   1.917   3.336 -0.1843 -0.2121  0.5956
 1588SOL    HW115983   6.880   1.982   3.265 -0.9723 -0.1803  0.9131
 1588SOL    HW215984   6.832   1.907   3.402  1.7630  2.3882  3.3336
 1589SOL     OW15985   8.945   7.306   2.521  0.3732 -0.0568 -0.2896
 1589SOL    HW115986   8.981   7.342   2.608  1.2997  0.3588 -0.8371
 1589SOL    HW215987   8.870   7.364   2.490 -0.3652 -0.5536  0.5342
 1590SOL     OW15988   0.922   3.163   4.778  0.1573 -0.3355  0.0647
 1590SOL    HW115989   0.958   3.117   4.860 -2.2448 -0.6326  1.0001
 1590SOL    HW215990   0.860   3.236   4.805  0.3431  0.4206 -1.4925
 1591SOL     OW15991   1.963   3.962   0.736 -0.2525  0.0984 -0.8652
 1591SOL    HW115992   1.913   3.981   0.652  0.1058  1.5090 -0.7723
 1591SOL    HW215993   1.951   4.038   0.800  0.8323 -0.2146 -0.2772
 1592SOL     OW15994   8.282   4.444   5.883  0.1137 -0.0796  0.5343
 1592SOL    HW115995   8.199   4.438   5.828  0.1720  2.0202  0.1589
 1592SOL    HW215996   8.264   4.496   5.966  0.8704 -0.2596  0.8197
 1593SOL     OW15997   5.332   0.335   2.560  0.1371 -0.4713  0.0978
 1593SOL    HW115998   5.279   0.345   2.476  0.5802  1.2484 -0.0022
 1593SOL    HW215999   5.321   0.243   2.595 -3.2533 -0.0506  0.3151
 1594SOL     OW16000   7.360   9.325   3.408 -0.1049  0.0571 -0.2255
 1594SOL    HW116001   7.444   9.369   3.377 -0.0490  0.1589  0.0671
 1594SOL    HW216002   7.281   9.366   3.361  0.1265 -1.1324 -1.7042
 1595SOL     OW16003   7.575   6.857   4.468 -0.1642 -0.2941  0.4482
 1595SOL    HW116004   7.512   6.935   4.472  1.2218  0.9401 -1.0268
 1595SOL    HW216005   7.602   6.831   4.561 -2.8481 -0.8983  1.1255
 1596SOL     OW16006   9.059   2.439   4.286 -0.0245 -0.2684 -0.2106
 1596SOL    HW116007   9.143   2.418   4.336  0.3282  0.5224 -0.4566
 1596SOL    HW216008   9.046   2.538   4.284 -1.0520 -0.3924 -0.0367
 1597SOL     OW16009   2.464   4.511   6.433  0.2068  0.2124 -0.3090
 1597SOL    HW116010   2.563   4.525   6.438  0.0126  1.8872 -0.8013
 1597SOL    HW216011   2.433   4.527   6.339 -0.7954  1.4661  0.2306
 1598SOL     OW16012   4.133   2.760   6.344 -0.4667  0.2774  0.1088
 1598SOL    HW116013   4.152   2.662   6.351 -2.6219 -0.0813  1.6579
 1598SOL    HW216014   4.128   2.787   6.248  0.5420 -1.0297 -0.3295
 1599SOL     OW16015   1.143   8.394   6.368 -0.1455  0.2193  0.3015
 1599SOL    HW116016   1.156   8.390   6.269  0.9605  0.3669  0.4402
 1599SOL    HW216017   1.223   8.358   6.414  1.1075  3.8848  1.2072
 1600SOL     OW16018   5.966   0.785   2.175  0.3331  0.0712 -0.5397
 1600SOL    HW116019   5.866   0.772   2.172  0.2996  0.5425 -2.0123
 1600SOL    HW216020   6.007   0.736   2.098  1.2013  0.2301 -0.1737
 1601SOL     OW16021   1.630   4.934   2.563  0.0982 -0.1065 -0.1759
 1601SOL    HW116022   1.535   4.962   2.553  0.3184  1.2280  1.3165
 1601SOL    HW216023   1.685   4.978   2.491 -0.3703 -0.7496 -0.9370
 1602SOL     OW16024   8.330   3.376   1.764 -0.5852  0.1942 -0.0390
 1602SOL    HW116025   8.416   3.339   1.730 -1.2622 -0.5923 -0.9375
 1602SOL    HW216026   8.306   3.458   1.712 -0.2642  0.5502  0.3711
 1603SOL     OW16027   6.101   0.065   2.717  0.5176  0.1561  0.8020
 1603SOL    HW116028   6.093   0.105   2.626  0.7569  0.2240  0.8112
 1603SOL    HW216029   6.169   0.116   2.770 -0.7908  1.1459  1.5655
 1604SOL     OW16030   0.674   9.374   4.905  0.0682 -0.1980  0.0501
 1604SOL    HW116031   0.591   9.409   4.948 -0.9299 -0.5528 -1.5709
 1604SOL    HW216032   0.680   9.407   4.811 -0.2416 -3.3248 -1.1121
 1605SOL     OW16033   9.026   2.876   0.848 -0.4060  0.1476  0.5557
 1605SOL    HW116034   8.926   2.878   0.851 -0.4312 -0.0248 -0.0110
 1605SOL    HW216035   9.056   2.890   0.754  0.1098  0.3821  0.7540
 1606SOL     OW16036   6.583   1.389   5.049 -0.2026 -0.0423  0.3795
 1606SOL    HW116037   6.676   1.404   5.016 -0.8819  1.8234 -0.7327
 1606SOL    HW216038   6.567   1.443   5.132  0.0541 -1.2621  1.2458
 1607SOL     OW16039   3.805   2.500   0.329 -0.1679 -0.3256  0.0907
 1607SOL    HW116040   3.758   2.419   0.362  1.0737 -0.3528  1.8502
 1607SOL    HW216041   3.891   2.511   0.379  1.3716  0.0952 -2.5946
 1608SOL     OW16042   4.569   2.116   1.702  0.1917  0.3233  0.1063
 1608SOL    HW116043   4.504   2.186   1.732  0.5104 -0.8826  3.8812
 1608SOL    HW216044   4.662   2.151   1.710  0.3946 -0.6852  2.7096
 1609SOL     OW16045   2.634   6.416   3.706 -0.1413  0.1640  0.0962
 1609SOL    HW116046   2.707   6.348   3.700 -0.3358  0.0444 -1.1347
 1609SOL    HW216047   2.604   6.441   3.614 -1.4327  0.4423  0.5770
 1610SOL     OW16048   3.887   8.787   3.643 -0.0559  0.3741 -0.4232
 1610SOL    HW116049   3.861   8.864   3.584 -1.5118  0.2556  0.0553
 1610SOL    HW216050   3.823   8.780   3.719  0.8270 -0.5305  0.2417
 1611SOL     OW16051   7.577   4.431   1.451  0.0873  0.3302  0.1166
 1611SOL    HW116052   7.676   4.415   1.441 -0.0728  0.5377 -2.1091
 1611SOL    HW216053   7.560   4.528   1.460 -0.0279  0.4454 -1.2501
 1612SOL     OW16054   9.920   3.708   0.899  0.4750  0.2187 -0.5067
 1612SOL    HW116055   9.868   3.676   0.978  0.1436 -1.5295 -1.3997
 1612SOL    HW216056   9.874   3.786   0.858  0.0880  0.4771  0.3974
 1613SOL     OW16057   5.097   1.902   3.850 -0.4296  0.1480 -0.3319
 1613SOL    HW116058   5.127   1.821   3.900  1.6401  1.5666  0.8089
 1613SOL    HW216059   4.997   1.899   3.839 -0.4406 -2.3062  0.0709
 1614SOL     OW16060   1.049   8.194   1.512  0.5417 -1.0115  0.1984
 1614SOL    HW116061   1.134   8.183   1.563  0.9886  1.2818  0.0072
 1614SOL    HW216062   1.068   8.238   1.424 -0.9074  0.2963  0.5085
 1615SOL     OW16063   4.729   9.043   5.669  0.2308  0.6120 -0.7065
 1615SOL    HW116064   4.696   9.119   5.726  0.1877 -0.0250  0.1197
 1615SOL    HW216065   4.763   9.080   5.583  0.5082  1.6168 -0.1854
 1616SOL     OW16066   7.987   8.260   1.730 -0.6086  0.4765 -0.4542
 1616SOL    HW116067   8.083   8.249   1.706 -0.3126  0.3829  0.7380
 1616SOL    HW216068   7.966   8.357   1.739 -0.4980  0.4826 -0.2469
 1617SOL     OW16069   7.049   1.786   4.700  0.1397  0.3380 -0.4244
 1617SOL    HW116070   6.982   1.749   4.764 -0.3102 -1.2904 -1.8005
 1617SOL    HW216071   7.002   1.830   4.624  0.6444  4.4522  1.4491
 1618SOL     OW16072   8.154   4.017   0.345 -0.2407 -0.4554 -0.2044
 1618SOL    HW116073   8.238   4.064   0.371  0.0691 -0.2632 -1.4925
 1618SOL    HW216074   8.090   4.084   0.307 -0.9553 -0.6123  0.7119
 1619SOL     OW16075   8.117   1.420   2.596  0.0960 -0.3110 -0.0874
 1619SOL    HW116076   8.134   1.440   2.499  0.8186 -2.1589 -0.3671
 1619SOL    HW216077   8.173   1.480   2.653  0.3150  0.1976 -0.8295
 1620SOL     OW16078   1.469   4.327   5.560  0.4642 -0.2017 -0.3967
 1620SOL    HW116079   1.536   4.398   5.539 -1.2987  1.9294  0.9068
 1620SOL    HW216080   1.410   4.312   5.480  0.4368  0.2429 -0.4586
 1621SOL     OW16081   2.929   9.991   0.788 -0.1568  0.2050  0.6058
 1621SOL    HW116082   2.836   9.998   0.822 -0.2531  1.1546  0.1655
 1621SOL    HW216083   2.993  10.024   0.858 -0.3325  1.8638 -0.0015
 1622SOL     OW16084   6.373   0.081   4.593  0.5083 -0.2532 -0.5124
 1622SOL    HW116085   6.331   0.004   4.641 -0.1699 -0.0642 -0.7928
 1622SOL    HW216086   6.472   0.071   4.594  0.4637 -0.6669  0.2296
 1623SOL     OW16087   0.560   5.907   2.794  0.0987  0.5370 -0.5898
 1623SOL    HW116088   0.659   5.909   2.801  0.0542  1.7172 -0.0841
 1623SOL    HW216089   0.526   5.817   2.821  1.0183  0.1662 -0.6583
 1624SOL     OW16090   7.859   4.004   6.629  0.2877  0.0844 -0.2757
 1624SOL    HW116091   7.789   3.984   6.697  2.6782  2.4515  2.9974
 1624SOL    HW216092   7.835   4.086   6.579  0.2966  0.4148  0.2619
 1625SOL     OW16093   2.036   9.590   2.441 -0.0596 -0.5396  0.1811
 1625SOL    HW116094   2.012   9.636   2.355  0.8394  0.5483  0.5065
 1625SOL    HW216095   2.002   9.495   2.438  0.4266 -0.6779 -1.5887
 1626SOL     OW16096   2.761   3.574   3.530  0.1033  0.3104 -0.4041
 1626SOL    HW116097   2.849   3.554   3.572 -0.6012  1.2669  1.6281
 1626SOL    HW216098   2.718   3.650   3.579 -1.1173  0.9347 -2.4024
 1627SOL     OW16099   0.284   3.330   0.019  0.0289  0.0382  0.2502
 1627SOL    HW116100   0.250   3.303   0.109  1.0714  0.3453  0.7358
 1627SOL    HW216101   0.330   3.252  -0.024 -1.9312 -0.6135 -0.7392
 1628SOL     OW16102   3.587   3.991   0.196  0.1545 -0.4752  0.3338
 1628SOL    HW116103   3.619   4.057   0.264 -2.0797  0.3397  0.6284
 1628SOL    HW216104   3.531   4.038   0.128  0.2348 -1.7282 -0.6054
 1629SOL     OW16105   8.866   6.617   6.535  0.2142 -0.5906  0.5366
 1629SOL    HW116106   8.879   6.582   6.442  1.8180 -1.9295  1.2453
 1629SOL    HW216107   8.779   6.582   6.570  0.6459 -1.9182  0.3347
 1630SOL     OW16108   2.910   4.402   1.279  0.1025  0.3939 -0.3217
 1630SOL    HW116109   2.959   4.471   1.226 -0.7692  0.2152 -1.3757
 1630SOL    HW216110   2.814   4.431   1.290 -0.5925 -1.2489 -1.8836
 1631SOL     OW16111   6.628   7.614   3.988 -0.0370  0.0666 -0.3225
 1631SOL    HW116112   6.628   7.708   3.953  0.9992  0.3960  0.5346
 1631SOL    HW216113   6.538   7.594   4.027  0.4184  1.5408  1.5990
 1632SOL     OW16114   8.257   7.290   4.700  0.8284 -0.4561  0.2076
 1632SOL    HW116115   8.234   7.379   4.740  2.8223  0.1357  0.0875
 1632SOL    HW216116   8.192   7.268   4.627 -0.7082  0.0889  1.4018
 1633SOL     OW16117   8.421   6.139   5.747  0.0518  0.3199 -0.2179
 1633SOL    HW116118   8.484   6.168   5.674  0.4151  0.8545  0.2914
 1633SOL    HW216119   8.427   6.040   5.759  0.1158  0.2525 -0.8051
 1634SOL     OW16120   1.098   8.969   4.301 -0.0651 -0.2658  0.5338
 1634SOL    HW116121   1.079   8.990   4.397  1.9192  0.5699  0.7579
 1634SOL    HW216122   1.162   8.892   4.296 -0.1813 -0.3219 -0.1387
 1635SOL     OW16123   2.745   5.612   3.250 -0.4206 -0.3318  0.4617
 1635SOL    HW116124   2.761   5.640   3.155 -2.9332  0.6420  0.2738
 1635SOL    HW216125   2.704   5.520   3.251 -1.7956  0.2666  0.4913
 1636SOL     OW16126   9.913   9.719   3.622 -0.4039 -0.6061  0.3492
 1636SOL    HW116127   9.918   9.629   3.579 -0.1616 -1.2948  1.7709
 1636SOL    HW216128   9.844   9.718   3.694  0.8930 -0.2181  1.6288
 1637SOL     OW16129   2.256   5.485   3.602  0.2220 -0.1288 -0.3429
 1637SOL    HW116130   2.310   5.402   3.618  0.6417 -0.2171 -2.1213
 1637SOL    HW216131   2.159   5.464   3.617  0.1819 -1.3258 -2.1522
 1638SOL     OW16132   7.949   8.137   5.255 -0.2476 -0.6404 -0.1169
 1638SOL    HW116133   7.981   8.230   5.270  0.6785 -0.9548 -0.1119
 1638SOL    HW216134   7.874   8.117   5.317  0.3163 -0.2816  0.6926
 1639SOL     OW16135   7.220   5.051   1.632 -0.5112  0.0462  0.0216
 1639SOL    HW116136   7.305   5.100   1.614  0.1577 -1.7148 -1.7188
 1639SOL    HW216137   7.179   5.020   1.546 -1.4601 -1.5388  1.0159
 1640SOL     OW16138   8.018   0.978   5.899  0.2069 -0.0942 -0.1893
 1640SOL    HW116139   8.101   0.930   5.869 -1.0141 -1.4017 -1.5727
 1640SOL    HW216140   7.972   0.924   5.969 -0.3028 -0.1605 -0.5675
 1641SOL     OW16141   9.660   0.779   0.421 -0.2679  0.1113 -0.1438
 1641SOL    HW116142   9.721   0.858   0.410  0.6231 -0.6976 -1.2059
 1641SOL    HW216143   9.588   0.800   0.486  0.0314  1.7666 -0.3431
 1642SOL     OW16144   7.973   8.831   5.062 -0.3497 -0.3165  0.1659
 1642SOL    HW116145   8.013   8.834   5.153  3.1660 -2.5455 -1.1936
 1642SOL    HW216146   7.894   8.769   5.062 -0.6876  0.1039  1.8019
 1643SOL     OW16147   4.972   2.225   3.935 -0.2753  0.2047  0.3070
 1643SOL    HW116148   4.955   2.236   4.033 -1.8090  1.4521 -0.0770
 1643SOL    HW216149   4.930   2.301   3.886  1.1258 -0.0150 -1.2590
 1644SOL     OW16150   3.336   5.881   2.877  0.0435 -0.6083  0.0606
 1644SOL    HW116151   3.309   5.939   2.800  2.7328  0.6095 -0.0099
 1644SOL    HW216152   3.293   5.791   2.867 -2.5429  0.6994 -0.9184
 1645SOL     OW16153   2.368   1.942   0.993  0.5866  0.4158 -0.5757
 1645SOL    HW116154   2.411   1.949   1.083 -0.3271  0.0925 -0.1068
 1645SOL    HW216155   2.381   1.849   0.957 -1.0356 -0.1655  0.2606
 1646SOL     OW16156   9.006   7.385   3.141  0.3245  0.0151 -0.0336
 1646SOL    HW116157   9.065   7.393   3.060 -0.9075 -1.1357 -1.0690
 1646SOL    HW216158   8.953   7.300   3.135 -0.6388  0.5046  1.4046
 1647SOL     OW16159   8.376   7.174   3.868  0.2211  0.0088 -0.0660
 1647SOL    HW116160   8.452   7.237   3.886  0.6344 -0.2748 -0.7851
 1647SOL    HW216161   8.403   7.081   3.892 -0.2642  0.0515  0.6601
 1648SOL     OW16162   8.524   5.892   6.240  0.1604  0.1075 -0.2227
 1648SOL    HW116163   8.434   5.868   6.278  0.6709 -0.9882  0.3221
 1648SOL    HW216164   8.537   5.845   6.152 -0.7319  2.0833 -1.4296
 1649SOL     OW16165   2.439   6.020   6.714  0.2970  0.3691  0.1303
 1649SOL    HW116166   2.353   5.975   6.691  0.5026 -0.0705  0.2204
 1649SOL    HW216167   2.516   5.967   6.677  0.6269 -0.3119  1.7541
 1650SOL     OW16168   8.358   3.751   0.522 -0.3770  0.0911  0.0134
 1650SOL    HW116169   8.265   3.719   0.506 -0.2108 -0.0070 -0.7600
 1650SOL    HW216170   8.413   3.678   0.562 -0.5580  0.0649  0.2131
 1651SOL     OW16171   7.202   1.632   0.649 -0.3646 -0.8434  0.1601
 1651SOL    HW116172   7.155   1.714   0.682  0.2572 -0.2473 -0.4202
 1651SOL    HW216173   7.221   1.571   0.726  1.8934  0.9431  1.0607
 1652SOL     OW16174   2.389   3.657   1.805 -0.5151 -0.9144 -0.0060
 1652SOL    HW116175   2.404   3.736   1.865 -0.0887  0.2570 -1.6351
 1652SOL    HW216176   2.421   3.678   1.713 -2.0269 -2.3650 -0.8910
 1653SOL     OW16177   3.897   3.796   1.977 -0.1562  0.3281 -0.4302
 1653SOL    HW116178   3.985   3.816   2.022  0.5295  0.8578 -1.9617
 1653SOL    HW216179   3.887   3.697   1.966  0.3657  0.2717 -0.4491
 1654SOL     OW16180   0.123   1.219   0.312 -0.3831  0.3271 -0.0797
 1654SOL    HW116181   0.154   1.184   0.223  0.3508 -0.4272  0.4697
 1654SOL    HW216182   0.112   1.318   0.306 -0.4596  0.2629 -1.0532
 1655SOL     OW16183   2.535   3.096   6.203 -0.7951 -0.4806 -0.2161
 1655SOL    HW116184   2.444   3.091   6.244 -0.6263 -1.9681  0.0071
 1655SOL    HW216185   2.599   3.042   6.257  0.1321  0.2068 -0.6189
 1656SOL     OW16186   0.980   4.269   3.533  0.0686  0.3514  0.3208
 1656SOL    HW116187   0.984   4.175   3.568 -0.5021  0.7640  1.5157
 1656SOL    HW216188   0.926   4.270   3.449  1.4143 -0.6449 -0.5586
 1657SOL     OW16189   1.393   8.489   0.468 -0.0891 -0.6654  0.7289
 1657SOL    HW116190   1.318   8.478   0.402 -0.2773  3.3380  0.1861
 1657SOL    HW216191   1.464   8.422   0.449 -0.2658  0.2077 -3.3779
 1658SOL     OW16192   0.117   9.041   6.586 -0.6334  0.0083  0.2213
 1658SOL    HW116193   0.107   9.050   6.487  0.0678  1.3735  0.2618
 1658SOL    HW216194   0.088   8.949   6.614 -1.8771 -0.0341 -1.1008
 1659SOL     OW16195   4.156   0.405   1.464 -0.7264 -0.0596  0.1075
 1659SOL    HW116196   4.200   0.485   1.506 -1.8747  0.2599  0.7180
 1659SOL    HW216197   4.173   0.406   1.365 -0.7693  0.9685  0.1030
 1660SOL     OW16198   0.884   6.665   1.220 -0.1759  0.3108  0.2831
 1660SOL    HW116199   0.799   6.712   1.199  0.7287  2.4856  1.2751
 1660SOL    HW216200   0.916   6.694   1.310  0.1207 -2.7126  1.2239
 1661SOL     OW16201   6.082   7.693   3.679  0.2260  0.2896  0.4507
 1661SOL    HW116202   6.096   7.601   3.714 -0.9547 -1.7960 -4.0928
 1661SOL    HW216203   6.170   7.735   3.657  0.6691 -0.7923  0.1509
 1662SOL     OW16204   1.075   3.348   6.192  0.3389  0.2010 -0.1057
 1662SOL    HW116205   1.020   3.367   6.273 -1.4582 -3.0202 -0.5016
 1662SOL    HW216206   1.166   3.317   6.220 -0.6422 -2.0162  0.7609
 1663SOL     OW16207   7.208   1.430   0.815 -0.7045 -0.1515  0.6320
 1663SOL    HW116208   7.197   1.402   0.910 -1.0187  0.6955  0.8473
 1663SOL    HW216209   7.211   1.348   0.757  2.3500 -0.8385  1.6410
 1664SOL     OW16210   1.576   9.359   0.987  0.9026  0.0349 -0.4790
 1664SOL    HW116211   1.508   9.429   1.010  1.4382 -0.3173  2.3345
 1664SOL    HW216212   1.531   9.284   0.938 -0.4808  0.4851  0.0693
 1665SOL     OW16213   3.100   5.462   1.167 -0.1502  0.2873  0.8222
 1665SOL    HW116214   3.106   5.537   1.232 -1.4660  0.6084  0.5808
 1665SOL    HW216215   3.012   5.465   1.120  0.4104 -0.4873 -0.3090
 1666SOL     OW16216   4.138   4.790   1.909  0.2386 -0.1474 -0.1221
 1666SOL    HW116217   4.155   4.695   1.885  0.9746  0.0149 -0.2624
 1666SOL    HW216218   4.150   4.802   2.007  1.0520 -0.0191 -0.2293
 1667SOL     OW16219   9.695   8.408   1.247 -0.5540  0.3437 -0.0900
 1667SOL    HW116220   9.654   8.464   1.175  0.1613 -0.2488 -0.9607
 1667SOL    HW216221   9.765   8.348   1.208 -0.1327  0.0371  1.0988
 1668SOL     OW16222   7.315   0.627   6.201  0.4060 -0.1511 -0.3218
 1668SOL    HW116223   7.280   0.535   6.183  0.9140 -1.0055  2.7974
 1668SOL    HW216224   7.240   0.686   6.232  0.4208  0.0008 -0.5697
 1669SOL     OW16225   2.418   4.079   4.330 -0.2006  0.0177 -0.1513
 1669SOL    HW116226   2.362   4.136   4.391  0.3271  0.2541  0.1106
 1669SOL    HW216227   2.514   4.091   4.353 -0.0941 -1.0273 -0.0504
 1670SOL     OW16228   2.580   3.746   0.585  0.0801 -0.7176 -0.6765
 1670SOL    HW116229   2.537   3.656   0.585  0.9172 -1.1159  0.6002
 1670SOL    HW216230   2.679   3.737   0.594  0.2144  0.3080 -1.0131
 1671SOL     OW16231   0.708   4.047   0.789 -0.5411  0.4697  0.5483
 1671SOL    HW116232   0.628   4.037   0.731 -0.6136  0.6692  0.6143
 1671SOL    HW216233   0.721   4.144   0.812 -1.7976  0.1617  2.6827
 1672SOL     OW16234   2.259   4.551   2.060 -0.3312 -0.6876  0.0770
 1672SOL    HW116235   2.218   4.624   2.005  2.7137 -0.4748 -2.0145
 1672SOL    HW216236   2.273   4.584   2.154 -0.4691  0.8337 -0.4247
 1673SOL     OW16237   3.503   0.231   2.688 -0.0586  0.3593 -0.5647
 1673SOL    HW116238   3.541   0.225   2.596  0.2940  1.9617 -0.5443
 1673SOL    HW216239   3.526   0.320   2.728  1.9217 -1.2550  2.0185
 1674SOL     OW16240   5.166   1.883   3.301  1.2119  0.5772  0.0821
 1674SOL    HW116241   5.099   1.877   3.227  0.5234 -0.2478  0.7723
 1674SOL    HW216242   5.140   1.955   3.365 -0.7483 -1.7910  2.0536
 1675SOL     OW16243   9.017   0.736   1.210 -0.2696  0.2993 -0.1372
 1675SOL    HW116244   9.068   0.798   1.149  0.2953  0.8810  0.9056
 1675SOL    HW216245   8.926   0.774   1.227  0.6832  1.7530  1.8859
 1676SOL     OW16246   3.780   0.705   1.274  0.5743  0.2139  0.1062
 1676SOL    HW116247   3.753   0.745   1.361 -1.1227 -1.5024  0.4211
 1676SOL    HW216248   3.795   0.777   1.206 -0.5578  1.4494  1.1543
 1677SOL     OW16249   0.701   0.102   3.263  0.0473  0.4987  0.1394
 1677SOL    HW116250   0.773   0.170   3.274 -1.2003  1.6197  1.3903
 1677SOL    HW216251   0.676   0.065   3.352  0.3692 -1.2682 -0.4750
 1678SOL     OW16252   8.318   3.843   2.388  0.2743  0.3633 -0.5255
 1678SOL    HW116253   8.236   3.811   2.436  1.1916 -0.0274  0.7995
 1678SOL    HW216254   8.353   3.925   2.434  1.7908 -0.6573  0.1408
 1679SOL     OW16255   2.688   7.319   4.947 -0.0698 -0.1272 -0.2563
 1679SOL    HW116256   2.715   7.341   4.853  0.2557 -1.5165 -0.5065
 1679SOL    HW216257   2.768   7.323   5.006  0.5234 -3.1059 -0.7827
 1680SOL     OW16258   2.656   2.343   6.083  0.2974  0.1277 -0.0822
 1680SOL    HW116259   2.583   2.411   6.068 -0.0624 -0.2548 -0.0766
 1680SOL    HW216260   2.719   2.377   6.152  1.0341  1.1805 -1.2547
 1681SOL     OW16261   4.382   5.669   2.072 -0.0726  0.4589 -0.1806
 1681SOL    HW116262   4.479   5.665   2.048 -0.1543 -0.3555 -0.4187
 1681SOL    HW216263   4.369   5.722   2.155  0.5811  0.5749 -0.1562
 1682SOL     OW16264   1.382   2.208   2.771 -0.5145  0.2578 -0.0654
 1682SOL    HW116265   1.439   2.215   2.689 -2.1722  0.3465 -1.2439
 1682SOL    HW216266   1.421   2.140   2.833  0.7557  0.1865 -0.9141
 1683SOL     OW16267   3.173   4.076   4.902 -0.1137  0.0051  0.3184
 1683SOL    HW116268   3.134   4.132   4.828 -1.2882 -1.7231 -0.3777
 1683SOL    HW216269   3.101   4.026   4.948  1.0195 -1.5827  0.4030
 1684SOL     OW16270   1.730   9.017   5.970 -0.5373 -0.1252 -0.4245
 1684SOL    HW116271   1.770   9.018   5.878  0.2965 -2.2811 -0.1288
 1684SOL    HW216272   1.653   9.080   5.973  0.8966  1.7597 -1.9130
 1685SOL     OW16273   5.208   8.125   4.936  0.0538  0.1232  0.3429
 1685SOL    HW116274   5.181   8.045   4.990  0.8352 -1.3272 -1.3644
 1685SOL    HW216275   5.307   8.131   4.933  0.0105  0.5990 -0.3086
 1686SOL     OW16276   2.540   8.853   4.415  0.3794 -0.3360 -0.4644
 1686SOL    HW116277   2.565   8.893   4.503 -2.3092  0.1833  0.1251
 1686SOL    HW216278   2.502   8.923   4.355  4.3388 -0.1975 -3.0075
 1687SOL     OW16279   1.171   5.548   2.312  0.0287  0.3364  0.1303
 1687SOL    HW116280   1.212   5.474   2.258 -0.1000  0.9677 -0.8348
 1687SOL    HW216281   1.219   5.555   2.399  1.6521  0.7254 -0.7738
 1688SOL     OW16282   2.934   7.592   3.053  0.4515 -0.1502 -0.4832
 1688SOL    HW116283   2.999   7.666   3.036 -0.8435  1.6262  1.8948
 1688SOL    HW216284   2.983   7.512   3.087  1.6134  0.4815 -0.6537
 1689SOL     OW16285   4.731   9.629   1.100 -0.0942  0.5046 -0.1176
 1689SOL    HW116286   4.705   9.619   1.195 -0.2565  1.8169 -0.0107
 1689SOL    HW216287   4.808   9.693   1.093  0.0865  0.2184 -0.8412
 1690SOL     OW16288   8.435   1.600   0.456 -0.1964  0.8956 -0.0478
 1690SOL    HW116289   8.517   1.544   0.470 -0.2392  0.5943 -0.9661
 1690SOL    HW216290   8.354   1.548   0.482 -0.0960  1.2265  0.9494
 1691SOL     OW16291   2.986   1.485   3.768  0.1600 -0.2375 -1.1938
 1691SOL    HW116292   2.982   1.418   3.842 -1.5679 -0.2746 -1.2957
 1691SOL    HW216293   3.054   1.457   3.701  2.7150  0.4535  0.9897
 1692SOL     OW16294   2.991   0.873   3.489  0.5288  0.2766 -0.1698
 1692SOL    HW116295   2.926   0.802   3.463  2.0212 -0.3212 -2.3554
 1692SOL    HW216296   3.071   0.869   3.430  0.7634  3.6552 -0.1921
 1693SOL     OW16297   1.816   8.064   3.609 -0.1234  0.3980  0.0791
 1693SOL    HW116298   1.868   8.121   3.673  1.5469 -0.2839 -0.6363
 1693SOL    HW216299   1.820   7.969   3.639 -0.2221  0.2254 -0.4505
 1694SOL     OW16300   2.458   9.948   6.723  0.0163  0.1118 -0.5489
 1694SOL    HW116301   2.535   9.980   6.666  0.1866 -1.7146 -1.3920
 1694SOL    HW216302   2.432  10.020   6.787  3.4148  0.2571  0.7861
 1695SOL     OW16303   3.077   1.402   1.117 -0.1729  0.2279  0.6624
 1695SOL    HW116304   3.055   1.394   1.214 -3.1525 -1.0356 -0.0647
 1695SOL    HW216305   3.040   1.488   1.081 -0.3599  0.0181  0.3454
 1696SOL     OW16306   8.543   3.668   3.289  0.0799 -0.3899 -0.0515
 1696SOL    HW116307   8.571   3.613   3.368  0.0047 -0.1975  0.1081
 1696SOL    HW216308   8.469   3.730   3.315 -1.1818 -1.5973 -0.7216
 1697SOL     OW16309   6.868   8.492   2.083 -0.0441 -0.2856  0.0940
 1697SOL    HW116310   6.938   8.450   2.140 -1.0088 -1.2890  0.5787
 1697SOL    HW216311   6.899   8.581   2.050  1.5430 -0.8242  0.0999
 1698SOL     OW16312   2.486   8.073   3.277 -0.6845 -0.4982 -0.0025
 1698SOL    HW116313   2.529   8.065   3.367 -1.2959 -0.3289  0.3097
 1698SOL    HW216314   2.543   8.128   3.217  1.4623 -3.4532 -0.8247
 1699SOL     OW16315   9.226   7.161   6.274  0.2994 -0.0504 -0.2244
 1699SOL    HW116316   9.272   7.086   6.322 -0.6507 -0.3128  0.2815
 1699SOL    HW216317   9.285   7.194   6.200  2.1546  0.9186  1.6410
 1700SOL     OW16318   2.657   5.966   2.156  0.2104 -0.5772 -0.1814
 1700SOL    HW116319   2.710   6.019   2.222  0.0992 -2.2699  1.3114
 1700SOL    HW216320   2.702   5.879   2.140  0.0598 -0.3070 -2.1372
 1701SOL     OW16321   8.931   0.630   2.327  0.1028  0.1306 -0.0155
 1701SOL    HW116322   8.958   0.539   2.360 -0.1690  0.4747  1.1690
 1701SOL    HW216323   9.007   0.694   2.339  0.1598  0.1504 -0.4810
 1702SOL     OW16324   4.552   4.430   4.058  0.1614  0.4906 -0.6892
 1702SOL    HW116325   4.579   4.342   4.019  0.6288  0.6502 -0.7341
 1702SOL    HW216326   4.472   4.465   4.009 -1.8218 -1.2493  1.1865
 1703SOL     OW16327   3.635   1.313   3.835  0.1754  0.0698 -0.8771
 1703SOL    HW116328   3.555   1.371   3.839 -1.1393 -1.6355 -1.7067
 1703SOL    HW216329   3.642   1.271   3.744  0.5280 -1.7885 -0.0324
 1704SOL     OW16330   2.246   5.558   1.876  0.4232  0.4099 -0.5034
 1704SOL    HW116331   2.245   5.482   1.811  2.6733 -0.5238  0.5105
 1704SOL    HW216332   2.189   5.633   1.841 -1.1130 -1.3727 -1.9368
 1705SOL     OW16333   9.670   5.173   3.098  0.5688  0.1412  0.1530
 1705SOL    HW116334   9.729   5.243   3.138  1.1097 -0.5076  0.4963
 1705SOL    HW216335   9.618   5.127   3.169  1.6129 -1.0857  0.1326
 1706SOL     OW16336   9.706   8.409   4.046 -0.5143 -0.2292  0.4377
 1706SOL    HW116337   9.802   8.419   4.073 -0.3251 -1.7695  0.3584
 1706SOL    HW216338   9.659   8.347   4.109 -1.2915 -0.0341  0.0633
 1707SOL     OW16339   2.033   2.791   0.809  0.3942 -0.0486  0.2996
 1707SOL    HW116340   2.062   2.721   0.744  0.6784  1.1445 -0.8890
 1707SOL    HW216341   2.072   2.770   0.899  1.1236 -0.9921 -0.2178
 1708SOL     OW16342   2.689   9.281   2.285  0.1279  0.2440 -0.3977
 1708SOL    HW116343   2.686   9.350   2.358  1.3676  0.1192 -0.2162
 1708SOL    HW216344   2.741   9.201   2.317 -2.1282 -1.2176 -0.2373
 1709SOL     OW16345   9.719   0.679   0.122  0.0799 -0.1290  0.5154
 1709SOL    HW116346   9.719   0.762   0.066  1.4175 -0.7020 -0.3693
 1709SOL    HW216347   9.727   0.704   0.218  1.0605  0.7622  0.2206
 1710SOL     OW16348   9.578   7.121   6.144  0.2583  0.0363  0.2196
 1710SOL    HW116349   9.607   7.033   6.178  0.6603 -0.2786 -0.9052
 1710SOL    HW216350   9.607   7.131   6.048  1.4364  1.9484  0.7505
 1711SOL     OW16351   0.342   6.903   1.419  0.4016 -0.1959  0.0869
 1711SOL    HW116352   0.287   6.933   1.497  0.1762 -1.2603  0.3443
 1711SOL    HW216353   0.307   6.946   1.336 -0.5612 -0.5422  0.3055
 1712SOL     OW16354   7.096   5.875   6.469 -0.9923 -0.0381 -0.2862
 1712SOL    HW116355   7.184   5.916   6.492  0.0005 -1.4598 -1.4654
 1712SOL    HW216356   7.048   5.849   6.554 -0.2548  0.6744  0.3553
 1713SOL     OW16357   1.837   8.085   6.422  0.1512 -0.0838  0.0991
 1713SOL    HW116358   1.882   8.045   6.342  0.2672 -2.7068  1.4173
 1713SOL    HW216359   1.739   8.063   6.420  0.3352 -1.0527  1.1811
 1714SOL     OW16360   3.443   5.327   6.015  0.1375  0.4166 -0.0961
 1714SOL    HW116361   3.469   5.421   5.991 -1.6335  0.5553 -1.5567
 1714SOL    HW216362   3.360   5.302   5.967  0.6896 -1.9944  0.1362
 1715SOL     OW16363   6.871   2.662   5.186 -0.0092 -0.1554 -0.0684
 1715SOL    HW116364   6.896   2.663   5.089  0.3751  1.0285  0.0364
 1715SOL    HW216365   6.806   2.588   5.202 -0.4758 -0.0353 -1.3294
 1716SOL     OW16366   9.854   8.988   4.364 -0.0537  0.6025 -0.8431
 1716SOL    HW116367   9.790   9.032   4.300 -0.1899  1.0190 -0.4175
 1716SOL    HW216368   9.937   9.043   4.372 -0.8412  1.5707  0.8448
 1717SOL     OW16369   7.477   6.588   6.482  0.5057  0.5000  0.5194
 1717SOL    HW116370   7.407   6.586   6.412  0.0448  1.2361  0.9473
 1717SOL    HW216371   7.543   6.515   6.467  0.6555  0.9295 -0.9397
 1718SOL     OW16372   2.815   1.076   6.634  0.1700 -0.2255  0.2801
 1718SOL    HW116373   2.740   1.119   6.583  0.7475 -1.8740 -2.0815
 1718SOL    HW216374   2.843   0.993   6.586  3.5380  0.3932  1.0709
 1719SOL     OW16375   2.360   8.704   5.716 -0.3755  0.1256 -0.0616
 1719SOL    HW116376   2.289   8.653   5.666 -0.9933 -0.2063  1.1454
 1719SOL    HW216377   2.445   8.652   5.714  0.4471  1.4370 -3.2546
 1720SOL     OW16378   9.199   2.830   1.857 -0.7162  0.2237 -0.1488
 1720SOL    HW116379   9.260   2.789   1.789 -0.0047 -1.2747  1.3675
 1720SOL    HW216380   9.245   2.910   1.897 -0.3094 -0.0962  0.0257
 1721SOL     OW16381   0.033   6.926   3.352 -0.1787  0.2077 -0.3734
 1721SOL    HW116382   0.071   6.838   3.384 -0.0096  0.4508  0.1074
 1721SOL    HW216383   0.034   6.928   3.253  0.5544 -0.0193 -0.3776
 1722SOL     OW16384   5.608   4.703   1.294 -0.6598  0.4365  0.1533
 1722SOL    HW116385   5.519   4.730   1.257 -0.7788 -0.3369 -0.1403
 1722SOL    HW216386   5.611   4.603   1.302  0.3501  0.4310 -0.2631
 1723SOL     OW16387   9.511   9.316   6.318 -0.1293  0.0508  0.1535
 1723SOL    HW116388   9.584   9.296   6.383  0.0589  1.1893  0.3053
 1723SOL    HW216389   9.426   9.273   6.349  0.6719 -1.9950 -0.4808
 1724SOL     OW16390   7.595   4.096   1.621 -0.5795  0.5027 -0.0215
 1724SOL    HW116391   7.513   4.040   1.607  0.0520 -1.3584  3.2601
 1724SOL    HW216392   7.585   4.151   1.704  1.7092 -0.1684  0.7417
 1725SOL     OW16393   7.382   4.340   1.631  0.3479  0.2557  0.2764
 1725SOL    HW116394   7.405   4.322   1.726  1.0392 -1.3561 -0.1804
 1725SOL    HW216395   7.466   4.341   1.576 -0.0133  1.4893 -0.2665
 1726SOL     OW16396   6.558   9.548   2.905 -0.6359 -0.4178  0.2322
 1726SOL    HW116397   6.626   9.580   2.970  0.1301 -1.3583 -0.1052
 1726SOL    HW216398   6.490   9.492   2.952 -1.4304  0.8510  0.6437
 1727SOL     OW16399   0.144   8.715   3.104  0.1308  0.5662 -0.2845
 1727SOL    HW116400   0.220   8.780   3.095  0.0110  0.7924  0.3704
 1727SOL    HW216401   0.167   8.646   3.172 -0.1889  0.5441 -0.1983
 1728SOL     OW16402   9.718   9.345   6.100  0.3427  0.3655  0.1422
 1728SOL    HW116403   9.810   9.320   6.132 -0.6806 -1.3662  1.7991
 1728SOL    HW216404   9.655   9.348   6.178 -1.6810 -1.5428 -1.3639
 1729SOL     OW16405   6.289   6.593   5.721  0.5258  0.3893  0.0323
 1729SOL    HW116406   6.250   6.558   5.806 -1.0225 -1.7067 -1.4979
 1729SOL    HW216407   6.388   6.596   5.729  0.4813 -1.1008  1.4308
 1730SOL     OW16408   1.389   9.306   1.573  0.6942  0.0132  0.0234
 1730SOL    HW116409   1.340   9.393   1.583  0.6035  0.0559 -0.7948
 1730SOL    HW216410   1.413   9.272   1.664  1.4600  1.3081  0.3277
 1731SOL     OW16411   2.115   7.279   2.798 -0.0273 -0.0805  0.3340
 1731SOL    HW116412   2.052   7.284   2.875 -0.0533 -2.0216  0.4718
 1731SOL    HW216413   2.138   7.183   2.780  1.3909  0.4698 -0.9250
 1732SOL     OW16414   0.835   2.919   0.322  0.6136  0.3131  0.6590
 1732SOL    HW116415   0.764   2.897   0.254  0.8612  3.5857 -0.7600
 1732SOL    HW216416   0.792   2.938   0.410 -0.2698  1.5853 -0.0198
 1733SOL     OW16417   3.835   5.555   0.040 -0.6196 -0.1473  0.1406
 1733SOL    HW116418   3.752   5.571  -0.013  0.7117 -0.7265 -2.1723
 1733SOL    HW216419   3.826   5.468   0.090 -1.6506  0.1248  0.4379
 1734SOL     OW16420   1.865   0.475   5.431 -0.0736 -0.0726  0.4521
 1734SOL    HW116421   1.800   0.403   5.409  0.8409 -0.1387 -2.3206
 1734SOL    HW216422   1.846   0.555   5.374  1.1470  0.5591  0.9112
 1735SOL     OW16423   3.211   1.023   0.060 -0.0742  0.7496  0.0118
 1735SOL    HW116424   3.204   0.970   0.145  0.4074  0.2959 -0.2251
 1735SOL    HW216425   3.128   1.076   0.046 -1.1205 -0.9605 -0.4023
 1736SOL     OW16426   8.123   6.932   0.952 -0.3357  0.1791 -0.0525
 1736SOL    HW116427   8.117   6.883   1.039  1.0151 -0.5390 -0.3519
 1736SOL    HW216428   8.118   7.030   0.968  0.6613  0.0817  0.9131
 1737SOL     OW16429   1.601   7.256   2.918  0.3714 -0.1318  0.0056
 1737SOL    HW116430   1.648   7.244   3.005 -0.0864 -1.7872  0.0306
 1737SOL    HW216431   1.510   7.296   2.935  0.5056  0.0797  0.2297
 1738SOL     OW16432   3.982   1.249   2.385 -0.2659 -0.2158  0.0074
 1738SOL    HW116433   4.079   1.236   2.403  0.0318  0.4713 -1.1078
 1738SOL    HW216434   3.970   1.299   2.300 -1.6227 -1.4205 -0.5297
 1739SOL     OW16435   2.050   0.977   0.730 -0.2547  0.1718  0.2801
 1739SOL    HW116436   2.058   0.880   0.705 -0.7265  0.3138 -0.4275
 1739SOL    HW216437   2.070   0.987   0.828 -0.9731 -0.7544  0.5360
 1740SOL     OW16438   2.645   3.598   1.957  0.2537  0.2634  0.4078
 1740SOL    HW116439   2.570   3.661   1.977  0.1829  0.2482  0.1992
 1740SOL    HW216440   2.674   3.610   1.862 -0.3331 -0.6042  0.1002
 1741SOL     OW16441   5.477   2.105   3.559  0.1566  0.1696  0.0547
 1741SOL    HW116442   5.503   2.198   3.586 -1.0589  1.0434 -1.6479
 1741SOL    HW216443   5.412   2.068   3.625 -0.3245  1.0264  0.0697
 1742SOL     OW16444   2.003   9.992   5.401 -0.0624  0.0780  0.1389
 1742SOL    HW116445   1.923   9.953   5.355 -0.7535  0.1750  1.2497
 1742SOL    HW216446   2.086   9.955   5.360 -0.7075 -2.1182  0.7873
 1743SOL     OW16447   1.969   9.248   0.133  0.3805 -0.2030 -0.1098
 1743SOL    HW116448   1.971   9.240   0.034 -0.5089  1.6500 -0.2980
 1743SOL    HW216449   1.886   9.204   0.169 -0.1778  0.6488 -0.3509
 1744SOL     OW16450   3.213   4.798   1.345  0.3432  0.3412  0.6211
 1744SOL    HW116451   3.157   4.840   1.416 -1.2839  0.4292 -0.6859
 1744SOL    HW216452   3.161   4.794   1.260  2.4671  0.7843 -0.7309
 1745SOL     OW16453   3.387   5.975   1.694  0.0849  0.1036  0.4649
 1745SOL    HW116454   3.305   5.945   1.744 -0.1495 -0.9077 -0.5047
 1745SOL    HW216455   3.367   6.062   1.648  0.3432  1.1058  2.1969
 1746SOL     OW16456   9.699   9.490   3.490 -0.2708  0.3697 -1.2880
 1746SOL    HW116457   9.607   9.466   3.460 -1.1336  2.2860 -0.2752
 1746SOL    HW216458   9.765   9.467   3.419 -1.5005 -1.1802 -1.9536
 1747SOL     OW16459   0.313   5.611   5.983 -0.2700 -0.2407 -0.1821
 1747SOL    HW116460   0.231   5.579   5.937 -1.5594 -0.7493  2.3780
 1747SOL    HW216461   0.307   5.709   5.999 -1.2876 -0.5955  1.7283
 1748SOL     OW16462   9.269   0.184   2.577 -0.2544 -0.2235  0.0046
 1748SOL    HW116463   9.283   0.252   2.505 -0.3347 -0.0180  0.1832
 1748SOL    HW216464   9.177   0.146   2.569  0.6624 -2.1669 -1.6713
 1749SOL     OW16465   7.543   3.821   1.084  0.8602 -0.5947 -0.1983
 1749SOL    HW116466   7.554   3.731   1.124  0.5537 -0.5221  0.0584
 1749SOL    HW216467   7.489   3.878   1.146 -0.0015 -0.6224 -0.9136
 1750SOL     OW16468   5.806   7.734   2.867 -0.2966  0.3804  0.8971
 1750SOL    HW116469   5.818   7.829   2.895  0.1942  0.2489  1.1426
 1750SOL    HW216470   5.895   7.694   2.845 -0.9460  1.4268 -4.0994
 1751SOL     OW16471   0.256   3.047   4.310 -0.3153  0.1200 -0.0013
 1751SOL    HW116472   0.342   3.004   4.336 -1.3427 -1.3912  1.0292
 1751SOL    HW216473   0.241   3.037   4.212 -0.3558 -1.5528  0.1701
 1752SOL     OW16474   3.193   6.353   0.151  0.6176 -0.0381 -0.3753
 1752SOL    HW116475   3.103   6.394   0.167  0.7848 -0.0599  0.6602
 1752SOL    HW216476   3.259   6.424   0.128  1.3568  0.5734  3.3407
 1753SOL     OW16477   9.982   5.538   0.572  0.1956  0.1466  0.5138
 1753SOL    HW116478   9.901   5.480   0.566  0.4410 -0.0168 -1.8100
 1753SOL    HW216479   9.955   5.634   0.568  0.1530  0.0794 -0.8969
 1754SOL     OW16480   2.907   4.723   5.963 -0.0564  0.2069  0.2146
 1754SOL    HW116481   2.995   4.678   5.948  0.4338  1.2417 -0.0885
 1754SOL    HW216482   2.846   4.705   5.885 -1.0372 -2.5944  1.5590
 1755SOL     OW16483   8.655   7.060   1.776  0.4870 -0.2143 -0.3557
 1755SOL    HW116484   8.639   7.094   1.869 -0.4939 -0.2712 -0.4972
 1755SOL    HW216485   8.662   6.960   1.778  0.9543 -0.1798 -0.2746
 1756SOL     OW16486   8.024   5.661   4.922  0.0477  0.8063 -0.1221
 1756SOL    HW116487   8.103   5.640   4.865 -0.1955  1.3991 -0.6833
 1756SOL    HW216488   8.035   5.752   4.964  0.1876  0.4094  0.7127
 1757SOL     OW16489   1.412   0.783   5.152  0.0904  0.1338  0.2732
 1757SOL    HW116490   1.465   0.795   5.068 -0.6462 -2.3493 -0.5996
 1757SOL    HW216491   1.360   0.866   5.171  2.8596  1.9684  0.1659
 1758SOL     OW16492   4.473   1.468   3.087  0.0566 -0.1403 -0.1244
 1758SOL    HW116493   4.489   1.403   3.161 -1.1732 -0.2825  0.0181
 1758SOL    HW216494   4.379   1.460   3.055 -0.6363  2.7458  1.0458
 1759SOL     OW16495   0.678   0.671   4.859 -0.3778  0.0405  0.8521
 1759SOL    HW116496   0.689   0.612   4.938  2.5938 -1.0100 -0.2671
 1759SOL    HW216497   0.765   0.716   4.839 -0.8976 -0.1821 -2.1324
 1760SOL     OW16498   3.723   1.658   2.512  0.2960  0.0617  0.3772
 1760SOL    HW116499   3.728   1.745   2.463  0.3706 -0.7522 -1.0844
 1760SOL    HW216500   3.813   1.615   2.513 -0.0774 -0.7374 -0.2761
 1761SOL     OW16501   8.294   8.745   2.983 -0.4771 -0.0112  0.3577
 1761SOL    HW116502   8.334   8.661   3.019  0.9046  0.6008  0.2931
 1761SOL    HW216503   8.367   8.809   2.960 -1.4103  0.2702 -1.9206
 1762SOL     OW16504   8.085   1.648   0.644  0.0748  0.3315  0.6600
 1762SOL    HW116505   8.110   1.741   0.670  0.2031  0.1119  1.3314
 1762SOL    HW216506   8.164   1.588   0.654 -0.3048 -0.0664  1.3028
 1763SOL     OW16507   3.445   0.232   0.781 -0.3419  0.2255  0.0556
 1763SOL    HW116508   3.353   0.197   0.799  0.0399 -1.2082 -0.6407
 1763SOL    HW216509   3.513   0.169   0.821  0.3351  1.0505  0.2169
 1764SOL     OW16510   7.361   4.907   1.243 -0.3059  0.2438 -0.1747
 1764SOL    HW116511   7.323   4.930   1.332 -0.0251  0.4692 -0.1141
 1764SOL    HW216512   7.427   4.977   1.214  0.2706 -0.2767 -0.1530
 1765SOL     OW16513   7.577   3.425   1.822 -0.5213 -0.5532  0.5882
 1765SOL    HW116514   7.520   3.456   1.897 -1.0471 -0.4745  0.1554
 1765SOL    HW216515   7.521   3.375   1.756 -0.5737  1.6298 -1.0766
 1766SOL     OW16516   1.745   2.104   5.203  0.0088  0.1277 -0.0293
 1766SOL    HW116517   1.786   2.090   5.293 -1.7525 -0.1643  0.7478
 1766SOL    HW216518   1.750   2.019   5.150  0.8437  0.2387 -0.1413
 1767SOL     OW16519   1.758   3.293   6.393  0.1304  0.3592 -0.2246
 1767SOL    HW116520   1.752   3.307   6.295 -4.3445 -0.9535 -0.2371
 1767SOL    HW216521   1.694   3.353   6.440  1.5149  0.2918  1.8408
 1768SOL     OW16522   8.616   7.514   5.669  0.2847  0.2122 -0.1302
 1768SOL    HW116523   8.709   7.482   5.688 -0.2202 -0.1890  1.7355
 1768SOL    HW216524   8.599   7.507   5.570  1.4320 -1.9315 -0.2235
 1769SOL     OW16525   0.034   1.086   1.041 -0.5941  0.2206 -0.3280
 1769SOL    HW116526   0.112   1.128   0.995 -0.2361 -0.0198  0.0539
 1769SOL    HW216527   0.037   0.987   1.027  0.0309  0.0430  0.9699
 1770SOL     OW16528   3.808   3.968   1.781  0.1828 -0.2940 -0.1240
 1770SOL    HW116529   3.841   3.934   1.870  0.0990  0.1380  0.0764
 1770SOL    HW216530   3.874   3.946   1.710 -0.0556 -1.2131 -0.0612
 1771SOL     OW16531   1.047   5.338   4.932 -0.1262  0.8667  0.5467
 1771SOL    HW116532   0.991   5.305   5.007 -0.8387  2.2009  0.6254
 1771SOL    HW216533   1.109   5.409   4.965  1.0607 -0.0483  0.2988
 1772SOL     OW16534   8.167   9.504   0.002  0.0301 -0.1879 -0.6901
 1772SOL    HW116535   8.247   9.561   0.019 -1.1645  1.0247  1.0909
 1772SOL    HW216536   8.189   9.409   0.023  0.7093  0.2856  0.8293
 1773SOL     OW16537   3.468   1.079   6.100 -0.7115 -0.4851 -0.4353
 1773SOL    HW116538   3.417   1.127   6.172 -0.2933 -0.2945 -0.2623
 1773SOL    HW216539   3.432   0.987   6.089 -0.1815 -0.8360  0.6626
 1774SOL     OW16540   2.707   3.811   3.307 -0.2483 -0.1771 -0.0098
 1774SOL    HW116541   2.765   3.833   3.228 -0.5042 -0.9720 -0.4199
 1774SOL    HW216542   2.624   3.767   3.277 -1.6828  2.0874  0.4826
 1775SOL     OW16543   2.887   8.188   4.459  0.1215  0.6276  0.1864
 1775SOL    HW116544   2.856   8.165   4.551  1.0597  1.0674  0.6256
 1775SOL    HW216545   2.834   8.265   4.423 -0.7403 -0.0228  0.0662
 1776SOL     OW16546   7.291   4.771   1.697 -0.4590 -0.1122  0.0382
 1776SOL    HW116547   7.238   4.732   1.773 -0.9860 -1.4216 -0.9718
 1776SOL    HW216548   7.245   4.853   1.663 -1.4860 -0.8367 -0.3638
 1777SOL     OW16549   1.601   7.891   2.635  0.4647 -0.0591 -0.0308
 1777SOL    HW116550   1.534   7.817   2.630  0.9736 -0.5835  0.7979
 1777SOL    HW216551   1.554   7.978   2.652 -0.2083 -0.0477 -1.8032
 1778SOL     OW16552   5.356   8.666   4.098 -0.4903 -0.1135  0.7064
 1778SOL    HW116553   5.433   8.625   4.148  1.6207  3.2517  0.3246
 1778SOL    HW216554   5.315   8.597   4.039  1.8638 -2.1248  1.3402
 1779SOL     OW16555   9.079   1.602   2.245  0.0514  0.1118  0.5223
 1779SOL    HW116556   9.060   1.696   2.273 -1.5120 -0.1809  0.4887
 1779SOL    HW216557   9.153   1.602   2.178  1.6308  1.0968  2.2414
 1780SOL     OW16558   6.934   0.600   2.174  0.0155 -0.1744  0.0181
 1780SOL    HW116559   6.984   0.597   2.260 -0.4017  1.3776  0.3284
 1780SOL    HW216560   6.916   0.695   2.149  0.2818 -0.5908 -1.8691
 1781SOL     OW16561   7.156   8.870   2.676  0.1234  0.3553 -0.1471
 1781SOL    HW116562   7.065   8.849   2.710  0.1645 -0.6577 -0.6344
 1781SOL    HW216563   7.149   8.933   2.599 -0.1678  0.2459 -0.2105
 1782SOL     OW16564   4.384   9.142   6.017 -0.0260 -0.1071  0.6407
 1782SOL    HW116565   4.418   9.130   6.111 -3.3829  2.4291  2.2945
 1782SOL    HW216566   4.299   9.089   6.006 -0.8357  1.3305 -0.2388
 1783SOL     OW16567   8.646   1.081   4.751  0.0580 -0.3287 -0.2988
 1783SOL    HW116568   8.669   1.015   4.679 -0.6004 -1.5498  0.5933
 1783SOL    HW216569   8.672   1.044   4.840  0.5156  1.0142  0.1429
 1784SOL     OW16570   5.171   4.321   6.746 -0.0975 -0.3657  0.0727
 1784SOL    HW116571   5.270   4.302   6.745 -0.1129 -0.4438 -0.7450
 1784SOL    HW216572   5.137   4.320   6.652 -0.2664  2.7933  0.0322
 1785SOL     OW16573   8.632   0.031   5.031 -0.4440 -0.3243  0.4195
 1785SOL    HW116574   8.676   0.067   4.949  0.6753  1.2371  1.6766
 1785SOL    HW216575   8.671   0.074   5.112 -1.2417 -2.1398  1.8196
 1786SOL     OW16576   9.610   7.128   5.518 -0.1363 -0.6496 -0.0393
 1786SOL    HW116577   9.675   7.202   5.536  0.1872 -0.4842 -1.8138
 1786SOL    HW216578   9.657   7.040   5.529 -0.2643 -0.5898  1.0847
 1787SOL     OW16579   8.748   5.255   2.933 -0.7473 -0.1871 -0.2410
 1787SOL    HW116580   8.846   5.264   2.918 -0.4662 -1.6186  0.6138
 1787SOL    HW216581   8.714   5.332   2.986  0.2986 -0.7414  1.2490
 1788SOL     OW16582   8.762   9.755   0.916 -0.3961 -0.0888  0.0618
 1788SOL    HW116583   8.736   9.660   0.936 -2.3222  0.4355  0.1591
 1788SOL    HW216584   8.753   9.810   0.998  0.2400  0.2895 -0.1181
 1789SOL     OW16585   0.042   8.762   6.629  0.3374  0.3489 -0.0455
 1789SOL    HW116586   0.019   8.741   6.724 -0.1920 -1.7623 -0.6090
 1789SOL    HW216587   0.100   8.690   6.592  0.8042  1.3185 -1.2370
 1790SOL     OW16588   0.994   6.296   3.195  0.1909 -0.2073 -0.1841
 1790SOL    HW116589   1.039   6.207   3.185 -0.5197 -0.6493  0.3943
 1790SOL    HW216590   0.917   6.302   3.132 -1.2647 -1.0139  1.4460
 1791SOL     OW16591   8.610   0.658   3.396  0.2091  0.2600 -0.1344
 1791SOL    HW116592   8.693   0.674   3.341 -1.8106 -0.4094 -3.4925
 1791SOL    HW216593   8.632   0.671   3.493  4.2735 -0.0509 -0.9175
 1792SOL     OW16594   3.064   1.462   2.592  0.2059 -0.1258  0.1125
 1792SOL    HW116595   3.050   1.521   2.671 -0.2273 -2.4117  1.7750
 1792SOL    HW216596   3.152   1.484   2.549  1.3149 -0.1261  2.3408
 1793SOL     OW16597   0.813   8.898   5.536  0.5161  0.1037  0.3388
 1793SOL    HW116598   0.828   8.925   5.440  0.6461 -0.7938  0.1057
 1793SOL    HW216599   0.753   8.965   5.580  0.0861  0.2713 -0.4949
 1794SOL     OW16600   3.128   5.988   4.190  0.4554  0.2199 -0.0092
 1794SOL    HW116601   3.053   5.935   4.150 -0.1508 -0.3454  1.8233
 1794SOL    HW216602   3.133   6.078   4.147 -1.9929  0.6774  0.5889
 1795SOL     OW16603   9.088   2.577   4.625 -0.6307  1.0387  0.0178
 1795SOL    HW116604   9.168   2.539   4.672 -1.0406 -0.4441 -0.4673
 1795SOL    HW216605   9.119   2.646   4.559  0.4124 -0.6212 -1.2823
 1796SOL     OW16606   9.521   1.771   3.215 -0.0040  0.4419  0.1073
 1796SOL    HW116607   9.464   1.848   3.188 -0.5293  0.3287  0.8787
 1796SOL    HW216608   9.499   1.691   3.159  0.2969  0.7514 -0.4548
 1797SOL     OW16609   3.771   9.388   0.459 -0.3544  0.1913  0.3632
 1797SOL    HW116610   3.705   9.455   0.494  0.5417  0.8888  0.7213
 1797SOL    HW216611   3.825   9.351   0.535  1.5557  1.6637 -0.2607
 1798SOL     OW16612   9.654   5.481   3.767  0.3161  0.2774 -0.2156
 1798SOL    HW116613   9.591   5.551   3.799  1.2053  0.4429  1.2014
 1798SOL    HW216614   9.717   5.457   3.840  0.4505 -1.5242 -0.8957
 1799SOL     OW16615   5.881   2.394   3.699  0.5693 -0.2911  0.3895
 1799SOL    HW116616   5.784   2.407   3.676  0.4078 -1.3559  0.4495
 1799SOL    HW216617   5.934   2.389   3.614  0.3514 -1.3456  0.3098
 1800SOL     OW16618   2.066   1.263   5.198  0.0116  0.2982 -0.2598
 1800SOL    HW116619   2.147   1.208   5.218  0.6618  0.6418 -1.8720
 1800SOL    HW216620   2.093   1.353   5.165 -1.0393  0.7290  0.0037
 1801SOL     OW16621   7.345   2.783   0.771  0.2268 -0.1310  0.1166
 1801SOL    HW116622   7.376   2.691   0.793  0.7331 -0.4171 -1.6591
 1801SOL    HW216623   7.414   2.828   0.714 -1.5333  0.1049 -1.8746
 1802SOL     OW16624   8.270   2.048   0.563 -0.1689 -0.3082 -0.0367
 1802SOL    HW116625   8.269   2.078   0.468  1.4896  0.8365  0.2833
 1802SOL    HW216626   8.362   2.016   0.587 -0.5478 -0.4823  1.2119
 1803SOL     OW16627   7.947   8.953   2.696 -0.0099 -0.5072  0.2115
 1803SOL    HW116628   7.934   8.967   2.794  0.1762  0.4026  0.1091
 1803SOL    HW216629   7.858   8.950   2.650 -0.0588  0.2239  0.2534
 1804SOL     OW16630   8.944   8.487   2.217 -0.3685  0.1693 -0.2144
 1804SOL    HW116631   8.976   8.577   2.189 -0.5849 -0.0760 -1.2701
 1804SOL    HW216632   8.865   8.460   2.162 -0.0030 -0.8695 -0.2547
 1805SOL     OW16633   7.495   9.633   2.884 -0.0571  0.5172 -0.0610
 1805SOL    HW116634   7.441   9.595   2.809  2.1076 -0.4726 -1.1671
 1805SOL    HW216635   7.517   9.561   2.949  2.1506  0.3215 -0.9952
 1806SOL     OW16636   3.745   2.237   2.007  0.3304  0.3233  0.7477
 1806SOL    HW116637   3.838   2.270   2.024  1.0122 -0.3191 -1.4908
 1806SOL    HW216638   3.740   2.139   2.027 -0.1532  0.5822  1.8938
 1807SOL     OW16639   0.774   2.194   5.945  0.3551 -0.2162 -0.2285
 1807SOL    HW116640   0.761   2.170   6.041  0.5731 -1.1415 -0.4326
 1807SOL    HW216641   0.686   2.195   5.898  0.1778  0.7970  0.1034
 1808SOL     OW16642   1.145   9.882   1.242 -0.0463  0.0125 -0.5129
 1808SOL    HW116643   1.221   9.946   1.229  1.6660 -1.9979 -0.5991
 1808SOL    HW216644   1.076   9.898   1.171  2.5932 -1.3822 -3.5054
 1809SOL     OW16645   9.534   4.280   3.779  0.3028  0.5534  1.1430
 1809SOL    HW116646   9.480   4.320   3.705  0.0783  0.9938  1.5412
 1809SOL    HW216647   9.474   4.249   3.852  0.6256  1.8939  2.0033
 1810SOL     OW16648   8.678   3.024   3.965 -0.4913 -0.4231  0.9011
 1810SOL    HW116649   8.709   3.118   3.975  0.7132 -0.8428  1.1084
 1810SOL    HW216650   8.653   3.008   3.869  2.6861 -0.9045  0.0927
 1811SOL     OW16651   5.569   0.323   4.648  0.0407  0.2930 -0.3743
 1811SOL    HW116652   5.475   0.343   4.676  0.3629  1.5511 -0.1576
 1811SOL    HW216653   5.631   0.343   4.724  0.5385 -0.0539 -0.6837
 1812SOL     OW16654   8.674   1.580   5.657 -0.3505  0.1872  0.0777
 1812SOL    HW116655   8.619   1.522   5.597 -0.6518  2.0951 -1.5496
 1812SOL    HW216656   8.618   1.610   5.734  0.4893 -3.5544  2.2437
 1813SOL     OW16657   1.516   4.830   3.491  0.6848 -0.2454  0.5051
 1813SOL    HW116658   1.438   4.771   3.509  0.4298 -0.0196  0.1738
 1813SOL    HW216659   1.518   4.904   3.559 -2.2502  2.5640 -2.2270
 1814SOL     OW16660   4.809   5.170   2.112  0.2391 -0.1993  0.2247
 1814SOL    HW116661   4.728   5.221   2.083  2.3746  3.0859 -0.2742
 1814SOL    HW216662   4.826   5.185   2.209  1.1751  0.5115 -0.0394
 1815SOL     OW16663   2.587   6.442   6.502 -0.2653  0.0641  0.2565
 1815SOL    HW116664   2.550   6.467   6.413  0.2741 -3.2158 -0.9685
 1815SOL    HW216665   2.686   6.452   6.501 -0.0856 -1.5926 -0.1135
 1816SOL     OW16666   5.357   0.570   1.711 -0.7529  0.3390 -0.1165
 1816SOL    HW116667   5.360   0.594   1.614 -2.2767  2.5022  0.3334
 1816SOL    HW216668   5.387   0.649   1.766  0.1519 -0.8780  1.1718
 1817SOL     OW16669   4.275   0.131   6.236  0.2744  0.4574 -0.3580
 1817SOL    HW116670   4.347   0.082   6.285  0.3708  0.5580 -0.3994
 1817SOL    HW216671   4.271   0.099   6.142  0.3586  0.5502 -0.3943
 1818SOL     OW16672   4.563   2.527   2.543 -0.0553  0.3969  0.1772
 1818SOL    HW116673   4.631   2.591   2.577  0.2257 -0.1738  0.7013
 1818SOL    HW216674   4.606   2.438   2.525 -0.7216 -0.0724  0.8457
 1819SOL     OW16675   4.316   6.861   0.910 -0.0765  0.0105 -0.3399
 1819SOL    HW116676   4.315   6.777   0.857  0.9551 -0.3956  0.2562
 1819SOL    HW216677   4.408   6.875   0.947 -0.4786  0.9173  0.3224
 1820SOL     OW16678   4.091   4.901   0.829  0.1676  0.1250 -0.5974
 1820SOL    HW116679   4.079   4.870   0.735  2.3523 -0.1621 -0.8003
 1820SOL    HW216680   4.140   4.988   0.830  0.6099 -0.1238  0.2917
 1821SOL     OW16681   9.098   8.016   2.271 -0.1266 -0.0280 -0.2793
 1821SOL    HW116682   9.092   7.941   2.337  1.4415 -0.1281 -0.2466
 1821SOL    HW216683   9.072   8.102   2.317  0.4103 -0.1786  0.3125
 1822SOL     OW16684   0.124   3.227   0.851  0.2909 -0.0356 -0.4646
 1822SOL    HW116685   0.196   3.212   0.919  0.6177  0.4858 -0.6896
 1822SOL    HW216686   0.038   3.249   0.897 -0.3254 -2.9801 -0.0995
 1823SOL     OW16687   2.598   0.547   1.918  0.1820  0.5793  0.5763
 1823SOL    HW116688   2.547   0.632   1.933 -2.5524 -0.6393 -1.4096
 1823SOL    HW216689   2.552   0.471   1.965 -0.8860 -0.8591 -2.6813
 1824SOL     OW16690   2.122   0.944   5.765 -0.1573 -0.3725  0.0936
 1824SOL    HW116691   2.115   0.855   5.722  0.8462 -0.1640 -0.5124
 1824SOL    HW216692   2.033   0.971   5.802 -0.8933 -0.7908 -1.3608
 1825SOL     OW16693   0.401   6.553   6.516  0.1926  0.8521  0.1595
 1825SOL    HW116694   0.306   6.524   6.521  0.1484  0.8245 -0.8617
 1825SOL    HW216695   0.459   6.473   6.501  0.1617  1.1592 -1.6316
 1826SOL     OW16696   3.509   4.002   4.216 -0.5251 -0.5679 -0.2907
 1826SOL    HW116697   3.585   3.938   4.227  0.5922  0.8667  0.4157
 1826SOL    HW216698   3.426   3.961   4.255 -0.3446 -2.5060 -1.8443
 1827SOL     OW16699   4.353   3.180   5.038 -0.1591 -0.2171 -0.5742
 1827SOL    HW116700   4.345   3.190   4.939 -1.4000 -0.2571 -0.4876
 1827SOL    HW216701   4.275   3.127   5.073 -0.9461  1.7293  0.7092
 1828SOL     OW16702   0.911   4.884   2.939  0.0523  0.9012  0.6813
 1828SOL    HW116703   0.964   4.806   2.907  1.9234  2.6676 -0.5887
 1828SOL    HW216704   0.832   4.851   2.991  1.2406 -1.8063  0.8490
 1829SOL     OW16705   5.483   2.577   4.142  0.2194 -0.2138 -0.1252
 1829SOL    HW116706   5.566   2.520   4.141 -0.0029 -0.7434  3.6251
 1829SOL    HW216707   5.508   2.673   4.153  0.4218 -0.1621 -1.0716
 1830SOL     OW16708   9.597   6.365   5.586 -0.2018 -0.3253  0.1643
 1830SOL    HW116709   9.676   6.387   5.528 -0.8685 -0.3033 -0.7460
 1830SOL    HW216710   9.627   6.310   5.664  0.9155  0.8076  0.5374
 1831SOL     OW16711   4.471   9.258   0.377 -0.1464 -0.1222  0.0463
 1831SOL    HW116712   4.460   9.234   0.474  0.5263 -1.3254 -0.1643
 1831SOL    HW216713   4.442   9.182   0.320  0.5087  0.1559 -0.6718
 1832SOL     OW16714   4.697   5.037   0.724  0.5089 -0.0988 -0.3430
 1832SOL    HW116715   4.619   4.991   0.680  0.8429 -2.3012  1.2450
 1832SOL    HW216716   4.667   5.124   0.763 -0.8386 -0.2620 -0.9700
 1833SOL     OW16717   1.020   6.051   6.486 -0.1424 -0.2087  0.0320
 1833SOL    HW116718   0.980   5.964   6.516 -1.5898 -0.0678 -1.3968
 1833SOL    HW216719   1.079   6.035   6.407 -0.0446  0.0381  0.0554
 1834SOL     OW16720   0.821   4.367   6.423  0.3821 -0.0712 -0.1423
 1834SOL    HW116721   0.887   4.438   6.445 -1.5519  2.0180 -0.9148
 1834SOL    HW216722   0.801   4.369   6.325  1.9768 -3.1835 -0.5771
 1835SOL     OW16723   7.868   0.849   5.602  0.4559  0.4002 -0.3487
 1835SOL    HW116724   7.851   0.766   5.656  0.6348  0.4101 -0.2748
 1835SOL    HW216725   7.782   0.892   5.578  0.3177 -0.4068 -1.3185
 1836SOL     OW16726   0.159   5.101   2.911  0.3707  0.3065 -0.4542
 1836SOL    HW116727   0.100   5.151   2.848 -1.2994 -0.7666  0.2185
 1836SOL    HW216728   0.192   5.018   2.867 -0.4065 -0.1997 -0.0933
 1837SOL     OW16729   0.891   8.649   5.604  0.3580  0.5404  0.1241
 1837SOL    HW116730   0.985   8.627   5.579  0.8766  2.1348  0.5977
 1837SOL    HW216731   0.871   8.743   5.576 -0.7968  0.5090  0.8404
 1838SOL     OW16732   9.811   9.446   4.882 -0.2273  0.0648  0.2924
 1838SOL    HW116733   9.864   9.411   4.805 -0.3669  0.0189  0.2171
 1838SOL    HW216734   9.716   9.459   4.854 -0.2513  0.1675  0.4208
 1839SOL     OW16735   5.737   2.131   4.327 -0.7903 -0.4355 -0.2045
 1839SOL    HW116736   5.671   2.198   4.292  0.5660  0.2565 -1.5058
 1839SOL    HW216737   5.708   2.099   4.417 -0.9445  2.6638  0.9028
 1840SOL     OW16738   7.235   4.025   1.012 -0.2429  0.5929  0.0360
 1840SOL    HW116739   7.144   4.025   0.971  0.6862  0.5769 -2.0834
 1840SOL    HW216740   7.304   4.009   0.941  1.3310 -0.8087  1.8180
 1841SOL     OW16741   1.462   7.279   3.517 -0.2928  0.1042  0.0240
 1841SOL    HW116742   1.451   7.363   3.464 -0.4009  0.2409  0.2604
 1841SOL    HW216743   1.553   7.277   3.558 -0.1834 -0.0361 -0.2271
 1842SOL     OW16744   8.432   1.746   5.149 -0.1843 -0.1385  0.1158
 1842SOL    HW116745   8.403   1.834   5.185 -0.1281 -0.2106  0.3365
 1842SOL    HW216746   8.429   1.748   5.049  0.2350  0.2549  0.1084
 1843SOL     OW16747   7.408   0.412   1.592  0.1199  0.4602 -0.2185
 1843SOL    HW116748   7.390   0.345   1.521  0.0957  0.2461 -0.0122
 1843SOL    HW216749   7.493   0.461   1.571 -0.4184  1.0930 -0.9065
 1844SOL     OW16750   8.642   4.241   1.427 -0.7376 -0.2673  0.1132
 1844SOL    HW116751   8.703   4.168   1.397  1.7049  1.3592  0.9811
 1844SOL    HW216752   8.596   4.213   1.512  0.6363 -0.5732  0.7705
 1845SOL     OW16753   3.221   8.888   2.062  0.3452  0.2029  0.0584
 1845SOL    HW116754   3.201   8.937   1.977  2.5768  0.9880 -0.0393
 1845SOL    HW216755   3.204   8.949   2.140 -0.7859 -0.2102  0.1454
 1846SOL     OW16756   2.476   6.373   1.430 -0.5642  0.8054  0.6001
 1846SOL    HW116757   2.469   6.274   1.447 -0.8313  0.7821  0.3452
 1846SOL    HW216758   2.464   6.422   1.516  0.3515  0.5802  0.8613
 1847SOL     OW16759   1.961   2.982   0.449 -0.0731 -0.1988  0.5822
 1847SOL    HW116760   1.872   2.980   0.496 -0.7063  1.2646 -0.5538
 1847SOL    HW216761   2.024   3.040   0.500 -0.4448  0.5469  0.1972
 1848SOL     OW16762   1.669   2.650   1.960 -0.0160  0.8666  0.1211
 1848SOL    HW116763   1.767   2.668   1.970  0.3417 -0.4914 -0.7504
 1848SOL    HW216764   1.640   2.675   1.868 -0.8349  2.6560  0.8308
 1849SOL     OW16765   9.634   6.432   0.833 -0.3074 -0.0140  0.4442
 1849SOL    HW116766   9.542   6.438   0.794  0.2394  2.3424 -0.6303
 1849SOL    HW216767   9.701   6.423   0.759  0.4395 -0.0279  1.1144
 1850SOL     OW16768   2.991   2.050   5.012 -0.8191  0.6069  0.2464
 1850SOL    HW116769   3.063   1.983   4.997 -0.8113  0.6973 -0.1220
 1850SOL    HW216770   3.016   2.109   5.089 -0.6841  0.3866  0.3719
 1851SOL     OW16771   5.054   8.873   4.007 -0.4315  0.0742  0.2772
 1851SOL    HW116772   5.038   8.787   3.957 -0.5275 -0.2236  0.8165
 1851SOL    HW216773   5.004   8.870   4.094 -0.8328  0.8785  0.0709
 1852SOL     OW16774   6.865   5.295   0.479  0.3307 -0.0458 -0.4407
 1852SOL    HW116775   6.820   5.353   0.547  1.5528 -0.1771  0.5147
 1852SOL    HW216776   6.961   5.321   0.473  0.4122 -0.6040 -1.5169
 1853SOL     OW16777   3.785   9.032   3.120 -0.5182 -0.1512 -0.1189
 1853SOL    HW116778   3.807   8.972   3.197  0.3390  0.6531  0.2727
 1853SOL    HW216779   3.816   9.125   3.140  1.7273 -0.3501 -2.3355
 1854SOL     OW16780   2.718   5.522   5.075 -0.1306 -0.7137 -0.3861
 1854SOL    HW116781   2.680   5.530   4.983 -1.1104 -0.1955  0.0583
 1854SOL    HW216782   2.646   5.536   5.142  0.4758 -1.5921  0.4653
 1855SOL     OW16783   6.876   9.553   3.729 -0.4949  0.2076 -0.4051
 1855SOL    HW116784   6.947   9.550   3.659 -0.7007  0.0373 -0.6066
 1855SOL    HW216785   6.897   9.487   3.801  0.5679  1.5257  0.5144
 1856SOL     OW16786   7.464   1.300   5.728 -0.0408 -0.1709 -0.2428
 1856SOL    HW116787   7.431   1.391   5.752  1.0796  0.2074 -0.1154
 1856SOL    HW216788   7.561   1.292   5.752 -0.6759 -2.1613  1.8748
 1857SOL     OW16789   4.383   9.000   2.510  0.0190  0.5570 -0.0142
 1857SOL    HW116790   4.397   8.955   2.422 -0.7902  1.1210 -0.4416
 1857SOL    HW216791   4.471   9.015   2.554  0.3326 -1.0325 -0.0697
 1858SOL     OW16792   1.289   3.094   6.364 -0.1138 -0.1593 -0.7814
 1858SOL    HW116793   1.224   3.156   6.406 -0.4851 -0.4870 -0.8663
 1858SOL    HW216794   1.381   3.131   6.372  0.0643 -1.1529  2.0725
 1859SOL     OW16795   2.198   3.905   6.185 -0.7199  0.1802  0.2295
 1859SOL    HW116796   2.226   4.000   6.170 -0.2992 -0.0577 -0.5391
 1859SOL    HW216797   2.249   3.867   6.261  0.6247 -0.0586 -0.7739
 1860SOL     OW16798   1.756   1.935   1.422 -0.1906 -0.6844  0.3247
 1860SOL    HW116799   1.673   1.930   1.477 -0.2890  0.4021  0.2857
 1860SOL    HW216800   1.734   1.966   1.330  0.3706  0.5554  0.5935
 1861SOL     OW16801   0.550   6.457   2.852  0.6227  0.2745 -0.2137
 1861SOL    HW116802   0.472   6.420   2.903 -0.0754 -1.4386 -2.4407
 1861SOL    HW216803   0.621   6.386   2.844  0.3427  0.2212 -2.3573
 1862SOL     OW16804   0.275   5.104   6.725 -0.1826 -0.2689 -0.0231
 1862SOL    HW116805   0.339   5.173   6.690  1.0714 -0.4315  1.8477
 1862SOL    HW216806   0.182   5.143   6.727  0.5295  1.4341  1.1346
 1863SOL     OW16807   2.585   4.456   5.928  0.3708 -0.3361 -0.6598
 1863SOL    HW116808   2.562   4.363   5.899  0.9197 -1.0640  1.1311
 1863SOL    HW216809   2.601   4.514   5.848  0.1511 -1.8117 -1.7886
 1864SOL     OW16810   9.638   0.829   1.873 -0.3192 -0.9066  0.2866
 1864SOL    HW116811   9.591   0.851   1.788  1.8222  1.0043 -0.4697
 1864SOL    HW216812   9.737   0.834   1.859  0.1039 -1.7676  2.5942
 1865SOL     OW16813   4.677   1.108   5.601  0.2706 -0.3588 -0.1721
 1865SOL    HW116814   4.597   1.160   5.632 -0.5925 -1.0612 -1.1967
 1865SOL    HW216815   4.671   1.014   5.636  1.0302 -0.2172  0.3585
 1866SOL     OW16816   5.792   8.932   4.419  0.2509  0.3127  0.5693
 1866SOL    HW116817   5.793   8.980   4.507  0.8070  2.4620 -0.5740
 1866SOL    HW216818   5.745   8.988   4.351  0.3827 -1.0398 -0.6532
 1867SOL     OW16819   9.416   6.910   3.803 -0.4680  0.2268 -0.1122
 1867SOL    HW116820   9.346   6.839   3.792 -1.6308  0.8623  2.8321
 1867SOL    HW216821   9.385   6.978   3.870  2.9676  0.5583  1.2409
 1868SOL     OW16822   0.114   7.935   0.360  0.2882  0.4472 -0.1375
 1868SOL    HW116823   0.208   7.966   0.343  0.9867 -2.5642 -2.2814
 1868SOL    HW216824   0.051   7.990   0.307  1.1494  0.5699 -1.0563
 1869SOL     OW16825   7.108   0.421   5.402  0.2400  0.1771  0.1255
 1869SOL    HW116826   7.075   0.417   5.496 -0.8182 -0.7430 -0.2777
 1869SOL    HW216827   7.091   0.513   5.365 -0.1722  0.2730  0.5488
 1870SOL     OW16828   7.981   3.564   5.329  0.0520  0.1605  0.3257
 1870SOL    HW116829   7.955   3.488   5.270 -2.6308  0.6192  0.8570
 1870SOL    HW216830   7.958   3.543   5.424  0.8927  0.9251  0.7108
 1871SOL     OW16831   9.703   3.113   3.660  0.5025 -0.3260  0.3139
 1871SOL    HW116832   9.607   3.113   3.688  0.1922 -2.7231 -0.6623
 1871SOL    HW216833   9.720   3.191   3.599 -1.3633 -1.1009 -1.2400
 1872SOL     OW16834   1.369   6.246   3.511 -0.2037 -0.4441  0.3116
 1872SOL    HW116835   1.414   6.201   3.433  0.0131  0.3577 -0.0266
 1872SOL    HW216836   1.283   6.199   3.531 -0.7075 -0.1150 -0.9866
 1873SOL     OW16837   2.227   5.825   1.383 -0.2575 -0.0540  0.2219
 1873SOL    HW116838   2.180   5.908   1.353  1.4220  0.7398 -0.2970
 1873SOL    HW216839   2.225   5.820   1.482 -2.4130 -0.6327  0.1735
 1874SOL     OW16840   7.774   8.806   6.254  0.3149  0.3262  0.0886
 1874SOL    HW116841   7.784   8.844   6.162 -0.6424 -0.2000 -0.2406
 1874SOL    HW216842   7.756   8.880   6.319  1.0507  0.7045 -0.1384
 1875SOL     OW16843   4.892   1.882   5.112 -0.8054  0.0127  0.2986
 1875SOL    HW116844   4.930   1.798   5.072  2.2861  1.4718  0.0059
 1875SOL    HW216845   4.920   1.889   5.207 -0.1644  1.2312  0.0226
 1876SOL     OW16846   3.708   5.252   2.034  0.0453  0.0992 -0.6070
 1876SOL    HW116847   3.657   5.173   2.068  1.3262 -0.8474 -0.8456
 1876SOL    HW216848   3.729   5.239   1.937 -1.0860  1.4563 -1.0515
 1877SOL     OW16849   7.981   8.506   5.087 -0.1459  0.2102 -1.1271
 1877SOL    HW116850   8.037   8.557   5.021  0.7515  0.2489 -0.3442
 1877SOL    HW216851   7.892   8.550   5.095 -0.1252  0.4312 -2.0249
 1878SOL     OW16852   3.362   9.392   4.632  0.0635  0.5182 -0.1906
 1878SOL    HW116853   3.357   9.484   4.671 -3.0911 -0.2718  1.4733
 1878SOL    HW216854   3.278   9.373   4.580 -0.1287 -1.9983  0.9284
 1879SOL     OW16855   4.632   1.850   5.182 -0.4131 -0.1986 -0.0229
 1879SOL    HW116856   4.570   1.825   5.107  0.1177  0.3181 -0.6431
 1879SOL    HW216857   4.716   1.889   5.143 -0.2156  0.2537  0.8564
 1880SOL     OW16858   6.691   0.457   3.298 -0.1582 -0.0151 -0.1275
 1880SOL    HW116859   6.612   0.431   3.244  0.0501 -0.1191 -0.3819
 1880SOL    HW216860   6.747   0.523   3.247  0.1792 -0.3144 -0.1524
 1881SOL     OW16861   7.945   1.527   5.413 -0.1096 -0.4178  0.0222
 1881SOL    HW116862   7.945   1.627   5.404  0.0344 -0.4793 -0.7268
 1881SOL    HW216863   7.950   1.486   5.322 -1.9408 -1.1107  0.2008
 1882SOL     OW16864   2.454   9.684   4.321  0.6776  0.5962 -0.5806
 1882SOL    HW116865   2.420   9.771   4.357 -0.2279 -0.1051  0.2594
 1882SOL    HW216866   2.508   9.638   4.392 -2.6880 -1.6847  0.5943
 1883SOL     OW16867   3.370   0.108   4.301 -0.4027  0.1143  0.3245
 1883SOL    HW116868   3.306   0.179   4.272 -1.4715 -1.1471 -0.4803
 1883SOL    HW216869   3.421   0.074   4.222 -0.7692 -0.8441  0.4908
 1884SOL     OW16870   2.192   1.030   0.960 -0.0208  0.1857 -0.2640
 1884SOL    HW116871   2.235   1.120   0.958  1.6775 -0.5642  0.4040
 1884SOL    HW216872   2.256   0.962   0.924 -1.1693 -0.7867 -0.5046
 1885SOL     OW16873   8.743   9.287   1.821 -0.2377  0.5777 -0.6857
 1885SOL    HW116874   8.826   9.327   1.859 -0.9776  0.2528  1.3443
 1885SOL    HW216875   8.677   9.360   1.801 -0.6096  0.6023  0.5878
 1886SOL     OW16876   0.854   6.397   3.843  0.4326 -0.3881 -0.4112
 1886SOL    HW116877   0.810   6.362   3.760  0.2432 -2.0284  0.3518
 1886SOL    HW216878   0.922   6.330   3.875 -1.7715 -1.3139  2.5771
 1887SOL     OW16879   2.953   4.999   5.432  0.9506 -0.3105 -0.6347
 1887SOL    HW116880   2.915   5.085   5.468  1.9580 -0.4881  0.9091
 1887SOL    HW216881   3.040   5.018   5.387  1.2735 -0.5389 -0.1137
 1888SOL     OW16882   3.561   0.448   1.183  0.0487 -0.8485 -0.6608
 1888SOL    HW116883   3.488   0.442   1.115  0.2280 -0.1165 -0.9218
 1888SOL    HW216884   3.534   0.509   1.257  1.2927  1.2692 -1.9142
 1889SOL     OW16885   2.681   1.338   3.739  0.2599 -0.4534  0.7472
 1889SOL    HW116886   2.699   1.436   3.745  0.4710 -0.4847  0.6188
 1889SOL    HW216887   2.691   1.297   3.829 -2.1272  0.0375  1.2628
 1890SOL     OW16888   7.230   8.762   4.617 -0.1502 -0.5853  0.3834
 1890SOL    HW116889   7.278   8.760   4.529  0.4491 -2.2724  0.7274
 1890SOL    HW216890   7.163   8.836   4.616  0.0120 -0.4282 -1.4153
 1891SOL     OW16891   0.530   2.201   5.810 -0.2499  0.1896 -0.1898
 1891SOL    HW116892   0.509   2.274   5.745  1.0987  0.1832 -0.6562
 1891SOL    HW216893   0.488   2.115   5.779 -1.1425  0.5901 -0.0801
 1892SOL     OW16894   7.660   6.133   6.477  0.1195  0.0898 -0.1872
 1892SOL    HW116895   7.626   6.061   6.536  0.8879 -0.9844 -1.0389
 1892SOL    HW216896   7.703   6.204   6.532  1.7294 -1.3868  0.4948
 1893SOL     OW16897   2.957   8.755   5.831 -0.2603  0.8256  0.3427
 1893SOL    HW116898   3.026   8.794   5.771  1.6043  0.3630  2.1419
 1893SOL    HW216899   2.928   8.824   5.898  2.0758 -0.3508  2.6799
 1894SOL     OW16900   0.480   6.673   5.828 -0.0901 -0.1839 -0.2233
 1894SOL    HW116901   0.514   6.762   5.857 -0.4793  0.2062 -0.9488
 1894SOL    HW216902   0.546   6.631   5.765 -0.2762 -0.0579 -0.5037
 1895SOL     OW16903   9.511   0.400   0.288  0.6285  0.4720  0.2231
 1895SOL    HW116904   9.490   0.322   0.347  0.8416 -1.0141 -1.6353
 1895SOL    HW216905   9.425   0.440   0.255  0.5395 -1.3451 -1.8474
 1896SOL     OW16906   0.507   0.933   4.580  0.4750 -0.2919  0.5094
 1896SOL    HW116907   0.521   0.964   4.486 -1.3299  1.1595  0.6953
 1896SOL    HW216908   0.592   0.944   4.632  0.8211  1.1679 -0.3340
 1897SOL     OW16909   3.239   9.599   5.724 -0.7297  0.5993  0.7000
 1897SOL    HW116910   3.179   9.672   5.757  0.7372  1.8439  0.6670
 1897SOL    HW216911   3.265   9.617   5.629  2.4346  1.9538  1.7371
 1898SOL     OW16912   1.460   1.110   6.693 -0.0072  0.0477  0.7798
 1898SOL    HW116913   1.497   1.028   6.736  1.7454  0.0567 -0.6489
 1898SOL    HW216914   1.508   1.191   6.727  0.2801  0.2016  0.0254
 1899SOL     OW16915   1.757   2.066   0.548 -0.2402  0.0899  0.2389
 1899SOL    HW116916   1.853   2.083   0.525 -0.0831  1.4463  1.7892
 1899SOL    HW216917   1.752   2.016   0.634 -0.8878 -2.3038 -1.1498
 1900SOL     OW16918   7.613   4.925   6.704  0.1405  0.5664 -0.1246
 1900SOL    HW116919   7.583   4.953   6.795  0.3686 -1.7160  0.6954
 1900SOL    HW216920   7.707   4.892   6.709 -0.1131 -0.3139 -1.0341
 1901SOL     OW16921   2.992   6.831   2.486 -0.1429 -0.0790  0.1939
 1901SOL    HW116922   3.038   6.777   2.557  0.7834  0.3744 -0.0570
 1901SOL    HW216923   3.007   6.928   2.503  2.3662 -0.0161 -2.1099
 1902SOL     OW16924   9.044   8.703   2.081 -0.1063  0.0906  0.1402
 1902SOL    HW116925   8.962   8.704   2.024  0.9701 -0.3469 -1.4341
 1902SOL    HW216926   9.104   8.778   2.055  0.6221 -0.4113  0.3689
 1903SOL     OW16927   5.354   9.006   3.381 -0.5485  0.1315 -0.1092
 1903SOL    HW116928   5.312   8.945   3.448 -0.4266 -1.2068 -1.2242
 1903SOL    HW216929   5.381   9.092   3.425 -1.8633 -0.1263  1.2143
 1904SOL     OW16930   2.300   7.270   4.636  0.1343  0.3304  0.3720
 1904SOL    HW116931   2.271   7.205   4.706  1.9357  0.8918  1.6656
 1904SOL    HW216932   2.232   7.344   4.629  0.2349  0.5826  1.9476
 1905SOL     OW16933   2.534   8.159   3.898  0.2833 -1.1011  0.0869
 1905SOL    HW116934   2.446   8.191   3.932  1.0929  1.3789 -0.0303
 1905SOL    HW216935   2.521   8.111   3.812 -0.8204  0.5924 -0.7278
 1906SOL     OW16936   8.094   6.561   1.811  0.0883 -0.0171 -0.7718
 1906SOL    HW116937   8.184   6.519   1.799  0.2432  0.2432 -0.5207
 1906SOL    HW216938   8.025   6.489   1.824  0.5834 -0.1315  1.2575
 1907SOL     OW16939   9.637   1.424   0.291  0.4139  0.1712 -0.0616
 1907SOL    HW116940   9.613   1.359   0.219 -2.0440  1.3102 -0.2977
 1907SOL    HW216941   9.617   1.383   0.380  0.6043 -0.0851 -0.1356
 1908SOL     OW16942   6.278   9.489   4.481  0.0448  0.0200  0.0062
 1908SOL    HW116943   6.257   9.506   4.384  0.4756 -1.8718 -0.4290
 1908SOL    HW216944   6.195   9.500   4.535 -0.1292  1.4582 -0.5120
 1909SOL     OW16945   7.669   7.537   1.232 -0.5577  0.0800 -0.1604
 1909SOL    HW116946   7.621   7.477   1.169 -2.3790  0.1175  1.1602
 1909SOL    HW216947   7.641   7.516   1.326  0.6002  1.3689  0.4924
 1910SOL     OW16948   1.038   6.413   1.158 -0.6202 -0.8733  0.3708
 1910SOL    HW116949   1.078   6.381   1.244  0.6328  2.0910  0.9552
 1910SOL    HW216950   0.966   6.479   1.178 -0.9139 -0.8239 -0.8378
 1911SOL     OW16951   4.685   0.113   5.269 -0.0578  0.3655 -0.0650
 1911SOL    HW116952   4.751   0.046   5.302 -0.0596 -0.2562 -1.3032
 1911SOL    HW216953   4.694   0.198   5.322  0.7110 -0.2183  0.7507
 1912SOL     OW16954   9.903   5.719   2.640 -0.0438  0.2009 -0.2842
 1912SOL    HW116955   9.902   5.698   2.737  1.2861  1.0943 -0.0601
 1912SOL    HW216956   9.900   5.635   2.587 -0.9219 -0.2802  0.5349
 1913SOL     OW16957   9.735   9.050   2.946 -0.2305 -0.1305 -0.0997
 1913SOL    HW116958   9.797   8.989   2.996 -0.6247 -0.9009 -0.5362
 1913SOL    HW216959   9.659   9.076   3.005  0.1932  0.3316  0.2444
 1914SOL     OW16960   5.682   5.238   0.326 -0.2471 -0.1116  0.0463
 1914SOL    HW116961   5.745   5.189   0.385 -1.2480 -0.6729  0.6600
 1914SOL    HW216962   5.656   5.180   0.248  0.9611  0.5749 -0.8910
 1915SOL     OW16963   4.719   1.324   3.695 -0.0656 -0.2237 -0.0032
 1915SOL    HW116964   4.763   1.330   3.606  0.8641 -0.3950  0.4367
 1915SOL    HW216965   4.644   1.258   3.691 -1.1811  1.0978 -1.1162
 1916SOL     OW16966   4.420   5.118   4.662  1.0261  0.2079  0.0019
 1916SOL    HW116967   4.323   5.135   4.679  1.1320 -0.0279  0.8576
 1916SOL    HW216968   4.430   5.059   4.583  0.2019 -4.1256  2.9646
 1917SOL     OW16969   6.428   8.643   2.260  0.1709  0.1710  0.4816
 1917SOL    HW116970   6.511   8.588   2.251  0.6395  1.4391 -4.0787
 1917SOL    HW216971   6.349   8.582   2.273  1.1929 -1.3401 -0.2478
 1918SOL     OW16972   4.305   4.751   1.114 -0.2299  0.2885 -0.0367
 1918SOL    HW116973   4.321   4.661   1.154 -0.1191  0.3720  0.1069
 1918SOL    HW216974   4.208   4.774   1.119 -0.3911 -0.1827 -0.8271
 1919SOL     OW16975   1.378   3.983   1.187 -0.4824  0.0398 -0.3064
 1919SOL    HW116976   1.451   3.920   1.161  0.6568  1.2004  0.0179
 1919SOL    HW216977   1.295   3.961   1.136  0.0097 -1.4639 -0.4876
 1920SOL     OW16978   0.819   2.710   0.558  0.0335 -0.5549 -0.0199
 1920SOL    HW116979   0.814   2.653   0.476  0.8772 -0.4112 -0.1830
 1920SOL    HW216980   0.728   2.744   0.581 -0.3171 -1.1757 -0.4857
 1921SOL     OW16981   0.493   1.923   6.075 -0.2796  0.0262  0.6849
 1921SOL    HW116982   0.416   1.984   6.056  0.2974 -0.0777 -2.2548
 1921SOL    HW216983   0.576   1.977   6.090 -0.0566  0.0253 -0.5065
 1922SOL     OW16984   5.457   0.787   5.264  0.3363  0.1750  0.0666
 1922SOL    HW116985   5.440   0.883   5.282  2.1134  0.3849  0.6530
 1922SOL    HW216986   5.507   0.746   5.340  0.6399 -0.9153 -0.6944
 1923SOL     OW16987   0.120   7.779   5.618 -0.2684  0.2491 -0.6268
 1923SOL    HW116988   0.173   7.757   5.699 -1.1077 -0.9547 -0.3918
 1923SOL    HW216989   0.110   7.698   5.560  0.0856  1.0243 -1.7971
 1924SOL     OW16990   4.142   3.831   3.305  1.0853 -0.0635  0.8117
 1924SOL    HW116991   4.152   3.913   3.248  0.4143 -2.0689 -2.3196
 1924SOL    HW216992   4.071   3.846   3.374  0.4559  1.7392 -0.2057
 1925SOL     OW16993   1.169   8.575   5.576  0.5432  0.3886 -0.0309
 1925SOL    HW116994   1.253   8.581   5.630  0.4602 -0.5438  0.2206
 1925SOL    HW216995   1.191   8.547   5.483  0.8196  3.3369 -0.8796
 1926SOL     OW16996   2.848   0.403   1.842 -0.0933 -0.1997  0.3568
 1926SOL    HW116997   2.757   0.430   1.871 -0.0804 -0.6082  0.7975
 1926SOL    HW216998   2.916   0.454   1.895 -0.0680 -0.5129  0.6263
 1927SOL     OW16999   4.672   2.087   4.351  0.2203  0.3042  0.0998
 1927SOL    HW117000   4.630   2.010   4.398  1.1311 -0.6066 -0.5659
 1927SOL    HW217001   4.771   2.076   4.349  0.1288 -0.3317 -3.1377
 1928SOL     OW17002   0.627   6.744   2.590  0.8245 -0.2892  0.0647
 1928SOL    HW117003   0.721   6.711   2.589 -0.1085 -3.0382 -1.5998
 1928SOL    HW217004   0.575   6.696   2.660  0.2395  0.0044 -0.1602
 1929SOL     OW17005   1.503   1.229   2.845 -0.0875 -0.3631 -0.5406
 1929SOL    HW117006   1.549   1.315   2.871  0.9146 -0.9382 -0.3748
 1929SOL    HW217007   1.441   1.202   2.918  0.8891 -0.6800  0.1851
 1930SOL     OW17008   8.046   5.628   4.522  0.1998  0.2741  0.3669
 1930SOL    HW117009   8.141   5.599   4.509 -0.2032 -0.8846 -0.1189
 1930SOL    HW217010   8.004   5.643   4.433 -0.1138  0.6589  0.5813
 1931SOL     OW17011   7.429   7.164   4.994  0.4782 -0.0722 -0.3806
 1931SOL    HW117012   7.370   7.084   5.006 -0.7009  0.9103  0.5005
 1931SOL    HW217013   7.378   7.235   4.945  1.3899  0.2876 -0.8109
 1932SOL     OW17014   5.165   4.522   1.168 -0.1929 -0.1023 -0.3771
 1932SOL    HW117015   5.104   4.573   1.229  0.9241  1.0352 -0.1822
 1932SOL    HW217016   5.136   4.426   1.164 -1.7236  0.3377  0.0396
 1933SOL     OW17017   7.731   2.795   2.967  0.2154 -0.0252  0.4733
 1933SOL    HW117018   7.815   2.850   2.966 -1.4970  2.7529  2.5127
 1933SOL    HW217019   7.724   2.747   3.054 -1.2630  1.3346  1.1222
 1934SOL     OW17020   2.566   0.647   3.578  0.1168 -0.0988 -0.4091
 1934SOL    HW117021   2.564   0.620   3.481  1.6205 -1.2708 -0.1426
 1934SOL    HW217022   2.544   0.568   3.634  0.5832  0.2368  0.2496
 1935SOL     OW17023   8.203   7.227   0.930 -0.1725 -0.2112  0.2027
 1935SOL    HW117024   8.113   7.225   0.885 -0.4604  0.0169  0.7670
 1935SOL    HW217025   8.274   7.235   0.860 -0.6651  1.1613 -0.1657
 1936SOL     OW17026   5.048   6.676   1.849 -0.0665  0.2699  0.2599
 1936SOL    HW117027   5.000   6.613   1.788 -0.5339  0.8243  0.0524
 1936SOL    HW217028   5.128   6.630   1.888  0.7265  0.1756 -1.4196
 1937SOL     OW17029   3.949   6.318   1.021  0.3430  0.0868 -0.2893
 1937SOL    HW117030   3.882   6.350   0.953  0.3148 -0.6477 -0.6141
 1937SOL    HW217031   3.932   6.363   1.108 -1.1807 -0.7868 -0.1165
 1938SOL     OW17032   6.253   2.783   4.635 -0.2290  0.4374 -0.1365
 1938SOL    HW117033   6.233   2.686   4.648  2.0890  0.3092  3.3787
 1938SOL    HW217034   6.235   2.809   4.540 -2.3926 -3.0228 -0.7500
 1939SOL     OW17035   8.513   1.684   4.536 -0.4295  0.0396 -0.3466
 1939SOL    HW117036   8.421   1.687   4.498 -0.2833  0.4943 -0.6805
 1939SOL    HW217037   8.561   1.604   4.501 -0.1678  0.6621 -1.4480
 1940SOL     OW17038   3.098   5.797   0.475  0.1438  0.3774 -0.6469
 1940SOL    HW117039   3.002   5.822   0.477 -0.2554 -1.1493 -0.2919
 1940SOL    HW217040   3.143   5.829   0.559  0.0074  1.2447 -0.8914
 1941SOL     OW17041   2.881   9.598   3.690  0.2145  0.4131 -0.0616
 1941SOL    HW117042   2.878   9.680   3.632 -1.4523 -0.6276 -1.5058
 1941SOL    HW217043   2.967   9.596   3.740  0.6478  2.6106 -0.6384
 1942SOL     OW17044   4.692   5.379   0.237 -0.0256 -0.5444 -0.8173
 1942SOL    HW117045   4.609   5.350   0.285 -0.9654 -2.1725 -3.3440
 1942SOL    HW217046   4.772   5.361   0.295 -1.2645 -0.5964  0.9195
 1943SOL     OW17047   6.799   8.807   3.634 -0.2348  0.3497 -0.2813
 1943SOL    HW117048   6.854   8.891   3.630 -1.7440  1.4441  1.4649
 1943SOL    HW217049   6.704   8.829   3.613 -0.3043 -1.2932 -1.8326
 1944SOL     OW17050   2.866   2.876   3.669  0.0215 -0.0469 -0.0235
 1944SOL    HW117051   2.830   2.826   3.748 -0.8495  0.4562 -0.0932
 1944SOL    HW217052   2.792   2.927   3.626  0.4581 -0.4781 -1.2926
 1945SOL     OW17053   4.584   0.129   1.834 -0.6178  0.5860  0.3371
 1945SOL    HW117054   4.627   0.042   1.858  1.2560  0.9141 -1.7160
 1945SOL    HW217055   4.489   0.113   1.806 -0.4290 -0.7301  0.4500
 1946SOL     OW17056   9.204   3.546   0.045  0.2823  0.1882 -0.2760
 1946SOL    HW117057   9.106   3.564   0.042  0.0845 -0.8184 -0.0237
 1946SOL    HW217058   9.233   3.532   0.140 -0.2752 -4.4509 -0.6721
 1947SOL     OW17059   7.179   0.367   0.217 -0.2417  0.3210  0.1322
 1947SOL    HW117060   7.186   0.393   0.120  0.6118 -1.0622 -0.1838
 1947SOL    HW217061   7.242   0.292   0.236 -1.1586 -0.1090  1.5262
 1948SOL     OW17062   7.193   4.441   6.627 -0.2600  0.3854  0.3516
 1948SOL    HW117063   7.188   4.501   6.707  1.6571  0.5562  0.3773
 1948SOL    HW217064   7.188   4.345   6.656 -1.3917  0.4814  0.4907
 1949SOL     OW17065   7.083   3.685   2.092 -0.9649  0.1449  0.2248
 1949SOL    HW117066   7.086   3.621   2.169 -2.4303  0.0996  0.2670
 1949SOL    HW217067   7.011   3.657   2.028  1.1539 -0.5923 -1.8751
 1950SOL     OW17068   9.312   9.801   3.376 -0.1905  0.1686 -0.9138
 1950SOL    HW117069   9.403   9.814   3.417 -0.4884  1.6490 -0.6951
 1950SOL    HW217070   9.244   9.797   3.449 -0.2840 -1.2423 -1.0622
 1951SOL     OW17071   3.338   3.542   2.915  0.1850 -0.6715 -0.2459
 1951SOL    HW117072   3.392   3.587   2.844 -0.5404 -3.6563 -2.8034
 1951SOL    HW217073   3.245   3.576   2.914  0.7059  0.8207  0.7440
 1952SOL     OW17074   4.913   2.495   1.414 -0.1694  0.5018 -0.0070
 1952SOL    HW117075   4.859   2.414   1.439 -0.9025  1.0737  0.2748
 1952SOL    HW217076   4.865   2.577   1.444  0.8706  1.0191  0.2497
 1953SOL     OW17077   7.358   1.245   0.638  0.0282 -0.1916  0.2513
 1953SOL    HW117078   7.301   1.226   0.558  1.0986 -1.9970 -0.0997
 1953SOL    HW217079   7.451   1.210   0.622  1.0825  2.1062  1.0731
 1954SOL     OW17080   3.533   4.070   2.213  0.0313 -0.1436 -0.1134
 1954SOL    HW117081   3.600   4.002   2.180  0.9952  1.4040 -1.4226
 1954SOL    HW217082   3.488   4.112   2.134 -1.5487 -0.2287  0.7330
 1955SOL     OW17083   8.074   7.557   0.461 -0.4310 -0.4830  0.5673
 1955SOL    HW117084   8.063   7.604   0.373  2.5663 -0.5273  0.1291
 1955SOL    HW217085   8.026   7.469   0.458 -1.4055  0.0749 -0.5705
 1956SOL     OW17086   9.748   5.593   2.136 -0.4732 -0.0203  0.4486
 1956SOL    HW117087   9.700   5.510   2.165  0.5292 -1.0599 -0.7990
 1956SOL    HW217088   9.788   5.578   2.045  0.6655  1.4417  0.6942
 1957SOL     OW17089   6.332   7.016   5.512 -0.1828  0.4466 -0.5517
 1957SOL    HW117090   6.314   7.049   5.605  0.9336  0.4249 -0.3178
 1957SOL    HW217091   6.427   6.983   5.506 -0.8812 -1.5217 -1.1370
 1958SOL     OW17092   8.766   3.722   3.792  0.0635  0.4026  0.0793
 1958SOL    HW117093   8.788   3.758   3.701 -0.4881  2.0952  0.6029
 1958SOL    HW217094   8.702   3.784   3.838 -0.3979 -0.9332  1.2531
 1959SOL     OW17095   9.841   9.718   6.413 -0.1551 -0.0434  0.3009
 1959SOL    HW117096   9.877   9.639   6.364 -0.8801  0.2124 -0.6513
 1959SOL    HW217097   9.843   9.700   6.511  2.4022 -0.0997  0.2761
 1960SOL     OW17098   1.141   6.872   2.206  0.4480 -0.3458 -0.5822
 1960SOL    HW117099   1.071   6.918   2.152  2.1752 -0.6777 -3.2030
 1960SOL    HW217100   1.158   6.924   2.290 -1.8128  0.5543 -0.6482
 1961SOL     OW17101   6.346   0.651   4.533  0.3429  0.2230  0.0247
 1961SOL    HW117102   6.273   0.609   4.479  0.6872  0.0018 -0.2735
 1961SOL    HW217103   6.330   0.633   4.630 -0.1587  0.4306 -0.0179
 1962SOL     OW17104   0.571   5.396   5.610  0.1524 -0.2088  0.2903
 1962SOL    HW117105   0.525   5.318   5.653  1.8087 -0.8648  0.9298
 1962SOL    HW217106   0.556   5.478   5.665 -2.9150  0.3249 -1.2049
 1963SOL     OW17107   0.391   1.734   0.520 -0.2453 -0.4032 -0.0896
 1963SOL    HW117108   0.471   1.674   0.514 -0.0585 -0.2771  1.0757
 1963SOL    HW217109   0.317   1.688   0.569 -0.2767  0.1229  0.3698
 1964SOL     OW17110   9.192   4.724   3.931  0.0743  0.2908  0.2553
 1964SOL    HW117111   9.157   4.667   4.006  0.9054  1.6362  1.6991
 1964SOL    HW217112   9.256   4.671   3.876 -0.2338 -0.5946  0.7405
 1965SOL     OW17113   7.770   2.021   3.486 -0.2487  0.1701  0.7974
 1965SOL    HW117114   7.712   2.063   3.417  0.5402 -0.1534 -0.0744
 1965SOL    HW217115   7.731   1.932   3.513  0.0503 -0.2321 -0.0802
 1966SOL     OW17116   2.105   1.918   2.726  0.0565  0.3020 -0.0377
 1966SOL    HW117117   2.183   1.895   2.784 -0.7427  0.0675  0.9505
 1966SOL    HW217118   2.120   2.007   2.683  0.8803  0.2434  0.1175
 1967SOL     OW17119   0.795   4.644   6.222 -0.2081  0.2741  0.4326
 1967SOL    HW117120   0.885   4.631   6.180 -0.2243  0.2570  0.4035
 1967SOL    HW217121   0.749   4.556   6.232 -1.1123  0.5109 -1.5212
 1968SOL     OW17122   7.908   6.911   0.283  0.2597  0.3743 -0.6845
 1968SOL    HW117123   7.934   6.850   0.208  0.0681  1.0505 -1.3150
 1968SOL    HW217124   7.983   6.975   0.300 -0.7648  2.0330 -2.1989
 1969SOL     OW17125   9.541   5.000   2.877  0.3226  0.3519 -0.2560
 1969SOL    HW117126   9.594   5.054   2.942  0.2648  1.4000 -1.0764
 1969SOL    HW217127   9.554   4.902   2.897  0.1891  0.6617  1.4137
 1970SOL     OW17128   7.581   2.663   1.173  0.1460 -0.0808  0.0243
 1970SOL    HW117129   7.569   2.609   1.256 -1.6674 -0.0091 -0.1831
 1970SOL    HW217130   7.581   2.603   1.093  1.3208 -0.0913  0.0230
 1971SOL     OW17131   3.065   3.224   5.711 -0.3669  0.2602 -0.1151
 1971SOL    HW117132   3.101   3.317   5.696 -1.4947  0.2425 -3.4384
 1971SOL    HW217133   3.141   3.160   5.717  0.3690  1.1330  0.1032
 1972SOL     OW17134   4.833   8.580   5.469  0.3248  0.4746 -0.3329
 1972SOL    HW117135   4.854   8.578   5.372 -1.2258  0.2375 -0.6735
 1972SOL    HW217136   4.838   8.675   5.502  0.2976  0.6262 -0.7656
 1973SOL     OW17137   0.607   9.286   3.641  0.4473  0.7112 -0.1143
 1973SOL    HW117138   0.525   9.229   3.633  1.3935 -0.6284 -0.4550
 1973SOL    HW217139   0.635   9.317   3.550 -0.2376  1.9984  0.0979
 1974SOL     OW17140   8.304   3.910   5.814  0.3229 -0.3354 -0.2706
 1974SOL    HW117141   8.255   3.951   5.737  2.5294 -2.0605 -2.6863
 1974SOL    HW217142   8.382   3.968   5.839  0.2182 -0.2996 -0.0280
 1975SOL     OW17143   1.203   2.097   0.976 -0.1310 -0.4047 -1.0609
 1975SOL    HW117144   1.142   2.168   0.941 -0.7787 -0.7597 -0.6543
 1975SOL    HW217145   1.270   2.073   0.905  0.9652  1.5646 -0.7514
 1976SOL     OW17146   7.542   3.199   4.886 -0.0035  0.4289  0.1709
 1976SOL    HW117147   7.461   3.151   4.851 -0.0242  1.4286 -1.1796
 1976SOL    HW217148   7.624   3.146   4.865 -0.2557 -0.3579  1.1304
 1977SOL     OW17149   9.226   4.746   4.320 -0.4140  0.6060 -0.0759
 1977SOL    HW117150   9.155   4.711   4.259 -0.2195  0.2883 -0.1214
 1977SOL    HW217151   9.278   4.817   4.273 -0.6489  0.7813 -0.0702
 1978SOL     OW17152   8.690   8.262   6.027  0.3058 -0.1660  0.1698
 1978SOL    HW117153   8.709   8.334   6.093 -1.3148  2.4796 -2.1477
 1978SOL    HW217154   8.776   8.233   5.983  0.7151  1.8863 -0.4104
 1979SOL     OW17155   9.910   6.066   3.588  0.1300 -0.4610 -0.0988
 1979SOL    HW117156   9.861   6.009   3.522 -1.4833  0.9805 -0.1939
 1979SOL    HW217157   9.957   6.139   3.540  0.4078 -0.4481  0.1943
 1980SOL     OW17158   8.114   5.276   2.028  0.1530 -0.0301  0.0368
 1980SOL    HW117159   8.070   5.335   1.960  1.1963  2.4480  1.4201
 1980SOL    HW217160   8.196   5.235   1.989 -1.5189 -1.9916 -1.4894
 1981SOL     OW17161   0.995   4.209   6.167  1.0001 -0.0847 -0.2842
 1981SOL    HW117162   1.005   4.268   6.087  1.3573  0.1539 -0.0686
 1981SOL    HW217163   1.063   4.236   6.236  0.2256  0.1856  0.3808
 1982SOL     OW17164   8.534   5.807   3.545  0.0981 -0.5505 -0.3306
 1982SOL    HW117165   8.459   5.746   3.571 -0.1707  0.5698  1.5975
 1982SOL    HW217166   8.543   5.880   3.613  2.3179 -0.1193 -1.0522
 1983SOL     OW17167   0.370   4.046   2.864  0.8602 -0.1584 -0.8823
 1983SOL    HW117168   0.425   3.975   2.819  2.5209  2.3541 -2.9558
 1983SOL    HW217169   0.341   4.114   2.796  0.6120  1.9670  1.2880
 1984SOL     OW17170   9.440   1.062   0.399 -0.5114 -0.2874  0.0602
 1984SOL    HW117171   9.538   1.045   0.397 -0.5601 -0.6454  0.4878
 1984SOL    HW217172   9.401   1.023   0.483 -1.1752 -1.0454 -0.5827
 1985SOL     OW17173   9.692   5.771   2.920  0.1145 -0.0627 -0.3014
 1985SOL    HW117174   9.744   5.840   2.970  0.0748 -0.3892  0.1933
 1985SOL    HW217175   9.603   5.809   2.894  0.0364  0.0224  0.0946
 1986SOL     OW17176   8.568   0.998   6.389 -0.2322  0.0866 -0.2993
 1986SOL    HW117177   8.652   1.002   6.444  1.5699 -1.7904 -2.7724
 1986SOL    HW217178   8.516   0.916   6.413 -0.8030  0.6615  0.4458
 1987SOL     OW17179   0.846   4.008   3.304 -0.3928 -0.5036 -0.0668
 1987SOL    HW117180   0.845   4.108   3.297 -0.8006 -0.5272 -0.4085
 1987SOL    HW217181   0.888   3.970   3.222 -1.8257 -0.6668 -0.7425
 1988SOL     OW17182   4.944   1.496   3.212 -0.1432  0.1894 -0.2763
 1988SOL    HW117183   4.888   1.480   3.131 -1.5828  1.1760  0.5203
 1988SOL    HW217184   5.000   1.414   3.229 -1.4833 -0.8992 -0.9523
 1989SOL     OW17185   2.858   8.086   1.876 -0.0036  0.1341 -0.0414
 1989SOL    HW117186   2.769   8.042   1.864  0.2853 -0.5552  0.2906
 1989SOL    HW217187   2.886   8.130   1.791 -0.1236 -0.6680 -0.5069
 1990SOL     OW17188   1.204   7.113   3.475 -0.2195 -0.3200  0.6157
 1990SOL    HW117189   1.279   7.173   3.448  0.6018 -1.1751  0.9670
 1990SOL    HW217190   1.140   7.164   3.534  0.2077  0.3393  0.5116
 1991SOL     OW17191   8.973   5.052   5.192  0.2816 -0.1441  0.7207
 1991SOL    HW117192   8.908   5.097   5.254 -0.0838 -0.0532  0.2719
 1991SOL    HW217193   9.045   5.117   5.166 -1.1569  0.7087 -1.2527
 1992SOL     OW17194   4.117   3.100   2.737 -0.1717  0.5159 -0.0792
 1992SOL    HW117195   4.214   3.116   2.756  0.0201 -0.4452 -0.2072
 1992SOL    HW217196   4.061   3.157   2.797  0.4518 -0.7152  1.7432
 1993SOL     OW17197   4.669   4.471   0.090  0.3214 -0.1294  0.8115
 1993SOL    HW117198   4.718   4.389   0.117 -0.4442 -0.7369  0.3888
 1993SOL    HW217199   4.706   4.550   0.138  1.5897 -0.6003  0.6205
 1994SOL     OW17200   5.417   8.120   1.947 -0.0370 -0.2278 -0.4272
 1994SOL    HW117201   5.419   8.021   1.933 -0.7892 -0.9007  3.6044
 1994SOL    HW217202   5.508   8.151   1.977 -0.3588 -0.0891  0.4285
 1995SOL     OW17203   1.697   5.403   2.893  0.1227  0.2436 -0.2125
 1995SOL    HW117204   1.624   5.456   2.936  0.7193  1.2016 -0.3665
 1995SOL    HW217205   1.743   5.460   2.824  1.1402 -0.2915  0.0289
 1996SOL     OW17206   7.555   6.981   4.219  0.0212 -0.0285  0.7053
 1996SOL    HW117207   7.468   7.024   4.244 -1.3775 -2.2192 -0.2825
 1996SOL    HW217208   7.594   6.936   4.299 -1.4540 -1.8995  0.3983
 1997SOL     OW17209   1.087   2.891   1.484  0.1704 -0.3046  0.7188
 1997SOL    HW117210   1.048   2.817   1.431 -0.4535  1.4629 -1.3220
 1997SOL    HW217211   1.020   2.964   1.496  2.0680  1.8006 -0.9577
 1998SOL     OW17212   9.296   8.763   2.773 -0.1478 -0.4154  0.5004
 1998SOL    HW117213   9.338   8.709   2.700  1.2481 -0.2281  1.1522
 1998SOL    HW217214   9.325   8.859   2.765 -1.5947  0.0087  0.1089
 1999SOL     OW17215   8.889   4.104   6.235  0.6627  0.0545 -0.1963
 1999SOL    HW117216   8.872   4.203   6.234 -3.6136 -0.5661  1.2521
 1999SOL    HW217217   8.920   4.076   6.326  1.9296  0.0190 -0.6221
 2000SOL     OW17218   3.117   4.271   2.299  0.4144 -0.4421 -0.4235
 2000SOL    HW117219   3.177   4.337   2.254  0.3185 -0.2930 -0.3314
 2000SOL    HW217220   3.038   4.319   2.338  0.0395 -0.6869 -0.8779
 2001SOL     OW17221   3.315   1.558   2.472  0.8023 -0.1015 -0.1349
 2001SOL    HW117222   3.283   1.653   2.479  1.7536  0.3245 -1.2774
 2001SOL    HW217223   3.381   1.551   2.396  0.0688 -1.8600 -0.6319
 2002SOL     OW17224   3.846   3.843   0.277 -0.2023  0.5172 -0.4299
 2002SOL    HW117225   3.782   3.898   0.224 -0.2304 -0.5917 -1.5723
 2002SOL    HW217226   3.833   3.861   0.374 -1.3581  1.2585 -0.7106
 2003SOL     OW17227   2.185   4.739   1.857 -0.8944 -0.1313  0.0481
 2003SOL    HW117228   2.199   4.691   1.771  0.5132  0.5406 -0.1063
 2003SOL    HW217229   2.104   4.797   1.851 -0.1641  0.7593 -1.1853
 2004SOL     OW17230   1.214   2.026   4.640  0.2994  0.3177 -0.0629
 2004SOL    HW117231   1.178   1.949   4.693  0.7143  0.6789  0.7580
 2004SOL    HW217232   1.153   2.104   4.650  2.3500  1.5893  3.0513
 2005SOL     OW17233   8.091   2.979   6.677 -0.1563 -0.5610 -0.2361
 2005SOL    HW117234   8.161   2.971   6.606  0.0265 -0.8729 -0.0160
 2005SOL    HW217235   8.100   2.904   6.742 -0.6179 -0.5309 -0.1389
 2006SOL     OW17236   2.219   2.789   5.658 -0.0405  0.3917 -0.3524
 2006SOL    HW117237   2.292   2.799   5.725 -1.2243  0.8995  0.9023
 2006SOL    HW217238   2.226   2.699   5.614  1.1542  0.3200 -0.0359
 2007SOL     OW17239   4.826   9.156   2.572 -0.0713  0.3668 -0.0462
 2007SOL    HW117240   4.733   9.177   2.539  0.3394  0.1522 -1.3953
 2007SOL    HW217241   4.845   9.210   2.654 -1.4342  0.3298  0.3143
 2008SOL     OW17242   5.799   1.362   2.156 -0.3183 -0.3701  0.6483
 2008SOL    HW117243   5.816   1.308   2.074  2.2775  0.8405  0.3506
 2008SOL    HW217244   5.777   1.456   2.131 -0.0511 -0.1209  1.3253
 2009SOL     OW17245   8.147   0.591   0.142  0.0183 -0.3061 -0.0652
 2009SOL    HW117246   8.107   0.619   0.055  0.6814  0.8364 -0.0081
 2009SOL    HW217247   8.236   0.549   0.126 -0.6595 -1.7705 -0.0868
 2010SOL     OW17248   1.470   2.059   6.408  0.2625 -0.1676  0.0076
 2010SOL    HW117249   1.409   1.987   6.375  1.1725 -1.8872  1.9799
 2010SOL    HW217250   1.512   2.105   6.330 -0.7643 -1.4001 -1.3018
 2011SOL     OW17251   8.305   2.396   0.918 -0.2409  0.3295  0.2894
 2011SOL    HW117252   8.316   2.414   0.820 -0.4187  0.3820  0.2796
 2011SOL    HW217253   8.343   2.472   0.971  3.5654 -1.4818  0.3366
 2012SOL     OW17254   0.881   5.969   4.028  0.1267 -0.1624 -0.1342
 2012SOL    HW117255   0.947   5.941   3.958  0.2294  0.1898 -0.1775
 2012SOL    HW217256   0.927   6.028   4.095 -0.0538 -0.2209  0.0393
 2013SOL     OW17257   1.699   6.214   6.745 -0.0281 -0.6011  0.2209
 2013SOL    HW117258   1.647   6.209   6.659 -1.1021 -1.0716  0.8867
 2013SOL    HW217259   1.645   6.262   6.814  0.9102 -0.0561  0.5910
 2014SOL     OW17260   6.890   0.282   1.951  0.5874 -0.8254 -0.3594
 2014SOL    HW117261   6.976   0.246   1.987  0.9917 -1.1722 -1.6496
 2014SOL    HW217262   6.867   0.236   1.865 -1.5331 -1.6323  0.5824
 2015SOL     OW17263   3.543   4.549   6.018 -0.3969 -0.3278 -0.9935
 2015SOL    HW117264   3.623   4.552   6.078 -0.0698  0.1950 -1.4464
 2015SOL    HW217265   3.560   4.483   5.945 -0.5978 -0.6081 -0.7887
 2016SOL     OW17266   9.478   1.213   2.407 -0.2023 -0.2556  0.0965
 2016SOL    HW117267   9.466   1.259   2.495  0.4362 -0.3369  0.2221
 2016SOL    HW217268   9.569   1.173   2.402 -0.4041 -0.6527 -0.4142
 2017SOL     OW17269   2.729   6.535   4.139 -0.2700 -0.0569  0.0108
 2017SOL    HW117270   2.774   6.620   4.110 -0.8019  0.1142 -0.3108
 2017SOL    HW217271   2.630   6.546   4.134 -0.3336 -1.1754 -1.4238
 2018SOL     OW17272   0.855   9.554   6.185 -0.2859  0.0142 -0.3806
 2018SOL    HW117273   0.799   9.612   6.244 -0.0375 -0.0113 -0.1195
 2018SOL    HW217274   0.860   9.462   6.224 -1.5131 -0.4678 -1.3062
 2019SOL     OW17275   8.112   2.737   4.396 -0.0089  0.5877  0.7425
 2019SOL    HW117276   8.054   2.655   4.391  1.9676 -0.7972 -0.1758
 2019SOL    HW217277   8.055   2.819   4.384 -2.0002 -0.6256  1.5600
 2020SOL     OW17278   7.612   6.475   2.252  0.0631 -0.1193 -0.2199
 2020SOL    HW117279   7.649   6.391   2.212  0.1966 -1.9842  3.5664
 2020SOL    HW217280   7.539   6.452   2.316 -1.1645  2.8265 -0.4931
 2021SOL     OW17281   8.230   3.234   5.646  0.1885 -0.0352 -0.3757
 2021SOL    HW117282   8.237   3.143   5.604  0.6528  0.1600 -0.7381
 2021SOL    HW217283   8.195   3.226   5.739  1.3032 -0.7033  0.0052
 2022SOL     OW17284   2.939   0.412   5.107 -0.4504  0.1538 -0.4218
 2022SOL    HW117285   3.016   0.458   5.062  0.5377 -0.5312  0.5228
 2022SOL    HW217286   2.854   0.434   5.059  0.4034  0.4788 -1.8250
 2023SOL     OW17287   7.710   1.384   3.848 -0.0144 -0.5825 -0.5348
 2023SOL    HW117288   7.638   1.344   3.791  1.0510 -1.7039 -1.1218
 2023SOL    HW217289   7.737   1.319   3.919  0.2708 -0.0786 -0.1780
 2024SOL     OW17290   9.546   4.433   6.747  0.1177  0.0390  0.3486
 2024SOL    HW117291   9.599   4.506   6.789  1.0051 -0.5521  0.2829
 2024SOL    HW217292   9.538   4.450   6.649 -1.1792  0.9488  0.6024
 2025SOL     OW17293   4.868   8.977   1.786  0.0425 -0.4243 -0.5004
 2025SOL    HW117294   4.928   8.909   1.742 -1.8450 -2.5962  0.1909
 2025SOL    HW217295   4.797   8.930   1.838 -1.0628  2.1246  0.3730
 2026SOL     OW17296   1.776   5.011   3.167  0.1819 -0.1889  0.2195
 2026SOL    HW117297   1.771   4.924   3.217  0.1116 -0.6273 -0.5473
 2026SOL    HW217298   1.827   4.998   3.082  0.2467  0.5437  0.1439
 2027SOL     OW17299   1.405   0.760   6.468 -0.0748  0.1800 -0.2757
 2027SOL    HW117300   1.499   0.795   6.465 -0.6662  2.0912  1.6910
 2027SOL    HW217301   1.341   0.835   6.455 -1.3449 -0.9651 -0.7478
 2028SOL     OW17302   2.159   1.181   4.328 -0.4865  0.0031  0.2947
 2028SOL    HW117303   2.059   1.180   4.321 -0.4311 -1.4318 -0.5295
 2028SOL    HW217304   2.199   1.186   4.237  0.1904 -1.2356  0.5020
 2029SOL     OW17305   8.092   2.316   0.559  0.4041  0.0286  0.1125
 2029SOL    HW117306   8.169   2.259   0.589  0.2428  0.1883  0.8521
 2029SOL    HW217307   8.122   2.411   0.552  0.2747  0.0936  0.4176
 2030SOL     OW17308   7.570   9.120   6.002 -0.3450 -0.3638  0.1042
 2030SOL    HW117309   7.544   9.145   5.909  1.1914  0.7643 -0.0393
 2030SOL    HW217310   7.626   9.037   6.001 -2.6694 -1.9861  0.2951
 2031SOL     OW17311   7.598   4.701   5.571  0.0444 -0.0337  0.9542
 2031SOL    HW117312   7.502   4.700   5.544 -0.0199  0.9231  1.1311
 2031SOL    HW217313   7.626   4.610   5.600 -0.2378 -0.8056 -1.1076
 2032SOL     OW17314   8.400   3.505   3.663 -0.0250 -0.1659  0.1551
 2032SOL    HW117315   8.397   3.492   3.762  4.0882 -4.4090 -0.1119
 2032SOL    HW217316   8.334   3.443   3.620 -1.5747  1.4401  0.1572
 2033SOL     OW17317   1.308   4.883   3.944  0.4504 -0.0040  0.5565
 2033SOL    HW117318   1.345   4.790   3.944  0.0535 -0.2378 -2.5906
 2033SOL    HW217319   1.337   4.930   3.860 -0.5313  2.2329  1.4247
 2034SOL     OW17320   6.965   3.156   1.015  0.3754  0.3588 -0.1623
 2034SOL    HW117321   6.910   3.234   0.986  0.3971  0.7417  0.8000
 2034SOL    HW217322   6.999   3.107   0.935 -0.4087  0.7944 -0.7670
 2035SOL     OW17323   1.511   0.203   4.979  0.5226  0.1077  0.4365
 2035SOL    HW117324   1.439   0.138   5.003  0.8691 -0.5623 -0.2915
 2035SOL    HW217325   1.561   0.230   5.061 -0.4696  0.4829  0.9289
 2036SOL     OW17326   7.918   4.002   2.701 -0.0030  0.3646 -0.3510
 2036SOL    HW117327   7.865   4.082   2.728 -1.2277 -0.1815 -1.1037
 2036SOL    HW217328   8.008   4.032   2.668  0.5611  1.2190  1.8537
 2037SOL     OW17329   7.269   7.085   4.272 -0.3024 -0.2804 -0.1483
 2037SOL    HW117330   7.195   7.141   4.233 -0.1415 -0.1563 -0.2771
 2037SOL    HW217331   7.266   7.091   4.371  0.1304  0.4989 -0.1810
 2038SOL     OW17332   3.052   9.658   1.313  0.1520 -0.1310  0.6584
 2038SOL    HW117333   3.117   9.658   1.236  0.2353  0.1094  0.7273
 2038SOL    HW217334   3.008   9.569   1.320  0.1799 -0.1698  0.3587
 2039SOL     OW17335   8.891   6.999   5.356 -0.4310 -0.3574  0.0603
 2039SOL    HW117336   8.806   7.047   5.378 -0.8650 -0.8165 -0.5959
 2039SOL    HW217337   8.959   7.065   5.323 -0.6183 -0.0217  0.3414
 2040SOL     OW17338   2.118   8.269   4.540  0.1028  0.3001  0.6175
 2040SOL    HW117339   2.153   8.363   4.537 -1.3368  0.8700  1.2852
 2040SOL    HW217340   2.194   8.205   4.526  0.9961  1.5703 -0.5077
 2041SOL     OW17341   0.801   0.485   1.599 -0.0200  0.4467 -0.5023
 2041SOL    HW117342   0.759   0.574   1.579  1.5160  1.0502 -1.1221
 2041SOL    HW217343   0.749   0.412   1.553 -0.5579  1.1437 -1.0152
 2042SOL     OW17344   9.557   1.690   0.494  0.0451 -1.1124 -0.3546
 2042SOL    HW117345   9.506   1.654   0.416  1.7627  0.5439 -2.3275
 2042SOL    HW217346   9.506   1.766   0.535 -0.7107 -1.7729 -0.0675
 2043SOL     OW17347   1.954   1.981   6.082  0.5324 -0.6488  0.7249
 2043SOL    HW117348   1.957   1.916   6.157 -1.4262 -1.3968  0.1781
 2043SOL    HW217349   1.986   1.936   5.998 -0.3747 -0.7643  0.4422
 2044SOL     OW17350   4.588   2.768   1.207 -0.1769  0.6224  0.1660
 2044SOL    HW117351   4.491   2.745   1.220 -0.4947  1.0245 -1.4217
 2044SOL    HW217352   4.601   2.809   1.117  1.5329  0.2900  0.2404
 2045SOL     OW17353   7.595   6.838   5.421 -0.4988  0.1029  0.7955
 2045SOL    HW117354   7.617   6.932   5.447 -1.9334  0.7379 -0.1808
 2045SOL    HW217355   7.590   6.780   5.502 -1.4499  1.2845  1.5969
 2046SOL     OW17356   6.864   0.328   1.015 -0.0690  0.0377 -0.2323
 2046SOL    HW117357   6.904   0.418   0.997 -1.3237  0.9487  1.3287
 2046SOL    HW217358   6.765   0.333   1.002  0.0490 -1.6096 -1.9050
 2047SOL     OW17359   9.158   1.317   5.830 -0.5995 -0.4404  0.4046
 2047SOL    HW117360   9.106   1.382   5.774 -0.8402 -0.4479  0.6165
 2047SOL    HW217361   9.149   1.225   5.791 -1.4697 -0.5915  0.9227
 2048SOL     OW17362   9.592   6.566   4.952 -0.1383  0.4394 -0.4666
 2048SOL    HW117363   9.614   6.469   4.963  0.2178  0.5098 -0.5181
 2048SOL    HW217364   9.597   6.591   4.855  2.8415  1.1923 -0.1846
 2049SOL     OW17365   9.928   4.995   3.958 -0.6037 -0.6545 -0.2238
 2049SOL    HW117366  10.016   5.033   3.987 -0.8638 -0.3536  0.1734
 2049SOL    HW217367   9.912   4.908   4.005 -0.3576 -0.8805 -0.5588
 2050SOL     OW17368   4.982   7.092   1.221  0.1944 -0.0668 -0.5344
 2050SOL    HW117369   4.948   7.164   1.282 -1.3048  0.7181 -2.2393
 2050SOL    HW217370   4.905   7.054   1.169  1.2607 -1.5681 -1.0354
 2051SOL     OW17371   7.764   8.537   3.234  0.2565 -0.6292 -0.6821
 2051SOL    HW117372   7.757   8.630   3.199 -0.6109  0.0712  1.3050
 2051SOL    HW217373   7.676   8.491   3.224  0.1266 -0.5679  0.1743
 2052SOL     OW17374   2.932   8.957   3.789  0.1642  0.2798  0.0831
 2052SOL    HW117375   2.875   9.039   3.798 -0.7267 -0.3554  0.3769
 2052SOL    HW217376   2.919   8.918   3.697  1.0528  0.8077 -0.2659
 2053SOL     OW17377   0.221   7.341   4.007 -0.0150  0.3126 -0.3473
 2053SOL    HW117378   0.282   7.393   4.068 -0.5430 -0.6476  1.0259
 2053SOL    HW217379   0.127   7.353   4.037 -0.2413 -0.5033 -0.7365
 2054SOL     OW17380   9.378   8.911   1.655  0.1515 -0.2532 -0.4026
 2054SOL    HW117381   9.447   8.903   1.727 -0.0913  2.4367  0.1836
 2054SOL    HW217382   9.325   8.826   1.650  0.0909 -0.4513  2.6720
 2055SOL     OW17383   7.404   4.556   0.859  0.4601  0.2196  0.2900
 2055SOL    HW117384   7.503   4.568   0.852  0.4354 -1.0079 -2.7553
 2055SOL    HW217385   7.359   4.598   0.780 -1.2491 -1.4003  0.3531
 2056SOL     OW17386   8.396   3.046   2.436 -0.3441 -0.3715 -0.1587
 2056SOL    HW117387   8.344   2.996   2.366  0.9101 -1.0886 -0.5851
 2056SOL    HW217388   8.415   3.138   2.402 -0.5102 -0.4187 -0.3906
 2057SOL     OW17389   7.041   5.901   0.585  0.0653 -0.1323 -0.3219
 2057SOL    HW117390   7.011   5.933   0.675  1.5661 -0.7433  0.4071
 2057SOL    HW217391   7.007   5.808   0.569 -1.3612  0.4897 -0.9778
 2058SOL     OW17392   6.197   1.319   2.662 -0.1989  0.3507  0.1071
 2058SOL    HW117393   6.279   1.371   2.641  0.0303 -0.4969 -1.1103
 2058SOL    HW217394   6.116   1.372   2.638  0.0275  0.3271 -0.7008
 2059SOL     OW17395   8.417   6.447   5.836  0.1679 -0.2077  0.2044
 2059SOL    HW117396   8.325   6.427   5.802 -0.2019  0.0289  1.0582
 2059SOL    HW217397   8.430   6.405   5.925  0.5144  0.6405  0.5592
 2060SOL     OW17398   0.165   9.057   2.108  0.1421  0.1525  0.3384
 2060SOL    HW117399   0.237   8.995   2.139  0.1014  0.5777  1.3251
 2060SOL    HW217400   0.152   9.048   2.009  1.6148  0.1314  0.1411
 2061SOL     OW17401   8.147   8.170   0.908 -0.1827 -0.3648  0.4712
 2061SOL    HW117402   8.122   8.249   0.852  2.3757  1.3761  1.6704
 2061SOL    HW217403   8.173   8.094   0.848 -0.4580  0.4392 -0.6899
 2062SOL     OW17404   2.604   3.317   1.807  0.2122 -0.1195  0.4539
 2062SOL    HW117405   2.702   3.295   1.806  0.7946  2.2940  0.9673
 2062SOL    HW217406   2.570   3.320   1.713  1.3749  1.9333  0.0533
 2063SOL     OW17407   0.667   4.752   1.422 -0.0746 -0.0352 -0.0568
 2063SOL    HW117408   0.621   4.664   1.434 -0.1235 -0.1399 -0.9876
 2063SOL    HW217409   0.761   4.738   1.392 -0.3562  0.2447 -1.0826
 2064SOL     OW17410   1.926   2.379   5.378 -0.5734 -0.1012 -0.5901
 2064SOL    HW117411   1.992   2.453   5.391  0.6639 -1.1962 -0.3996
 2064SOL    HW217412   1.889   2.382   5.286  0.3149  0.1001 -0.9474
 2065SOL     OW17413   4.109   1.636   4.569 -0.2209  0.3475 -0.4920
 2065SOL    HW117414   4.051   1.566   4.527  2.7400 -1.3388 -1.8976
 2065SOL    HW217415   4.078   1.726   4.541 -1.8556 -0.5333 -1.5918
 2066SOL     OW17416   9.511   4.895   5.668 -0.0105  0.6520  0.1938
 2066SOL    HW117417   9.521   4.951   5.751  2.8662  1.1519 -0.4436
 2066SOL    HW217418   9.472   4.951   5.595  0.2807  1.0629  0.3477
 2067SOL     OW17419   2.081   0.631   3.555  0.8059  0.5976 -0.1844
 2067SOL    HW117420   2.098   0.699   3.483 -2.2001  1.6491  0.0359
 2067SOL    HW217421   2.041   0.676   3.635 -0.8441 -1.3574  0.1324
 2068SOL     OW17422   8.170   2.226   5.602  0.0414  0.5543 -0.1716
 2068SOL    HW117423   8.258   2.178   5.595 -0.5223 -0.4151 -0.7347
 2068SOL    HW217424   8.174   2.291   5.677  0.9373 -0.1310  0.3943
 2069SOL     OW17425   5.751   5.405   1.389  0.4372  0.0113  0.1735
 2069SOL    HW117426   5.697   5.467   1.446  0.1331 -0.0912 -0.0008
 2069SOL    HW217427   5.818   5.459   1.338  1.8693 -0.1080  1.9220
 2070SOL     OW17428   9.444   8.785   5.419 -0.0367 -0.1086 -0.1039
 2070SOL    HW117429   9.355   8.831   5.413 -1.0001 -2.1248 -2.1836
 2070SOL    HW217430   9.488   8.785   5.329  1.9646  0.6156  0.8396
 2071SOL     OW17431   2.860   0.364   3.201  0.0899 -0.7070  0.4843
 2071SOL    HW117432   2.801   0.434   3.161 -0.2258 -0.1494  1.9103
 2071SOL    HW217433   2.956   0.385   3.182 -0.0334 -0.1673  0.4704
 2072SOL     OW17434   2.139   8.514   6.279 -0.1021  0.7060  0.6295
 2072SOL    HW117435   2.164   8.503   6.183 -1.9478  0.7394  0.1266
 2072SOL    HW217436   2.098   8.604   6.293 -0.3121  0.5041  1.3473
 2073SOL     OW17437   0.616   2.197   3.380 -0.1054 -0.2464  0.4933
 2073SOL    HW117438   0.523   2.227   3.403 -0.9895 -1.8982 -0.7779
 2073SOL    HW217439   0.648   2.132   3.449 -0.1198 -0.1195  0.6198
 2074SOL     OW17440   3.107   2.583   4.400  0.2776  0.2973 -0.3071
 2074SOL    HW117441   3.101   2.496   4.351 -1.4726  0.7468 -0.9364
 2074SOL    HW217442   3.040   2.585   4.475 -0.5569  1.5328 -1.0476
 2075SOL     OW17443   3.570   9.554   3.951 -0.7152  0.0231  0.0870
 2075SOL    HW117444   3.658   9.555   3.904 -1.3447 -1.0447 -1.1174
 2075SOL    HW217445   3.524   9.641   3.936  0.0662  0.5374  0.6070
 2076SOL     OW17446   8.107   3.545   4.687  0.5040 -0.2752  0.3796
 2076SOL    HW117447   8.019   3.517   4.726 -0.1521 -0.1247 -0.9711
 2076SOL    HW217448   8.145   3.621   4.742 -0.4680  0.0324  0.6395
 2077SOL     OW17449   1.907   2.901   6.483 -0.3209 -0.2214  0.3704
 2077SOL    HW117450   1.914   2.913   6.384  1.8042  1.4155  0.6855
 2077SOL    HW217451   1.920   2.805   6.506 -0.2780 -0.5300 -0.8935
 2078SOL     OW17452   2.376   1.306   0.398 -0.2665 -0.4343 -0.1986
 2078SOL    HW117453   2.279   1.285   0.389 -0.6321  0.8003  0.7016
 2078SOL    HW217454   2.410   1.344   0.312 -0.6996 -0.4209 -0.3675
 2079SOL     OW17455   9.917   5.330   5.010  0.0594  0.0078  0.1486
 2079SOL    HW117456   9.831   5.284   5.032 -0.3883  0.4286 -0.7026
 2079SOL    HW217457   9.968   5.346   5.094 -0.3844 -0.8429  0.5950
 2080SOL     OW17458   9.039   3.270   2.666  0.3300 -0.6050 -0.3133
 2080SOL    HW117459   9.081   3.279   2.575  1.2377 -0.8943  0.0724
 2080SOL    HW217460   8.949   3.227   2.657 -0.3363  0.9834 -1.2563
 2081SOL     OW17461   7.845   6.405   1.835  0.6168  0.3090  0.4231
 2081SOL    HW117462   7.828   6.341   1.909  1.7325  0.4147  0.7769
 2081SOL    HW217463   7.771   6.472   1.831  0.2100 -0.1029  0.9978
 2082SOL     OW17464   8.927   3.610   0.032  0.2903 -0.5731 -0.2744
 2082SOL    HW117465   8.908   3.683   0.097  0.0109  0.8849 -1.9440
 2082SOL    HW217466   8.872   3.530   0.055 -0.2955  0.1419  0.8830
 2083SOL     OW17467   0.245   3.907   3.718  0.1938 -0.3575 -0.8944
 2083SOL    HW117468   0.222   3.976   3.787  0.2951 -0.8168 -0.3939
 2083SOL    HW217469   0.324   3.854   3.749  0.5867 -0.1999 -1.6235
 2084SOL     OW17470   2.096   6.909   1.265 -0.1387 -0.1513 -0.1133
 2084SOL    HW117471   2.134   6.903   1.357 -0.8970 -1.1203  0.1561
 2084SOL    HW217472   2.062   7.002   1.248  2.0255  0.6284 -0.2496
 2085SOL     OW17473   4.096   4.662   3.931  0.2953  0.2738  0.9880
 2085SOL    HW117474   4.037   4.643   3.853  0.8385  1.6941  0.2203
 2085SOL    HW217475   4.128   4.757   3.927  0.9313  0.1419  2.5270
 2086SOL     OW17476   5.544   8.573   4.288 -0.5356  0.1444  0.7327
 2086SOL    HW117477   5.631   8.587   4.241 -0.4645 -0.1383  0.7833
 2086SOL    HW217478   5.519   8.657   4.337 -0.0306  0.0560  1.1495
 2087SOL     OW17479   7.040   3.172   3.531  0.4531 -0.3499 -0.2399
 2087SOL    HW117480   7.037   3.244   3.600  0.2149 -1.7926  1.2957
 2087SOL    HW217481   6.970   3.190   3.462  0.3427  0.8416  0.1617
 2088SOL     OW17482   8.625   6.786   4.067 -0.3126 -0.8567 -0.7274
 2088SOL    HW117483   8.583   6.761   4.155  0.1386  0.3021 -0.1758
 2088SOL    HW217484   8.709   6.733   4.054 -0.7958 -1.6048 -0.8335
 2089SOL     OW17485   1.776   1.663   6.612 -0.3075 -0.2483  0.5612
 2089SOL    HW117486   1.861   1.695   6.570 -1.1037  0.5232 -0.5077
 2089SOL    HW217487   1.737   1.737   6.667 -2.1789  0.6920 -1.9493
 2090SOL     OW17488   1.301   1.407   3.070 -0.2298 -0.3967 -0.2847
 2090SOL    HW117489   1.348   1.429   3.156 -2.4984  0.8893  0.6471
 2090SOL    HW217490   1.303   1.308   3.056  0.7681 -0.5627  0.8805
 2091SOL     OW17491   2.910   6.895   0.142  0.6854  0.9657 -0.6912
 2091SOL    HW117492   2.915   6.972   0.078 -0.6608  1.1247 -0.6317
 2091SOL    HW217493   2.843   6.829   0.109  0.5139  0.6950  0.1829
 2092SOL     OW17494   0.900   6.270   3.448  0.2932  0.3488 -0.1793
 2092SOL    HW117495   0.888   6.171   3.455 -0.9072  0.4704 -0.3943
 2092SOL    HW217496   0.916   6.296   3.353  0.3344  0.3829 -0.1631
 2093SOL     OW17497   4.524   7.687   3.952  0.7426 -0.0239  0.0833
 2093SOL    HW117498   4.555   7.655   4.042 -0.1448 -0.6194  0.1852
 2093SOL    HW217499   4.554   7.781   3.938  0.1808  0.3548  1.3599
 2094SOL     OW17500   7.788   3.852   5.022 -0.0626  0.6852  0.2398
 2094SOL    HW117501   7.702   3.859   4.971  0.0929  0.7505 -0.0090
 2094SOL    HW217502   7.774   3.793   5.102  0.0613 -0.5284 -0.6300
 2095SOL     OW17503   1.785   7.064   2.785  0.4900 -0.2746 -0.4732
 2095SOL    HW117504   1.859   7.086   2.849  0.9400  1.1034 -1.4554
 2095SOL    HW217505   1.698   7.098   2.822  0.3805 -1.5799  0.5118
 2096SOL     OW17506   4.725   2.243   3.768  0.5589  0.0939 -0.5311
 2096SOL    HW117507   4.740   2.147   3.791  1.2726  0.3386  0.0630
 2096SOL    HW217508   4.627   2.260   3.757  0.3486 -0.4867  0.3754
 2097SOL     OW17509   9.340   8.293   5.568 -0.7263 -0.1145  0.1588
 2097SOL    HW117510   9.418   8.242   5.605  0.5062  0.7409 -1.2351
 2097SOL    HW217511   9.290   8.234   5.504 -0.5238 -0.2558  0.1298
 2098SOL     OW17512   5.202   8.607   2.483  0.0672  0.6223 -0.2723
 2098SOL    HW117513   5.155   8.519   2.483 -3.4261  2.4215 -0.7014
 2098SOL    HW217514   5.275   8.605   2.414  1.4760 -2.5791  1.1779
 2099SOL     OW17515   9.630   7.830   5.146  0.5603  0.3151 -0.6984
 2099SOL    HW117516   9.645   7.927   5.161 -0.5789  0.8843 -3.0330
 2099SOL    HW217517   9.538   7.815   5.110 -0.5990 -2.0026  2.9508
 2100SOL     OW17518   9.071   6.522   4.981  0.4285  0.2027  0.1992
 2100SOL    HW117519   9.162   6.560   4.998  1.1129 -0.8027 -1.0949
 2100SOL    HW217520   9.078   6.424   4.963 -1.3493 -0.6486  3.7094
 2101SOL     OW17521   8.389   7.652   2.179 -0.7611 -0.3431 -0.6185
 2101SOL    HW117522   8.325   7.716   2.137  0.3564  0.0380 -1.8064
 2101SOL    HW217523   8.359   7.558   2.162 -1.8099 -0.1484  0.1553
 2102SOL     OW17524   7.930   3.209   3.471  0.2237 -0.3912 -0.1773
 2102SOL    HW117525   7.960   3.303   3.457  1.6736 -0.9220 -0.7774
 2102SOL    HW217526   7.996   3.161   3.529  0.6678 -1.6347 -1.6754
 2103SOL     OW17527   6.310   1.294   1.184 -0.3853  0.0141 -0.4199
 2103SOL    HW117528   6.408   1.288   1.202 -0.4182  1.3158  0.2373
 2103SOL    HW217529   6.292   1.277   1.087  0.6066  0.9646 -0.7768
 2104SOL     OW17530   0.618   0.785   5.229 -0.4059  0.3570  0.4297
 2104SOL    HW117531   0.583   0.834   5.149 -0.5980  0.8718  0.8222
 2104SOL    HW217532   0.698   0.730   5.203 -0.3270  0.7035 -0.0648
 2105SOL     OW17533   5.506   7.556   4.805 -0.2216 -0.7773 -0.4736
 2105SOL    HW117534   5.420   7.586   4.765  0.3359  2.8647  0.9091
 2105SOL    HW217535   5.574   7.543   4.732 -1.0732 -0.7102 -1.2856
 2106SOL     OW17536   4.920   7.044   2.131  0.1998 -0.4899 -0.6394
 2106SOL    HW117537   4.930   7.004   2.040  0.8918  0.3087 -0.9224
 2106SOL    HW217538   4.973   7.128   2.136 -3.0225  1.6546 -0.8116
 2107SOL     OW17539   1.598   8.048   5.574  0.2344  0.4143 -0.3347
 2107SOL    HW117540   1.511   8.004   5.594  0.7695 -0.3957  0.2624
 2107SOL    HW217541   1.584   8.146   5.560 -0.5442  0.5525  1.3130
 2108SOL     OW17542   8.940   8.166   0.865 -0.1095 -0.7295 -0.5530
 2108SOL    HW117543   8.887   8.251   0.862  0.3215 -0.2945  2.4538
 2108SOL    HW217544   9.009   8.172   0.937  0.4491 -3.3256 -0.8215
 2109SOL     OW17545   8.982   5.606   1.891  0.2889 -0.1974  0.0805
 2109SOL    HW117546   8.925   5.525   1.881 -0.8501  0.3310  2.0207
 2109SOL    HW217547   9.076   5.584   1.865 -0.3419 -1.6780 -0.9898
 2110SOL     OW17548   9.485   0.424   3.159 -0.2580 -0.4810 -0.0553
 2110SOL    HW117549   9.495   0.327   3.179  0.4575 -0.2405  0.8026
 2110SOL    HW217550   9.522   0.444   3.069 -3.0844 -1.5107 -1.4897
 2111SOL     OW17551   1.243   6.463   6.464  0.3054 -0.1416 -0.5553
 2111SOL    HW117552   1.176   6.445   6.536  0.2871 -0.3542 -0.6244
 2111SOL    HW217553   1.207   6.532   6.401 -0.0891 -0.6567 -0.9092
 2112SOL     OW17554   6.523   8.336   4.216 -0.3622 -0.2355 -0.4931
 2112SOL    HW117555   6.434   8.307   4.250 -0.1251 -0.7794 -0.3263
 2112SOL    HW217556   6.531   8.435   4.223  0.3846 -0.4884  2.7982
 2113SOL     OW17557   1.906   3.421   4.195  0.1361 -0.0444 -0.3852
 2113SOL    HW117558   1.825   3.397   4.249 -0.5304  1.4971 -0.6600
 2113SOL    HW217559   1.889   3.401   4.099  0.5605 -0.9058 -0.2805
 2114SOL     OW17560   9.052   9.966   3.185 -0.5594  0.0952  0.1168
 2114SOL    HW117561   8.969   9.923   3.149  0.1130 -0.4267 -0.8457
 2114SOL    HW217562   9.028  10.026   3.262 -1.6755 -0.9283  0.5831
 2115SOL     OW17563   4.035   6.459   2.158  0.1960 -0.1825 -0.1833
 2115SOL    HW117564   4.013   6.363   2.172 -1.1962  0.1914  0.2082
 2115SOL    HW217565   3.966   6.501   2.098  0.9586  0.5042 -0.6015
 2116SOL     OW17566   2.360   8.755   1.080 -0.0699 -0.5416 -0.1699
 2116SOL    HW117567   2.356   8.846   1.038 -0.6376 -0.4148  0.1509
 2116SOL    HW217568   2.389   8.688   1.012  0.5327 -0.0951 -0.3638
 2117SOL     OW17569   8.772   6.986   2.109 -0.4215  0.0543 -0.1681
 2117SOL    HW117570   8.802   6.894   2.083 -1.8041  0.2637 -2.7149
 2117SOL    HW217571   8.728   6.983   2.199 -0.4627 -1.7662 -0.2313
 2118SOL     OW17572   7.983   7.798   3.311  0.1225 -0.2216 -0.3372
 2118SOL    HW117573   7.979   7.885   3.261 -0.6256 -0.2332 -0.3099
 2118SOL    HW217574   8.046   7.736   3.266  0.1686  0.1068 -0.7308
 2119SOL     OW17575   0.465   6.581   0.119  0.4070  0.0098  0.1988
 2119SOL    HW117576   0.412   6.632   0.051  0.5214 -0.5289 -0.3024
 2119SOL    HW217577   0.537   6.640   0.156  0.7223  0.1245 -0.5892
 2120SOL     OW17578   9.215   8.005   0.345  0.1229 -0.2285 -0.1416
 2120SOL    HW117579   9.313   7.982   0.350  0.2624  0.3063 -0.3946
 2120SOL    HW217580   9.198   8.089   0.397 -0.0618  0.1290 -0.7725
 2121SOL     OW17581   9.010   6.204   2.263  0.2919 -0.2666 -0.0840
 2121SOL    HW117582   8.973   6.223   2.172 -2.5185  0.5496  1.1721
 2121SOL    HW217583   9.003   6.287   2.319  0.7030 -1.1612  1.3112
 2122SOL     OW17584   0.661   7.746   1.214 -0.0585 -0.4658 -0.2362
 2122SOL    HW117585   0.665   7.839   1.179  0.6045 -0.1142  0.7426
 2122SOL    HW217586   0.572   7.729   1.256 -0.1481 -0.2396 -0.3372
 2123SOL     OW17587   8.572   0.259   2.266  0.1406 -0.3947 -0.2438
 2123SOL    HW117588   8.652   0.200   2.277  0.6626  0.2145 -0.6891
 2123SOL    HW217589   8.567   0.324   2.343  0.9359  0.5533 -0.9742
 2124SOL     OW17590   8.711   4.879   5.500  0.4438  0.4216 -0.5219
 2124SOL    HW117591   8.657   4.811   5.450  0.5153  0.1322 -0.2122
 2124SOL    HW217592   8.755   4.835   5.579 -1.7193  1.4031  1.2806
 2125SOL     OW17593   6.386   2.401   5.165 -0.3969 -0.2777  0.4189
 2125SOL    HW117594   6.360   2.305   5.155 -0.3378 -0.1325 -1.2057
 2125SOL    HW217595   6.309   2.452   5.203 -1.6058 -0.3660 -1.8110
 2126SOL     OW17596   6.736   1.565   4.663  0.1427 -0.0253  0.1316
 2126SOL    HW117597   6.790   1.582   4.580  1.0542  1.1768  0.9593
 2126SOL    HW217598   6.648   1.611   4.657  0.2597  0.1643 -0.1216
 2127SOL     OW17599   3.317   8.594   4.354 -0.3623 -0.0231  0.2933
 2127SOL    HW117600   3.235   8.542   4.327 -1.5099  2.6675 -1.6518
 2127SOL    HW217601   3.381   8.597   4.277  0.3934  0.1311  0.9203
 2128SOL     OW17602   0.342   5.507   1.065  0.2704  0.6387  0.0614
 2128SOL    HW117603   0.336   5.606   1.083 -0.7549  0.7610 -0.9228
 2128SOL    HW217604   0.272   5.481   0.998 -0.1500 -0.9391  1.0789
 2129SOL     OW17605   0.357   7.909   4.778 -0.0328 -0.3345  0.3763
 2129SOL    HW117606   0.284   7.881   4.840  0.2146  0.0917  0.8580
 2129SOL    HW217607   0.427   7.960   4.828  0.4718 -0.5146 -0.1306
 2130SOL     OW17608   3.673   2.674   3.309 -0.0096  0.2038 -0.1800
 2130SOL    HW117609   3.592   2.714   3.352  0.6122  0.3531  0.8792
 2130SOL    HW217610   3.687   2.717   3.220 -2.1373 -1.1327 -1.1844
 2131SOL     OW17611   2.660   2.626   1.563 -0.4031 -0.0890  0.1871
 2131SOL    HW117612   2.577   2.569   1.568 -0.6125  0.3295  2.0018
 2131SOL    HW217613   2.641   2.708   1.509 -1.1849  0.0014  0.5831
 2132SOL     OW17614   8.286   0.451   2.357 -0.7796 -0.1935 -0.0838
 2132SOL    HW117615   8.293   0.520   2.286  0.6518 -0.1251  0.1096
 2132SOL    HW217616   8.294   0.360   2.316 -2.6643 -0.2804 -0.3386
 2133SOL     OW17617   9.777   7.209   4.631 -0.4061  0.6145 -0.1517
 2133SOL    HW117618   9.849   7.204   4.562 -0.5711  0.0960 -0.2854
 2133SOL    HW217619   9.812   7.171   4.717 -0.3437  0.8638 -0.0660
 2134SOL     OW17620   8.846   2.993   0.328 -0.3120 -0.1567 -0.1980
 2134SOL    HW117621   8.892   2.990   0.239 -0.2267 -1.3727 -0.1302
 2134SOL    HW217622   8.911   3.021   0.398  0.2450 -1.4615 -0.1683
 2135SOL     OW17623   2.506   9.169   1.811  0.4646 -0.1845  0.5407
 2135SOL    HW117624   2.510   9.073   1.782  2.8418  0.0241  0.1290
 2135SOL    HW217625   2.488   9.173   1.910  0.3121 -1.0390  0.5519
 2136SOL     OW17626   0.660   0.415   0.581  0.1646  0.0613 -0.5379
 2136SOL    HW117627   0.672   0.457   0.671 -1.7374 -1.5468  0.5086
 2136SOL    HW217628   0.748   0.381   0.548  0.9994  1.2706  0.3907
 2137SOL     OW17629   6.975   0.011   4.464  0.3182 -0.2905  0.2967
 2137SOL    HW117630   6.992   0.081   4.534  2.1069 -2.4769  2.1225
 2137SOL    HW217631   6.944  -0.073   4.508  0.0269 -1.2383 -1.6957
 2138SOL     OW17632   2.812   9.342   6.075 -0.6553  0.0739 -0.2393
 2138SOL    HW117633   2.777   9.318   5.985 -2.2703 -0.9963  0.6543
 2138SOL    HW217634   2.740   9.333   6.143  0.4040  1.3814  1.0984
 2139SOL     OW17635   4.264   2.464   1.897  0.0740  0.2996 -0.0225
 2139SOL    HW117636   4.211   2.388   1.859  3.1654 -2.0312  0.1028
 2139SOL    HW217637   4.244   2.548   1.847 -3.6432 -0.4749  0.0198
 2140SOL     OW17638   9.789   8.139   4.363 -0.0754  0.5083 -0.2477
 2140SOL    HW117639   9.844   8.221   4.344  0.1745  0.7656  1.4895
 2140SOL    HW217640   9.713   8.164   4.423 -0.5877 -0.3387 -0.5471
 2141SOL     OW17641   3.228   3.362   3.219 -0.1509  0.0093 -0.1673
 2141SOL    HW117642   3.240   3.313   3.132  2.1754  0.5811 -0.2149
 2141SOL    HW217643   3.303   3.428   3.230 -0.2029 -0.3272  2.4491
 2142SOL     OW17644   9.066   5.093   4.200 -0.3896  0.1123 -0.5007
 2142SOL    HW117645   9.136   5.164   4.205 -0.3463  0.0746 -0.5610
 2142SOL    HW217646   9.027   5.077   4.291  0.7278 -0.9153 -0.1840
 2143SOL     OW17647   9.671   8.570   4.935 -0.5708 -0.2238 -0.2176
 2143SOL    HW117648   9.589   8.537   4.983 -0.4978 -0.8179 -0.4981
 2143SOL    HW217649   9.744   8.501   4.943  0.5999  1.1920  1.8085
 2144SOL     OW17650   0.870   0.997   6.287  0.4993  0.2535  0.1627
 2144SOL    HW117651   0.886   0.901   6.311 -0.3777  0.2773  0.8812
 2144SOL    HW217652   0.858   1.050   6.371  0.4193  0.8976 -0.2550
 2145SOL     OW17653   9.673   7.739   4.350  0.0066 -0.0691 -0.1179
 2145SOL    HW117654   9.742   7.789   4.402  1.7619 -2.4903 -0.0228
 2145SOL    HW217655   9.671   7.773   4.256  2.6034 -1.1351 -0.5937
 2146SOL     OW17656   8.893   3.375   5.678 -0.1262 -0.0833  0.1967
 2146SOL    HW117657   8.980   3.424   5.676  0.2868 -0.8001  0.1674
 2146SOL    HW217658   8.865   3.360   5.772 -0.3490  0.3856  0.2013
 2147SOL     OW17659   1.676   6.934   6.517 -0.1309 -0.4469 -0.2723
 2147SOL    HW117660   1.643   6.918   6.610  0.7376  0.5169  0.2102
 2147SOL    HW217661   1.718   6.850   6.482 -1.1931 -1.0501 -0.1024
 2148SOL     OW17662   4.898   9.115   4.341  0.4511  0.1969 -0.2364
 2148SOL    HW117663   4.899   9.141   4.244  1.2084  3.0674  0.4974
 2148SOL    HW217664   4.808   9.135   4.379  0.7409  0.8816  0.0973
 2149SOL     OW17665   4.559   9.835   4.745 -0.1256  0.4316 -0.1865
 2149SOL    HW117666   4.619   9.765   4.706  0.3335 -0.7106  2.4638
 2149SOL    HW217667   4.612   9.917   4.766  0.5013 -0.4665  1.8655
 2150SOL     OW17668   7.081   5.183   0.866  0.1957  0.0949  0.0105
 2150SOL    HW117669   7.090   5.282   0.871  0.1999  0.1004 -0.1207
 2150SOL    HW217670   7.074   5.146   0.959 -1.9997  0.4266 -0.0028
 2151SOL     OW17671   8.370   4.320   2.848 -0.2068 -0.5027 -0.0574
 2151SOL    HW117672   8.468   4.301   2.851 -0.0026  0.6542  1.3900
 2151SOL    HW217673   8.331   4.305   2.939 -0.9586  1.1228 -0.1070
 2152SOL     OW17674   2.295   6.163   5.799 -0.2401  0.0239  0.1557
 2152SOL    HW117675   2.369   6.203   5.852 -1.4051  3.2180 -0.5495
 2152SOL    HW217676   2.223   6.130   5.860  0.8809 -1.4022  0.7465
 2153SOL     OW17677   8.395   2.235   2.689  0.2969  0.0881 -0.0596
 2153SOL    HW117678   8.349   2.269   2.606 -0.1562 -0.4893 -0.0543
 2153SOL    HW217679   8.481   2.284   2.702  0.3153  0.2709 -0.8118
 2154SOL     OW17680   6.338   1.078   6.103  0.8563 -0.2360 -0.8034
 2154SOL    HW117681   6.268   1.054   6.170  0.2997  1.9703 -0.5722
 2154SOL    HW217682   6.361   1.175   6.112  2.2227 -0.3872 -2.4764
 2155SOL     OW17683   8.187   1.610   6.565  0.5458  0.0793 -0.4653
 2155SOL    HW117684   8.246   1.556   6.625 -0.2059 -0.9835 -0.6743
 2155SOL    HW217685   8.187   1.569   6.473 -0.2032  0.3006 -0.5632
 2156SOL     OW17686   7.569   7.585   5.630  0.5067 -0.4719  0.2896
 2156SOL    HW117687   7.554   7.530   5.712 -0.0101 -0.7103  0.0324
 2156SOL    HW217688   7.489   7.643   5.613  0.2938 -0.9929 -0.4900
 2157SOL     OW17689   3.398   4.058   4.725  0.2566  0.1912  0.0201
 2157SOL    HW117690   3.476   4.121   4.723  0.0635  0.4735  1.0261
 2157SOL    HW217691   3.322   4.102   4.772 -0.2035 -0.4323 -0.1433
 2158SOL     OW17692   9.022   3.785   0.626 -0.1579  0.6836  0.1319
 2158SOL    HW117693   9.103   3.770   0.569 -0.3423  1.3294 -0.3114
 2158SOL    HW217694   8.942   3.798   0.567 -0.2313  2.0339  0.5049
 2159SOL     OW17695   0.161   8.716   1.933 -0.0885 -0.5689  0.5152
 2159SOL    HW117696   0.066   8.747   1.939 -0.6792 -2.0486 -0.8962
 2159SOL    HW217697   0.188   8.674   2.020 -0.2320  1.1955  1.4219
 2160SOL     OW17698   9.412   5.854   2.003 -0.4119 -0.1434  0.4244
 2160SOL    HW117699   9.324   5.808   2.017 -0.8669  1.0073  1.4659
 2160SOL    HW217700   9.474   5.832   2.078 -0.1011 -0.2987  0.1200
 2161SOL     OW17701   7.633   4.259   4.658  0.0148 -0.1740 -0.3519
 2161SOL    HW117702   7.715   4.246   4.715 -0.5821 -0.9123  0.3373
 2161SOL    HW217703   7.615   4.176   4.606 -1.0048 -0.4419  0.4184
 2162SOL     OW17704   2.384   9.137   2.060  0.2903 -0.2106 -0.2239
 2162SOL    HW117705   2.420   9.062   2.114 -0.6167 -1.7425 -1.7111
 2162SOL    HW217706   2.285   9.141   2.070  0.4859  1.9912  1.3197
 2163SOL     OW17707   0.528   3.813   0.412  0.0796  0.0152 -0.3798
 2163SOL    HW117708   0.555   3.767   0.497 -2.2476 -1.7245 -0.5452
 2163SOL    HW217709   0.601   3.805   0.345  1.3802  0.2005  0.9894
 2164SOL     OW17710   0.601   6.842   6.220  0.0870  0.0254 -0.4710
 2164SOL    HW117711   0.632   6.921   6.167 -1.1281 -0.2044 -1.5363
 2164SOL    HW217712   0.571   6.770   6.159  0.5214 -1.0063  0.5160
 2165SOL     OW17713   7.257   3.504   2.839  0.1567  0.2573  0.0896
 2165SOL    HW117714   7.221   3.538   2.752  0.6567 -0.2638 -0.3277
 2165SOL    HW217715   7.294   3.412   2.826  1.7269  0.8050  0.4671
 2166SOL     OW17716   2.255   7.010   3.324  0.0543 -0.0049 -0.0885
 2166SOL    HW117717   2.203   6.998   3.409  1.1244 -0.3864  0.5190
 2166SOL    HW217718   2.217   6.951   3.253 -0.0491 -0.6246  0.4804
 2167SOL     OW17719   1.697   1.860   0.009  0.3333  0.5359  0.7327
 2167SOL    HW117720   1.767   1.890   0.073  1.8783 -1.9712  0.3008
 2167SOL    HW217721   1.652   1.940  -0.031  3.4629  2.2597  0.4602
 2168SOL     OW17722   8.050   3.508   0.684 -0.5350  0.1301 -0.0530
 2168SOL    HW117723   8.119   3.485   0.753 -0.7609 -1.1866 -0.2421
 2168SOL    HW217724   8.094   3.517   0.595 -0.7439 -1.8636 -0.3813
 2169SOL     OW17725   7.541   8.386   3.171  0.4059  0.2878 -0.2579
 2169SOL    HW117726   7.467   8.419   3.111  0.9301  1.3669 -0.3240
 2169SOL    HW217727   7.534   8.287   3.180  0.5467  0.0524 -2.4248
 2170SOL     OW17728   1.095   5.086   2.906  0.0948  0.5818  0.6713
 2170SOL    HW117729   1.188   5.088   2.943  0.2650 -1.5746  0.4354
 2170SOL    HW217730   1.042   5.014   2.953 -0.6932  0.1084 -0.9189
 2171SOL     OW17731   1.618   0.402   5.699  0.0872  0.1659 -0.5163
 2171SOL    HW117732   1.567   0.476   5.655 -3.3447 -0.4241  2.2619
 2171SOL    HW217733   1.603   0.317   5.648  1.1831  0.6818 -1.7123
 2172SOL     OW17734   2.988   3.317   3.991 -0.3807  0.5631  0.3977
 2172SOL    HW117735   3.003   3.220   4.013 -0.3900  0.7062  1.0616
 2172SOL    HW217736   2.993   3.330   3.893 -0.9361 -0.2096  0.2602
 2173SOL     OW17737   5.080   4.294   0.941  0.0548 -0.0831  0.2945
 2173SOL    HW117738   5.082   4.390   0.912 -0.2937 -0.5209 -1.1995
 2173SOL    HW217739   5.173   4.265   0.963  0.2745  0.3739 -0.0139
 2174SOL     OW17740   5.222   0.885   0.863  0.2837 -0.4011  0.0173
 2174SOL    HW117741   5.317   0.855   0.852 -0.0146 -1.4096  0.0990
 2174SOL    HW217742   5.172   0.817   0.917 -0.0576  0.9915  1.4716
 2175SOL     OW17743   9.646   2.862   6.398  0.3496  1.2001  0.0347
 2175SOL    HW117744   9.649   2.763   6.382 -1.9399  1.0871  0.1991
 2175SOL    HW217745   9.717   2.906   6.343  1.3891 -0.5270 -0.0504
 2176SOL     OW17746   1.322   0.756   0.443  0.5241 -0.1337 -0.1291
 2176SOL    HW117747   1.392   0.741   0.373  0.9527 -1.8806  0.6366
 2176SOL    HW217748   1.276   0.669   0.462 -2.5917  1.1704 -1.3713
 2177SOL     OW17749   1.786   3.100   4.629  0.4211  0.2154  0.1755
 2177SOL    HW117750   1.798   3.191   4.669  0.6082  0.5906 -0.7303
 2177SOL    HW217751   1.876   3.056   4.620  0.1007 -1.0707  2.9531
 2178SOL     OW17752   8.773   6.348   4.667 -0.1188 -0.0989  0.2586
 2178SOL    HW117753   8.714   6.287   4.613  0.5658 -0.6587  0.1428
 2178SOL    HW217754   8.866   6.345   4.632 -0.5044  2.6542 -1.0915
 2179SOL     OW17755   6.689   9.679   3.991  0.4515 -0.4461  0.3170
 2179SOL    HW117756   6.754   9.605   4.009 -0.6930 -1.0431  2.1475
 2179SOL    HW217757   6.605   9.662   4.042 -0.5981  1.0737 -0.8677
 2180SOL     OW17758   2.145   6.479   2.497  0.2248  0.7246 -0.3386
 2180SOL    HW117759   2.189   6.392   2.472 -0.9105  0.2800 -0.8426
 2180SOL    HW217760   2.132   6.483   2.596  0.6537  0.4948 -0.2734
 2181SOL     OW17761   3.770   3.183   1.306 -0.2606  0.4578 -0.3507
 2181SOL    HW117762   3.751   3.102   1.361  0.3800 -1.9701 -3.5284
 2181SOL    HW217763   3.861   3.219   1.330  0.9507 -1.8837 -1.3140
 2182SOL     OW17764   6.712   9.032   3.911 -0.1615 -0.4187  0.2882
 2182SOL    HW117765   6.798   8.991   3.880 -0.5682 -0.0403 -1.3972
 2182SOL    HW217766   6.684   9.103   3.847 -2.5650 -1.6163 -0.0709
 2183SOL     OW17767   6.872   1.494   6.572  0.5132 -0.2937 -0.0655
 2183SOL    HW117768   6.875   1.517   6.475 -1.1437 -1.9794 -0.5588
 2183SOL    HW217769   6.876   1.394   6.583 -0.1843 -0.1667  1.5266
 2184SOL     OW17770   1.796   9.091   3.956  0.3450  0.1171 -0.4351
 2184SOL    HW117771   1.734   9.055   3.887 -0.1096  4.3226 -2.3762
 2184SOL    HW217772   1.745   9.149   4.020  1.3100 -1.2246  1.6100
 2185SOL     OW17773   3.582   4.301   3.297  0.7063 -0.2604 -0.0271
 2185SOL    HW117774   3.553   4.371   3.231 -0.1588 -0.7215 -0.1380
 2185SOL    HW217775   3.581   4.340   3.389  0.5242 -0.0362 -0.1231
 2186SOL     OW17776   0.372   7.777   2.712  0.2176 -0.4121 -0.1036
 2186SOL    HW117777   0.344   7.683   2.694  0.4393 -0.4379 -0.2993
 2186SOL    HW217778   0.362   7.796   2.810 -1.6488 -0.0524 -0.3441
 2187SOL     OW17779   1.107   3.668   6.465 -0.5961 -0.3384 -0.1316
 2187SOL    HW117780   1.160   3.675   6.550 -1.0352 -0.0838  0.1213
 2187SOL    HW217781   1.062   3.755   6.447  0.3539 -0.0652 -1.1931
 2188SOL     OW17782   3.542   8.317   6.010  0.4491 -0.1124  0.3084
 2188SOL    HW117783   3.462   8.258   6.014  0.5516 -0.1166  2.7964
 2188SOL    HW217784   3.519   8.408   6.045  0.9768  0.5611 -1.0284
 2189SOL     OW17785   3.071   3.959   5.997 -0.1665 -0.2182 -0.8805
 2189SOL    HW117786   3.043   4.034   6.056  0.9191  0.0458 -0.7067
 2189SOL    HW217787   3.170   3.946   6.002 -0.3267 -1.5980 -0.9782
 2190SOL     OW17788   4.623   3.165   0.876  0.6590 -0.1746 -0.2943
 2190SOL    HW117789   4.531   3.133   0.852  0.8590 -1.3769  0.4701
 2190SOL    HW217790   4.656   3.228   0.806 -1.3402  1.4512  0.1893
 2191SOL     OW17791   7.730   0.527   0.276 -0.1303  0.0416 -0.2475
 2191SOL    HW117792   7.794   0.587   0.323 -0.4140 -0.6906  1.0976
 2191SOL    HW217793   7.779   0.472   0.209  0.1380  1.7317 -1.4936
 2192SOL     OW17794   0.742   6.350   4.083 -0.4730  0.4322  0.2660
 2192SOL    HW117795   0.784   6.374   3.996 -0.6078  0.6941  0.2709
 2192SOL    HW217796   0.696   6.262   4.075 -1.4078  0.9620 -0.2409
 2193SOL     OW17797   8.732   1.422   5.216 -0.0163 -0.4081 -0.2063
 2193SOL    HW117798   8.638   1.456   5.202  0.0649 -0.7899 -1.8077
 2193SOL    HW217799   8.777   1.414   5.127  0.8752 -2.1173  0.3969
 2194SOL     OW17800   7.515   0.429   2.689  0.0600 -0.8299  0.1738
 2194SOL    HW117801   7.510   0.344   2.637 -0.0095  0.1678 -1.4655
 2194SOL    HW217802   7.605   0.437   2.732  0.9378 -0.5867 -1.6669
 2195SOL     OW17803   0.472   0.612   6.729  0.2114 -1.0729  0.3455
 2195SOL    HW117804   0.409   0.633   6.655 -0.1198  0.0678  0.9337
 2195SOL    HW217805   0.427   0.630   6.817  0.9615 -1.3642  0.7971
 2196SOL     OW17806   1.903   9.566   5.027  0.5414 -0.0950  0.1446
 2196SOL    HW117807   1.892   9.468   5.040 -0.2304  0.1023  1.0771
 2196SOL    HW217808   1.881   9.591   4.933 -1.2072 -0.5465  0.4140
 2197SOL     OW17809   0.586   3.369   0.877 -0.5462  0.2211  0.1542
 2197SOL    HW117810   0.578   3.363   0.778  0.7353 -1.7533  0.1316
 2197SOL    HW217811   0.609   3.279   0.914  0.7382  1.2862  2.0589
 2198SOL     OW17812   9.662   4.725   1.135  0.0095 -0.5724  0.3373
 2198SOL    HW117813   9.619   4.691   1.219 -1.6171  5.0166  2.0202
 2198SOL    HW217814   9.595   4.723   1.061 -0.3609 -0.2496  0.6569
 2199SOL     OW17815   2.343   0.607   5.300  0.0067  0.1919  0.2677
 2199SOL    HW117816   2.365   0.525   5.352  0.4195 -0.1156 -0.3969
 2199SOL    HW217817   2.243   0.614   5.290 -0.0315 -0.1985  0.3706
 2200SOL     OW17818   6.496   0.413   3.634  0.1078  0.6379  0.1503
 2200SOL    HW117819   6.521   0.325   3.595  0.4200  1.3423 -1.2604
 2200SOL    HW217820   6.425   0.455   3.578 -0.0900  1.2618  0.8559
 2201SOL     OW17821   8.214   3.448   4.448 -0.3597 -0.6379  0.3152
 2201SOL    HW117822   8.309   3.477   4.453 -0.1165 -1.3912  0.1277
 2201SOL    HW217823   8.162   3.487   4.524 -0.0055  0.1472  0.1524
 2202SOL     OW17824   8.077   9.846   5.175  0.1527  0.2021 -0.5252
 2202SOL    HW117825   8.084   9.943   5.148  0.8351  0.5479  0.8548
 2202SOL    HW217826   8.019   9.798   5.109  1.0163  1.2268 -2.0893
 2203SOL     OW17827   8.281   9.895   2.148  0.2185 -0.5127 -0.2572
 2203SOL    HW117828   8.343   9.924   2.221 -0.7470 -0.4042  0.5270
 2203SOL    HW217829   8.298   9.800   2.125 -0.4924 -0.9883  1.1591
 2204SOL     OW17830   1.933   7.319   5.193  0.1384 -0.1170 -0.1936
 2204SOL    HW117831   1.923   7.255   5.269 -0.5080 -0.9752 -0.9983
 2204SOL    HW217832   1.929   7.269   5.106 -0.6188  1.0490 -0.8360
 2205SOL     OW17833   6.058   2.060   1.043  0.2047 -0.5896  0.4010
 2205SOL    HW117834   6.081   2.146   1.089  0.8266 -1.4592  1.7401
 2205SOL    HW217835   5.977   2.020   1.085  0.2150 -0.9193  0.1143
 2206SOL     OW17836   3.406   5.127   3.710 -0.3049 -0.7006  0.0778
 2206SOL    HW117837   3.371   5.111   3.802  1.6094 -2.0928  0.6021
 2206SOL    HW217838   3.501   5.159   3.716  0.3901 -2.3814 -1.4485
 2207SOL     OW17839   8.327   5.503   4.477 -0.3695  0.1289 -0.1671
 2207SOL    HW117840   8.347   5.419   4.526  1.7713  0.1473 -0.9574
 2207SOL    HW217841   8.408   5.533   4.427 -1.0900  2.6543  0.0926
 2208SOL     OW17842   2.337   6.368   3.760 -0.0267 -0.0642  0.1227
 2208SOL    HW117843   2.435   6.386   3.772 -0.1573 -0.1609  1.4304
 2208SOL    HW217844   2.323   6.269   3.747  0.1559  0.0895 -1.2895
 2209SOL     OW17845   0.022   8.811   4.845 -0.0040  0.1803 -0.8415
 2209SOL    HW117846  -0.045   8.873   4.886  0.5233 -0.2077  0.6119
 2209SOL    HW217847   0.000   8.717   4.870  0.8507  0.0212 -0.6842
 2210SOL     OW17848   0.025   7.725   2.741 -0.1748  0.4597 -0.0036
 2210SOL    HW117849  -0.067   7.695   2.764  0.1486 -1.4249 -1.0312
 2210SOL    HW217850   0.090   7.653   2.765  1.0475  1.7681  0.7060
 2211SOL     OW17851   6.888   9.823   1.276  0.5043 -0.2156  0.1507
 2211SOL    HW117852   6.886   9.912   1.323  0.5711 -0.4886  0.6694
 2211SOL    HW217853   6.796   9.786   1.269  0.4205  0.0965 -0.4569
 2212SOL     OW17854   9.929   9.079   2.494  0.2567 -0.1796  0.2151
 2212SOL    HW117855   9.832   9.105   2.492  0.5490  0.8169 -1.1574
 2212SOL    HW217856   9.936   8.981   2.515 -1.0986 -0.5533 -0.9774
 2213SOL     OW17857   4.386   1.004   0.575  0.1431  0.3837  0.4783
 2213SOL    HW117858   4.399   1.045   0.485  1.7956 -0.7038  0.2018
 2213SOL    HW217859   4.363   1.075   0.641 -1.3521  1.1612 -0.8248
 2214SOL     OW17860   2.885   1.939   3.734  0.2284 -0.0987  0.4463
 2214SOL    HW117861   2.846   2.031   3.733 -0.4078 -0.3724  0.3446
 2214SOL    HW217862   2.901   1.911   3.829  0.4964  0.1444  0.4745
 2215SOL     OW17863   1.097   1.319   4.842 -0.2878  0.4547 -0.0249
 2215SOL    HW117864   1.067   1.293   4.933 -0.1403 -1.0191 -0.3821
 2215SOL    HW217865   1.197   1.331   4.843 -0.1079 -0.8787 -0.2759
 2216SOL     OW17866   9.598   2.913   5.524  0.4855 -0.7300  0.3114
 2216SOL    HW117867   9.529   2.889   5.456 -0.3183 -1.8787  1.5056
 2216SOL    HW217868   9.688   2.883   5.492  0.4385  0.6582 -1.1940
 2217SOL     OW17869   2.404   6.407   4.854  0.3815  0.3288  0.0729
 2217SOL    HW117870   2.421   6.441   4.761 -0.0022  1.2364  0.3297
 2217SOL    HW217871   2.305   6.407   4.872  0.4667  0.3395  0.5465
 2218SOL     OW17872   9.640   5.577   4.701 -0.0755 -0.3183  0.3286
 2218SOL    HW117873   9.717   5.513   4.692  0.6357  0.6308 -0.4220
 2218SOL    HW217874   9.597   5.589   4.612 -0.4732 -0.0722  0.5561
 2219SOL     OW17875   7.040   0.481   5.649 -0.5647  0.4358  0.0336
 2219SOL    HW117876   6.994   0.570   5.650  0.3529  0.9965 -2.3849
 2219SOL    HW217877   7.099   0.472   5.729 -0.4676  2.1293  0.1663
 2220SOL     OW17878   6.363   9.173   3.296  0.2538  0.2697  0.6397
 2220SOL    HW117879   6.295   9.149   3.226  0.2808  0.9176  0.3874
 2220SOL    HW217880   6.325   9.243   3.356  1.0167  1.2795 -0.0380
 2221SOL     OW17881   3.239   9.922   0.979 -0.3425  0.4410 -0.0186
 2221SOL    HW117882   3.230   9.831   1.021 -1.6657  0.1712 -0.8438
 2221SOL    HW217883   3.157   9.976   0.999  0.1875  1.2510 -0.0185
 2222SOL     OW17884   0.616   3.803   5.436  0.1324 -0.2214 -0.1148
 2222SOL    HW117885   0.667   3.798   5.522 -1.0198  2.9480  0.8144
 2222SOL    HW217886   0.680   3.808   5.359  1.1681 -1.5843  0.6316
 2223SOL     OW17887   8.987   2.849   2.210 -0.1797 -0.7313  0.5693
 2223SOL    HW117888   8.927   2.800   2.274 -1.0595 -1.2450 -0.6161
 2223SOL    HW217889   8.936   2.922   2.165  0.4430 -0.3368  0.4940
 2224SOL     OW17890   9.961   7.662   0.427  0.3327  0.5314 -0.1701
 2224SOL    HW117891   9.873   7.651   0.382  0.4973  2.9921 -1.2031
 2224SOL    HW217892  10.028   7.700   0.362  1.5004  0.9184  1.2131
 2225SOL     OW17893   0.632   0.665   6.130  0.2117  0.1051 -0.1680
 2225SOL    HW117894   0.618   0.726   6.207  1.9339 -0.3628  0.5341
 2225SOL    HW217895   0.548   0.612   6.115 -0.7106  1.4006  0.2842
 2226SOL     OW17896   0.748   2.998   4.963 -0.1631 -0.2923  0.1056
 2226SOL    HW117897   0.726   2.996   4.866  1.3926  0.2823 -0.2776
 2226SOL    HW217898   0.671   3.037   5.014 -0.5018  0.5395 -1.0276
 2227SOL     OW17899   7.887   0.330   0.595  0.0462  0.4745 -0.7881
 2227SOL    HW117900   7.807   0.284   0.555  0.1390  0.5795 -1.1017
 2227SOL    HW217901   7.920   0.278   0.674  0.7470 -0.5340 -1.7231
 2228SOL     OW17902   4.382   8.809   4.989 -0.5419 -0.6135 -0.3383
 2228SOL    HW117903   4.359   8.883   4.926 -1.0723 -0.6202 -0.1557
 2228SOL    HW217904   4.447   8.747   4.944  0.8170  0.5854 -0.0776
 2229SOL     OW17905   9.125   5.601   6.098  0.3639  0.3704 -0.3861
 2229SOL    HW117906   9.101   5.698   6.105 -0.1551  0.1763  0.5511
 2229SOL    HW217907   9.104   5.568   6.006  2.2238  1.5896 -1.2923
 2230SOL     OW17908   4.521   2.801   4.342  0.6743  0.1416 -0.6518
 2230SOL    HW117909   4.567   2.889   4.328  0.5525  0.3502  0.2529
 2230SOL    HW217910   4.571   2.729   4.293  0.0322  0.9140 -2.4804
 2231SOL     OW17911   5.249   2.319   2.067  0.1242  0.5205 -0.8377
 2231SOL    HW117912   5.202   2.308   2.155  1.5392  0.6089 -0.0578
 2231SOL    HW217913   5.281   2.230   2.035  0.3795  0.6052 -0.8214
 2232SOL     OW17914   5.027   0.876   1.164  0.1910  0.0546  0.3617
 2232SOL    HW117915   5.048   0.971   1.188 -1.6050  0.8790 -1.2619
 2232SOL    HW217916   4.978   0.832   1.239  1.1117  0.3593  1.1535
 2233SOL     OW17917   3.753   0.054   0.035 -0.7412  0.0092 -0.6174
 2233SOL    HW117918   3.819   0.060   0.111  0.0306 -0.6661 -1.2176
 2233SOL    HW217919   3.739  -0.043   0.011 -1.8333  0.1573 -0.6047
 2234SOL     OW17920   9.309   5.071   3.606 -0.2653  0.2036  0.5734
 2234SOL    HW117921   9.309   5.110   3.514 -1.6760 -1.2353 -0.0592
 2234SOL    HW217922   9.399   5.082   3.647 -0.2536  2.9272 -0.0867
 2235SOL     OW17923   3.853   7.843   2.401 -0.2652  0.7147 -0.2170
 2235SOL    HW117924   3.871   7.787   2.320 -3.0056 -1.4260  0.5922
 2235SOL    HW217925   3.857   7.939   2.376 -3.2990  0.0912 -3.4714
 2236SOL     OW17926   9.586   9.671   2.453  0.5118 -0.1886 -0.2895
 2236SOL    HW117927   9.546   9.606   2.517 -1.7865 -0.5367 -2.0245
 2236SOL    HW217928   9.614   9.754   2.502 -1.3197 -0.3928  1.1383
 2237SOL     OW17929   2.040   7.526   3.101 -0.6199 -0.2467  0.4417
 2237SOL    HW117930   2.070   7.579   3.022 -1.6351 -0.1572  0.1036
 2237SOL    HW217931   2.071   7.569   3.185 -0.1839  0.0725  0.1160
 2238SOL     OW17932   8.342   1.720   0.772  0.1508 -0.5504  0.1142
 2238SOL    HW117933   8.436   1.741   0.800 -0.0299  0.3670  0.0458
 2238SOL    HW217934   8.309   1.642   0.825  1.0404 -1.0484 -0.0466
 2239SOL     OW17935   6.163   0.030   4.383  0.1559  0.1873  0.4204
 2239SOL    HW117936   6.235  -0.004   4.322 -0.1797 -0.4745  0.3909
 2239SOL    HW217937   6.205   0.076   4.461  0.5995  0.3267  0.1063
 2240SOL     OW17938   7.294   2.298   4.889 -0.7153 -0.2264  0.3677
 2240SOL    HW117939   7.261   2.367   4.825  0.6551 -0.0684 -0.1760
 2240SOL    HW217940   7.314   2.213   4.839 -0.0187 -0.2257  0.6481
 2241SOL     OW17941   9.371   7.715   6.449  0.0611 -0.7447  0.5079
 2241SOL    HW117942   9.373   7.685   6.544 -0.4247 -1.6106  0.2504
 2241SOL    HW217943   9.288   7.770   6.433 -1.2022 -2.7641 -0.0452
 2242SOL     OW17944   3.144   2.380   2.147  0.0885 -0.0732 -0.9042
 2242SOL    HW117945   3.122   2.474   2.174 -0.6525 -0.2016 -1.0594
 2242SOL    HW217946   3.240   2.361   2.168 -0.2531  0.0958  0.9134
 2243SOL     OW17947   2.004   4.609   2.982  0.2457 -0.2562  0.4206
 2243SOL    HW117948   1.977   4.525   2.936  0.8109 -0.0598 -0.2651
 2243SOL    HW217949   1.965   4.610   3.074 -1.0172 -0.5745 -0.0997
 2244SOL     OW17950   2.758   2.994   4.393 -0.2137 -0.0706 -0.6009
 2244SOL    HW117951   2.857   3.007   4.397 -0.4702  1.5402  1.6717
 2244SOL    HW217952   2.717   3.066   4.337 -0.4077  1.4987  1.4831
 2245SOL     OW17953   0.457   6.297   0.120 -0.2065 -0.2842 -0.4992
 2245SOL    HW117954   0.447   6.396   0.122  1.3197 -0.1193  2.6626
 2245SOL    HW217955   0.399   6.256   0.191  2.0575 -1.2681  0.8829
 2246SOL     OW17956   2.885   3.764   0.522  0.0099 -0.3453  0.3499
 2246SOL    HW117957   2.858   3.762   0.425 -0.0124 -0.9470  0.3669
 2246SOL    HW217958   2.981   3.789   0.528 -0.4133  1.4227  0.2692
 2247SOL     OW17959   7.966   7.032   5.900 -0.1973 -0.0084  0.4228
 2247SOL    HW117960   7.952   7.130   5.884  1.0818  0.1329  0.1123
 2247SOL    HW217961   7.955   6.983   5.814  3.4353  0.3813 -0.3700
 2248SOL     OW17962   2.404   9.294   2.374  0.2612  0.7669  0.0533
 2248SOL    HW117963   2.481   9.287   2.310  0.6185  0.1073  0.5491
 2248SOL    HW217964   2.425   9.242   2.457 -1.2424 -0.4927 -0.3274
 2249SOL     OW17965   2.942   8.448   0.785 -0.2118 -0.4770 -0.0319
 2249SOL    HW117966   2.912   8.542   0.800  0.1306 -0.5419  1.0421
 2249SOL    HW217967   3.034   8.435   0.823 -0.5386 -1.4347  0.4521
 2250SOL     OW17968   1.905   8.690   0.935  0.1190 -0.4414 -0.5217
 2250SOL    HW117969   1.927   8.768   0.875  0.2304 -1.0075 -1.2304
 2250SOL    HW217970   1.952   8.701   1.023  1.0967 -0.2986 -1.0478
 2251SOL     OW17971   2.132   9.163   1.564 -0.4099  0.2794 -0.1681
 2251SOL    HW117972   2.195   9.237   1.585  1.0385 -0.7016 -0.9662
 2251SOL    HW217973   2.106   9.167   1.468  0.4637 -0.8388 -0.4541
 2252SOL     OW17974   2.223   8.352   2.772 -0.6471 -0.9916 -0.7012
 2252SOL    HW117975   2.239   8.447   2.801  0.2028 -1.0302 -1.0390
 2252SOL    HW217976   2.310   8.302   2.770 -1.2324 -2.0635  0.4520
 2253SOL     OW17977   1.984   5.180   6.754  0.1540  0.2741  0.1900
 2253SOL    HW117978   2.069   5.229   6.774 -0.2554  1.6800 -1.3487
 2253SOL    HW217979   1.906   5.233   6.788 -0.1712 -0.4085  0.5089
 2254SOL     OW17980   5.570   2.582   3.101 -0.1715  0.1427 -0.4613
 2254SOL    HW117981   5.478   2.548   3.081 -0.2667  0.4084 -0.4758
 2254SOL    HW217982   5.634   2.546   3.032 -0.2760  0.0152 -0.4922
 2255SOL     OW17983   3.408   7.901   3.229 -1.0538  0.6329 -0.4835
 2255SOL    HW117984   3.351   7.880   3.309  0.6414  0.8092  0.8127
 2255SOL    HW217985   3.390   7.835   3.157 -1.8579 -0.1645  0.4261
 2256SOL     OW17986   6.877   2.860   0.160 -0.4287 -0.2542 -0.0713
 2256SOL    HW117987   6.943   2.904   0.221  1.3256  1.6388 -3.1772
 2256SOL    HW217988   6.784   2.883   0.190  0.4037  1.8498  1.0252
 2257SOL     OW17989   1.762   4.434   3.443 -0.2607  0.6016 -0.4808
 2257SOL    HW117990   1.859   4.435   3.469 -0.1391 -0.9042 -0.8369
 2257SOL    HW217991   1.707   4.467   3.520  0.3202 -1.2962  0.7896
 2258SOL     OW17992   6.158   5.365   1.106  0.0031  0.1251 -0.4843
 2258SOL    HW117993   6.160   5.390   1.010 -0.6711  1.4856 -0.1480
 2258SOL    HW217994   6.202   5.436   1.160 -0.9010  0.0649  0.3512
 2259SOL     OW17995   9.833   2.479   1.026  0.2047 -0.3189  0.2723
 2259SOL    HW117996   9.851   2.399   0.969 -0.0893 -1.2575  1.5027
 2259SOL    HW217997   9.738   2.508   1.013  0.3529 -0.0603 -0.2842
 2260SOL     OW17998   1.060   4.372   4.591 -0.5777 -0.4613 -0.5995
 2260SOL    HW117999   1.107   4.458   4.573 -0.5940 -0.3675 -0.2036
 2260SOL    HW218000   1.128   4.301   4.612 -0.5858 -0.4359 -0.4836
 2261SOL     OW18001   1.515   5.014   5.334 -0.4991  0.0576  0.2634
 2261SOL    HW118002   1.544   5.031   5.239  0.3868  0.5561  0.6105
 2261SOL    HW218003   1.430   5.063   5.352 -1.3265 -1.0339 -0.6397
 2262SOL     OW18004   0.786   2.256   2.834  0.2465  0.1812 -0.1482
 2262SOL    HW118005   0.810   2.345   2.873 -0.4592  0.8023 -1.1102
 2262SOL    HW218006   0.869   2.206   2.811  0.6975 -0.2760  2.2717
 2263SOL     OW18007   7.714   9.151   1.442 -0.1970  0.1636 -0.7065
 2263SOL    HW118008   7.624   9.135   1.483  0.0837  0.5133  0.0495
 2263SOL    HW218009   7.738   9.247   1.452 -0.8628  0.6244 -3.1825
 2264SOL     OW18010   1.025   2.035   1.408  0.3074 -0.1325  0.8364
 2264SOL    HW118011   1.086   2.057   1.331 -1.2140 -1.1224 -0.6742
 2264SOL    HW218012   1.024   1.937   1.423  0.5730  0.0497  2.1413
 2265SOL     OW18013   8.884   4.996   1.310 -0.4216  0.0623 -0.7943
 2265SOL    HW118014   8.957   4.939   1.349  1.1483  1.4590 -1.6272
 2265SOL    HW218015   8.799   4.944   1.306  0.6583 -1.7640 -0.2880
 2266SOL     OW18016   2.907   5.831   0.835  0.0334  0.1780  0.1951
 2266SOL    HW118017   2.966   5.770   0.782 -1.3465 -1.5838  0.6534
 2266SOL    HW218018   2.862   5.896   0.773 -0.6830 -1.1140 -0.6453
 2267SOL     OW18019   3.832   4.043   0.868  0.1256  0.1014  0.7246
 2267SOL    HW118020   3.844   4.069   0.964 -0.4702  0.4515  0.7090
 2267SOL    HW218021   3.898   4.093   0.812 -1.1776  1.7812  0.6679
 2268SOL     OW18022   8.196   3.342   5.018  0.2351 -0.3548 -0.0278
 2268SOL    HW118023   8.179   3.312   4.924  0.2827 -0.5990  0.0426
 2268SOL    HW218024   8.109   3.358   5.064  0.2077 -0.4655 -0.0395
 2269SOL     OW18025   0.391   1.375   4.733  0.2590  0.1996  0.1862
 2269SOL    HW118026   0.470   1.351   4.789  1.4095  1.9586 -0.6212
 2269SOL    HW218027   0.411   1.459   4.682 -1.5381 -0.2118 -1.2534
 2270SOL     OW18028   7.688   2.366   6.493 -0.1340 -0.7342 -0.0429
 2270SOL    HW118029   7.739   2.300   6.548 -2.0011 -0.8019  1.6511
 2270SOL    HW218030   7.618   2.411   6.549  0.3545  1.9006 -1.4369
 2271SOL     OW18031   7.671   2.070   1.094  0.5979 -0.1800 -0.3692
 2271SOL    HW118032   7.604   2.059   1.021  1.1795  2.8749 -1.4603
 2271SOL    HW218033   7.763   2.069   1.055  0.8929  1.9485  0.2226
 2272SOL     OW18034   1.026   5.025   0.272 -0.3782  0.2261  0.5880
 2272SOL    HW118035   1.016   4.985   0.363  0.3065 -0.5504  0.3232
 2272SOL    HW218036   0.955   4.989   0.211 -0.3827  0.1926  0.6132
 2273SOL     OW18037   8.935   6.894   2.928 -0.4530 -0.2275 -0.0526
 2273SOL    HW118038   8.955   6.989   2.904  0.5490 -0.3461  0.2811
 2273SOL    HW218039   8.964   6.834   2.853 -0.3851 -0.3333  0.0582
 2274SOL     OW18040   8.525   1.970   6.690  0.6232  0.1143  0.1518
 2274SOL    HW118041   8.477   2.056   6.673 -1.6507 -0.6025  2.6476
 2274SOL    HW218042   8.462   1.904   6.731  2.6663 -2.3431 -0.5236
 2275SOL     OW18043   6.840   9.457   4.048  0.1422 -0.2595  0.5659
 2275SOL    HW118044   6.930   9.441   4.089 -0.5377 -1.9039  1.4851
 2275SOL    HW218045   6.769   9.418   4.106 -1.0607 -0.2919 -0.8763
 2276SOL     OW18046   3.654   7.541   3.635 -0.7545  0.2070  0.1682
 2276SOL    HW118047   3.683   7.559   3.729  0.5315  0.9421 -0.3627
 2276SOL    HW218048   3.730   7.558   3.572 -1.1748 -1.6219 -0.8946
 2277SOL     OW18049   0.767   6.277   3.049 -0.1693  0.3220 -0.2220
 2277SOL    HW118050   0.750   6.375   3.063  0.7482  0.5883 -0.8910
 2277SOL    HW218051   0.688   6.224   3.081 -0.4153  1.2397  0.7119
 2278SOL     OW18052   4.895   7.733   3.593  0.3212 -0.5226  0.2180
 2278SOL    HW118053   4.807   7.692   3.616 -0.6607  0.7315 -1.3030
 2278SOL    HW218054   4.903   7.823   3.636  1.0128 -0.7662  0.6214
 2279SOL     OW18055   9.999   9.469   5.372  0.2961 -0.2574 -0.4543
 2279SOL    HW118056   9.994   9.450   5.274 -1.9626  0.3005 -0.4778
 2279SOL    HW218057   9.918   9.520   5.400  1.2968  0.2776  1.5676
 2280SOL     OW18058   1.971   3.890   3.950 -0.5926  0.1433 -0.1906
 2280SOL    HW118059   2.029   3.813   3.976 -0.2819  0.5511  0.3184
 2280SOL    HW218060   1.891   3.855   3.901  1.3046 -0.2313 -3.1591
 2281SOL     OW18061   8.108   7.517   5.907  0.0788 -0.5632 -0.6771
 2281SOL    HW118062   8.144   7.568   5.829  0.9147 -1.1766 -0.7074
 2281SOL    HW218063   8.008   7.524   5.909  0.0666 -0.3772 -1.6769
 2282SOL     OW18064   8.206   0.166   4.472  0.0985 -0.0143 -0.0778
 2282SOL    HW118065   8.304   0.153   4.483  0.1582  1.1405  0.8935
 2282SOL    HW218066   8.187   0.209   4.383  0.4207 -0.6900 -0.4758
 2283SOL     OW18067   1.542   0.081   2.551 -0.8716 -0.3271  0.5022
 2283SOL    HW118068   1.598   0.137   2.612 -0.7009 -0.9160  0.9004
 2283SOL    HW218069   1.453   0.124   2.538 -0.1020  0.9427 -0.6508
 2284SOL     OW18070   6.225   1.505   6.353 -0.2869  0.1496  0.0723
 2284SOL    HW118071   6.251   1.523   6.447 -0.0420 -0.4260  0.1176
 2284SOL    HW218072   6.136   1.546   6.334 -0.7672 -0.5420  0.8339
 2285SOL     OW18073   3.721   0.082   5.149 -0.5555 -0.0647 -0.0306
 2285SOL    HW118074   3.776   0.079   5.065 -0.2241 -0.2829  0.1958
 2285SOL    HW218075   3.744   0.004   5.207 -0.5784  0.2459  0.3988
 2286SOL     OW18076   0.278   7.152   4.244 -0.1418  0.8738  0.1066
 2286SOL    HW118077   0.314   7.070   4.202 -0.9292  0.8858 -0.6141
 2286SOL    HW218078   0.196   7.182   4.194 -1.0266  0.9487  1.5643
 2287SOL     OW18079   7.691   3.654   0.591  0.3906 -0.3327  0.2613
 2287SOL    HW118080   7.730   3.652   0.682  1.4712 -1.7942 -0.2303
 2287SOL    HW218081   7.746   3.715   0.533  1.3642 -1.6127 -0.1653
 2288SOL     OW18082   9.841   3.941   4.172  0.2201  0.1212 -0.3813
 2288SOL    HW118083   9.867   3.910   4.263  2.3124  1.8989 -0.3562
 2288SOL    HW218084   9.894   3.890   4.103  1.0330  1.0805 -0.4717
 2289SOL     OW18085   3.324   0.781   0.459 -0.3755 -0.2287  0.0073
 2289SOL    HW118086   3.330   0.768   0.558  0.8360 -0.9064 -0.1443
 2289SOL    HW218087   3.407   0.746   0.415 -0.6213  0.6419 -1.1951
 2290SOL     OW18088   2.701   9.316   1.688  0.5735 -0.1376 -0.5514
 2290SOL    HW118089   2.663   9.404   1.717  0.0663 -1.2294  2.2927
 2290SOL    HW218090   2.626   9.253   1.666  0.6870 -1.5866  2.8879
 2291SOL     OW18091   4.498   1.382   4.211  0.4615 -0.3033  0.7649
 2291SOL    HW118092   4.450   1.402   4.297  0.3936  0.3388  0.5810
 2291SOL    HW218093   4.443   1.318   4.157 -0.5347  0.9701  0.2504
 2292SOL     OW18094   1.822   0.477   0.650  0.3032 -0.0304  0.0849
 2292SOL    HW118095   1.795   0.422   0.571  0.0718 -0.2305  0.3016
 2292SOL    HW218096   1.844   0.417   0.727  3.5551  0.0053 -0.7379
 2293SOL     OW18097   2.109   6.253   6.117  0.2973 -0.7726  0.1052
 2293SOL    HW118098   2.105   6.248   6.017 -0.3706  1.3919 -0.0120
 2293SOL    HW218099   2.201   6.280   6.145 -0.2637  1.4279 -0.1006
 2294SOL     OW18100   4.749   1.138   0.772  0.4690 -0.3068 -0.2007
 2294SOL    HW118101   4.705   1.136   0.861  0.5365 -1.2085 -0.1772
 2294SOL    HW218102   4.725   1.222   0.724  0.0921 -0.0177  0.4916
 2295SOL     OW18103   7.358   5.606   6.432 -0.0681 -0.1652 -0.0152
 2295SOL    HW118104   7.448   5.640   6.462 -0.1721  1.8841 -1.8686
 2295SOL    HW218105   7.361   5.507   6.426  1.4230 -0.2803  1.9968
 2296SOL     OW18106   8.372   1.662   2.008  0.0166  0.2565  0.6935
 2296SOL    HW118107   8.338   1.598   2.077 -1.0181  0.0131 -0.0396
 2296SOL    HW218108   8.472   1.654   2.002 -0.0487 -0.8662  1.0298
 2297SOL     OW18109   3.938   1.135   3.621 -0.0352 -0.0836 -0.3736
 2297SOL    HW118110   3.845   1.173   3.616  0.4356  1.0101 -0.8619
 2297SOL    HW218111   3.986   1.152   3.534  0.5727 -0.7940 -0.1838
 2298SOL     OW18112   9.625   5.563   1.039  0.1048  0.2217  0.1142
 2298SOL    HW118113   9.650   5.660   1.028  2.3775 -0.5587 -2.0815
 2298SOL    HW218114   9.707   5.511   1.063 -1.1796 -1.1411  1.6045
 2299SOL     OW18115   3.077   0.931   2.244 -0.1882 -0.1758  0.0192
 2299SOL    HW118116   3.130   0.906   2.163 -1.0248 -0.6627 -0.3981
 2299SOL    HW218117   3.112   1.015   2.283  0.1740  0.1081 -0.9082
 2300SOL     OW18118   9.052   7.430   2.726 -0.0261  0.2313  0.1853
 2300SOL    HW118119   9.098   7.452   2.812 -0.5485 -0.9212  0.7809
 2300SOL    HW218120   9.095   7.480   2.651 -1.3583  3.4256  1.4889
 2301SOL     OW18121   2.824   8.235   1.158 -0.3555  0.2462 -0.6125
 2301SOL    HW118122   2.772   8.150   1.172 -2.0288  1.3130 -0.2508
 2301SOL    HW218123   2.826   8.257   1.060  1.7263 -1.1999 -0.9399
 2302SOL     OW18124   3.633   0.211   1.769  0.1621  0.4221  0.0024
 2302SOL    HW118125   3.604   0.183   1.677  0.5074 -0.5242  0.1717
 2302SOL    HW218126   3.733   0.217   1.772  0.1580  0.3399  0.3433
 2303SOL     OW18127   8.577   2.206   0.531 -0.3683 -0.2099  0.3747
 2303SOL    HW118128   8.551   2.173   0.622 -1.0848 -2.9742 -0.7677
 2303SOL    HW218129   8.662   2.162   0.503  0.3357  1.3225  0.0425
 2304SOL     OW18130   7.581   6.744   1.178 -0.7399  0.0629  0.1447
 2304SOL    HW118131   7.638   6.820   1.210  0.8515 -0.3210 -1.6504
 2304SOL    HW218132   7.586   6.669   1.243  0.3693  0.2525  0.3022
 2305SOL     OW18133   2.776   9.336   5.019 -0.0293 -0.4294 -0.1322
 2305SOL    HW118134   2.817   9.366   4.933 -1.1554  1.9237  0.1014
 2305SOL    HW218135   2.677   9.328   5.007 -0.3267  1.0013  1.2041
 2306SOL     OW18136   0.615   1.135   1.338 -0.1922 -0.0135  0.6499
 2306SOL    HW118137   0.613   1.071   1.262  0.5176 -1.2363  1.6543
 2306SOL    HW218138   0.689   1.201   1.325  0.7995 -1.0565  0.9472
 2307SOL     OW18139   2.008   0.895   3.764  0.6464  0.4875  0.1534
 2307SOL    HW118140   1.967   0.814   3.806 -0.1812 -0.0595 -1.6490
 2307SOL    HW218141   1.943   0.971   3.767  0.0640  0.0764 -1.2482
 2308SOL     OW18142   3.973   9.524   1.998  0.2891 -0.2202 -0.2870
 2308SOL    HW118143   3.923   9.505   2.083 -0.2186  1.7825 -0.1118
 2308SOL    HW218144   4.063   9.561   2.020  0.0430  0.5828 -0.5996
 2309SOL     OW18145   1.130   4.791   5.392 -0.4460 -0.2824  0.2677
 2309SOL    HW118146   1.185   4.717   5.353  0.6609  0.9047 -0.4625
 2309SOL    HW218147   1.131   4.784   5.492  0.0655 -0.9519  0.2201
 2310SOL     OW18148   3.407   9.651   2.824 -0.0783 -0.2355  0.2128
 2310SOL    HW118149   3.460   9.577   2.780 -3.6083 -2.2689 -0.8322
 2310SOL    HW218150   3.398   9.727   2.760 -0.7533 -1.0283 -0.6474
 2311SOL     OW18151   2.007   0.166   2.516  0.4291 -0.0536 -0.8265
 2311SOL    HW118152   1.937   0.102   2.483 -0.3870  0.8330 -0.8514
 2311SOL    HW218153   2.045   0.133   2.602 -0.5637 -0.1744 -0.4258
 2312SOL     OW18154   8.080   5.770   3.403  0.2268  0.1215 -0.3035
 2312SOL    HW118155   8.078   5.705   3.327  2.2076 -0.1443 -0.1559
 2312SOL    HW218156   8.126   5.854   3.374  0.9627  0.0342  0.5818
 2313SOL     OW18157   2.878   1.868   0.653  0.1716 -0.4040  0.0681
 2313SOL    HW118158   2.877   1.769   0.641  2.3993 -0.3061 -1.1808
 2313SOL    HW218159   2.854   1.912   0.566 -0.6722  0.1603  0.5791
 2314SOL     OW18160   8.039   5.511   1.882 -0.2100 -0.3398  0.2426
 2314SOL    HW118161   8.095   5.556   1.952 -1.5878 -0.6706  1.5694
 2314SOL    HW218162   8.081   5.526   1.792  1.4888  0.2268  1.0995
 2315SOL     OW18163   9.186   6.187   5.740  0.4575  0.4570  0.1052
 2315SOL    HW118164   9.281   6.158   5.726  0.0055 -1.1256  0.2035
 2315SOL    HW218165   9.176   6.227   5.831  0.7156 -0.7721  0.6811
 2316SOL     OW18166   3.799   1.358   2.168  0.8245 -0.0049  0.4248
 2316SOL    HW118167   3.731   1.352   2.241  0.0184  0.4155 -0.2677
 2316SOL    HW218168   3.846   1.447   2.173  0.3417  0.2752  0.0770
 2317SOL     OW18169   0.169   8.817   2.475 -0.1541  0.2113 -0.1463
 2317SOL    HW118170   0.232   8.871   2.419  0.2619  0.0470  0.1622
 2317SOL    HW218171   0.182   8.720   2.457  1.0329  0.0785  1.3274
 2318SOL     OW18172   0.014   7.557   1.154 -0.1103  0.4917 -0.3600
 2318SOL    HW118173   0.006   7.524   1.060 -3.1336 -1.2914  0.4618
 2318SOL    HW218174  -0.052   7.630   1.170  0.1351  0.5293  0.5220
 2319SOL     OW18175   4.414   3.642   2.288 -0.0849 -0.0629  0.5588
 2319SOL    HW118176   4.490   3.597   2.241 -2.4780 -2.4411 -1.1467
 2319SOL    HW218177   4.396   3.597   2.375  0.6534  0.7594  1.1584
 2320SOL     OW18178   6.296   4.789   0.223  0.0626  0.4964 -0.0745
 2320SOL    HW118179   6.231   4.846   0.172  0.5160  0.9614 -0.1443
 2320SOL    HW218180   6.322   4.837   0.307 -0.4040 -0.1073  0.4180
 2321SOL     OW18181   5.046   2.523   3.633 -0.3291 -0.0801 -0.4554
 2321SOL    HW118182   5.095   2.602   3.597  0.4232 -0.6867 -0.7756
 2321SOL    HW218183   5.099   2.440   3.617 -0.5048 -0.4986  1.0653
 2322SOL     OW18184   0.964   9.261   3.959 -0.4497 -0.0783 -0.1186
 2322SOL    HW118185   1.044   9.319   3.947 -2.5943  2.8831 -0.7041
 2322SOL    HW218186   0.919   9.248   3.870  0.0241 -2.7593 -0.0167
 2323SOL     OW18187   3.277   9.908   5.134  0.1410 -0.2760 -0.3513
 2323SOL    HW118188   3.330   9.842   5.188 -0.1016  0.7290  1.1247
 2323SOL    HW218189   3.328   9.994   5.128 -1.8907  1.1802  2.2897
 2324SOL     OW18190   2.492   5.462   6.164 -0.2459  0.4112 -0.1334
 2324SOL    HW118191   2.527   5.378   6.204  0.5220  0.3766 -0.8544
 2324SOL    HW218192   2.536   5.477   6.075 -1.2124  0.9798 -0.5170
 2325SOL     OW18193   9.301   5.707   5.004  0.6275  0.3151 -0.2193
 2325SOL    HW118194   9.348   5.629   5.046  1.6356 -0.3030 -2.3982
 2325SOL    HW218195   9.362   5.786   5.004 -0.1778  0.9477  1.4451
 2326SOL     OW18196   2.258   6.833   5.884 -0.0264  0.1726  0.1108
 2326SOL    HW118197   2.245   6.877   5.973 -1.2573 -0.3407  0.1904
 2326SOL    HW218198   2.297   6.742   5.898 -0.0895  0.1459  0.1120
 2327SOL     OW18199   1.221   7.807   3.764 -0.1324 -0.1464  0.5933
 2327SOL    HW118200   1.163   7.768   3.836 -0.4205 -0.8087  0.0073
 2327SOL    HW218201   1.190   7.899   3.742  0.9426  0.6807  2.4416
 2328SOL     OW18202   8.138   0.226   4.211  0.3057  0.5036  0.1354
 2328SOL    HW118203   8.119   0.294   4.141  1.0077  0.2375 -0.3167
 2328SOL    HW218204   8.114   0.135   4.177 -0.2896  0.4782  0.6068
 2329SOL     OW18205   1.333   3.073   2.881  0.6168 -0.7294 -0.4300
 2329SOL    HW118206   1.348   2.990   2.827  1.7571  0.5523 -2.1597
 2329SOL    HW218207   1.365   3.152   2.829  2.2300  0.5268  2.3473
 2330SOL     OW18208   4.282   4.151   2.320  0.5388 -0.0917 -0.8111
 2330SOL    HW118209   4.212   4.089   2.283  1.5537 -1.1744 -0.9476
 2330SOL    HW218210   4.245   4.244   2.323 -1.1656 -0.7672 -0.1650
 2331SOL     OW18211   9.645   8.806   3.130 -0.3777  0.4780  0.6872
 2331SOL    HW118212   9.644   8.806   3.230  0.5292 -3.6946  0.7790
 2331SOL    HW218213   9.558   8.769   3.096 -0.5185  1.4889 -0.1098
 2332SOL     OW18214   9.112   9.863   3.552  0.1115  0.2030  0.5439
 2332SOL    HW118215   9.087   9.945   3.501  0.6214 -0.3714 -0.6537
 2332SOL    HW218216   9.107   9.881   3.650 -2.2833  0.8930  0.3075
 2333SOL     OW18217   1.044   3.610   5.219  0.1274  0.1644 -0.4335
 2333SOL    HW118218   1.140   3.611   5.190  0.4019 -1.9680  0.2692
 2333SOL    HW218219   1.037   3.635   5.315  0.0184  0.0760 -0.4178
 2334SOL     OW18220   3.869   3.863   1.259  0.0028  0.5387  0.6059
 2334SOL    HW118221   3.920   3.933   1.309 -0.0887  0.5528  0.6806
 2334SOL    HW218222   3.909   3.851   1.168  2.6213 -2.3171  2.0907
 2335SOL     OW18223   1.782   4.790   3.349  0.1841 -0.8315 -0.2146
 2335SOL    HW118224   1.694   4.789   3.397 -1.4398 -0.9361 -3.1368
 2335SOL    HW218225   1.856   4.783   3.417 -2.0952 -4.3853  2.0772
 2336SOL     OW18226   8.437   4.714   0.978  0.1062  0.0616 -0.8618
 2336SOL    HW118227   8.474   4.638   1.030 -1.0408  0.7620  1.0021
 2336SOL    HW218228   8.375   4.679   0.907  0.7055 -0.8136 -0.9561
 2337SOL     OW18229   8.265   6.274   5.551 -0.5110  0.5531  0.6227
 2337SOL    HW118230   8.284   6.231   5.639  1.2109  0.8703  0.4160
 2337SOL    HW218231   8.328   6.349   5.535 -1.8883  1.5743 -0.1551
 2338SOL     OW18232   1.841   7.596   6.270 -0.3953 -0.5101 -0.0349
 2338SOL    HW118233   1.812   7.684   6.307 -0.8482 -0.9040  0.5652
 2338SOL    HW218234   1.927   7.568   6.313  3.0693  2.4650 -4.5483
 2339SOL     OW18235   4.328   6.664   3.100  0.2360 -0.0107 -0.7514
 2339SOL    HW118236   4.309   6.694   3.193  1.3713  0.2167 -0.5968
 2339SOL    HW218237   4.243   6.628   3.060 -0.7235  1.7208 -0.3350
 2340SOL     OW18238   3.611   6.701   3.205 -0.3681 -0.3971 -0.3885
 2340SOL    HW118239   3.707   6.681   3.182  0.0129 -0.1768  0.9498
 2340SOL    HW218240   3.593   6.670   3.299 -1.3873  0.2891 -0.3567
 2341SOL     OW18241   1.920   6.022   1.169  0.2443  1.0032 -0.1415
 2341SOL    HW118242   1.972   6.025   1.255 -0.2654 -0.2082  0.2146
 2341SOL    HW218243   1.907   6.115   1.135 -0.5890  1.6054  1.7368
 2342SOL     OW18244   9.398   7.296   5.588  0.3759  0.8460 -0.1145
 2342SOL    HW118245   9.382   7.348   5.504  1.3915  0.5499 -0.5049
 2342SOL    HW218246   9.473   7.231   5.572 -0.3555 -0.1796  0.6003
 2343SOL     OW18247   8.136   3.952   5.558 -0.7168 -0.0007  0.4650
 2343SOL    HW118248   8.209   3.946   5.489 -0.4701 -0.7125  0.7895
 2343SOL    HW218249   8.095   3.862   5.571 -2.1756  0.5240 -0.2651
 2344SOL     OW18250   3.090   8.548   5.653 -0.1900  0.0210 -0.0803
 2344SOL    HW118251   3.174   8.508   5.690 -0.1038 -1.1089 -1.4349
 2344SOL    HW218252   3.055   8.617   5.716  1.4380  0.0910  0.7644
 2345SOL     OW18253   0.400   9.295   5.127 -0.0519 -0.0930  0.0885
 2345SOL    HW118254   0.342   9.215   5.113  0.0865 -0.0008 -1.0265
 2345SOL    HW218255   0.342   9.375   5.144 -0.3749  0.4287 -3.1324
 2346SOL     OW18256   1.244   3.802   3.109 -0.3399 -0.6428 -0.3132
 2346SOL    HW118257   1.215   3.880   3.164  0.6773  0.6664 -1.5979
 2346SOL    HW218258   1.344   3.793   3.115 -0.5035 -2.2584  0.3435
 2347SOL     OW18259   4.831   8.623   5.199 -0.0929 -0.3703  0.0116
 2347SOL    HW118260   4.906   8.560   5.176  0.8116 -0.0443  1.9891
 2347SOL    HW218261   4.755   8.609   5.135  0.9443 -1.9743 -0.8984
 2348SOL     OW18262   1.869   6.302   5.365  0.2254 -0.3754  0.2311
 2348SOL    HW118263   1.820   6.218   5.390 -1.7101  0.8792  0.7695
 2348SOL    HW218264   1.913   6.341   5.446  0.9969 -0.7875  0.0113
 2349SOL     OW18265   9.541   1.679   3.881 -0.4632  0.3480  0.1747
 2349SOL    HW118266   9.561   1.755   3.944  0.6863 -0.0884  0.3546
 2349SOL    HW218267   9.574   1.594   3.921 -1.9302 -0.2843  0.0618
 2350SOL     OW18268   8.235   3.227   2.955  0.2811  0.5450 -0.2337
 2350SOL    HW118269   8.235   3.283   3.038 -0.4104 -1.8503  1.4319
 2350SOL    HW218270   8.294   3.148   2.968  0.0482  0.0605 -1.9970
 2351SOL     OW18271   8.250   3.937   1.804 -0.1380  0.0766 -0.4693
 2351SOL    HW118272   8.336   3.908   1.847 -1.0772  1.0912  2.1751
 2351SOL    HW218273   8.197   3.857   1.777 -0.6987 -0.6916  2.6925
 2352SOL     OW18274   8.155   7.014   2.076 -0.3525  0.0854 -0.0883
 2352SOL    HW118275   8.175   7.020   2.174  0.3815 -1.0068 -0.1639
 2352SOL    HW218276   8.059   6.991   2.063 -0.6508  1.0663  0.3571
 2353SOL     OW18277   0.221   1.607   3.264  0.0558 -0.3964 -0.2172
 2353SOL    HW118278   0.217   1.515   3.301  0.9096 -0.5227 -0.4308
 2353SOL    HW218279   0.246   1.604   3.167 -2.4788 -0.0833 -0.9065
 2354SOL     OW18280   3.435   8.924   3.662 -0.2209  0.2125  0.1125
 2354SOL    HW118281   3.424   8.827   3.679  2.1316  0.3155  2.5121
 2354SOL    HW218282   3.350   8.972   3.685 -0.6408 -1.0012  1.1469
 2355SOL     OW18283   9.356   7.125   2.979 -0.1459 -0.0966 -0.1488
 2355SOL    HW118284   9.401   7.072   2.907 -2.0862 -2.3155  0.2322
 2355SOL    HW218285   9.258   7.131   2.961 -0.3649  1.0165  1.2744
 2356SOL     OW18286   7.812   8.440   5.939 -0.2349 -0.5099  0.2032
 2356SOL    HW118287   7.721   8.483   5.933 -0.8163 -1.7568 -0.1625
 2356SOL    HW218288   7.801   8.340   5.938  1.2205 -0.6724 -1.3194
 2357SOL     OW18289   8.141   0.394   0.915  0.4171 -0.1601  0.6655
 2357SOL    HW118290   8.238   0.405   0.893  0.3028 -1.0567 -0.3411
 2357SOL    HW218291   8.103   0.481   0.947  1.3298  0.4291  0.1599
 2358SOL     OW18292   2.914   3.108   6.369  0.5555 -0.5493  0.7165
 2358SOL    HW118293   2.996   3.124   6.315  0.9001 -2.6420  0.5683
 2358SOL    HW218294   2.888   3.192   6.417  0.0602  1.4641 -2.9232
 2359SOL     OW18295   2.580   4.116   4.036  0.4439 -0.2957  0.6940
 2359SOL    HW118296   2.666   4.154   4.070  0.1740  3.2249 -2.3208
 2359SOL    HW218297   2.587   4.016   4.034  4.9339 -0.0680 -0.6559
 2360SOL     OW18298   9.686   5.759   0.716  0.3462 -0.3247 -0.3315
 2360SOL    HW118299   9.671   5.825   0.641  1.4765  0.0359 -0.2431
 2360SOL    HW218300   9.602   5.705   0.729  0.1445 -0.4349 -1.8934
 2361SOL     OW18301   3.147   2.745   2.852 -0.2750 -0.4954  0.2563
 2361SOL    HW118302   3.141   2.652   2.814  0.2198  0.0426 -1.1776
 2361SOL    HW218303   3.188   2.806   2.785 -2.3203  1.1833  0.4651
 2362SOL     OW18304   9.468   5.054   0.461 -0.3451  0.0491 -0.0702
 2362SOL    HW118305   9.473   4.991   0.538  0.5455 -1.8360 -1.6489
 2362SOL    HW218306   9.558   5.064   0.420 -0.8546  0.8640 -1.0184
 2363SOL     OW18307   2.672   9.166   6.612  0.4394  0.0666 -0.1903
 2363SOL    HW118308   2.668   9.113   6.696  2.5034  0.2175  0.0327
 2363SOL    HW218309   2.767   9.182   6.587 -0.1310 -0.7469 -3.0463
 2364SOL     OW18310   3.582   2.413   5.598 -0.0768  0.5234  0.3162
 2364SOL    HW118311   3.602   2.330   5.546  1.6085  0.4449  1.0625
 2364SOL    HW218312   3.515   2.468   5.548 -0.5392 -0.8545 -0.6074
 2365SOL     OW18313   1.183   3.948   2.867  0.2507  0.0823  0.0466
 2365SOL    HW118314   1.271   3.953   2.821  0.4067  1.1156  0.4438
 2365SOL    HW218315   1.178   3.864   2.921  0.1108 -1.0717 -1.7393
 2366SOL     OW18316   7.762   7.117   3.788  0.1106 -0.3379  0.0405
 2366SOL    HW118317   7.696   7.057   3.741 -2.2514  0.5039  2.1892
 2366SOL    HW218318   7.838   7.137   3.726 -1.0866 -2.2375 -2.1286
 2367SOL     OW18319   8.367   8.512   5.440 -0.7138  0.2370  0.0190
 2367SOL    HW118320   8.364   8.430   5.384  0.7741  0.6439 -0.6801
 2367SOL    HW218321   8.356   8.488   5.537  0.6588 -0.8801 -0.1006
 2368SOL     OW18322   0.629   3.486   3.925  0.2266 -0.2454  0.3995
 2368SOL    HW118323   0.615   3.539   4.008 -2.3082 -0.4548  0.1371
 2368SOL    HW218324   0.590   3.395   3.936 -0.7464 -0.0461 -1.2464
 2369SOL     OW18325   8.830   1.347   1.682  0.0353 -0.4372  0.0006
 2369SOL    HW118326   8.821   1.439   1.643  1.0365 -0.4919 -0.3577
 2369SOL    HW218327   8.788   1.346   1.773  0.3885  0.4919  0.1848
 2370SOL     OW18328   8.782   8.924   2.837  0.4621  0.1115 -0.3021
 2370SOL    HW118329   8.765   8.905   2.740 -0.6918 -2.7497  0.4092
 2370SOL    HW218330   8.880   8.916   2.856  0.7066  0.7808 -1.2141
 2371SOL     OW18331   0.087   3.388   6.432  0.0284 -0.3981 -0.2498
 2371SOL    HW118332   0.130   3.451   6.498 -0.8027 -2.3133  2.2140
 2371SOL    HW218333   0.123   3.296   6.446 -1.3775 -1.1386 -1.3730
 2372SOL     OW18334   4.070   4.483   6.568  0.1823  0.5452  0.1409
 2372SOL    HW118335   4.103   4.576   6.579 -1.3221  1.3136 -1.5956
 2372SOL    HW218336   4.019   4.456   6.650  0.9562  1.0866  0.8121
 2373SOL     OW18337   2.244   9.201   0.148  0.7424  0.6260 -0.4382
 2373SOL    HW118338   2.288   9.149   0.221  1.9308 -1.2180 -2.3711
 2373SOL    HW218339   2.146   9.182   0.148  0.3945  2.2631  1.9234
 2374SOL     OW18340   0.347   3.254   4.998  0.0545 -0.7107  0.0779
 2374SOL    HW118341   0.280   3.245   5.071  0.8220 -0.6088  0.8123
 2374SOL    HW218342   0.305   3.233   4.910 -1.1422  0.1866  0.4312
 2375SOL     OW18343   7.949   7.718   1.656 -0.5528  0.4777  0.6860
 2375SOL    HW118344   8.049   7.722   1.662 -0.3904 -2.0412  0.3349
 2375SOL    HW218345   7.919   7.758   1.569  0.1448  1.2056  0.7762
 2376SOL     OW18346   7.485   4.925   0.457  0.0235  0.2283 -0.2599
 2376SOL    HW118347   7.389   4.946   0.437  0.8369  2.7518 -1.7351
 2376SOL    HW218348   7.497   4.914   0.556 -1.8283 -0.4938 -0.0926
 2377SOL     OW18349   9.249   7.096   1.284 -0.4214  0.2736 -0.9977
 2377SOL    HW118350   9.226   7.147   1.202  0.9039  0.6785 -1.1290
 2377SOL    HW218351   9.296   7.011   1.258  1.6077  1.2607 -0.6009
 2378SOL     OW18352   6.336   0.717   2.155 -0.0807 -0.0199  0.4155
 2378SOL    HW118353   6.302   0.650   2.089  0.9066  1.1097 -1.2894
 2378SOL    HW218354   6.436   0.714   2.157 -0.0389  1.1236  0.5865
 2379SOL     OW18355   8.002   6.560   6.093  0.8413 -0.5010  0.3412
 2379SOL    HW118356   8.042   6.650   6.072 -0.7192  0.4755  1.4906
 2379SOL    HW218357   8.036   6.493   6.027  1.4339  1.0948 -1.0223
 2380SOL     OW18358   7.729   1.996   3.062 -0.6071  0.4689 -0.3068
 2380SOL    HW118359   7.679   1.993   2.976 -1.4036 -0.7210  0.1822
 2380SOL    HW218360   7.664   1.990   3.138  0.2354 -0.4501  0.3455
 2381SOL     OW18361   5.659   1.720   1.733 -0.0340 -0.7166 -0.4930
 2381SOL    HW118362   5.757   1.738   1.741  0.0898 -1.6721  0.1778
 2381SOL    HW218363   5.642   1.671   1.647  0.2617 -1.7860  0.0465
 2382SOL     OW18364   0.684   9.436   5.483  0.0634  0.9873  0.6285
 2382SOL    HW118365   0.760   9.501   5.478 -0.5316  1.7018  0.8200
 2382SOL    HW218366   0.669   9.409   5.578  0.1421  0.7613  0.5774
 2383SOL     OW18367   3.584   3.979   3.483 -0.1813 -0.0016 -0.2815
 2383SOL    HW118368   3.656   4.043   3.508  1.3071 -1.3317 -1.0439
 2383SOL    HW218369   3.621   3.912   3.418 -1.4464 -2.1423  1.1452
 2384SOL     OW18370   9.615   3.171   1.860  0.2060  0.0624  0.3705
 2384SOL    HW118371   9.659   3.127   1.938  1.3981 -1.0727 -0.9174
 2384SOL    HW218372   9.601   3.105   1.787 -1.1150  1.0564 -0.3229
 2385SOL     OW18373   9.566   5.927   3.473 -0.0694 -0.7873  0.0096
 2385SOL    HW118374   9.663   5.905   3.486  0.6309 -0.1453 -3.5304
 2385SOL    HW218375   9.511   5.846   3.496  1.4308 -1.7097  0.4616
 2386SOL     OW18376   1.238   5.707   5.357 -0.1598 -0.0942  0.1566
 2386SOL    HW118377   1.176   5.726   5.282 -1.7494  0.2264  1.5203
 2386SOL    HW218378   1.228   5.777   5.428  0.6529 -0.8828  1.0809
 2387SOL     OW18379   8.236   7.069   2.355  0.4753  0.2013 -0.4784
 2387SOL    HW118380   8.289   7.154   2.350  1.2215 -0.2996 -1.1628
 2387SOL    HW218381   8.298   6.991   2.351 -0.1836 -0.3798  0.5238
 2388SOL     OW18382   3.258   9.822   2.352 -0.0326  0.3788  0.1269
 2388SOL    HW118383   3.230   9.917   2.344  1.7715  0.7959 -1.4163
 2388SOL    HW218384   3.337   9.804   2.293  0.4798 -1.7478  1.3785
 2389SOL     OW18385   3.440   2.862   5.809  0.3329 -0.0116 -0.3256
 2389SOL    HW118386   3.371   2.795   5.836  0.3638 -0.0127 -0.2491
 2389SOL    HW218387   3.496   2.887   5.889 -0.7297  1.3385  0.0144
 2390SOL     OW18388   8.231   8.422   6.528  0.5161 -0.5728 -0.0182
 2390SOL    HW118389   8.131   8.414   6.531  0.4847 -0.3442 -0.5287
 2390SOL    HW218390   8.269   8.392   6.616 -0.0977  0.7920  0.7201
 2391SOL     OW18391   4.339   1.348   2.629 -0.1479 -0.2008  0.5264
 2391SOL    HW118392   4.303   1.293   2.553  0.2837  0.4016 -0.1146
 2391SOL    HW218393   4.314   1.444   2.615  1.9392  0.2904 -0.0977
 2392SOL     OW18394   9.228   5.742   1.040  0.0485  0.1992  0.4741
 2392SOL    HW118395   9.155   5.767   0.977  0.5243  0.3931 -0.0051
 2392SOL    HW218396   9.279   5.825   1.066 -1.1407  0.3747  2.3777
 2393SOL     OW18397   8.905   8.698   5.435 -0.2564 -0.1802 -0.2883
 2393SOL    HW118398   8.932   8.789   5.469 -0.1955 -0.3702  0.1708
 2393SOL    HW218399   8.985   8.653   5.394 -0.2231 -0.1370 -0.2705
 2394SOL     OW18400   0.446   1.685   2.867 -0.2601  0.3796 -0.4171
 2394SOL    HW118401   0.409   1.777   2.858 -0.3641  0.4416  0.5787
 2394SOL    HW218402   0.381   1.618   2.831 -0.8649  0.5775  0.3089
 2395SOL     OW18403   2.614   6.057   1.722 -0.0087  0.0254  0.4351
 2395SOL    HW118404   2.639   5.981   1.781  0.2840 -0.3252 -0.1415
 2395SOL    HW218405   2.672   6.058   1.641 -0.8516  0.0983 -0.1776
 2396SOL     OW18406   6.448   7.330   3.319 -0.1801  0.9651 -0.3562
 2396SOL    HW118407   6.378   7.388   3.359 -0.8775 -0.4539  0.5273
 2396SOL    HW218408   6.406   7.257   3.266  0.3092 -3.0183  4.4205
 2397SOL     OW18409   9.545   2.162   2.647 -0.1073  0.0302  0.0840
 2397SOL    HW118410   9.621   2.098   2.635  1.1269  1.4365  0.2334
 2397SOL    HW218411   9.463   2.125   2.605  0.6940 -1.4624 -0.1834
 2398SOL     OW18412   0.530   1.938   1.523  0.7856  0.4753 -0.2438
 2398SOL    HW118413   0.442   1.902   1.493  0.7611  1.4271 -1.3539
 2398SOL    HW218414   0.603   1.902   1.465  0.9526  0.8583 -0.2745
 2399SOL     OW18415   2.037   2.959   3.571 -1.0337  0.2297 -0.1022
 2399SOL    HW118416   2.132   2.960   3.538 -0.8979 -1.6675  0.1952
 2399SOL    HW218417   2.033   3.005   3.660 -0.2757 -0.2531  0.1884
 2400SOL     OW18418   0.362   6.096   6.635  0.4415 -0.1054  0.2577
 2400SOL    HW118419   0.281   6.141   6.673 -0.6342 -1.0401 -0.8721
 2400SOL    HW218420   0.444   6.136   6.674 -0.5432  1.6442  0.5828
 2401SOL     OW18421   7.601   0.319   4.384 -0.9864 -0.3406  0.0196
 2401SOL    HW118422   7.670   0.319   4.457 -0.6741 -0.0546 -0.2763
 2401SOL    HW218423   7.540   0.241   4.396 -1.4082  0.1401  1.0407
 2402SOL     OW18424   8.566   5.047   4.720 -0.6930  0.3996 -0.6057
 2402SOL    HW118425   8.570   4.952   4.750 -0.1167  0.1146 -1.5638
 2402SOL    HW218426   8.648   5.095   4.750 -1.2291  0.7450  0.3407
 2403SOL     OW18427   4.089   3.344   6.611 -0.0858  0.0437  0.1807
 2403SOL    HW118428   4.155   3.290   6.664 -1.1993 -1.1317  0.3871
 2403SOL    HW218429   4.109   3.334   6.514 -0.7134 -1.3281  0.1784
 2404SOL     OW18430   0.014   2.303   0.518 -0.3164  0.1527 -0.4252
 2404SOL    HW118431   0.089   2.238   0.529 -0.4915 -0.0396 -0.3616
 2404SOL    HW218432   0.009   2.362   0.599 -1.0608 -0.6937  0.1570
 2405SOL     OW18433   4.984   5.229   1.932 -0.1583 -0.1340 -0.0164
 2405SOL    HW118434   4.929   5.209   2.013 -2.4017 -0.3660 -1.5548
 2405SOL    HW218435   4.925   5.237   1.852  2.0725 -0.5187 -1.7713
 2406SOL     OW18436   1.960   8.839   6.719  0.3941 -0.1574  0.3147
 2406SOL    HW118437   1.924   8.883   6.637 -0.5714 -0.2049  0.7111
 2406SOL    HW218438   1.973   8.907   6.791  1.5875 -0.0520  0.0177
 2407SOL     OW18439   9.437   0.325   2.870  0.2237  0.0540  0.2311
 2407SOL    HW118440   9.435   0.351   2.774  1.1579 -0.6613  0.0093
 2407SOL    HW218441   9.345   0.334   2.909 -0.8621 -2.6362 -1.5294
 2408SOL     OW18442   6.755   1.226   0.486 -0.5293  0.0156  0.5502
 2408SOL    HW118443   6.695   1.198   0.411  1.2528 -0.5969 -0.6861
 2408SOL    HW218444   6.825   1.288   0.451 -0.3627  0.6258  1.9444
 2409SOL     OW18445   1.492   3.417   6.490 -0.1415 -0.5223 -0.0623
 2409SOL    HW118446   1.395   3.395   6.489 -0.6478  1.6146 -0.6370
 2409SOL    HW218447   1.504   3.517   6.498  2.0045 -0.8157  0.9519
 2410SOL     OW18448   2.834   6.589   6.498 -0.0254  0.1121 -0.8201
 2410SOL    HW118449   2.866   6.626   6.411 -0.4146 -0.3070 -1.1451
 2410SOL    HW218450   2.906   6.598   6.567  0.1616  0.7468 -1.1023
 2411SOL     OW18451   1.974   5.545   5.861  0.2534  0.1140 -0.6175
 2411SOL    HW118452   1.886   5.502   5.878  0.6595 -0.4544  0.0735
 2411SOL    HW218453   2.016   5.571   5.948  1.3016 -0.7153 -0.8668
 2412SOL     OW18454   9.936   9.252   3.069  0.3599  0.4981  0.2925
 2412SOL    HW118455  10.021   9.259   3.018  0.2056  0.5447  0.0429
 2412SOL    HW218456   9.894   9.163   3.054  1.1903 -0.1545  1.7089
 2413SOL     OW18457   2.920   8.208   0.890 -0.1022  0.2182 -0.3019
 2413SOL    HW118458   2.922   8.290   0.833 -2.0005  0.5584  0.0867
 2413SOL    HW218459   2.961   8.132   0.840  0.6711  1.1402 -1.0941
 2414SOL     OW18460   7.301   1.771   4.146  0.0700 -0.0332 -0.3186
 2414SOL    HW118461   7.275   1.681   4.181 -0.6112  0.3112  0.0999
 2414SOL    HW218462   7.274   1.779   4.050 -0.8109  0.0865 -0.0679
 2415SOL     OW18463   2.892   3.942   4.114  0.1204 -0.3654 -0.5505
 2415SOL    HW118464   2.865   4.038   4.106  0.0456 -0.3217  0.1946
 2415SOL    HW218465   2.889   3.899   4.023  1.2757  0.6310 -1.0907
 2416SOL     OW18466   4.239   4.395   6.372  0.4683 -0.0644 -0.3917
 2416SOL    HW118467   4.246   4.295   6.382  1.4758  0.0835  0.4814
 2416SOL    HW218468   4.152   4.426   6.410 -0.2941 -0.7162 -1.5654
 2417SOL     OW18469   9.888   1.379   0.178  0.3030  0.5025 -0.4102
 2417SOL    HW118470   9.955   1.453   0.180  1.2646 -0.3789  2.5202
 2417SOL    HW218471   9.812   1.401   0.240 -0.0966 -0.3088 -0.6037
 2418SOL     OW18472   7.347   4.777   6.312 -0.2440 -0.1149 -0.9383
 2418SOL    HW118473   7.300   4.815   6.233 -0.4355  2.1596  0.2353
 2418SOL    HW218474   7.285   4.774   6.390 -0.5889 -3.9752 -1.2731
 2419SOL     OW18475   0.928   0.835   6.632 -0.0204  0.2409  0.2481
 2419SOL    HW118476   1.014   0.794   6.602 -0.7252  0.1263 -1.7102
 2419SOL    HW218477   0.917   0.925   6.589 -0.6552  0.4696  0.8686
 2420SOL     OW18478   0.645   0.890   2.800 -0.0815  0.0044 -0.6594
 2420SOL    HW118479   0.740   0.864   2.780  0.2586 -0.1750  1.0903
 2420SOL    HW218480   0.642   0.988   2.819  0.1042 -0.3656  1.3095
 2421SOL     OW18481   5.290   1.473   0.470  0.2881  0.6296  0.1084
 2421SOL    HW118482   5.240   1.558   0.488  1.0477  0.8592  1.1999
 2421SOL    HW218483   5.388   1.488   0.483  0.4478 -0.3613  0.1079
 2422SOL     OW18484   1.943   6.330   6.514 -0.5981 -0.3550 -0.2758
 2422SOL    HW118485   1.912   6.246   6.560  0.6754 -0.8650 -0.3300
 2422SOL    HW218486   2.037   6.317   6.482 -0.4452  1.0554 -0.4017
 2423SOL     OW18487   7.526   7.298   0.923  0.0740  0.4871  0.1289
 2423SOL    HW118488   7.591   7.371   0.903  2.6922 -1.3450  1.6728
 2423SOL    HW218489   7.512   7.291   1.022 -0.2088 -1.0175  0.0030
 2424SOL     OW18490   0.361   5.260   2.760  0.2153 -0.2532  0.2807
 2424SOL    HW118491   0.452   5.219   2.759  0.3149 -0.0295 -1.6420
 2424SOL    HW218492   0.297   5.197   2.804  1.0184 -1.0174  0.3789
 2425SOL     OW18493   8.754   6.712   0.295 -0.1536  0.0509  0.2016
 2425SOL    HW118494   8.668   6.763   0.292 -0.5939 -0.4863  2.7432
 2425SOL    HW218495   8.738   6.623   0.338  1.1211 -1.2154 -1.8949
 2426SOL     OW18496   3.706   6.516   0.437  0.6910 -0.4054  0.4228
 2426SOL    HW118497   3.647   6.529   0.357  0.5507 -1.6625  0.3024
 2426SOL    HW218498   3.685   6.585   0.506  0.2145  0.1588 -0.2754
 2427SOL     OW18499   4.619   0.793   5.966 -0.3267  0.2788 -0.1229
 2427SOL    HW118500   4.711   0.758   5.945 -0.9058 -1.1998 -0.2319
 2427SOL    HW218501   4.586   0.751   6.051 -0.4887  1.6007  0.4805
 2428SOL     OW18502   9.731   9.340   5.603  0.2005 -0.2393 -0.0161
 2428SOL    HW118503   9.731   9.382   5.694 -0.4064 -0.0606 -0.0967
 2428SOL    HW218504   9.760   9.407   5.535  0.6341 -0.3674  0.0385
 2429SOL     OW18505   9.191   2.801   0.099  0.3106  0.2296 -0.0249
 2429SOL    HW118506   9.279   2.761   0.073  1.8190  2.1803  1.8857
 2429SOL    HW218507   9.136   2.731   0.146  1.9032 -0.3199  1.0847
 2430SOL     OW18508   1.023   9.570   4.521 -0.2845  0.5738  0.1215
 2430SOL    HW118509   1.029   9.668   4.504  1.7858  0.7509  1.6375
 2430SOL    HW218510   1.084   9.546   4.597 -1.5021 -1.7294  0.4112
 2431SOL     OW18511   1.906   2.959   0.014  0.0133  0.1993  0.0337
 2431SOL    HW118512   1.860   2.957  -0.075 -1.8414 -0.0442  0.9656
 2431SOL    HW218513   1.843   2.997   0.082  2.1006  2.2886  0.8683
 2432SOL     OW18514   9.870   1.902   6.090  0.5303 -0.1379  0.6299
 2432SOL    HW118515   9.915   1.937   6.008  0.7765  0.7479  1.1358
 2432SOL    HW218516   9.879   1.802   6.094  0.9570 -0.1281 -0.1523
 2433SOL     OW18517   1.753   5.149   0.922  0.5119  0.0292  0.2012
 2433SOL    HW118518   1.785   5.204   0.844  0.9218 -0.4955 -0.0046
 2433SOL    HW218519   1.653   5.147   0.922  0.4963  0.5208  0.0327
 2434SOL     OW18520   6.952   1.897   0.065 -0.2335 -0.0942 -0.0102
 2434SOL    HW118521   6.985   1.884   0.158 -1.4472  2.6938  0.8489
 2434SOL    HW218522   6.860   1.858   0.057 -0.3309  0.1159  0.0930
 2435SOL     OW18523   3.931   0.402   1.923 -0.4078  0.0247  0.9771
 2435SOL    HW118524   3.894   0.471   1.861  1.9325 -0.2638 -0.8265
 2435SOL    HW218525   4.014   0.437   1.966  1.6708 -2.1528 -1.1146
 2436SOL     OW18526   6.398   1.228   0.485  0.2531 -0.9889  0.2402
 2436SOL    HW118527   6.433   1.205   0.394 -1.7324 -2.5078 -0.1999
 2436SOL    HW218528   6.366   1.144   0.530 -0.1516 -0.0486  1.7234
 2437SOL     OW18529   9.095   8.545   5.259  0.0009  0.5777 -0.3844
 2437SOL    HW118530   9.130   8.590   5.177 -0.4489 -0.0206 -0.9055
 2437SOL    HW218531   9.170   8.532   5.324  0.6525 -0.2399 -1.2789
 2438SOL     OW18532   8.286   3.943   3.555 -0.4849  0.0603 -0.4619
 2438SOL    HW118533   8.192   3.976   3.563 -1.1978 -1.8599 -0.6004
 2438SOL    HW218534   8.302   3.911   3.462  0.9877  2.3311 -1.0066
 2439SOL     OW18535   3.340   9.694   3.115  0.7117  0.0069 -0.0863
 2439SOL    HW118536   3.251   9.665   3.079  1.9725 -1.7284 -1.9011
 2439SOL    HW218537   3.401   9.719   3.040  1.3194  2.5840  1.2217
 2440SOL     OW18538   5.199   2.672   3.251  0.2562 -0.0612 -0.4076
 2440SOL    HW118539   5.246   2.759   3.249  1.9970 -0.9418  1.1311
 2440SOL    HW218540   5.125   2.672   3.184  1.3850  1.9318 -1.6697
 2441SOL     OW18541   7.755   0.958   2.446  0.0009  0.3441  0.0700
 2441SOL    HW118542   7.731   1.008   2.363 -0.5452 -0.1855 -0.1008
 2441SOL    HW218543   7.800   0.872   2.420  1.9772  1.2781  0.3911
 2442SOL     OW18544   6.038   7.696   4.598 -0.5615 -0.3228 -0.1497
 2442SOL    HW118545   5.990   7.780   4.621  1.2880  0.6449  0.2678
 2442SOL    HW218546   5.986   7.617   4.632 -1.9886  0.6799 -0.0010
 2443SOL     OW18547   1.378   2.107   5.428 -0.2868  0.0367  0.8197
 2443SOL    HW118548   1.379   2.034   5.360 -0.0016 -1.1424  2.0624
 2443SOL    HW218549   1.299   2.167   5.413 -0.0457 -0.0309 -0.7183
 2444SOL     OW18550   2.098   1.279   4.782 -0.1393  0.8385 -0.6727
 2444SOL    HW118551   2.170   1.235   4.838 -0.1354  1.1920 -0.4002
 2444SOL    HW218552   2.015   1.289   4.837 -0.9844 -1.2035 -1.5266
 2445SOL     OW18553   8.276   8.756   5.316 -0.0138  0.0865  0.1579
 2445SOL    HW118554   8.177   8.757   5.329 -0.0923 -1.2609 -0.2565
 2445SOL    HW218555   8.311   8.664   5.334  1.4467  1.0367  2.3624
 2446SOL     OW18556   8.368   0.830   0.368  0.1501  0.2150 -0.0667
 2446SOL    HW118557   8.367   0.831   0.268  2.6620 -0.0969 -0.1142
 2446SOL    HW218558   8.330   0.916   0.402  0.3816  0.8286 -1.3049
 2447SOL     OW18559   0.866   6.921   1.893 -0.1478  0.2103  0.2505
 2447SOL    HW118560   0.839   6.825   1.901 -2.0294  0.6258 -0.9070
 2447SOL    HW218561   0.868   6.947   1.796  0.9225  1.2038  0.5196
 2448SOL     OW18562   8.474   3.506   2.515  0.5554 -0.4189 -0.5817
 2448SOL    HW118563   8.546   3.572   2.494  0.4690 -0.1450 -0.0306
 2448SOL    HW218564   8.466   3.495   2.614  1.5040 -2.3140 -0.7058
 2449SOL     OW18565   3.900   8.876   1.987 -0.4324  0.0685 -0.3810
 2449SOL    HW118566   3.860   8.948   1.930  0.1773  0.4135 -0.3727
 2449SOL    HW218567   3.901   8.790   1.935 -3.6323 -0.5830  0.5495
 2450SOL     OW18568   2.097   8.948   0.164  0.6852  0.5038 -0.2338
 2450SOL    HW118569   2.050   8.991   0.241  1.7776  0.6238  0.3892
 2450SOL    HW218570   2.196   8.956   0.178  0.9156 -2.0992 -0.1621
 2451SOL     OW18571   7.866   6.105   5.749 -0.0353  0.0738  0.6387
 2451SOL    HW118572   7.931   6.181   5.754  0.2453 -0.2154  1.5481
 2451SOL    HW218573   7.873   6.050   5.832 -0.3972 -0.8182  0.0851
 2452SOL     OW18574   7.559   3.463   4.958  0.0432 -0.0127  0.1722
 2452SOL    HW118575   7.545   3.372   4.920 -0.7180 -1.0546  2.8578
 2452SOL    HW218576   7.604   3.456   5.047  1.4114  2.3317 -0.2782
 2453SOL     OW18577   8.453   4.698   0.021 -0.0625  0.6355  0.0587
 2453SOL    HW118578   8.500   4.743   0.097 -1.5141  1.3571  0.5470
 2453SOL    HW218579   8.513   4.630  -0.020  0.9772  0.7134  1.4293
 2454SOL     OW18580   7.887   5.836   4.679  0.2957 -0.2776 -0.2884
 2454SOL    HW118581   7.968   5.892   4.697  1.0730 -1.9861  1.7569
 2454SOL    HW218582   7.914   5.755   4.626  0.0271 -1.0566  0.7442
 2455SOL     OW18583   7.272   9.718   2.207  0.3151  0.0922 -0.4869
 2455SOL    HW118584   7.311   9.626   2.202  0.4812  0.0510  1.1069
 2455SOL    HW218585   7.327   9.773   2.270 -0.6549  0.8369 -0.2858
 2456SOL     OW18586   7.153   9.802   1.209 -0.0062 -0.3277 -0.1198
 2456SOL    HW118587   7.053   9.802   1.212  0.0026  1.0456  3.5539
 2456SOL    HW218588   7.185   9.858   1.133 -2.0492  0.6727 -0.2666
 2457SOL     OW18589   8.973   5.279   6.313  0.7506 -0.0926 -0.1126
 2457SOL    HW118590   9.048   5.345   6.306  1.1902 -0.5686  0.0170
 2457SOL    HW218591   9.006   5.196   6.358 -0.0133 -0.0799  0.4724
 2458SOL     OW18592   8.836   9.197   1.514  0.4358  0.1458  0.2301
 2458SOL    HW118593   8.779   9.213   1.594  0.6650 -2.4570  0.9693
 2458SOL    HW218594   8.799   9.246   1.435 -0.0069  2.4139  1.8214
 2459SOL     OW18595   2.769   9.632   1.853  0.1459 -0.0231  0.5281
 2459SOL    HW118596   2.804   9.609   1.944  0.6819 -0.0040  0.3243
 2459SOL    HW218597   2.845   9.643   1.789 -0.2830 -0.9519 -0.1434
 2460SOL     OW18598   9.835   2.588   4.631  0.2485  0.0127  0.1664
 2460SOL    HW118599   9.907   2.577   4.700  0.1685  1.0716  0.4223
 2460SOL    HW218600   9.868   2.558   4.542  0.7212 -0.3014  0.4478
 2461SOL     OW18601   7.981   3.335   5.492  0.1987  0.1422 -0.4278
 2461SOL    HW118602   8.045   3.346   5.416  1.6887  3.7984  1.2774
 2461SOL    HW218603   7.977   3.239   5.518  1.1218 -0.9008 -3.8276
 2462SOL     OW18604   4.395   1.996   3.297  0.4002  0.7194 -0.3954
 2462SOL    HW118605   4.429   2.038   3.381  1.8406 -0.5445 -0.3331
 2462SOL    HW218606   4.439   1.908   3.284 -1.1959  0.0748 -1.5229
 2463SOL     OW18607   3.972   1.955   1.315  0.3843 -0.4695 -0.5847
 2463SOL    HW118608   3.916   2.034   1.291  0.9295  0.5754  1.4740
 2463SOL    HW218609   3.924   1.899   1.383  0.4890 -1.2851 -1.1773
 2464SOL     OW18610   0.395   5.707   6.707  0.2983 -0.0417  0.3873
 2464SOL    HW118611   0.307   5.661   6.707 -0.3502  1.1322 -1.0853
 2464SOL    HW218612   0.393   5.785   6.769 -0.7562  1.8346 -1.9227
 2465SOL     OW18613   2.210   9.141   2.774  0.0691  0.5594  0.0147
 2465SOL    HW118614   2.221   9.226   2.826 -0.9996  1.6274 -1.4803
 2465SOL    HW218615   2.118   9.138   2.735  0.3955 -0.8957 -0.6461
 2466SOL     OW18616   6.514   1.823   2.713 -0.0693  0.5417 -0.2056
 2466SOL    HW118617   6.501   1.749   2.779  1.8476 -0.3757 -0.8040
 2466SOL    HW218618   6.558   1.901   2.759  0.1140  0.3803 -0.1043
 2467SOL     OW18619   9.311   0.493   3.376  0.2957 -0.0585  0.4771
 2467SOL    HW118620   9.239   0.556   3.345  0.2215 -0.0964  0.5707
 2467SOL    HW218621   9.371   0.470   3.299 -0.4212 -0.8580  0.1461
 2468SOL     OW18622   0.576   0.808   0.906 -0.1302 -0.0733 -0.1340
 2468SOL    HW118623   0.596   0.830   0.811  1.0101  2.2756  0.6104
 2468SOL    HW218624   0.500   0.865   0.938  0.5777  0.3414  0.8328
 2469SOL     OW18625   3.504   9.137   1.976  0.3763 -0.1033 -0.3191
 2469SOL    HW118626   3.492   9.171   1.883  2.2390 -2.1080 -1.3444
 2469SOL    HW218627   3.601   9.119   1.992  0.0768  0.2222  2.0329
 2470SOL     OW18628   7.879   7.402   6.455  0.1546  0.3955  0.3113
 2470SOL    HW118629   7.854   7.433   6.546 -2.2901  0.6248 -0.4056
 2470SOL    HW218630   7.978   7.385   6.451  0.2245 -0.0607  3.1067
 2471SOL     OW18631   8.652   8.741   6.252 -0.3890 -0.1449 -0.7980
 2471SOL    HW118632   8.569   8.791   6.228 -0.5032  0.3161  0.5205
 2471SOL    HW218633   8.719   8.748   6.177 -0.7794  1.1340 -1.0270
 2472SOL     OW18634   7.823   8.347   4.219  0.0561 -0.7283  0.1371
 2472SOL    HW118635   7.891   8.402   4.268  0.1539  0.1584 -0.9678
 2472SOL    HW218636   7.781   8.402   4.147 -1.7649 -1.3035  0.7274
 2473SOL     OW18637   2.837   9.528   5.206 -0.5368 -0.2366 -0.2518
 2473SOL    HW118638   2.754   9.572   5.241 -0.0653  0.0201  0.5462
 2473SOL    HW218639   2.814   9.477   5.123 -1.9658 -2.0667  1.2244
 2474SOL     OW18640   1.624   8.191   3.447 -0.1181  0.1628  0.3977
 2474SOL    HW118641   1.572   8.106   3.437 -0.5065  0.4578 -0.0856
 2474SOL    HW218642   1.707   8.172   3.499  0.0116 -0.6081 -0.0728
 2475SOL     OW18643   6.136   8.688   3.613  0.1371 -0.5777 -0.4141
 2475SOL    HW118644   6.039   8.711   3.618  0.1940 -0.7263  1.8332
 2475SOL    HW218645   6.191   8.769   3.633  0.4575 -0.8418 -0.2209
 2476SOL     OW18646   3.162   3.130   6.255  0.3902  0.0251  0.1531
 2476SOL    HW118647   3.219   3.062   6.303  0.6996 -0.4612 -0.8743
 2476SOL    HW218648   3.197   3.141   6.162  0.7612  2.1240  0.5331
 2477SOL     OW18649   9.681   8.386   0.810  0.8220  0.4786 -0.2077
 2477SOL    HW118650   9.705   8.340   0.725  0.3424  0.2669 -0.2280
 2477SOL    HW218651   9.725   8.339   0.887  1.5113  0.8589 -0.3678
 2478SOL     OW18652   4.442   3.765   0.878  0.4493 -0.0694  0.1477
 2478SOL    HW118653   4.483   3.674   0.884  0.1925 -0.2784 -1.0451
 2478SOL    HW218654   4.496   3.822   0.815  0.9528  0.7981  1.3492
 2479SOL     OW18655   4.653   0.380   1.212 -0.5806 -0.4301 -0.0525
 2479SOL    HW118656   4.569   0.428   1.238 -1.1932  0.7876 -3.9098
 2479SOL    HW218657   4.633   0.284   1.194 -0.6387 -0.6963  1.3834
 2480SOL     OW18658   1.677   0.194   2.809  0.0006 -0.3409  0.6418
 2480SOL    HW118659   1.743   0.173   2.881 -1.1162  0.5770  1.9667
 2480SOL    HW218660   1.589   0.218   2.851 -0.1678  1.9565 -0.9410
 2481SOL     OW18661   1.958   8.830   4.564  0.1459 -0.1348  0.4303
 2481SOL    HW118662   1.924   8.893   4.495 -0.2031  1.0919  1.6967
 2481SOL    HW218663   1.913   8.741   4.553 -2.1641  0.9335  0.9450
 2482SOL     OW18664   6.549   1.458   1.071  0.1226 -0.0914 -0.2122
 2482SOL    HW118665   6.575   1.493   1.161 -0.4758 -1.5201  0.5456
 2482SOL    HW218666   6.471   1.510   1.036 -0.2745 -0.1476  0.5600
 2483SOL     OW18667   8.581   1.600   6.203 -0.4548 -0.8113  0.4562
 2483SOL    HW118668   8.660   1.617   6.145 -0.3018  2.6884  1.5860
 2483SOL    HW218669   8.508   1.666   6.181 -1.7392 -1.7613  1.7754
 2484SOL     OW18670   7.986   2.764   5.015  0.1337 -0.1404  0.2079
 2484SOL    HW118671   7.957   2.860   5.007 -1.0627 -0.6686 -2.7581
 2484SOL    HW218672   7.920   2.715   5.072 -0.9243  0.1843 -0.7114
 2485SOL     OW18673   0.442   1.119   3.062 -0.1096  0.6798 -0.5547
 2485SOL    HW118674   0.427   1.033   3.111 -0.5646  0.4862 -1.0228
 2485SOL    HW218675   0.357   1.146   3.017  0.6126  0.2318 -2.2286
 2486SOL     OW18676   2.561   9.680   5.548 -0.4121  0.3599  0.0939
 2486SOL    HW118677   2.504   9.722   5.619  0.7138  1.1088  0.5749
 2486SOL    HW218678   2.586   9.587   5.575 -2.6496 -0.5308 -0.8238
 2487SOL     OW18679   5.039   3.286   4.201  0.1455 -0.0069  0.2015
 2487SOL    HW118680   5.108   3.271   4.272  1.3572  0.1647 -0.9153
 2487SOL    HW218681   4.948   3.282   4.241  0.7525 -1.4933  1.4836
 2488SOL     OW18682   2.682   2.126   0.119 -0.2257 -0.7767  0.3763
 2488SOL    HW118683   2.642   2.187   0.187 -0.9460  0.3688 -1.0643
 2488SOL    HW218684   2.655   2.032   0.140  0.8652 -0.6417  2.5850
 2489SOL     OW18685   3.973   2.964   1.162  0.3317  0.1762 -0.0309
 2489SOL    HW118686   4.070   2.978   1.141  0.0364  0.4808 -1.2356
 2489SOL    HW218687   3.920   3.044   1.133 -0.2858  0.0203  0.6359
 2490SOL     OW18688   1.974   1.123   6.084  0.0977 -0.1697 -0.0108
 2490SOL    HW118689   1.986   1.024   6.077 -0.2524 -0.0632 -2.5735
 2490SOL    HW218690   1.897   1.143   6.145 -0.3805 -1.5198 -0.1525
 2491SOL     OW18691   9.651   2.654   1.978  0.0014  1.1132  0.4401
 2491SOL    HW118692   9.696   2.628   1.893 -1.0431 -0.2819  0.2874
 2491SOL    HW218693   9.677   2.748   2.002  2.0803  0.7370 -0.2099
 2492SOL     OW18694   7.767   3.292   3.897  0.0250 -0.1822 -0.1609
 2492SOL    HW118695   7.767   3.391   3.914  0.6813  0.0840 -1.6452
 2492SOL    HW218696   7.786   3.244   3.982  0.2520  0.9866  0.4658
 2493SOL     OW18697   5.762   0.187   5.082 -0.3338  0.0038 -0.3504
 2493SOL    HW118698   5.718   0.183   5.172 -1.4332 -1.7928 -0.9363
 2493SOL    HW218699   5.860   0.170   5.093 -0.3390  0.5262  0.5858
 2494SOL     OW18700   2.075   1.936   5.370  0.6441 -0.1071  0.1959
 2494SOL    HW118701   2.047   1.841   5.360  0.5327 -0.0942  0.3793
 2494SOL    HW218702   2.007   1.985   5.425 -1.1948  0.9479 -2.8805
 2495SOL     OW18703   0.405   1.618   4.980  0.5561 -0.6199  0.3660
 2495SOL    HW118704   0.475   1.569   5.032  0.6655 -0.3208  0.5003
 2495SOL    HW218705   0.448   1.663   4.902  0.5002 -0.4893  0.4119
 2496SOL     OW18706   9.282   3.188   6.423  0.0917  0.2107 -0.3866
 2496SOL    HW118707   9.254   3.259   6.487 -1.5158  1.8052 -2.8269
 2496SOL    HW218708   9.366   3.216   6.377  0.9570 -0.7047  0.6027
 2497SOL     OW18709   0.596   0.813   3.379 -0.1013 -0.1723  0.2836
 2497SOL    HW118710   0.535   0.851   3.449  1.1809  1.3650  0.5989
 2497SOL    HW218711   0.568   0.845   3.289  0.2512  0.5573  0.4312
 2498SOL     OW18712   5.825   2.447   4.905  0.3399  0.2616 -0.3912
 2498SOL    HW118713   5.733   2.418   4.879  0.3610 -0.2644  0.1144
 2498SOL    HW218714   5.870   2.490   4.826  0.1409 -0.6779 -1.0293
 2499SOL     OW18715   8.762   6.562   1.860  0.0777  0.5717  0.0070
 2499SOL    HW118716   8.724   6.513   1.938 -0.5676 -1.4238 -1.4926
 2499SOL    HW218717   8.792   6.496   1.791  1.9552  2.2457 -0.8334
 2500SOL     OW18718   7.867   0.088   2.233 -0.0292 -0.6427 -0.1607
 2500SOL    HW118719   7.915   0.147   2.169 -0.5468  0.5620  0.5463
 2500SOL    HW218720   7.932   0.028   2.280  0.2505 -2.2024 -2.4740
 2501SOL     OW18721   9.180   0.294   5.928 -0.3588  0.1309  0.1383
 2501SOL    HW118722   9.116   0.285   6.004 -1.0974 -0.0458 -0.5005
 2501SOL    HW218723   9.165   0.380   5.881 -0.7345 -0.3140 -0.5633
 2502SOL     OW18724   8.202   7.067   6.044 -0.0008 -0.0320 -0.0054
 2502SOL    HW118725   8.230   7.162   6.053 -1.8892  0.5017  0.4545
 2502SOL    HW218726   8.124   7.061   5.982 -0.4330 -1.1673  0.6314
 2503SOL     OW18727   2.497   8.679   3.609  0.2332 -0.3064 -0.0018
 2503SOL    HW118728   2.466   8.661   3.515 -1.8838 -0.7840  0.7533
 2503SOL    HW218729   2.536   8.596   3.648  3.2707  0.4817 -1.2044
 2504SOL     OW18730   2.966   4.469   5.716 -1.1163  0.1877 -0.0666
 2504SOL    HW118731   2.983   4.505   5.624  0.2367  0.7102  0.3807
 2504SOL    HW218732   2.951   4.371   5.710 -1.2446  0.2462 -0.8705
 2505SOL     OW18733   9.638   8.920   2.697  0.1131 -0.0360 -0.0987
 2505SOL    HW118734   9.655   8.822   2.700 -2.2528 -0.4498  0.4652
 2505SOL    HW218735   9.700   8.966   2.761  0.5907 -1.2422  0.3279
 2506SOL     OW18736   9.931   6.076   0.616  0.1520  0.1470  0.4576
 2506SOL    HW118737   9.895   6.142   0.551 -0.9109 -0.6446  0.2337
 2506SOL    HW218738  10.028   6.096   0.633  0.4024  0.4756 -1.2236
 2507SOL     OW18739   5.416   1.667   4.261  0.3301  0.2354  0.1174
 2507SOL    HW118740   5.514   1.665   4.281  0.3480 -0.0327  0.0023
 2507SOL    HW218741   5.373   1.584   4.296  0.1192  0.4225  0.3012
 2508SOL     OW18742   9.930   4.651   2.530 -0.4119  0.3866  0.0858
 2508SOL    HW118743   9.988   4.723   2.494  1.2010 -1.3174 -0.8015
 2508SOL    HW218744   9.935   4.651   2.630 -0.0412  1.1706  0.0678
 2509SOL     OW18745   1.890   2.271   4.272 -0.1811  0.5494  0.1102
 2509SOL    HW118746   1.907   2.191   4.329  1.1225  1.2368  0.7090
 2509SOL    HW218747   1.950   2.346   4.301 -1.5545  1.8283 -0.2673
 2510SOL     OW18748   7.899   6.917   6.264 -0.2370 -0.8846  0.3489
 2510SOL    HW118749   7.869   6.825   6.289 -0.0814 -0.9102  0.4442
 2510SOL    HW218750   7.855   6.983   6.325 -0.0465 -0.9274  0.5314
 2511SOL     OW18751   4.132   9.124   0.355  0.1733 -0.0883 -0.1401
 2511SOL    HW118752   4.151   9.201   0.415 -1.3761  0.0866  0.1443
 2511SOL    HW218753   4.158   9.039   0.401 -2.2007 -0.0584  1.3492
 2512SOL     OW18754   9.845   7.004   2.255  0.3977 -0.1661  0.2415
 2512SOL    HW118755   9.893   7.037   2.337 -0.6719 -1.1194  1.2793
 2512SOL    HW218756   9.899   7.026   2.174  1.2329  1.2692  1.1515
 2513SOL     OW18757   8.986   6.564   2.897  0.6009  0.2616 -0.2035
 2513SOL    HW118758   8.896   6.519   2.894  0.7856 -0.1596  0.3945
 2513SOL    HW218759   8.994   6.628   2.820 -0.2782  0.4313 -0.1613
 2514SOL     OW18760   2.415   0.538   4.809  0.0548  0.1993 -0.0886
 2514SOL    HW118761   2.326   0.512   4.773  1.2427 -1.3566 -2.0138
 2514SOL    HW218762   2.424   0.506   4.903 -2.9022  3.8841  1.5588
 2515SOL     OW18763   8.823   5.522   6.253  0.2261  0.1241  0.0787
 2515SOL    HW118764   8.896   5.535   6.186  0.5215  4.2284  1.0907
 2515SOL    HW218765   8.863   5.504   6.343 -0.1097 -0.8813  0.0394
 2516SOL     OW18766   6.402   9.846   3.805 -0.2369 -0.0363 -0.1995
 2516SOL    HW118767   6.353   9.864   3.720 -0.7948 -1.0224 -0.0903
 2516SOL    HW218768   6.379   9.755   3.839  1.4622 -0.4200 -0.0063
 2517SOL     OW18769   6.405   6.801   5.046  0.2101  0.3845 -0.4686
 2517SOL    HW118770   6.386   6.814   4.949  0.1082  0.3906 -0.4479
 2517SOL    HW218771   6.348   6.864   5.100 -1.9394 -1.6800 -0.2542
 2518SOL     OW18772   1.979   1.895   3.512  0.2694 -0.2477  0.0956
 2518SOL    HW118773   2.076   1.875   3.524 -0.1161 -1.4110  1.3300
 2518SOL    HW218774   1.934   1.816   3.469 -0.1096  0.3358 -0.5889
 2519SOL     OW18775   3.363   6.547   0.895  0.4964  0.1326 -0.4196
 2519SOL    HW118776   3.288   6.603   0.930 -0.2200  0.0264 -1.7563
 2519SOL    HW218777   3.334   6.451   0.892  1.1888 -0.1090  0.4055
 2520SOL     OW18778   7.401   4.373   2.611  0.3277  0.0620  0.3142
 2520SOL    HW118779   7.393   4.273   2.609  2.1495 -0.0955  0.3767
 2520SOL    HW218780   7.468   4.399   2.680  0.5223  1.2863 -0.3299
 2521SOL     OW18781   6.593   0.136   2.111  0.0440 -0.2204  0.3071
 2521SOL    HW118782   6.570   0.159   2.016 -2.2164 -0.7375  0.7058
 2521SOL    HW218783   6.633   0.215   2.156 -1.3811  0.8602 -0.3003
 2522SOL     OW18784   8.914   0.035   2.889  0.1585  0.2647 -0.5860
 2522SOL    HW118785   8.982   0.006   2.956 -1.5811 -3.7307 -0.4209
 2522SOL    HW218786   8.845   0.091   2.934  0.2442 -0.4756  0.4941
 2523SOL     OW18787   9.932   2.325   4.212  0.0186  0.2706  0.1321
 2523SOL    HW118788   9.865   2.276   4.157 -1.7569  1.0508  1.5438
 2523SOL    HW218789  10.013   2.345   4.157 -2.3090  2.3409 -2.6894
 2524SOL     OW18790   2.250   8.842   6.322 -0.0170 -0.1987 -0.2944
 2524SOL    HW118791   2.316   8.785   6.371  1.2191 -0.8057 -2.5828
 2524SOL    HW218792   2.162   8.839   6.368  0.9560 -1.1907  1.5552
 2525SOL     OW18793   1.714   0.957   3.230  0.3845  0.1393  0.0437
 2525SOL    HW118794   1.800   0.986   3.273  0.5413 -0.5347  0.2030
 2525SOL    HW218795   1.734   0.887   3.161 -0.1083 -0.5675  0.6090
 2526SOL     OW18796   8.807   9.814   0.159  0.4024  0.2109  0.0924
 2526SOL    HW118797   8.881   9.835   0.222  0.0904 -1.3144  0.9959
 2526SOL    HW218798   8.820   9.721   0.124  1.4699  1.5694 -3.3625
 2527SOL     OW18799   7.011   0.941   0.596  0.2660 -0.2189 -0.3881
 2527SOL    HW118800   6.927   0.919   0.645  0.5915 -1.8841 -0.5432
 2527SOL    HW218801   7.034   1.037   0.610 -1.5961  0.2195 -0.2577
 2528SOL     OW18802   8.118   2.211   2.593 -0.4071  0.4573 -0.5556
 2528SOL    HW118803   8.165   2.188   2.507 -0.2696 -0.2912 -0.2801
 2528SOL    HW218804   8.055   2.138   2.618 -1.6287  1.3966 -0.8410
 2529SOL     OW18805   0.419   6.041   4.844  0.0683  0.0165  0.4011
 2529SOL    HW118806   0.483   6.079   4.910 -0.9504 -1.3578  2.2458
 2529SOL    HW218807   0.379   6.115   4.790  1.7766  1.0509  0.5123
 2530SOL     OW18808   4.972   9.602   2.023 -0.4753  0.3653 -0.1629
 2530SOL    HW118809   4.877   9.635   2.030  0.5996  3.6931 -0.4442
 2530SOL    HW218810   4.972   9.502   2.019 -3.8921  0.2377  1.1890
 2531SOL     OW18811   4.594   2.960   5.288  0.1559 -0.1290  0.1160
 2531SOL    HW118812   4.556   2.894   5.353 -0.6309 -0.5726 -0.7716
 2531SOL    HW218813   4.542   3.045   5.294 -1.3473 -0.9035 -1.4483
 2532SOL     OW18814   0.506   3.827   2.736 -0.3678 -0.2982  0.0495
 2532SOL    HW118815   0.476   3.732   2.724 -2.0514  0.0797  1.0085
 2532SOL    HW218816   0.568   3.833   2.814 -0.6778 -0.5388  0.3186
 2533SOL     OW18817   2.196   7.268   5.533  0.2314 -0.0471  0.1069
 2533SOL    HW118818   2.205   7.343   5.467  3.3066 -0.3835  0.0351
 2533SOL    HW218819   2.165   7.303   5.620  0.1828  1.0882 -0.3609
 2534SOL     OW18820   0.829   6.941   2.846  0.0659  0.4800  0.3940
 2534SOL    HW118821   0.758   6.885   2.888  1.0558  0.3468  1.9370
 2534SOL    HW218822   0.844   6.911   2.751 -0.9712 -0.3714  0.4924
 2535SOL     OW18823   8.064   0.235   2.981 -0.2049  0.1187  0.0313
 2535SOL    HW118824   8.120   0.179   3.042 -0.6444  1.0025  1.2955
 2535SOL    HW218825   8.122   0.297   2.929  0.0340  0.9714  1.2741
 2536SOL     OW18826   3.212   1.465   3.592  0.0437 -0.6019 -0.0434
 2536SOL    HW118827   3.307   1.461   3.561  0.1600 -0.7216  0.3296
 2536SOL    HW218828   3.166   1.542   3.547 -0.2265 -1.7282 -1.7409
 2537SOL     OW18829   2.163   0.920   3.486 -0.2992 -0.2093 -0.4007
 2537SOL    HW118830   2.116   0.921   3.574  0.1752  0.6530 -0.1563
 2537SOL    HW218831   2.262   0.923   3.501 -0.1415 -2.3190 -0.9065
 2538SOL     OW18832   5.151   7.987   1.596  0.7519  0.0160 -0.2019
 2538SOL    HW118833   5.152   7.889   1.619  2.6528 -0.0468 -0.4948
 2538SOL    HW218834   5.086   8.034   1.656  0.9822 -1.1609  1.0074
 2539SOL     OW18835   4.204   1.206   2.853 -0.1001 -0.1032  0.0111
 2539SOL    HW118836   4.107   1.182   2.850  0.3437 -1.9937  0.1358
 2539SOL    HW218837   4.245   1.192   2.763  0.1732  0.1637  0.0954
 2540SOL     OW18838   0.786   7.602   1.447 -0.2242 -0.4415 -0.9917
 2540SOL    HW118839   0.748   7.655   1.523 -2.2086 -1.9420 -0.9045
 2540SOL    HW218840   0.795   7.661   1.367 -0.7012  0.4688 -0.3798
 2541SOL     OW18841   3.469   5.634   2.689  0.3137 -0.6129 -0.6061
 2541SOL    HW118842   3.504   5.718   2.728  1.9984 -1.2413 -0.7293
 2541SOL    HW218843   3.436   5.651   2.596 -1.8636  0.4577  0.3352
 2542SOL     OW18844   2.062   3.720   5.357  0.7691 -0.3269  0.2020
 2542SOL    HW118845   1.992   3.648   5.357  1.2095 -0.7889  1.7771
 2542SOL    HW218846   2.031   3.797   5.302 -0.9402 -0.5662  0.7952
 2543SOL     OW18847   3.587   1.000   5.755 -0.2830 -0.4699  0.4169
 2543SOL    HW118848   3.564   1.092   5.788 -0.2573 -0.7018  1.0975
 2543SOL    HW218849   3.565   0.933   5.826 -1.0527 -1.0785 -0.3866
 2544SOL     OW18850   8.491   4.430   1.961  0.0483  0.0535 -0.3043
 2544SOL    HW118851   8.464   4.361   2.029 -0.5691 -0.0701 -0.6733
 2544SOL    HW218852   8.422   4.502   1.957  0.3075  0.2912 -0.4733
 2545SOL     OW18853   3.860   6.487   2.929 -0.0556  0.2414  0.5345
 2545SOL    HW118854   3.805   6.559   2.888 -1.6369 -1.5059 -0.4428
 2545SOL    HW218855   3.802   6.409   2.954  1.9558 -1.7378 -0.7394
 2546SOL     OW18856   8.970   3.950   6.713  0.1989  0.5590  0.5605
 2546SOL    HW118857   8.898   3.980   6.775  0.7857 -1.6736  2.3918
 2546SOL    HW218858   8.944   3.863   6.671  3.0721 -1.8810  3.6040
 2547SOL     OW18859   0.412   7.770   6.117  0.5835 -0.3834 -0.5254
 2547SOL    HW118860   0.494   7.716   6.134  0.5776 -0.0322  0.6749
 2547SOL    HW218861   0.422   7.819   6.030  1.3676 -0.8378 -0.6995
 2548SOL     OW18862   7.927   7.409   5.104 -0.0881 -1.0279 -0.1810
 2548SOL    HW118863   7.927   7.507   5.088 -0.5289 -0.9310  0.4082
 2548SOL    HW218864   7.853   7.367   5.050  0.0286 -1.0274 -0.3440
 2549SOL     OW18865   3.062   6.338   4.431 -0.3162 -0.2441 -0.4196
 2549SOL    HW118866   3.076   6.317   4.334  3.9445 -0.0482  0.0482
 2549SOL    HW218867   3.085   6.258   4.486 -0.8085  0.2609  0.5273
 2550SOL     OW18868   5.525   9.645   4.086  0.0725  0.1057  0.7136
 2550SOL    HW118869   5.462   9.722   4.075 -0.3636 -0.5294 -1.5614
 2550SOL    HW218870   5.473   9.562   4.104  0.2364 -0.3931 -1.0329
 2551SOL     OW18871   4.674   4.294   3.077 -0.3463 -0.1135  0.1621
 2551SOL    HW118872   4.688   4.206   3.123 -0.5301 -0.3833 -0.2980
 2551SOL    HW218873   4.606   4.348   3.127 -2.4998 -1.4645 -1.2275
 2552SOL     OW18874   3.713   9.696   0.477 -0.3152  0.5931 -0.2475
 2552SOL    HW118875   3.665   9.639   0.543  1.4580 -0.4611  0.1777
 2552SOL    HW218876   3.685   9.673   0.384 -2.1154  1.4214  0.0782
 2553SOL     OW18877   7.474   4.030   6.026  0.4322  0.1950  0.1445
 2553SOL    HW118878   7.412   4.096   5.984  0.5875 -0.1454 -0.6218
 2553SOL    HW218879   7.466   3.942   5.981  2.2387  0.4296 -0.6942
 2554SOL     OW18880   0.145   8.890   0.193  0.2902  0.2519  0.1182
 2554SOL    HW118881   0.064   8.837   0.170  1.1492 -1.5222  1.1142
 2554SOL    HW218882   0.217   8.872   0.126  0.8108 -0.3804  0.8389
 2555SOL     OW18883   3.761   0.900   0.272 -0.4587  0.4728  0.0333
 2555SOL    HW118884   3.755   1.000   0.269 -2.3306  0.3686 -0.3614
 2555SOL    HW218885   3.852   0.872   0.242 -0.1285  2.0421 -0.5117
 2556SOL     OW18886   9.087   9.448   0.121 -0.1182  0.8312  0.0865
 2556SOL    HW118887   8.994   9.484   0.114 -1.0029 -1.5129 -0.6470
 2556SOL    HW218888   9.137   9.468   0.037 -0.2475  1.2638  0.1096
 2557SOL     OW18889   4.901   0.572   3.601 -0.1951  0.2799  0.0376
 2557SOL    HW118890   4.925   0.507   3.673  0.8173  0.8876  0.2600
 2557SOL    HW218891   4.829   0.633   3.634  1.0482  1.2802  0.9508
 2558SOL     OW18892   6.237   0.578   0.642 -0.4633  0.6234 -0.3775
 2558SOL    HW118893   6.254   0.481   0.654 -2.5423  0.3782  0.8397
 2558SOL    HW218894   6.324   0.627   0.639  0.5702 -1.1130  0.4032
 2559SOL     OW18895   8.336   5.953   6.548  0.7141 -0.0079  0.1312
 2559SOL    HW118896   8.410   6.015   6.522  0.0955  0.5709 -0.2561
 2559SOL    HW218897   8.306   5.900   6.468 -0.5721  1.1266 -0.1617
 2560SOL     OW18898   9.024   8.459   4.605  0.5189  0.6795 -0.1595
 2560SOL    HW118899   8.968   8.386   4.644  1.1153  1.9373  3.1808
 2560SOL    HW218900   8.964   8.528   4.563 -0.2364  0.1384  0.0217
 2561SOL     OW18901   3.148   1.051   3.858  0.2423  0.6735  0.3252
 2561SOL    HW118902   3.067   0.992   3.865  0.3518  0.6300  1.3269
 2561SOL    HW218903   3.230   0.997   3.877  0.3861  1.0323  0.7253
 2562SOL     OW18904   0.291   6.247   3.257  0.1261  0.5238  0.1144
 2562SOL    HW118905   0.263   6.289   3.344  0.5838  0.2263  0.4101
 2562SOL    HW218906   0.282   6.314   3.184 -0.0738  0.8421  0.4275
 2563SOL     OW18907   3.979   8.523   1.894  0.0720  0.2792  0.4999
 2563SOL    HW118908   3.886   8.544   1.921 -0.5123 -0.1986 -1.0493
 2563SOL    HW218909   3.982   8.431   1.852  1.3739 -0.0459  1.2616
 2564SOL     OW18910   4.681   4.658   4.147  0.6291 -0.1861  0.0815
 2564SOL    HW118911   4.633   4.574   4.123 -1.5485  0.8684  0.6344
 2564SOL    HW218912   4.686   4.717   4.067 -0.2725  0.2929  0.3674
 2565SOL     OW18913   2.338   5.797   4.632  0.3873  0.0369 -0.6411
 2565SOL    HW118914   2.419   5.848   4.604  1.4591 -1.0637  0.3618
 2565SOL    HW218915   2.330   5.714   4.577 -0.6578  0.6462 -1.4352
 2566SOL     OW18916   9.293   1.067   5.322  0.0485  0.5993  0.2984
 2566SOL    HW118917   9.280   1.005   5.245 -1.2185  1.7101 -0.4008
 2566SOL    HW218918   9.367   1.131   5.302  0.4651  0.1732  0.4715
 2567SOL     OW18919   4.654   9.633   5.541 -0.3396  0.1250  0.0535
 2567SOL    HW118920   4.644   9.533   5.548 -2.1140  0.3250  0.5903
 2567SOL    HW218921   4.583   9.669   5.480 -1.0219  1.2909  1.5096
 2568SOL     OW18922   1.264   9.762   4.323  0.1099  0.0414 -0.6665
 2568SOL    HW118923   1.309   9.672   4.324  0.1623  0.0583 -1.6630
 2568SOL    HW218924   1.281   9.807   4.236  0.5398  1.2655  0.0378
 2569SOL     OW18925   7.832   2.770   5.664  0.0918  0.0871 -0.0627
 2569SOL    HW118926   7.780   2.753   5.748  0.9878  0.1277  0.5055
 2569SOL    HW218927   7.804   2.704   5.594 -0.0960 -0.4655  0.5255
 2570SOL     OW18928   4.252   3.707   6.203 -0.3815  0.3734 -0.3121
 2570SOL    HW118929   4.171   3.753   6.238 -0.4275  0.8695 -1.0355
 2570SOL    HW218930   4.333   3.742   6.250 -0.6278 -0.5183  0.7957
 2571SOL     OW18931   8.104   8.166   3.874  0.4553 -0.5353  0.0809
 2571SOL    HW118932   8.107   8.169   3.974 -0.6521 -0.8254  0.1324
 2571SOL    HW218933   8.160   8.240   3.836 -0.4350  0.5878  0.9254
 2572SOL     OW18934   9.950   4.705   3.425  0.3057  0.5633 -0.3435
 2572SOL    HW118935   9.899   4.675   3.506  1.7026 -2.5804 -0.5504
 2572SOL    HW218936   9.942   4.804   3.416 -1.6793  0.7286  2.3923
 2573SOL     OW18937   7.349   1.702   3.577  0.3669  0.4497 -0.3140
 2573SOL    HW118938   7.337   1.689   3.676  0.0892  0.1331 -0.3880
 2573SOL    HW218939   7.327   1.617   3.529 -0.5250  0.9119 -0.7288
 2574SOL     OW18940   5.250   2.448   4.561 -0.6490 -0.7345 -0.1427
 2574SOL    HW118941   5.284   2.355   4.544 -0.0262 -0.0925 -2.6404
 2574SOL    HW218942   5.238   2.462   4.659  1.2245 -2.7717  0.4208
 2575SOL     OW18943   1.894   8.040   5.685  0.4323  0.5290  0.2309
 2575SOL    HW118944   1.948   8.079   5.760  1.9633  1.4332 -1.3076
 2575SOL    HW218945   1.811   8.093   5.672  0.3307  0.5775  1.0534
 2576SOL     OW18946   1.269   9.204   2.754  0.3560  0.2799 -0.4469
 2576SOL    HW118947   1.256   9.140   2.678  0.0992  0.4603 -0.5551
 2576SOL    HW218948   1.281   9.296   2.718 -0.6707  0.5031 -0.2306
 2577SOL     OW18949   9.820   9.035   6.743 -0.2449  0.5402 -0.2737
 2577SOL    HW118950   9.797   8.981   6.824 -0.8285  0.7083 -0.3201
 2577SOL    HW218951   9.869   8.979   6.677 -2.2183 -0.3673 -0.9915
 2578SOL     OW18952   9.814   6.904   1.795 -0.1732 -0.3378  0.2147
 2578SOL    HW118953   9.768   6.925   1.709  1.2714 -0.8503 -0.6920
 2578SOL    HW218954   9.887   6.838   1.779 -0.1081 -0.7001  1.8952
 2579SOL     OW18955   6.707   0.788   6.521 -0.0956  0.0139  0.1510
 2579SOL    HW118956   6.647   0.822   6.448 -0.3912  1.7650  1.1862
 2579SOL    HW218957   6.652   0.757   6.598  0.2686 -0.4400  0.2297
 2580SOL     OW18958   9.544   0.837   0.666 -0.0165 -0.0622  0.2814
 2580SOL    HW118959   9.508   0.759   0.717 -0.3825  0.5136  0.9147
 2580SOL    HW218960   9.632   0.864   0.706 -0.4450  0.5755  0.8062
 2581SOL     OW18961   7.748   0.997   0.997 -0.0677 -0.0360 -0.3085
 2581SOL    HW118962   7.674   0.932   0.989  0.2498 -0.1889 -2.1405
 2581SOL    HW218963   7.719   1.086   0.961  0.7401 -0.1914 -1.3675
 2582SOL     OW18964   6.854   0.166   6.687  0.9120  0.2959  0.2875
 2582SOL    HW118965   6.827   0.256   6.724  1.2299  0.2095  0.7335
 2582SOL    HW218966   6.777   0.126   6.637 -0.1350 -0.3992  2.4162
 2583SOL     OW18967   9.814   3.609   4.594 -0.7955 -0.1728  0.2315
 2583SOL    HW118968   9.728   3.575   4.556  0.1083  0.7337 -2.7033
 2583SOL    HW218969   9.891   3.577   4.539  0.4626  2.1990  0.5027
 2584SOL     OW18970   0.372   8.860   2.195  0.5651 -0.1956 -0.5154
 2584SOL    HW118971   0.422   8.847   2.281 -2.2468  1.7592  1.5346
 2584SOL    HW218972   0.315   8.780   2.178 -1.0179  0.5529  1.0266
 2585SOL     OW18973   0.254   3.621   1.845  0.4151  0.1794 -0.4082
 2585SOL    HW118974   0.295   3.671   1.922 -1.4158  1.7146 -0.3889
 2585SOL    HW218975   0.173   3.572   1.877  0.1799  0.0725 -1.1720
 2586SOL     OW18976   7.199   1.431   0.279 -0.6928  0.1539 -0.2845
 2586SOL    HW118977   7.219   1.384   0.193 -2.6787  1.6781 -1.6124
 2586SOL    HW218978   7.255   1.514   0.285 -0.3366 -0.1074  0.0515
 2587SOL     OW18979   9.678   5.650   2.489  0.5028  0.6476  0.1554
 2587SOL    HW118980   9.704   5.739   2.527  1.1315  0.6948 -0.3561
 2587SOL    HW218981   9.579   5.645   2.480  0.4979  1.5278 -0.3515
 2588SOL     OW18982   5.833   1.077   1.574  0.3457  0.4711 -0.0921
 2588SOL    HW118983   5.786   1.120   1.496  0.7774  2.0866  0.5208
 2588SOL    HW218984   5.930   1.100   1.571  0.6968 -0.9767 -0.0800
 2589SOL     OW18985   0.069   7.159   1.760  0.2457 -0.1598  0.3271
 2589SOL    HW118986   0.151   7.106   1.740 -0.4357 -0.8159 -0.7540
 2589SOL    HW218987   0.021   7.181   1.675 -0.5570  0.4549  0.9241
 2590SOL     OW18988   8.923   8.515   6.669  0.1171 -0.1142  0.2734
 2590SOL    HW118989   8.922   8.542   6.573  1.0700 -0.1408  0.2581
 2590SOL    HW218990   8.844   8.455   6.687 -0.8455  0.9896 -0.1645
 2591SOL     OW18991   0.447   0.533   4.260  0.6560 -0.0323  0.0334
 2591SOL    HW118992   0.416   0.609   4.204  1.4484 -0.0408 -0.4236
 2591SOL    HW218993   0.501   0.568   4.337  0.7026 -0.1113  0.0375
 2592SOL     OW18994   9.595   9.446   4.717  0.1300  0.1972  0.1239
 2592SOL    HW118995   9.638   9.430   4.628 -0.5342  2.2462 -0.5886
 2592SOL    HW218996   9.499   9.419   4.713  0.4500 -1.0216  0.6421
 2593SOL     OW18997   7.398   1.394   3.013  0.0470  0.0419 -0.5534
 2593SOL    HW118998   7.479   1.351   3.052 -0.4058 -0.6608 -0.3670
 2593SOL    HW218999   7.369   1.470   3.071  0.5530  0.2785 -0.6078
 2594SOL     OW19000   0.759   0.565   4.588  0.7701  0.4133  0.0150
 2594SOL    HW119001   0.661   0.585   4.585  0.7024 -0.1047 -1.7770
 2594SOL    HW219002   0.776   0.490   4.651 -0.3043 -1.1138 -1.4480
 2595SOL     OW19003   3.304   4.828   1.700 -0.5273  0.6200  0.4698
 2595SOL    HW119004   3.399   4.857   1.685 -0.9273  1.2381 -0.9712
 2595SOL    HW219005   3.291   4.737   1.660 -0.2151 -0.0185  1.8031
 2596SOL     OW19006   3.537   2.922   0.800 -0.3575 -0.3493  0.4114
 2596SOL    HW119007   3.484   2.838   0.805  1.2032 -1.3489  0.5940
 2596SOL    HW219008   3.541   2.965   0.890 -0.9515 -0.2192  0.3727
 2597SOL     OW19009   6.906   0.707   5.658 -0.4828  0.0193 -0.0416
 2597SOL    HW119010   6.887   0.767   5.581 -1.2467  0.2835  0.3401
 2597SOL    HW219011   6.922   0.763   5.740  1.1139 -0.2311 -0.1694
 2598SOL     OW19012   8.087   8.841   6.515 -0.2872 -0.5159 -0.2902
 2598SOL    HW119013   8.059   8.811   6.606 -0.4616 -0.3676 -0.2941
 2598SOL    HW219014   8.060   8.773   6.447 -1.2259 -0.0624 -0.3707
 2599SOL     OW19015   5.458   5.707   0.488  0.1175 -0.0373  0.1661
 2599SOL    HW119016   5.503   5.619   0.503  0.3864 -0.0828 -0.8519
 2599SOL    HW219017   5.361   5.700   0.514  0.0404 -0.7483 -0.2936
 2600SOL     OW19018   8.595   9.982   0.591  0.6166 -0.1422 -0.3724
 2600SOL    HW119019   8.580  10.013   0.685 -0.1254  2.2943 -1.2480
 2600SOL    HW219020   8.586   9.883   0.587 -1.4674 -0.0966  1.7678
 2601SOL     OW19021   5.801   9.635   2.225 -0.4049  0.0996 -0.4415
 2601SOL    HW119022   5.797   9.707   2.157 -1.0384 -1.1333 -1.7414
 2601SOL    HW219023   5.897   9.618   2.250 -0.1711  0.5944 -0.9782
 2602SOL     OW19024   7.170   9.616   3.314  0.3685  0.3349  0.2159
 2602SOL    HW119025   7.105   9.692   3.312  1.7238  1.6051  2.4192
 2602SOL    HW219026   7.260   9.648   3.284  0.8422 -0.4857  0.7356
 2603SOL     OW19027   1.070   5.903   4.308 -0.1667  0.0587  0.3618
 2603SOL    HW119028   1.041   5.997   4.290 -2.2328 -0.5827  0.2200
 2603SOL    HW219029   1.134   5.874   4.237 -0.8616  0.7687 -0.5628
 2604SOL     OW19030   0.219   7.225   2.252 -0.3615  0.0028 -0.0867
 2604SOL    HW119031   0.184   7.306   2.300 -1.2303  0.2235 -1.0819
 2604SOL    HW219032   0.186   7.142   2.298  0.3558  0.2133  0.8080
 2605SOL     OW19033   4.476   0.538   5.275  0.2405 -0.3598 -0.8106
 2605SOL    HW119034   4.432   0.588   5.200  0.8993 -1.7579 -2.1742
 2605SOL    HW219035   4.572   0.566   5.281  0.2695 -0.4849 -0.7001
 2606SOL     OW19036   8.822   2.571   3.233  0.6747 -0.1507 -0.3118
 2606SOL    HW119037   8.724   2.556   3.244  0.8667 -0.7683  0.6684
 2606SOL    HW219038   8.837   2.656   3.182 -0.3692  1.2304  1.5708
 2607SOL     OW19039   7.748   0.546   2.492 -0.0100  0.0674  0.5310
 2607SOL    HW119040   7.772   0.594   2.576  0.4436 -0.5830  0.7777
 2607SOL    HW219041   7.733   0.449   2.512 -1.2347  0.1493  0.0966
 2608SOL     OW19042   0.956   4.811   0.858  0.5518  0.7856  0.1938
 2608SOL    HW119043   0.950   4.751   0.938  1.8274 -0.7658 -0.8363
 2608SOL    HW219044   0.925   4.762   0.777 -0.0590  2.1192 -0.4001
 2609SOL     OW19045   5.352   2.450   2.984 -0.1873  0.1527 -0.0942
 2609SOL    HW119046   5.298   2.498   2.915 -0.2325 -0.1029 -0.2399
 2609SOL    HW219047   5.295   2.382   3.030 -0.5083  1.2169  1.1105
 2610SOL     OW19048   7.606   6.380   2.707  0.0159 -0.1540  0.3203
 2610SOL    HW119049   7.681   6.444   2.692 -0.8189  0.1017 -3.5043
 2610SOL    HW219050   7.538   6.421   2.768  1.2254  1.1015  0.8440
 2611SOL     OW19051   9.210   8.701   1.712 -0.4966 -0.6321 -0.2018
 2611SOL    HW119052   9.132   8.640   1.699 -1.0166  0.2049 -1.1575
 2611SOL    HW219053   9.209   8.737   1.806  0.0237 -2.3481  0.4741
 2612SOL     OW19054   6.844   7.589   5.302 -0.2776  0.0575 -0.0057
 2612SOL    HW119055   6.907   7.516   5.329 -0.1581  1.0973  2.7389
 2612SOL    HW219056   6.891   7.652   5.240  0.4097 -0.8507 -0.4193
 2613SOL     OW19057   1.418   5.688   0.222 -0.0263  0.0057 -0.1720
 2613SOL    HW119058   1.461   5.646   0.302 -0.0917  1.3818  0.6141
 2613SOL    HW219059   1.322   5.660   0.216  0.6479 -2.1399 -1.2547
 2614SOL     OW19060   5.763   7.846   4.328  0.0775  0.4057  0.0575
 2614SOL    HW119061   5.717   7.908   4.265  1.3723  0.7845 -0.5441
 2614SOL    HW219062   5.706   7.833   4.409 -1.0176  0.9523 -0.6025
 2615SOL     OW19063   3.216   0.201   2.663 -0.1474 -0.3366 -0.1476
 2615SOL    HW119064   3.311   0.232   2.668 -0.6614  1.4247 -0.7026
 2615SOL    HW219065   3.207   0.113   2.708  2.1358 -1.4948 -1.8717
 2616SOL     OW19066   3.545   8.964   5.198  0.1995  0.3377 -0.0426
 2616SOL    HW119067   3.560   9.026   5.121  1.2988 -0.7269 -0.7228
 2616SOL    HW219068   3.548   8.869   5.165 -1.7271 -0.0765  0.9297
 2617SOL     OW19069   1.376   6.284   0.498  0.5776 -0.2694  0.2245
 2617SOL    HW119070   1.431   6.229   0.435  0.2951 -0.1346 -0.1477
 2617SOL    HW219071   1.334   6.225   0.567  0.7949 -0.4357  0.2138
 2618SOL     OW19072   1.093   0.280   0.686 -0.5222 -0.0433  0.0252
 2618SOL    HW119073   1.147   0.236   0.758 -0.9583  1.6514  1.4045
 2618SOL    HW219074   0.996   0.275   0.708 -0.6191  1.0372 -0.1218
 2619SOL     OW19075   2.879   7.440   6.237 -0.7275 -0.2272 -0.0901
 2619SOL    HW119076   2.873   7.454   6.139 -0.8696 -0.6059 -0.1350
 2619SOL    HW219077   2.842   7.520   6.285  1.8641  1.1365 -0.3283
 2620SOL     OW19078   8.011   0.915   1.053  0.2873  0.0159 -0.1470
 2620SOL    HW119079   8.046   0.925   0.960  1.1890 -0.4432  0.1344
 2620SOL    HW219080   7.912   0.930   1.054  0.2634 -0.0741 -1.1939
 2621SOL     OW19081   9.833   7.288   5.415 -0.8921 -0.4498 -0.5906
 2621SOL    HW119082   9.925   7.250   5.407 -0.6633  0.3399 -1.7281
 2621SOL    HW219083   9.793   7.299   5.325 -1.2536  1.2759 -0.2309
 2622SOL     OW19084   4.617   7.440   2.235 -0.2180 -0.3555  0.2002
 2622SOL    HW119085   4.635   7.454   2.332  0.9834  2.7403 -0.4278
 2622SOL    HW219086   4.670   7.361   2.203 -0.7630 -1.5173  2.0714
 2623SOL     OW19087   8.627   2.512   6.172  0.2558  0.2163  0.1656
 2623SOL    HW119088   8.614   2.582   6.102  0.6149 -0.7874 -0.9101
 2623SOL    HW219089   8.703   2.452   6.146  0.1600 -0.3797  1.2372
 2624SOL     OW19090   9.516   3.086   3.356  0.3389 -0.0937  0.1329
 2624SOL    HW119091   9.562   3.167   3.393 -0.1569 -0.4267  1.5026
 2624SOL    HW219092   9.555   3.004   3.396 -0.0520 -0.4805 -0.2703
 2625SOL     OW19093   1.821   6.567   0.070  0.1067  0.5122  0.8677
 2625SOL    HW119094   1.848   6.532   0.159  1.3809  0.9051  0.6589
 2625SOL    HW219095   1.887   6.637   0.040  0.6522 -0.7773 -1.0856
 2626SOL     OW19096   0.246   1.001   6.129 -0.5602 -0.2672  0.1646
 2626SOL    HW119097   0.259   0.905   6.155 -1.3396 -0.8871 -1.5745
 2626SOL    HW219098   0.212   1.004   6.035 -0.3517  1.7384  0.1476
 2627SOL     OW19099   9.688   7.755   4.767  0.1483  0.7467  0.0020
 2627SOL    HW119100   9.710   7.853   4.763 -0.2085  0.7742 -1.9687
 2627SOL    HW219101   9.749   7.709   4.830  0.6381  2.1734  0.5805
 2628SOL     OW19102   9.618   9.815   5.704  0.1335  0.1523  0.1029
 2628SOL    HW119103   9.560   9.873   5.646  0.3745  0.6048  0.3094
 2628SOL    HW219104   9.578   9.809   5.795 -1.3062 -2.1837 -0.6423
 2629SOL     OW19105   6.562   0.657   6.097  0.0930  0.0823 -0.0728
 2629SOL    HW119106   6.620   0.738   6.088  1.8511 -1.3124 -1.6070
 2629SOL    HW219107   6.493   0.657   6.024  2.6101 -1.7556 -2.5817
 2630SOL     OW19108   4.851   6.758   2.440 -0.0292 -0.4399  0.0581
 2630SOL    HW119109   4.931   6.776   2.383 -1.0880  0.3547 -1.2031
 2630SOL    HW219110   4.862   6.805   2.528  1.0939 -0.7222  0.0796
 2631SOL     OW19111   2.585   6.023   6.046  0.4374 -0.2144  0.1067
 2631SOL    HW119112   2.611   5.934   6.007 -0.3422 -0.3236 -0.1770
 2631SOL    HW219113   2.514   6.010   6.115  0.2875  0.1923  0.0306
 2632SOL     OW19114   4.071   9.173   1.765  0.1388 -0.1821  0.1489
 2632SOL    HW119115   3.999   9.238   1.789  1.3551  0.7057  1.5117
 2632SOL    HW219116   4.099   9.188   1.670 -0.5849  0.3135  0.0120
 2633SOL     OW19117   9.580   4.729   0.806  0.3896 -0.2690 -0.4979
 2633SOL    HW119118   9.665   4.687   0.836  0.5371 -0.6701 -1.4557
 2633SOL    HW219119   9.597   4.824   0.781  0.2344  0.1129  0.8175
 2634SOL     OW19120   8.063   3.872   0.873  0.6866 -0.4106  0.4117
 2634SOL    HW119121   8.136   3.806   0.887  1.4114  0.0888 -0.8948
 2634SOL    HW219122   8.028   3.903   0.962  1.4050 -1.3583  1.0296
 2635SOL     OW19123   8.670   6.612   5.260  0.1237  0.3187  0.4663
 2635SOL    HW119124   8.756   6.562   5.253  1.1993  2.1820  0.1313
 2635SOL    HW219125   8.643   6.645   5.169 -0.4662  0.5361  0.7182
 2636SOL     OW19126   2.418   6.252   6.590  0.1154  0.3230 -0.4836
 2636SOL    HW119127   2.483   6.326   6.569 -0.3385  1.0285  0.5817
 2636SOL    HW219128   2.465   6.179   6.640  0.6010 -0.2072 -1.6761
 2637SOL     OW19129   7.868   5.726   2.117  0.3615 -0.6542  0.0215
 2637SOL    HW119130   7.812   5.688   2.044 -0.1566 -1.2876  0.7541
 2637SOL    HW219131   7.812   5.786   2.174  0.8391  0.0817 -0.2678
 2638SOL     OW19132   2.847   3.648   5.032  0.1508 -0.4400  0.7400
 2638SOL    HW119133   2.801   3.591   4.965  1.5830 -2.1328  1.1640
 2638SOL    HW219134   2.944   3.623   5.036  0.4346  0.8316  2.1866
 2639SOL     OW19135   0.043   8.690   0.514 -0.1190 -0.2728  0.0070
 2639SOL    HW119136  -0.044   8.712   0.558 -0.2753  1.9591 -1.3634
 2639SOL    HW219137   0.055   8.591   0.512 -2.1954 -0.5713  1.0361
 2640SOL     OW19138   8.073   9.525   4.950  0.1561 -0.5718  0.0442
 2640SOL    HW119139   8.005   9.463   4.911 -0.2591 -0.2245  0.2184
 2640SOL    HW219140   8.122   9.478   5.024  1.7238 -1.6140 -1.6118
 2641SOL     OW19141   0.840   9.420   3.066 -0.7573  0.2395  0.0594
 2641SOL    HW119142   0.802   9.352   3.003  0.2290 -0.5487  0.2829
 2641SOL    HW219143   0.934   9.393   3.090 -0.8135  1.0024  1.1633
 2642SOL     OW19144   4.806   0.578   2.374  0.3246 -0.0067 -0.5876
 2642SOL    HW119145   4.841   0.552   2.284  1.7382 -0.4478  0.0737
 2642SOL    HW219146   4.836   0.671   2.396  1.1336 -0.4076  0.0072
 2643SOL     OW19147   8.708   3.837   0.778 -0.0459  0.2827 -0.3257
 2643SOL    HW119148   8.745   3.832   0.685  0.0447  0.0580 -0.2802
 2643SOL    HW219149   8.709   3.745   0.819 -0.4813  0.3053 -0.2583
 2644SOL     OW19150   7.046   9.106   5.441 -0.1823 -0.3059 -0.1884
 2644SOL    HW119151   6.950   9.080   5.451  0.2329 -1.4315  1.1236
 2644SOL    HW219152   7.099   9.065   5.516  1.6737 -1.5573 -2.1249
 2645SOL     OW19153   8.363   5.429   5.944  0.1395  0.0959 -0.1765
 2645SOL    HW119154   8.443   5.453   5.998  1.5074  2.0465 -2.9447
 2645SOL    HW219155   8.385   5.351   5.885 -0.5617 -0.4581  0.2896
 2646SOL     OW19156   1.284   1.037   1.745  0.1968 -0.3456  0.3743
 2646SOL    HW119157   1.320   1.049   1.838  1.3543  0.6866 -0.1918
 2646SOL    HW219158   1.184   1.032   1.749  0.1919  0.3834  1.6039
 2647SOL     OW19159   8.107   5.575   1.312 -0.3272 -0.0436  0.0879
 2647SOL    HW119160   8.179   5.538   1.255 -0.3656  0.8652 -0.5637
 2647SOL    HW219161   8.141   5.658   1.358 -1.0741  0.6252 -0.5489
 2648SOL     OW19162   2.151   1.431   2.994  0.2196  0.6949  0.2895
 2648SOL    HW119163   2.100   1.375   3.059 -1.1222  1.0556 -0.4359
 2648SOL    HW219164   2.233   1.467   3.039 -0.6718  0.9098  1.7816
 2649SOL     OW19165   0.973   6.729   2.998  0.0882 -0.0769 -0.1914
 2649SOL    HW119166   1.066   6.702   2.970 -0.4011 -0.5564 -1.4001
 2649SOL    HW219167   0.938   6.798   2.935 -0.4137  0.0307  0.2039
 2650SOL     OW19168   2.507   8.306   2.690  0.0243 -0.5854 -0.1021
 2650SOL    HW119169   2.607   8.297   2.695  0.1361  0.2077 -0.8422
 2650SOL    HW219170   2.477   8.294   2.596 -0.5180 -0.2326  0.0218
 2651SOL     OW19171   0.353   6.446   3.929  0.5584 -0.2876  0.8602
 2651SOL    HW119172   0.413   6.490   3.862 -1.5664 -0.4961 -1.2467
 2651SOL    HW219173   0.392   6.456   4.021  1.9905  2.6838 -0.0122
 2652SOL     OW19174   4.539   2.100   6.730 -0.3461  0.1811 -0.2707
 2652SOL    HW119175   4.469   2.120   6.661  1.2831  2.0724 -1.4399
 2652SOL    HW219176   4.516   2.014   6.776 -3.1031  0.4413 -1.0158
 2653SOL     OW19177   8.608   8.502   1.250  0.1974 -0.3648 -0.5184
 2653SOL    HW119178   8.541   8.441   1.208 -0.7717  0.0568  0.3873
 2653SOL    HW219179   8.564   8.554   1.323  1.2656  0.6876 -0.6148
 2654SOL     OW19180   2.506   6.853   3.279  0.0283 -0.1075  0.3748
 2654SOL    HW119181   2.523   6.949   3.257 -1.5342  0.1213  0.0570
 2654SOL    HW219182   2.412   6.843   3.312  0.0469 -1.5963  0.0178
 2655SOL     OW19183   7.322   2.799   4.988  0.2790 -0.0013 -0.2199
 2655SOL    HW119184   7.397   2.737   5.008  0.8553  1.2374  1.5520
 2655SOL    HW219185   7.270   2.816   5.072 -1.2354  0.1271 -1.1712
 2656SOL     OW19186   6.571   1.351   4.565 -0.3443 -0.1391  0.0194
 2656SOL    HW119187   6.535   1.426   4.510 -1.9423  0.5558  1.9556
 2656SOL    HW219188   6.660   1.376   4.603 -0.7222  0.6611  0.3866
 2657SOL     OW19189   9.499   2.379   1.937  0.3582  0.8041 -0.1983
 2657SOL    HW119190   9.461   2.335   2.018 -0.5403  1.1755 -0.4150
 2657SOL    HW219191   9.514   2.476   1.955  0.3864  0.8379 -0.3962
 2658SOL     OW19192   8.282   7.927   5.589 -0.2570 -0.2031 -0.1520
 2658SOL    HW119193   8.254   8.010   5.540  0.3602 -0.8776 -1.6518
 2658SOL    HW219194   8.350   7.951   5.658  0.6147  0.4196 -1.2034
 2659SOL     OW19195   1.494   7.790   3.819  0.1912  0.1951  0.1634
 2659SOL    HW119196   1.397   7.791   3.794  0.2297 -0.8840 -0.0496
 2659SOL    HW219197   1.508   7.844   3.902 -0.8074 -0.8049  0.9979
 2660SOL     OW19198   3.712   0.705   5.499 -0.3512 -0.4036 -0.0002
 2660SOL    HW119199   3.706   0.663   5.590  2.1215 -1.3840 -0.2570
 2660SOL    HW219200   3.696   0.635   5.429  2.1957 -0.6178 -0.3970
 2661SOL     OW19201   7.354   8.072   2.079 -0.2910  0.8158 -0.8949
 2661SOL    HW119202   7.270   8.068   2.132  0.7858  0.3469  0.8442
 2661SOL    HW219203   7.423   8.125   2.130  0.5356  0.9722 -2.1593
 2662SOL     OW19204   1.733   2.647   3.799  0.6035 -0.5159  0.0106
 2662SOL    HW119205   1.708   2.649   3.895 -0.9936  0.7057 -0.3968
 2662SOL    HW219206   1.779   2.561   3.777  2.0138 -0.3342  2.0914
 2663SOL     OW19207   3.021   6.163   3.926 -0.0674  0.1101 -0.2726
 2663SOL    HW119208   2.962   6.198   3.853  0.6202 -0.4720 -1.1272
 2663SOL    HW219209   3.077   6.089   3.890  0.2405 -0.2203  0.8781
 2664SOL     OW19210   2.707   0.954   0.783 -0.4017 -0.1528 -0.7155
 2664SOL    HW119211   2.759   0.980   0.865 -1.2650 -0.5792 -0.0183
 2664SOL    HW219212   2.768   0.954   0.704  0.1923  1.3621 -0.2757
 2665SOL     OW19213   2.316   4.893   4.527 -0.4082 -0.2016 -0.0608
 2665SOL    HW119214   2.298   4.898   4.428 -1.3019 -0.3091  0.0872
 2665SOL    HW219215   2.399   4.841   4.543 -0.1226  0.0215 -0.7717
 2666SOL     OW19216   9.218   4.038   3.057  0.1256 -0.0742 -1.0255
 2666SOL    HW119217   9.127   4.006   3.028  0.7684 -1.6054 -1.4351
 2666SOL    HW219218   9.256   3.973   3.123  0.9422  0.5529 -0.8761
 2667SOL     OW19219   5.654   1.914   1.533  0.3675 -0.4110 -0.3862
 2667SOL    HW119220   5.692   1.838   1.480  0.3233 -0.9855  0.3949
 2667SOL    HW219221   5.687   1.909   1.627 -0.2990  0.0537 -0.1236
 2668SOL     OW19222   9.350   4.970   4.184 -0.0913  0.1860 -0.0662
 2668SOL    HW119223   9.423   5.014   4.236  0.8798 -0.2574 -1.0329
 2668SOL    HW219224   9.295   5.040   4.138  0.2535  0.4903 -0.0195
 2669SOL     OW19225   0.388   1.501   5.350  0.1015  0.3450  0.0723
 2669SOL    HW119226   0.338   1.463   5.428  1.9594 -2.6396 -0.1242
 2669SOL    HW219227   0.372   1.443   5.269  2.4576  0.3154 -0.4134
 2670SOL     OW19228   3.732   2.386   6.551 -0.3670 -0.4827 -0.6751
 2670SOL    HW119229   3.820   2.388   6.597  0.2714  2.3884 -1.9365
 2670SOL    HW219230   3.659   2.381   6.619  0.7009 -1.3610  0.4309
 2671SOL     OW19231   2.680   1.502   2.181  0.7567  0.1743 -0.7956
 2671SOL    HW119232   2.753   1.552   2.228  1.1187 -0.9186 -0.1827
 2671SOL    HW219233   2.599   1.499   2.240  0.8120 -0.1605 -0.7378
 2672SOL     OW19234   2.033   4.418   1.382  0.1806  0.7332  0.2480
 2672SOL    HW119235   2.032   4.327   1.424 -1.9016 -0.7083 -2.7574
 2672SOL    HW219236   2.127   4.446   1.364  0.7578 -1.8426 -0.9084
 2673SOL     OW19237   0.064   5.902   3.774 -0.5161 -0.2283 -0.1970
 2673SOL    HW119238   0.019   5.813   3.773 -1.0520  0.0448 -0.6054
 2673SOL    HW219239   0.027   5.959   3.700 -1.3281  0.8997  1.0486
 2674SOL     OW19240   0.623   4.566   1.093 -0.4950  0.5580 -0.2026
 2674SOL    HW119241   0.539   4.616   1.069 -0.4906 -0.0290 -1.4588
 2674SOL    HW219242   0.602   4.469   1.106 -0.2720  0.6624  0.9501
 2675SOL     OW19243   4.469   2.328   6.070 -0.2489 -0.5777 -0.4755
 2675SOL    HW119244   4.388   2.386   6.080 -0.2823 -0.4502 -1.4458
 2675SOL    HW219245   4.491   2.286   6.158 -2.4766 -2.0805 -0.5855
 2676SOL     OW19246   3.326   7.645   1.027 -0.7873  0.1396  0.1640
 2676SOL    HW119247   3.250   7.630   1.091  0.6188  0.8280  2.0394
 2676SOL    HW219248   3.303   7.720   0.965 -1.6448  0.3542  0.7245
 2677SOL     OW19249   9.411   7.259   0.211 -0.0183  0.8621  0.2902
 2677SOL    HW119250   9.436   7.331   0.147 -0.5584 -0.2588 -1.2330
 2677SOL    HW219251   9.311   7.256   0.220  0.0341  0.7120  0.8109
 2678SOL     OW19252   7.630   2.588   2.804 -0.0820 -0.0785  0.0187
 2678SOL    HW119253   7.586   2.532   2.874 -0.7429 -1.6235 -1.5857
 2678SOL    HW219254   7.692   2.654   2.847 -1.2812 -0.2873  2.0847
 2679SOL     OW19255   9.929   1.610   5.596  0.3140 -0.2251  0.3931
 2679SOL    HW119256   9.834   1.627   5.622 -0.0499 -0.6207 -0.6624
 2679SOL    HW219257   9.949   1.657   5.510  1.1542  0.0673  0.7396
 2680SOL     OW19258   5.235   8.160   2.173 -0.1947 -0.2814  0.2232
 2680SOL    HW119259   5.293   8.133   2.096 -0.9629 -0.9123 -0.1491
 2680SOL    HW219260   5.238   8.259   2.185  0.5166 -0.2584 -0.1428
 2681SOL     OW19261   2.578   4.397   2.095 -0.2156  0.0160 -0.4629
 2681SOL    HW119262   2.633   4.478   2.074 -0.3656  0.0332 -0.7945
 2681SOL    HW219263   2.524   4.372   2.014 -0.3615 -0.2620 -0.2786
 2682SOL     OW19264   1.304   4.654   2.213 -0.4466 -0.6224 -0.1715
 2682SOL    HW119265   1.383   4.650   2.151 -1.1835 -1.1005 -1.0950
 2682SOL    HW219266   1.335   4.679   2.304  0.5784  0.8908 -0.9010
 2683SOL     OW19267   9.821   3.349   5.911 -0.3260 -0.1269  0.7054
 2683SOL    HW119268   9.919   3.367   5.914 -0.1161 -0.3900 -2.3983
 2683SOL    HW219269   9.798   3.273   5.971  1.4649 -0.3986  1.0532
 2684SOL     OW19270   1.494   7.293   5.112  0.1400  1.2312  0.0370
 2684SOL    HW119271   1.398   7.301   5.085  0.4896 -2.3006 -2.6547
 2684SOL    HW219272   1.505   7.214   5.173  1.4569  1.1287 -0.3126
 2685SOL     OW19273   1.361   9.525   1.182 -0.1297  0.0570  0.0414
 2685SOL    HW119274   1.406   9.603   1.227  0.0494 -0.1354  0.1962
 2685SOL    HW219275   1.263   9.544   1.173 -0.4485 -0.6188  2.0207
 2686SOL     OW19276   1.535   3.682   6.563  0.0042  0.0831  0.0901
 2686SOL    HW119277   1.518   3.776   6.535  1.2593  0.6278  1.0874
 2686SOL    HW219278   1.533   3.677   6.663  3.3410 -0.2467  0.1892
 2687SOL     OW19279   6.204   1.622   2.193 -0.7835  0.7241  0.2564
 2687SOL    HW119280   6.154   1.539   2.217 -0.4994  0.5017  0.0804
 2687SOL    HW219281   6.297   1.598   2.165 -0.8444  1.0580 -0.2371
 2688SOL     OW19282   0.863   6.813   0.473  0.4268 -0.2417  0.0689
 2688SOL    HW119283   0.933   6.833   0.542 -0.4426  2.1643  0.2848
 2688SOL    HW219284   0.898   6.839   0.383  0.1407  0.1641  0.0739
 2689SOL     OW19285   8.584   8.774   1.658  0.0786 -0.3781  0.3530
 2689SOL    HW119286   8.630   8.718   1.726 -0.1197  1.3316  1.9514
 2689SOL    HW219287   8.575   8.868   1.693 -2.6607 -0.1575 -0.7800
 2690SOL     OW19288   8.324   0.389   1.582 -0.2079 -0.1590 -0.2958
 2690SOL    HW119289   8.328   0.386   1.682  0.6671  0.5024 -0.3046
 2690SOL    HW219290   8.385   0.319   1.544 -0.6252 -0.4851 -0.3676
 2691SOL     OW19291   2.439   2.215   5.395  0.5777  0.8242 -0.2072
 2691SOL    HW119292   2.406   2.133   5.442 -1.8954  2.8328  1.6428
 2691SOL    HW219293   2.373   2.242   5.325  2.4337  0.0386 -2.3333
 2692SOL     OW19294   8.989   4.173   0.276  0.6110 -0.1133 -0.6377
 2692SOL    HW119295   9.026   4.248   0.222  2.0032 -0.5617 -0.3283
 2692SOL    HW219296   8.916   4.127   0.225  1.1631  0.1539 -1.6730
 2693SOL     OW19297   9.425   8.408   1.730 -0.2258  0.0482  0.5084
 2693SOL    HW119298   9.481   8.403   1.814  1.5417 -0.7429 -0.6780
 2693SOL    HW219299   9.439   8.496   1.686 -0.3219  0.0514  0.4867
 2694SOL     OW19300   6.165   0.912   6.242  0.3756  0.1168 -0.4573
 2694SOL    HW119301   6.095   0.949   6.303  1.3075  0.5945  0.3515
 2694SOL    HW219302   6.169   0.813   6.252 -0.4569  0.0446 -0.8047
 2695SOL     OW19303   7.336   0.662   0.536 -0.2070  0.3644 -0.0170
 2695SOL    HW119304   7.301   0.715   0.613  1.4033  0.9241  0.3232
 2695SOL    HW219305   7.325   0.564   0.557  0.8057  0.4965  1.2006
 2696SOL     OW19306   4.413   5.211   1.100 -0.2155  0.1633  0.0930
 2696SOL    HW119307   4.505   5.174   1.112  0.2358  1.3006  0.2340
 2696SOL    HW219308   4.407   5.300   1.145 -1.0864  0.5447 -0.7560
 2697SOL     OW19309   3.551   3.487   4.319  0.2707 -0.0319 -0.5733
 2697SOL    HW119310   3.529   3.545   4.398 -1.3674  0.4752 -1.3826
 2697SOL    HW219311   3.620   3.532   4.263  0.0489  0.4801 -0.4354
 2698SOL     OW19312   3.268   4.189   6.173  0.2412 -0.4547  0.0265
 2698SOL    HW119313   3.169   4.206   6.175  0.4162  0.5152  0.6917
 2698SOL    HW219314   3.317   4.276   6.164  1.0056 -1.0104 -1.1848
 2699SOL     OW19315   1.547   0.530   6.507  0.3904 -0.0585  0.0867
 2699SOL    HW119316   1.495   0.615   6.499 -1.9352 -1.2359  1.9024
 2699SOL    HW219317   1.535   0.476   6.423  0.1169  0.4743 -0.2178
 2700SOL     OW19318   5.597   1.171   3.986  0.1911 -0.1321 -0.0997
 2700SOL    HW119319   5.537   1.114   4.041  0.2281  1.6800  1.8708
 2700SOL    HW219320   5.543   1.222   3.919 -0.1904 -0.2376  0.1319
 2701SOL     OW19321   2.062   1.736   2.268 -0.2350  0.3681  0.4857
 2701SOL    HW119322   2.057   1.638   2.248  0.5466  0.1492  1.3544
 2701SOL    HW219323   2.011   1.756   2.351 -3.1029  1.2163 -1.3899
 2702SOL     OW19324   2.812   1.212   4.628  0.2209 -0.0806 -0.5273
 2702SOL    HW119325   2.817   1.119   4.592  0.3889  0.5697 -2.2291
 2702SOL    HW219326   2.784   1.209   4.724 -0.1212 -1.8564 -0.6637
 2703SOL     OW19327   1.864   1.310   5.375  0.6311 -0.3360  0.2492
 2703SOL    HW119328   1.948   1.308   5.322  0.3832  1.6572 -0.2614
 2703SOL    HW219329   1.886   1.321   5.472  1.0131 -1.7669  0.3278
 2704SOL     OW19330   0.628   6.782   2.166  0.5623 -0.0713 -0.0510
 2704SOL    HW119331   0.579   6.705   2.206 -0.2356 -0.1700 -1.1985
 2704SOL    HW219332   0.636   6.856   2.233 -0.6407 -0.2872  0.3244
 2705SOL     OW19333   8.730   0.947   1.788 -0.4435 -0.0046  0.0964
 2705SOL    HW119334   8.771   0.988   1.706 -0.3970 -0.3463 -0.0518
 2705SOL    HW219335   8.653   0.890   1.761 -1.1857  0.8467  0.3981
 2706SOL     OW19336   2.407   1.664   2.577 -0.0187  0.1399  0.5672
 2706SOL    HW119337   2.378   1.758   2.559 -0.5531  0.0576  1.0033
 2706SOL    HW219338   2.345   1.621   2.642 -0.8734 -1.1148 -1.0231
 2707SOL     OW19339   4.155   5.472   6.253 -0.5434  0.3465  0.6583
 2707SOL    HW119340   4.245   5.515   6.247 -0.3443 -0.2471 -0.9501
 2707SOL    HW219341   4.090   5.525   6.199 -0.3067 -1.2864 -1.2944
 2708SOL     OW19342   9.911   7.111   2.993  0.3145 -0.3502 -0.6207
 2708SOL    HW119343   9.905   7.189   3.055 -0.1597 -0.6685 -0.2537
 2708SOL    HW219344   9.840   7.118   2.923 -0.3887 -0.9687  0.0229
 2709SOL     OW19345   2.010   2.476   4.444 -1.0497 -0.0319  0.8152
 2709SOL    HW119346   1.970   2.560   4.408 -0.1621  0.6269  1.3374
 2709SOL    HW219347   2.108   2.476   4.426 -1.0470 -0.9694  0.8062
 2710SOL     OW19348   9.674   6.846   2.068 -0.8653  0.0047  0.1870
 2710SOL    HW119349   9.689   6.853   1.970 -0.5004 -0.8818  0.1733
 2710SOL    HW219350   9.753   6.883   2.117  0.2440 -2.1713  0.1224
 2711SOL     OW19351   7.302   1.983   4.429 -0.6516 -0.1940  0.8254
 2711SOL    HW119352   7.360   1.976   4.510 -0.6047 -0.0928  0.7995
 2711SOL    HW219353   7.291   1.892   4.388 -1.3523 -0.3873  1.4200
 2712SOL     OW19354   2.327   4.365   3.557  0.1301  0.1986  0.1768
 2712SOL    HW119355   2.307   4.272   3.526 -0.0725  0.2994 -0.0008
 2712SOL    HW219356   2.308   4.372   3.655 -0.0536  0.1076  0.1481
 2713SOL     OW19357   9.758   4.652   6.748 -0.3440 -0.0847 -0.6253
 2713SOL    HW119358   9.771   4.557   6.720 -1.1771 -0.0779 -1.0553
 2713SOL    HW219359   9.820   4.674   6.824  1.6124 -0.2455 -2.1371
 2714SOL     OW19360   8.926   3.932   5.779 -0.0350 -0.2762 -0.0090
 2714SOL    HW119361   8.834   3.918   5.816 -0.9390  1.4845 -1.5188
 2714SOL    HW219362   8.966   4.015   5.819  0.9448 -1.0862  0.7087
 2715SOL     OW19363   2.843   0.013   0.167  0.0088 -0.2346  0.7860
 2715SOL    HW119364   2.855   0.102   0.211  1.1311 -0.8107  1.6527
 2715SOL    HW219365   2.860   0.022   0.069 -1.2565  0.7905  0.6463
 2716SOL     OW19366   8.442   7.297   2.361 -0.0223  0.2303 -0.3926
 2716SOL    HW119367   8.449   7.328   2.266 -0.6677  2.5784  0.2867
 2716SOL    HW219368   8.383   7.360   2.412  0.3645 -0.9675  1.5741
 2717SOL     OW19369   5.718   0.181   1.442 -0.0036  0.1965  0.2650
 2717SOL    HW119370   5.678   0.222   1.524 -1.0220 -1.4734  0.6209
 2717SOL    HW219371   5.646   0.142   1.386  0.7780  0.5254 -0.9844
 2718SOL     OW19372   3.810   0.568   0.924  0.0562 -0.0184 -0.0056
 2718SOL    HW119373   3.780   0.496   0.861 -1.4310 -0.6910  1.4198
 2718SOL    HW219374   3.820   0.530   1.016  0.7670  1.2693  0.4613
 2719SOL     OW19375   9.287   6.157   3.756 -0.6496 -0.3534 -0.1146
 2719SOL    HW119376   9.353   6.174   3.682  1.1380 -1.4000  1.1905
 2719SOL    HW219377   9.242   6.069   3.740 -0.7932 -0.2429 -0.3273
 2720SOL     OW19378   2.061   4.379   3.516  0.0141 -0.2256  0.1380
 2720SOL    HW119379   2.034   4.409   3.607 -0.7957 -0.4814 -0.0111
 2720SOL    HW219380   2.154   4.409   3.497  0.7423 -1.5030  1.6389
 2721SOL     OW19381   0.397   6.803   5.330  0.2505 -0.2868  0.0807
 2721SOL    HW119382   0.339   6.811   5.411  1.9194 -2.1786  1.5415
 2721SOL    HW219383   0.457   6.883   5.324 -2.2400  1.5580 -1.3052
 2722SOL     OW19384   1.572   4.249   0.675 -0.5399 -0.7669 -0.5307
 2722SOL    HW119385   1.637   4.173   0.673  2.3095  1.4577  2.2609
 2722SOL    HW219386   1.590   4.311   0.598  1.0876  0.1136  0.5199
 2723SOL     OW19387   0.209   6.695   5.748  0.2233 -0.5896 -0.5751
 2723SOL    HW119388   0.175   6.607   5.781  0.2186 -1.1358 -1.9769
 2723SOL    HW219389   0.299   6.714   5.789  0.0217 -1.0407  0.0701
 2724SOL     OW19390   0.517   4.089   0.573  0.4359  0.2569  0.0348
 2724SOL    HW119391   0.475   4.004   0.604  1.8146  0.4236  2.4857
 2724SOL    HW219392   0.473   4.167   0.618  0.3308  0.7237 -0.8650
 2725SOL     OW19393   5.827   5.666   1.288 -0.3943  0.3089  0.7921
 2725SOL    HW119394   5.759   5.712   1.231  1.5029  3.0749  0.6734
 2725SOL    HW219395   5.852   5.725   1.364  0.1037 -1.6913  2.2324
 2726SOL     OW19396   6.933   8.162   3.969 -0.3796  0.7540 -0.4867
 2726SOL    HW119397   6.894   8.176   3.878  0.8517 -1.5405 -1.4069
 2726SOL    HW219398   6.981   8.075   3.972 -0.4787  0.7345  2.4193
 2727SOL     OW19399   1.424   1.377   0.462 -0.2684 -0.3578 -0.2792
 2727SOL    HW119400   1.374   1.436   0.398 -0.9332 -1.9840 -1.3011
 2727SOL    HW219401   1.364   1.304   0.494  0.6846 -0.7771  0.5708
 2728SOL     OW19402   8.344   0.233   3.234 -0.3302  0.1843 -0.4436
 2728SOL    HW119403   8.249   0.265   3.223 -0.7712 -0.9316  0.0590
 2728SOL    HW219404   8.401   0.308   3.267 -1.1513  0.7125 -0.2119
 2729SOL     OW19405   0.754   1.909   5.616  0.1255 -0.1816 -0.3946
 2729SOL    HW119406   0.815   1.844   5.661 -0.1828  0.3985  0.8946
 2729SOL    HW219407   0.659   1.881   5.633  0.0149 -0.5804 -1.6342
 2730SOL     OW19408   1.076   0.075   3.202 -0.2828  0.4712  0.6430
 2730SOL    HW119409   1.015   0.093   3.279 -0.2784  0.0129  0.7576
 2730SOL    HW219410   1.026   0.088   3.116 -1.1986 -2.0884  0.7534
 2731SOL     OW19411   7.080   2.077   1.758 -0.6176 -0.3878 -0.0182
 2731SOL    HW119412   7.064   2.175   1.742 -1.0167 -0.3009  0.9443
 2731SOL    HW219413   7.167   2.066   1.806  0.2591 -0.6197 -1.5884
 2732SOL     OW19414   2.593   0.411   4.178 -0.3140 -0.3889  0.0766
 2732SOL    HW119415   2.692   0.409   4.191 -0.2089  0.8044 -0.4358
 2732SOL    HW219416   2.548   0.432   4.264 -0.1636 -1.4406  0.4250
 2733SOL     OW19417   6.901   0.934   5.809  0.3512 -0.6581 -0.2382
 2733SOL    HW119418   6.816   0.914   5.760  0.6999 -0.6994 -0.8349
 2733SOL    HW219419   6.880   0.985   5.892 -0.1217  0.6728 -1.1588
 2734SOL     OW19420   0.367   4.201   2.629 -0.6537  0.0971 -0.0889
 2734SOL    HW119421   0.446   4.234   2.578 -0.3786  0.3592  0.4998
 2734SOL    HW219422   0.327   4.278   2.680 -0.5693 -0.2815  0.5555
 2735SOL     OW19423   3.646   9.098   3.772  0.3967 -0.4055 -0.3099
 2735SOL    HW119424   3.556   9.088   3.729  0.4692  0.4182 -0.6509
 2735SOL    HW219425   3.700   9.166   3.723  0.7210  0.0647  0.6839
 2736SOL     OW19426   1.462   4.309   1.817  0.0961  0.0866  0.3699
 2736SOL    HW119427   1.482   4.237   1.884 -1.1388 -0.2403  0.3978
 2736SOL    HW219428   1.363   4.327   1.815  0.2027  0.6142 -0.8365
 2737SOL     OW19429   3.003   7.683   4.794  0.8736  0.2529 -0.0744
 2737SOL    HW119430   2.978   7.687   4.891 -0.9646 -1.0537 -0.4758
 2737SOL    HW219431   3.026   7.775   4.762  1.0634  0.7656  1.4842
 2738SOL     OW19432   1.742   3.740   2.782  0.1880 -0.0584 -0.1631
 2738SOL    HW119433   1.802   3.732   2.861  1.2065  0.3179 -0.8853
 2738SOL    HW219434   1.764   3.668   2.716 -1.4362 -1.0824  0.3944
 2739SOL     OW19435   1.527   1.685   1.885 -0.1263  0.5383  0.4456
 2739SOL    HW119436   1.442   1.638   1.910  1.6806 -1.9140  2.3387
 2739SOL    HW219437   1.563   1.645   1.800 -0.0518  0.4210  0.5306
 2740SOL     OW19438   2.340   9.910   3.992  0.7949  0.0710 -0.0094
 2740SOL    HW119439   2.368   9.988   3.936  1.0096  0.2507  0.3440
 2740SOL    HW219440   2.392   9.829   3.965  0.8065  0.1269 -0.1572
 2741SOL     OW19441   9.557   9.903   6.479  0.0772 -0.2281 -0.1252
 2741SOL    HW119442   9.494   9.826   6.492 -0.1562 -0.1498 -0.7953
 2741SOL    HW219443   9.521   9.965   6.410  0.9701 -0.2664 -0.6361
 2742SOL     OW19444   1.994   4.796   5.078  0.4306 -0.2287 -0.1550
 2742SOL    HW119445   1.957   4.886   5.103 -0.2575  0.5541 -3.6726
 2742SOL    HW219446   2.082   4.807   5.033  0.1257 -1.2566 -1.0301
 2743SOL     OW19447   5.499   9.170   1.377 -0.5400  0.5571 -0.0525
 2743SOL    HW119448   5.477   9.078   1.409  0.0740  0.8927  1.3483
 2743SOL    HW219449   5.563   9.213   1.440  0.1992  1.4694 -1.3908
 2744SOL     OW19450   4.078   7.497   1.291 -0.1575 -0.3527  0.2863
 2744SOL    HW119451   4.103   7.576   1.348 -1.0807  0.2792 -0.1753
 2744SOL    HW219452   4.105   7.413   1.337 -0.8417  0.1514  1.6265
 2745SOL     OW19453   3.473   0.648   2.084 -0.1971  0.3198 -0.2819
 2745SOL    HW119454   3.472   0.565   2.028 -3.3059  0.0943  0.0218
 2745SOL    HW219455   3.524   0.631   2.168 -0.8412 -1.3286 -0.2094
 2746SOL     OW19456   1.688   9.147   5.537 -0.3317 -0.6972  0.0752
 2746SOL    HW119457   1.646   9.220   5.484 -1.2198 -0.6662  0.8104
 2746SOL    HW219458   1.707   9.069   5.478  1.2439  0.3664 -0.8580
 2747SOL     OW19459   1.036   6.636   2.013  0.4741  0.1815 -0.2646
 2747SOL    HW119460   1.075   6.685   2.091  2.3030  0.9249 -1.6008
 2747SOL    HW219461   1.078   6.670   1.929  1.4216 -3.2935 -1.2735
 2748SOL     OW19462   7.632   6.802   3.324  0.4018 -0.1071  0.3515
 2748SOL    HW119463   7.563   6.864   3.289  0.2293 -0.4440  0.0929
 2748SOL    HW219464   7.600   6.707   3.316  1.3726 -0.3450 -0.8452
 2749SOL     OW19465   1.105   3.418   2.860 -0.1130  0.1362 -0.0116
 2749SOL    HW119466   1.121   3.452   2.767 -0.8394  1.3664  0.3002
 2749SOL    HW219467   1.106   3.318   2.860  0.2476  0.1348 -1.2766
 2750SOL     OW19468   1.492   3.730   6.014  0.5992  0.4655 -0.0330
 2750SOL    HW119469   1.464   3.777   6.097  0.4008  0.4731 -0.1023
 2750SOL    HW219470   1.431   3.756   5.939  1.3002  1.1235 -0.3855
 2751SOL     OW19471   3.877   4.905   0.300  0.2553 -0.2014 -0.3924
 2751SOL    HW119472   3.854   4.817   0.260 -0.5264  0.0956 -0.6091
 2751SOL    HW219473   3.825   4.977   0.254 -0.0981  0.2306  0.6664
 2752SOL     OW19474   8.218   3.034   2.188  0.1111 -0.4686 -0.6022
 2752SOL    HW119475   8.261   3.124   2.193 -0.5409 -0.2574  1.8126
 2752SOL    HW219476   8.182   3.019   2.096  0.1748  1.7533 -1.0127
 2753SOL     OW19477   3.390   6.316   6.644 -0.1085 -0.4282 -0.1045
 2753SOL    HW119478   3.484   6.294   6.618 -0.1824  0.9118 -1.5903
 2753SOL    HW219479   3.371   6.281   6.736  2.2199  0.4074  0.7098
 2754SOL     OW19480   9.891   2.932   0.671 -0.2167  0.0665  0.2920
 2754SOL    HW119481   9.808   2.877   0.667  1.2776 -2.3817  1.6527
 2754SOL    HW219482   9.964   2.880   0.716  1.0900  3.4324  2.2574
 2755SOL     OW19483   9.414   1.961   0.175 -0.2800 -0.7265  0.2678
 2755SOL    HW119484   9.379   2.038   0.229  0.7778 -0.5805  0.7655
 2755SOL    HW219485   9.413   1.878   0.231  1.2389 -0.4824  0.6656
 2756SOL     OW19486   9.319   0.694   2.449 -1.0223  0.2443  0.2687
 2756SOL    HW119487   9.407   0.686   2.401 -2.0663  0.8167 -1.7885
 2756SOL    HW219488   9.257   0.750   2.394 -2.5680  0.1225  1.8774
 2757SOL     OW19489   8.089   7.111   2.693 -0.6442  0.2703 -0.5095
 2757SOL    HW119490   8.159   7.065   2.748 -0.5603  0.7542 -0.2020
 2757SOL    HW219491   8.124   7.200   2.664 -1.3631  0.7770  0.1600
 2758SOL     OW19492   4.304   4.347   2.596 -0.1865 -0.5548 -0.2332
 2758SOL    HW119493   4.354   4.277   2.544 -0.4146 -2.1497  1.6115
 2758SOL    HW219494   4.213   4.312   2.619 -0.8800  0.9830 -0.6099
 2759SOL     OW19495   0.329   7.513   2.653  0.2709 -0.2253  0.7027
 2759SOL    HW119496   0.398   7.460   2.702  0.3679 -0.8463 -0.0902
 2759SOL    HW219497   0.278   7.452   2.592  0.6648  0.6662 -0.5313
 2760SOL     OW19498   0.143   3.945   1.538 -0.2900  0.8885 -0.1865
 2760SOL    HW119499   0.125   4.029   1.589  0.5580  1.2282 -0.4368
 2760SOL    HW219500   0.076   3.935   1.465  0.8444  2.4141 -1.4574
 2761SOL     OW19501   0.946   5.536   2.083 -0.6354 -0.1806 -0.5171
 2761SOL    HW119502   0.856   5.569   2.112 -0.1068 -0.9918  2.1643
 2761SOL    HW219503   1.010   5.544   2.158  0.7819 -2.5247 -1.4300
 2762SOL     OW19504   1.364   6.065   4.966  0.4551  0.4909 -0.4686
 2762SOL    HW119505   1.409   6.071   5.055  2.2243  0.6738 -1.3551
 2762SOL    HW219506   1.396   6.139   4.906 -0.1037 -0.1025 -1.5329
 2763SOL     OW19507   7.911   1.693   6.297  0.6244 -0.6206  0.6874
 2763SOL    HW119508   7.978   1.660   6.231  0.9446  0.0488  0.6764
 2763SOL    HW219509   7.829   1.637   6.291  0.8294 -0.8603  0.0467
 2764SOL     OW19510   1.614   4.248   6.349  0.2594  0.0878  0.3857
 2764SOL    HW119511   1.589   4.251   6.446 -0.8961  0.2372  0.0829
 2764SOL    HW219512   1.608   4.154   6.316  3.1595 -0.4238  1.0879
 2765SOL     OW19513   6.691   1.774   0.035 -0.0362  0.1101  0.4166
 2765SOL    HW119514   6.634   1.810   0.110 -0.3065 -1.4622  0.9784
 2765SOL    HW219515   6.642   1.784  -0.051 -0.7573 -0.3341  0.7673
 2766SOL     OW19516   9.366   3.565   1.256  0.1006 -0.3784 -0.7937
 2766SOL    HW119517   9.266   3.571   1.256  0.1223  0.2771  0.8608
 2766SOL    HW219518   9.394   3.486   1.310  0.4905  0.4491  0.2571
 2767SOL     OW19519   4.030   2.568   4.290  0.1184 -0.4057  0.0826
 2767SOL    HW119520   3.959   2.605   4.230 -1.5557 -2.0715  0.9702
 2767SOL    HW219521   4.071   2.487   4.248 -1.5563 -2.0013  1.4536
 2768SOL     OW19522   1.706   0.114   1.519  0.6101 -0.2566 -0.6491
 2768SOL    HW119523   1.747   0.052   1.586  0.5708  0.2637 -0.1445
 2768SOL    HW219524   1.770   0.188   1.499  1.1377 -1.1012 -2.1414
 2769SOL     OW19525   4.557   0.368   2.895 -0.0239  0.2772 -0.5671
 2769SOL    HW119526   4.639   0.336   2.850  0.6689 -0.9526  1.5020
 2769SOL    HW219527   4.478   0.315   2.865  0.2769  0.0707 -0.9852
 2770SOL     OW19528   8.690   1.845   5.269  0.2307 -0.7574 -0.0286
 2770SOL    HW119529   8.602   1.807   5.239 -1.4094  2.6023  0.2513
 2770SOL    HW219530   8.704   1.825   5.366 -1.7306  1.2622  0.7079
 2771SOL     OW19531   1.516   5.271   4.809 -0.6422 -0.0408  0.2917
 2771SOL    HW119532   1.592   5.332   4.832 -0.3754  0.2271 -1.2221
 2771SOL    HW219533   1.430   5.324   4.809 -0.6762 -0.0928  0.8751
 2772SOL     OW19534   3.909   0.496   3.716 -0.5731 -0.3522 -0.0334
 2772SOL    HW119535   3.968   0.515   3.795  0.8323 -2.1166 -0.6155
 2772SOL    HW219536   3.853   0.577   3.696  2.0020  1.5809  0.2374
 2773SOL     OW19537   7.879   8.056   2.701 -0.6781  0.2340 -0.7283
 2773SOL    HW119538   7.902   8.115   2.623 -1.1333 -0.8117 -1.6762
 2773SOL    HW219539   7.895   8.105   2.786  0.3231  1.2289 -1.4728
 2774SOL     OW19540   0.383   7.600   5.101 -0.3860  0.0101 -0.1634
 2774SOL    HW119541   0.367   7.668   5.173 -0.2619 -0.9685  0.7947
 2774SOL    HW219542   0.311   7.607   5.032  0.2525  1.8926 -0.6751
 2775SOL     OW19543   8.239   7.007   4.446  0.2991  0.5578 -0.8265
 2775SOL    HW119544   8.191   7.095   4.449  0.2108  0.6151 -2.9479
 2775SOL    HW219545   8.195   6.942   4.508  0.0733  1.8602  0.3984
 2776SOL     OW19546   2.465   1.486   2.375 -0.3180  0.0585  0.2194
 2776SOL    HW119547   2.468   1.552   2.449 -3.4017  3.4798 -2.5030
 2776SOL    HW219548   2.370   1.458   2.360  0.5261 -2.3008 -0.9941
 2777SOL     OW19549   0.416   0.623   4.791  0.0907  0.2643  0.1944
 2777SOL    HW119550   0.509   0.619   4.829 -0.5867  0.3713  1.8639
 2777SOL    HW219551   0.362   0.547   4.826 -0.2918 -0.1770 -1.2854
 2778SOL     OW19552   1.852   1.451   1.850  0.6399  0.1925 -0.1561
 2778SOL    HW119553   1.906   1.368   1.840 -0.4429 -0.5424  0.0088
 2778SOL    HW219554   1.755   1.429   1.840  0.3217  1.3824  0.2269
 2779SOL     OW19555   8.931   9.037   4.625  0.1191 -0.0477  1.7457
 2779SOL    HW119556   9.006   9.010   4.564 -1.5239  0.0588 -0.3382
 2779SOL    HW219557   8.856   8.971   4.617 -0.6993  0.7706  2.5745
 2780SOL     OW19558   6.005   2.449   3.461  0.0023 -0.7297  0.0115
 2780SOL    HW119559   6.015   2.548   3.462  0.5498 -0.7251 -2.1640
 2780SOL    HW219560   5.928   2.424   3.402 -0.3066 -1.5938  0.7751
 2781SOL     OW19561   5.643   5.494   0.508  0.3776 -0.6233 -0.2222
 2781SOL    HW119562   5.664   5.462   0.600 -1.2662 -0.5885  0.1791
 2781SOL    HW219563   5.659   5.420   0.443  1.5010 -0.6591  0.0979
 2782SOL     OW19564   2.007   9.688   1.550  0.3854  0.3041  0.2722
 2782SOL    HW119565   2.032   9.753   1.478  1.2369 -0.0126  0.2785
 2782SOL    HW219566   2.016   9.731   1.639 -1.0081  0.8095  0.1937
 2783SOL     OW19567   0.827   6.797   5.017 -0.0560  0.0555 -0.1120
 2783SOL    HW119568   0.860   6.723   4.957 -0.2463  0.7194 -1.0448
 2783SOL    HW219569   0.899   6.821   5.082 -0.0487 -1.0675  0.3079
 2784SOL     OW19570   8.929   2.968   4.948 -0.3036  0.1523 -0.0480
 2784SOL    HW119571   8.962   2.875   4.939 -1.6462 -0.2861 -0.6326
 2784SOL    HW219572   8.936   3.015   4.860 -1.3296  0.0077 -0.2198
 2785SOL     OW19573   1.741   3.798   0.870  0.2478  0.0247 -0.7438
 2785SOL    HW119574   1.753   3.863   0.796 -3.0187 -0.1999 -1.5462
 2785SOL    HW219575   1.761   3.706   0.837 -2.1130 -0.1931 -1.6974
 2786SOL     OW19576   1.849   9.858   3.809  0.1382  0.6891 -0.0448
 2786SOL    HW119577   1.831   9.948   3.770  1.3964  0.1255 -2.0083
 2786SOL    HW219578   1.947   9.847   3.826  0.2119 -0.8541 -1.2911
 2787SOL     OW19579   9.738   7.452   1.331  0.0374 -0.0927  0.0007
 2787SOL    HW119580   9.692   7.540   1.332 -0.1527 -0.1974  1.0455
 2787SOL    HW219581   9.731   7.409   1.422  1.1025 -0.6645 -0.1763
 2788SOL     OW19582   9.244   4.726   2.806  0.2708  0.2773  0.4030
 2788SOL    HW119583   9.215   4.805   2.752 -0.9006  0.4519  1.2528
 2788SOL    HW219584   9.309   4.756   2.877 -0.4864  0.5574  0.9865
 2789SOL     OW19585   9.953   8.725   6.256 -0.3243 -0.5131 -0.2418
 2789SOL    HW119586   9.910   8.670   6.327  0.7577 -0.9372  0.0959
 2789SOL    HW219587   9.889   8.737   6.179 -1.1133 -0.9354  0.3438
 2790SOL     OW19588   9.264   8.814   0.034 -0.5682 -0.0487  0.0773
 2790SOL    HW119589   9.257   8.812  -0.066 -1.6013 -1.1492  0.1637
 2790SOL    HW219590   9.185   8.768   0.074  0.0934 -0.0567  1.3996
 2791SOL     OW19591   7.507   3.564   1.166 -0.2786  0.1544  0.0108
 2791SOL    HW119592   7.528   3.474   1.126  1.7374 -0.2477  1.9431
 2791SOL    HW219593   7.407   3.575   1.171 -0.6106 -0.3452 -3.7824
 2792SOL     OW19594   1.481   8.201   2.013  0.0618  0.4911  0.2846
 2792SOL    HW119595   1.501   8.252   1.930  0.0316 -0.3236 -0.2347
 2792SOL    HW219596   1.382   8.194   2.026  0.0459 -0.3642 -0.2420
 2793SOL     OW19597   1.097   9.432   1.465  0.4269 -0.6999  0.6752
 2793SOL    HW119598   1.158   9.473   1.534 -0.0118 -0.0583  0.6837
 2793SOL    HW219599   1.024   9.382   1.511 -1.3171  1.8133  0.7466
 2794SOL     OW19600   2.555   6.930   5.047 -0.3415 -0.3518 -0.1800
 2794SOL    HW119601   2.530   6.993   5.120  2.2000 -0.1222  0.5277
 2794SOL    HW219602   2.501   6.846   5.057 -0.4719 -0.0832  1.5959
 2795SOL     OW19603   0.992   7.059   2.089 -0.3578  0.2342  0.2790
 2795SOL    HW119604   0.943   7.018   2.012 -0.7606 -0.2795  0.7982
 2795SOL    HW219605   1.042   7.140   2.058 -1.2608  0.5673 -0.3288
 2796SOL     OW19606   0.008   4.085   3.312 -0.0226 -0.4014  0.0177
 2796SOL    HW119607  -0.077   4.043   3.280  0.2744 -1.8695  1.0937
 2796SOL    HW219608   0.007   4.090   3.412  0.9998 -0.0828  0.0179
 2797SOL     OW19609   2.177   9.802   4.199 -0.5369  0.6109 -0.4058
 2797SOL    HW119610   2.168   9.711   4.159  0.7091 -0.9121  2.6398
 2797SOL    HW219611   2.247   9.854   4.149 -0.0362 -0.7243 -1.0983
 2798SOL     OW19612   3.070   5.306   5.029 -0.2333 -0.7017  0.1235
 2798SOL    HW119613   3.027   5.264   4.949 -1.1160 -0.8546  0.6725
 2798SOL    HW219614   3.004   5.310   5.104  0.2701  0.4250  0.5086
 2799SOL     OW19615   6.518   7.162   4.176  0.5386  0.2405  0.3412
 2799SOL    HW119616   6.598   7.193   4.124 -0.2649  1.2693 -0.3018
 2799SOL    HW219617   6.499   7.226   4.250  0.4560 -0.1408  0.6540
 2800SOL     OW19618   2.588   1.684   0.935 -0.3795  0.1805  0.4399
 2800SOL    HW119619   2.648   1.619   0.887  0.4437 -0.1856  1.9358
 2800SOL    HW219620   2.575   1.765   0.878 -0.0299 -0.5735 -0.7287
 2801SOL     OW19621   6.153   8.886   4.864 -0.1080 -0.3913  0.1170
 2801SOL    HW119622   6.228   8.825   4.838  1.0298  0.6548  0.9258
 2801SOL    HW219623   6.080   8.880   4.795  0.7674 -1.2963 -0.7465
 2802SOL     OW19624   4.527   1.625   3.744  0.0987 -0.3540 -0.2423
 2802SOL    HW119625   4.556   1.566   3.820 -1.5569 -1.0681 -0.1451
 2802SOL    HW219626   4.592   1.616   3.669  1.1789 -0.4486  0.6820
 2803SOL     OW19627   4.557   0.350   2.048  0.0710  0.1827 -0.0271
 2803SOL    HW119628   4.572   0.415   2.123 -2.5846 -1.3316  1.8982
 2803SOL    HW219629   4.641   0.299   2.030  0.5101 -0.0627  2.5438
 2804SOL     OW19630   7.566   7.974   5.499  0.0055  0.4487  0.5967
 2804SOL    HW119631   7.554   8.002   5.595 -1.1060  0.8556  0.3482
 2804SOL    HW219632   7.501   7.901   5.478  1.7513 -1.1962  0.7645
 2805SOL     OW19633   0.429   6.083   5.372  0.3309 -0.3598 -0.1505
 2805SOL    HW119634   0.463   6.029   5.449  2.4553 -0.5610 -1.1778
 2805SOL    HW219635   0.384   6.022   5.306 -0.5871 -0.3295  0.4394
 2806SOL     OW19636   8.255   9.409   5.556 -0.2618  0.1271 -0.4704
 2806SOL    HW119637   8.316   9.331   5.557  0.7250  0.8967  0.7395
 2806SOL    HW219638   8.212   9.420   5.646 -0.6724  0.7474 -0.7336
 2807SOL     OW19639   0.698   2.249   1.081  0.6372  0.3502  0.0429
 2807SOL    HW119640   0.625   2.267   1.015  1.2712  0.5641 -0.5950
 2807SOL    HW219641   0.695   2.152   1.106 -1.2269  0.7829  1.6555
 2808SOL     OW19642   4.046   0.297   2.865 -0.0101  0.2148 -0.0520
 2808SOL    HW119643   4.045   0.341   2.955 -0.2801  0.1010 -0.0010
 2808SOL    HW219644   4.095   0.210   2.871  0.2262  0.3454 -0.0791
 2809SOL     OW19645   4.959   0.912   2.135  0.2855  0.2142 -0.5507
 2809SOL    HW119646   4.881   0.890   2.194 -1.4450  3.6329 -1.4278
 2809SOL    HW219647   5.023   0.970   2.185  0.3874  0.4980 -1.0108
 2810SOL     OW19648   1.974   3.228   2.640  0.2474 -0.0052  0.0296
 2810SOL    HW119649   2.045   3.296   2.661  0.8071 -0.6469  0.2299
 2810SOL    HW219650   1.958   3.170   2.720  1.2657 -1.4402 -0.7703
 2811SOL     OW19651   9.586   4.000   6.221  0.3264  0.4313 -0.5486
 2811SOL    HW119652   9.602   3.927   6.155  1.2187 -0.0143  0.1537
 2811SOL    HW219653   9.655   3.996   6.293  0.1445  1.7207 -0.2897
 2812SOL     OW19654   3.339   1.792   0.333 -0.3556 -0.8366 -0.4948
 2812SOL    HW119655   3.257   1.822   0.383  0.1619 -0.9369  0.4237
 2812SOL    HW219656   3.328   1.813   0.236 -1.7520 -1.4352 -0.4795
 2813SOL     OW19657   8.671   4.411   0.512 -0.0675  0.0026 -0.5155
 2813SOL    HW119658   8.727   4.389   0.592  2.4067  0.5734 -2.0130
 2813SOL    HW219659   8.632   4.502   0.522 -0.9928 -0.5192  0.6892
 2814SOL     OW19660   4.151   4.997   0.342  0.1439 -0.2398 -0.4709
 2814SOL    HW119661   4.188   5.050   0.418 -1.9816  1.9593 -0.9009
 2814SOL    HW219662   4.058   4.967   0.364  0.2015 -1.2000 -1.4737
 2815SOL     OW19663   9.708   7.174   5.913  0.7239  0.3423  0.2697
 2815SOL    HW119664   9.658   7.095   5.879  0.2876  0.3104  0.9683
 2815SOL    HW219665   9.694   7.252   5.852 -0.4013  0.4102  0.5975
 2816SOL     OW19666   8.153   8.898   1.494  0.5807 -0.3044 -0.2214
 2816SOL    HW119667   8.154   8.815   1.549  0.0372  0.7485  1.3952
 2816SOL    HW219668   8.059   8.918   1.466  0.4532  0.7701  0.9441
 2817SOL     OW19669   8.860   4.862   0.444  0.6277  0.2388  0.6590
 2817SOL    HW119670   8.931   4.857   0.514 -0.1299 -1.3732  1.3437
 2817SOL    HW219671   8.867   4.783   0.384  0.8694  1.2915 -0.7182
 2818SOL     OW19672   3.451   6.387   2.126 -0.5583  0.2420  0.2009
 2818SOL    HW119673   3.487   6.450   2.195 -0.8250  0.2977  0.2916
 2818SOL    HW219674   3.403   6.312   2.171 -2.8854  1.5869  0.0316
 2819SOL     OW19675   3.986   8.801   6.267  0.0983  0.7262 -0.4879
 2819SOL    HW119676   3.916   8.872   6.257  0.0961  0.9102  0.6942
 2819SOL    HW219677   3.974   8.732   6.196 -0.7869  1.1704 -0.7807
 2820SOL     OW19678   9.492   5.901   5.011  0.6579  0.2497  0.4737
 2820SOL    HW119679   9.582   5.858   5.004 -0.0551 -1.1033 -0.4162
 2820SOL    HW219680   9.496   5.975   5.079  2.2286 -0.3278  1.0268
 2821SOL     OW19681   0.967   2.768   4.625 -0.1468 -0.5905  0.0304
 2821SOL    HW119682   1.013   2.754   4.712  1.3354 -2.0914 -0.9565
 2821SOL    HW219683   0.940   2.680   4.587 -0.6598  0.0382 -1.0765
 2822SOL     OW19684   2.675   9.443   1.324 -0.3869  0.0483  0.2946
 2822SOL    HW119685   2.656   9.502   1.246 -1.0397 -0.0875  0.3427
 2822SOL    HW219686   2.601   9.452   1.390 -0.2249 -0.4271  0.5395
 2823SOL     OW19687   6.593   8.165   2.506 -0.0463  0.1104  0.0087
 2823SOL    HW119688   6.644   8.243   2.543  0.0992 -0.7030  1.5682
 2823SOL    HW219689   6.539   8.195   2.428 -1.9277  2.3583  2.0724
 2824SOL     OW19690   8.547   3.744   6.073 -0.5457 -0.2463 -0.3159
 2824SOL    HW119691   8.476   3.694   6.024  0.0546  0.5463 -2.0147
 2824SOL    HW219692   8.520   3.755   6.169 -2.0686 -1.1464 -0.6340
 2825SOL     OW19693   4.723   4.355   2.781  0.1671  0.8402 -0.3567
 2825SOL    HW119694   4.813   4.399   2.792 -0.0289  0.9283  0.9441
 2825SOL    HW219695   4.695   4.315   2.868 -1.1031  0.8884 -0.7361
 2826SOL     OW19696   6.927   0.799   3.713 -0.5154 -0.1372 -0.0371
 2826SOL    HW119697   6.915   0.734   3.639 -0.8819 -0.4260  0.2710
 2826SOL    HW219698   7.021   0.795   3.747 -0.2533  0.2385 -0.7064
 2827SOL     OW19699   4.573   2.492   4.190  0.1589 -0.4131  0.1778
 2827SOL    HW119700   4.611   2.439   4.114  0.5088 -0.4726  0.3886
 2827SOL    HW219701   4.625   2.471   4.273 -0.3974 -0.5540  0.4891
 2828SOL     OW19702   9.878   9.613   2.352  0.2820  0.0507  0.1210
 2828SOL    HW119703   9.800   9.652   2.304  0.4692 -0.0984 -0.3130
 2828SOL    HW219704   9.891   9.659   2.440 -0.6531 -0.3277  0.4565
 2829SOL     OW19705   9.976   6.011   2.785 -0.5872  0.0746 -0.3679
 2829SOL    HW119706  10.069   6.026   2.817 -0.6997  0.1688 -0.0799
 2829SOL    HW219707   9.969   5.921   2.742 -0.0923  0.5198 -1.4039
 2830SOL     OW19708   8.801   3.004   0.997 -0.3010  0.0711  0.2063
 2830SOL    HW119709   8.890   3.032   0.962 -0.6380 -0.8195 -1.3917
 2830SOL    HW219710   8.809   2.979   1.093  1.3612 -0.9248 -0.1806
 2831SOL     OW19711   0.416   7.021   0.382 -0.4101  0.0643  0.3836
 2831SOL    HW119712   0.450   7.110   0.352 -1.0392  0.3112  0.4173
 2831SOL    HW219713   0.434   7.010   0.479 -2.0352  0.9416  0.8023
 2832SOL     OW19714   2.683   3.242   3.615 -0.6460 -0.5175 -0.2108
 2832SOL    HW119715   2.726   3.327   3.586  0.5905 -0.5633  1.4149
 2832SOL    HW219716   2.610   3.262   3.680 -0.4266 -0.6958  0.0892
 2833SOL     OW19717   2.234   8.246   6.419 -0.3241 -0.3254  0.5031
 2833SOL    HW119718   2.221   8.343   6.401  0.5779 -0.1194  0.9786
 2833SOL    HW219719   2.179   8.219   6.498 -0.3040 -0.1329  0.5820
 2834SOL     OW19720   0.605   6.797   2.909 -0.2485 -0.1738  0.0066
 2834SOL    HW119721   0.545   6.751   2.975  0.5257 -0.6139  0.4062
 2834SOL    HW219722   0.550   6.856   2.850 -1.3795 -2.0720 -0.9245
 2835SOL     OW19723   8.428   4.447   1.607 -0.0356  0.4545  0.4233
 2835SOL    HW119724   8.344   4.462   1.660 -1.0106 -1.6102 -0.5053
 2835SOL    HW219725   8.480   4.372   1.647  0.4416  0.4940 -0.1198
 2836SOL     OW19726   8.359   3.883   1.154  0.2369 -0.2223  0.2452
 2836SOL    HW119727   8.273   3.846   1.189 -1.0764  2.0919 -0.4737
 2836SOL    HW219728   8.385   3.964   1.206  0.9824  0.2167 -0.7774
 2837SOL     OW19729   1.102   4.890   3.211  0.4668 -0.1169  0.0804
 2837SOL    HW119730   1.187   4.928   3.175  1.0235 -0.5727  0.8992
 2837SOL    HW219731   1.107   4.790   3.213 -0.8259 -0.2507 -1.6359
 2838SOL     OW19732   0.495   8.220   6.164  0.1888  0.1161 -0.0388
 2838SOL    HW119733   0.492   8.273   6.249 -0.3458 -0.7871  0.5158
 2838SOL    HW219734   0.402   8.196   6.136  0.3292  0.8523 -1.1701
 2839SOL     OW19735   8.391   6.206   0.172  0.0898 -0.0370  0.5076
 2839SOL    HW119736   8.434   6.179   0.258 -0.9021  1.3668  1.4774
 2839SOL    HW219737   8.365   6.124   0.120 -1.3425 -0.9627  2.6017
 2840SOL     OW19738   2.169   3.411   5.902 -0.0221 -0.2661 -0.0124
 2840SOL    HW119739   2.264   3.392   5.875 -0.1872  0.5262 -1.1808
 2840SOL    HW219740   2.138   3.495   5.858 -0.6752  0.4715  1.8335
 2841SOL     OW19741   7.351   8.817   4.004  0.0522  0.0133  0.3825
 2841SOL    HW119742   7.361   8.811   3.905 -0.4786 -3.0747  0.4636
 2841SOL    HW219743   7.277   8.756   4.034 -1.7312  3.0224  2.3979
 2842SOL     OW19744   9.479   4.242   0.957 -0.0942  0.1224  0.2150
 2842SOL    HW119745   9.454   4.320   0.900  2.0891  1.6406  1.2471
 2842SOL    HW219746   9.456   4.263   1.052 -1.3928 -1.3635  0.2389
 2843SOL     OW19747   1.075   9.441   0.236 -0.4975  0.5181 -0.1922
 2843SOL    HW119748   0.982   9.450   0.272 -0.5924 -0.6431 -0.1246
 2843SOL    HW219749   1.107   9.347   0.249  0.3093  0.6517 -1.1295
 2844SOL     OW19750   2.222   8.905   1.607  0.0247 -0.2057  0.0775
 2844SOL    HW119751   2.186   8.998   1.597  0.7072  0.1098  0.6016
 2844SOL    HW219752   2.255   8.891   1.700  1.1906 -0.5269 -0.3730
 2845SOL     OW19753   8.699   9.707   5.999 -0.3919 -0.0017 -0.0243
 2845SOL    HW119754   8.624   9.662   5.949  0.8543 -0.4318 -1.5527
 2845SOL    HW219755   8.743   9.641   6.059 -0.7705  0.0604  0.3200
 2846SOL     OW19756   6.009   0.500   4.867  0.4127  0.3668  0.0251
 2846SOL    HW119757   6.074   0.436   4.828 -1.4354 -1.7812  0.3381
 2846SOL    HW219758   5.981   0.566   4.798  2.5116  0.9951 -0.2431
 2847SOL     OW19759   2.351   4.771   2.765  0.4518  0.4086 -0.4086
 2847SOL    HW119760   2.427   4.757   2.701 -0.5201 -1.6274 -1.1609
 2847SOL    HW219761   2.292   4.690   2.765 -0.9639  1.4078  1.1962
 2848SOL     OW19762   1.920   9.023   0.374 -0.0697  0.4182 -0.3852
 2848SOL    HW119763   1.886   8.930   0.388  1.4790  0.1525  1.8951
 2848SOL    HW219764   1.845   9.082   0.344 -1.4298 -1.1927 -0.2489
 2849SOL     OW19765   5.048   1.515   2.842  0.6207 -0.2205 -1.0037
 2849SOL    HW119766   5.070   1.471   2.756  1.1507 -1.2142 -0.3681
 2849SOL    HW219767   4.955   1.490   2.870  0.5256 -0.0643 -1.1778
 2850SOL     OW19768   0.752   6.520   5.874 -0.7402  0.5164 -0.2937
 2850SOL    HW119769   0.725   6.532   5.778 -1.6342  0.5382 -0.0373
 2850SOL    HW219770   0.677   6.479   5.925 -0.1308  0.1686  0.3238
 2851SOL     OW19771   9.577   8.792   4.794  0.0663  0.6753  0.1951
 2851SOL    HW119772   9.620   8.712   4.835  0.2462  0.4455 -0.4425
 2851SOL    HW219773   9.614   8.808   4.703  0.4496  1.8263  0.5430
 2852SOL     OW19774   0.172   1.065   3.269 -0.0628  0.0436  0.2912
 2852SOL    HW119775   0.115   1.035   3.346 -0.2968 -1.0604 -0.3067
 2852SOL    HW219776   0.252   1.006   3.263  0.3216  0.5833  0.1255
 2853SOL     OW19777   4.079   1.993   4.947  0.2167 -0.0363  0.1623
 2853SOL    HW119778   4.119   2.053   4.877 -0.0117 -0.1005 -0.0267
 2853SOL    HW219779   4.005   2.042   4.994  0.5211  0.0854  0.5138
 2854SOL     OW19780   1.279   5.548   1.395  0.2815 -0.3314  0.1117
 2854SOL    HW119781   1.245   5.486   1.324 -1.7106 -1.1099  1.7026
 2854SOL    HW219782   1.379   5.545   1.395  0.2531 -4.8403  1.1881
 2855SOL     OW19783   9.647   3.649   3.129 -0.0750  0.3090 -0.0883
 2855SOL    HW119784   9.600   3.664   3.216 -0.9734 -0.5660 -0.4011
 2855SOL    HW219785   9.662   3.551   3.117 -0.4633  0.3765 -1.1736
 2856SOL     OW19786   8.442   8.501   2.062 -0.2726  0.4094 -0.3225
 2856SOL    HW119787   8.468   8.513   1.966  1.8580 -1.4979 -0.0206
 2856SOL    HW219788   8.462   8.408   2.091 -1.3649  0.8191  1.8608
 2857SOL     OW19789   8.259   6.238   5.181 -0.4789  0.8085  0.4003
 2857SOL    HW119790   8.202   6.193   5.112 -0.4913 -1.0925  1.6158
 2857SOL    HW219791   8.340   6.277   5.138 -2.6279  3.4901 -1.3523
 2858SOL     OW19792   6.742   8.386   2.556 -0.3525  0.0533  0.3674
 2858SOL    HW119793   6.698   8.474   2.574  0.3985  0.4547  0.2825
 2858SOL    HW219794   6.816   8.373   2.622  0.6184  0.2519 -0.6665
 2859SOL     OW19795   1.821   8.192   2.580 -0.7324  0.1929 -0.4368
 2859SOL    HW119796   1.755   8.256   2.541 -0.5501  0.2119 -0.7171
 2859SOL    HW219797   1.805   8.100   2.544 -1.4312 -0.0585  0.4918
 2860SOL     OW19798   4.888   9.678   3.368  0.0157 -0.2442  0.1007
 2860SOL    HW119799   4.945   9.733   3.308 -1.2695  1.1868  0.1597
 2860SOL    HW219800   4.806   9.649   3.319 -0.2758 -0.4275  0.6827
 2861SOL     OW19801   9.545   1.891   6.054 -0.5115 -0.0937 -0.3200
 2861SOL    HW119802   9.630   1.910   6.104 -0.2080 -1.0258 -0.4672
 2861SOL    HW219803   9.495   1.976   6.039 -0.2175  0.2885  0.8672
 2862SOL     OW19804   3.249   9.992   3.618  0.0949  0.2569  0.3249
 2862SOL    HW119805   3.317   9.951   3.557 -0.3544 -1.0634  0.7142
 2862SOL    HW219806   3.160   9.994   3.573  0.3902  2.1068 -0.2352
 2863SOL     OW19807   9.247   8.105   5.301  0.1509  0.1800  0.0347
 2863SOL    HW119808   9.206   8.057   5.223 -1.6740 -0.0760  1.1214
 2863SOL    HW219809   9.336   8.065   5.322 -1.3610 -2.8765  0.9753
 2864SOL     OW19810   8.819   4.610   2.447 -0.4409 -0.3493 -0.3386
 2864SOL    HW119811   8.844   4.706   2.455  2.2471 -0.8129 -2.3685
 2864SOL    HW219812   8.839   4.562   2.533  1.0566  0.3304 -0.2905
 2865SOL     OW19813   9.666   8.786   1.633 -0.7878 -0.7265 -0.1115
 2865SOL    HW119814   9.677   8.853   1.560  0.4188 -0.5954  0.1878
 2865SOL    HW219815   9.625   8.703   1.595  1.0799 -1.1761 -1.2475
 2866SOL     OW19816   6.421   0.576   1.585  0.5225  0.1198 -0.2110
 2866SOL    HW119817   6.324   0.568   1.562  0.9719  0.7096 -2.3969
 2866SOL    HW219818   6.432   0.638   1.662 -0.9252 -0.9529  0.8895
 2867SOL     OW19819   8.525   9.414   1.501 -0.1188  0.1004  0.1548
 2867SOL    HW119820   8.578   9.392   1.419  1.1482 -0.3719  1.0836
 2867SOL    HW219821   8.586   9.453   1.570 -1.5247  2.4731  0.1314
 2868SOL     OW19822   1.440   4.739   5.286  0.0870  0.1850  0.6101
 2868SOL    HW119823   1.464   4.836   5.291  0.1185  0.1553  1.1544
 2868SOL    HW219824   1.506   4.686   5.339  0.3427 -0.1879 -0.0774
 2869SOL     OW19825   9.479   4.189   0.583  0.0215 -0.1110  0.3155
 2869SOL    HW119826   9.428   4.272   0.604  0.5347  0.0588  0.9064
 2869SOL    HW219827   9.468   4.166   0.486  0.5612  1.1160 -0.0408
 2870SOL     OW19828   3.907   8.543   1.019 -0.1237  0.0581 -0.3193
 2870SOL    HW119829   3.985   8.603   0.998 -0.3676  0.4239 -0.1815
 2870SOL    HW219830   3.901   8.531   1.118  1.3861 -2.1422 -0.4527
 2871SOL     OW19831   3.827   3.172   2.156  0.2392  0.1720  0.3325
 2871SOL    HW119832   3.836   3.181   2.056 -0.8949 -0.7135  0.1458
 2871SOL    HW219833   3.905   3.122   2.192 -0.1673 -0.9401 -0.3193
 2872SOL     OW19834   2.779   8.544   5.889 -0.5773 -0.2431  0.2881
 2872SOL    HW119835   2.733   8.604   5.956 -0.8425 -0.0992 -0.0210
 2872SOL    HW219836   2.745   8.565   5.797 -0.4916 -0.7018  0.1526
 2873SOL     OW19837   2.830   7.553   4.607  0.5244 -0.4089 -0.4611
 2873SOL    HW119838   2.786   7.632   4.565  0.1304 -0.9022 -0.9721
 2873SOL    HW219839   2.890   7.585   4.681  0.0305  0.3337 -0.3718
 2874SOL     OW19840   9.731   6.481   6.691 -0.0511  0.0521 -0.4430
 2874SOL    HW119841   9.748   6.573   6.725  0.5398 -0.3026  0.2369
 2874SOL    HW219842   9.808   6.453   6.632 -0.0160 -0.1725 -0.2908
 2875SOL     OW19843   7.636   5.252   1.376  0.4190  0.0644  0.0689
 2875SOL    HW119844   7.631   5.339   1.327  1.2051  0.9897  1.5717
 2875SOL    HW219845   7.711   5.255   1.443  0.8064 -1.9784 -0.2389
 2876SOL     OW19846   9.307   1.546   2.021 -0.1542 -0.0016  0.1856
 2876SOL    HW119847   9.339   1.468   2.074 -0.6792 -1.5495 -1.7070
 2876SOL    HW219848   9.378   1.617   2.018  0.4439 -0.5257  1.6572
 2877SOL     OW19849   2.236   0.685   0.558 -0.1690  0.6529  0.0027
 2877SOL    HW119850   2.291   0.731   0.628  0.0747  0.0341  0.2167
 2877SOL    HW219851   2.277   0.597   0.536 -1.3545 -0.0428  0.5399
 2878SOL     OW19852   9.407   1.423   3.550 -0.4112  0.2915 -0.2635
 2878SOL    HW119853   9.382   1.327   3.546  0.2919  0.1487 -1.5765
 2878SOL    HW219854   9.328   1.479   3.524 -1.1862  0.1413  1.7053
 2879SOL     OW19855   4.017   1.596   0.090  0.0250 -0.4564 -0.4647
 2879SOL    HW119856   4.039   1.569  -0.003 -0.5593  1.8356 -1.2949
 2879SOL    HW219857   3.922   1.571   0.110 -0.4896  0.8899 -1.1992
 2880SOL     OW19858   9.973   4.235   1.576 -0.4086  0.6546  0.0326
 2880SOL    HW119859   9.969   4.266   1.481 -1.2833  1.2017  0.2499
 2880SOL    HW219860   9.965   4.314   1.637 -0.0143  0.2832  0.5700
 2881SOL     OW19861   1.287   2.405   1.935 -0.1034 -0.0368  0.7396
 2881SOL    HW119862   1.353   2.341   1.896 -0.5597  0.7490 -1.3696
 2881SOL    HW219863   1.207   2.354   1.967  0.2260 -0.6745  0.5688
 2882SOL     OW19864   6.939   0.332   0.346 -0.3762 -0.3400 -0.2919
 2882SOL    HW119865   7.020   0.340   0.288 -1.6931 -0.2473 -2.1370
 2882SOL    HW219866   6.922   0.236   0.368  0.7980 -0.2842  0.9430
 2883SOL     OW19867   6.667   2.152   4.055 -0.1058  0.3521 -0.4205
 2883SOL    HW119868   6.603   2.151   4.131  1.1388 -1.6051  0.6488
 2883SOL    HW219869   6.623   2.114   3.974 -0.7777  0.4719 -0.1162
 2884SOL     OW19870   0.078   0.241   4.866  0.1644 -0.3145  0.0785
 2884SOL    HW119871   0.062   0.321   4.807  0.1809 -0.4794 -0.1514
 2884SOL    HW219872   0.111   0.272   4.955 -0.8170 -0.0067  0.3375
 2885SOL     OW19873   3.513   1.279   6.691 -0.4160 -0.6350 -0.4224
 2885SOL    HW119874   3.510   1.254   6.595 -1.0364  0.2393 -0.6382
 2885SOL    HW219875   3.489   1.200   6.747 -0.7266 -0.9627 -1.0140
 2886SOL     OW19876   6.484   0.329   3.160  0.5867  0.1546  0.2170
 2886SOL    HW119877   6.388   0.355   3.151  1.0945  1.2401 -2.5458
 2886SOL    HW219878   6.490   0.230   3.175 -0.9398 -0.0368 -0.3179
 2887SOL     OW19879   0.289   0.980   5.422  0.7041  0.6989  0.0652
 2887SOL    HW119880   0.228   0.941   5.353 -2.1331  1.7983  1.8529
 2887SOL    HW219881   0.310   0.910   5.491  0.0850  0.7741  0.3350
 2888SOL     OW19882   9.402   9.204   1.707 -0.3110 -0.1218  0.2783
 2888SOL    HW119883   9.375   9.112   1.677  1.8502 -0.6215 -0.2251
 2888SOL    HW219884   9.366   9.272   1.643 -2.5334 -0.5218  1.0447
 2889SOL     OW19885   2.691   5.562   2.071  0.3490 -0.1827 -0.3653
 2889SOL    HW119886   2.672   5.652   2.030  1.7852  1.2595  1.9977
 2889SOL    HW219887   2.712   5.496   1.998  1.1437  1.8660 -2.0631
 2890SOL     OW19888   0.624   3.093   0.961  0.4943  0.2178 -0.0212
 2890SOL    HW119889   0.648   3.051   1.048  0.0198  2.6187  1.2904
 2890SOL    HW219890   0.693   3.070   0.893  1.9577  0.0278  1.5023
 2891SOL     OW19891   7.892   6.073   6.040  0.6414  0.6854 -0.0478
 2891SOL    HW119892   7.939   6.084   6.127  0.0078  2.9747  0.0386
 2891SOL    HW219893   7.799   6.109   6.047  0.1683 -0.2174 -1.3294
 2892SOL     OW19894   9.088   0.310   5.032  0.5941  0.0291  0.7305
 2892SOL    HW119895   9.117   0.273   4.944 -0.5878  2.1548 -0.5881
 2892SOL    HW219896   9.019   0.250   5.072 -0.9908  0.5101 -1.1877
 2893SOL     OW19897   9.735   4.108   3.746 -0.2210 -0.4693 -0.0495
 2893SOL    HW119898   9.693   4.198   3.733 -0.2912 -0.4894  0.0368
 2893SOL    HW219899   9.717   4.076   3.838 -0.0247 -0.4832 -0.0150
 2894SOL     OW19900   7.062   6.985   3.884 -0.4725 -0.1624  0.5115
 2894SOL    HW119901   7.066   7.068   3.939 -0.1160 -0.8895  1.5870
 2894SOL    HW219902   7.058   6.905   3.943  1.1215 -1.0179 -0.5026
 2895SOL     OW19903   3.050   9.117   3.365  0.1625  0.9330  0.2693
 2895SOL    HW119904   2.992   9.092   3.288 -0.9337  1.5573  0.8780
 2895SOL    HW219905   3.133   9.161   3.332 -0.6595  1.8987 -0.5248
 2896SOL     OW19906   8.844   2.251   6.367  0.0244  0.2143  0.1147
 2896SOL    HW119907   8.805   2.318   6.430 -1.1352  0.0520 -0.4041
 2896SOL    HW219908   8.808   2.160   6.388 -0.2639  0.1368 -0.6803
 2897SOL     OW19909   3.852   7.933   3.496  0.9366  0.6061 -0.2529
 2897SOL    HW119910   3.767   7.980   3.469 -0.5135 -2.0819 -0.5196
 2897SOL    HW219911   3.844   7.835   3.475  2.9211 -0.2003  2.5655
 2898SOL     OW19912   8.149   0.679   5.299  0.0921 -0.4068  0.2906
 2898SOL    HW119913   8.152   0.615   5.375  0.3212  0.4313  0.9908
 2898SOL    HW219914   8.171   0.771   5.331 -0.5571  0.0911 -0.6444
 2899SOL     OW19915   2.045   6.101   5.882 -0.2649 -0.4514 -0.2189
 2899SOL    HW119916   1.954   6.093   5.924 -0.8440 -1.1771 -1.5675
 2899SOL    HW219917   2.051   6.037   5.805  1.3401 -0.2831 -0.2409
 2900SOL     OW19918   5.440   8.554   4.915 -0.0104  0.4289 -0.3592
 2900SOL    HW119919   5.416   8.553   5.013 -2.0758  0.3573 -0.8307
 2900SOL    HW219920   5.539   8.558   4.905  0.3516 -1.9555  1.7452
 2901SOL     OW19921   2.042   6.114   2.405  0.2188 -0.0882 -0.2940
 2901SOL    HW119922   2.031   6.015   2.406 -2.7363  0.1783  1.4702
 2901SOL    HW219923   1.977   6.153   2.340  0.9258  0.7330 -0.5091
 2902SOL     OW19924   0.135   7.561   5.463  0.7206  0.2982  0.1599
 2902SOL    HW119925   0.176   7.647   5.431 -0.1352  0.9430  0.7645
 2902SOL    HW219926   0.196   7.485   5.440  1.3743  1.0335 -0.6063
 2903SOL     OW19927   8.698   3.651   2.852  0.0764 -0.2699 -0.2701
 2903SOL    HW119928   8.684   3.682   2.946  1.1569  1.8811 -0.7861
 2903SOL    HW219929   8.769   3.580   2.851  0.4048  0.0408  0.4640
 2904SOL     OW19930   5.141   0.356   2.355 -0.2809 -0.0855  0.0511
 2904SOL    HW119931   5.110   0.262   2.369  3.6811 -1.4036  0.5047
 2904SOL    HW219932   5.136   0.378   2.258 -0.0608 -1.2207 -0.2332
 2905SOL     OW19933   9.546   8.863   1.211 -0.2711  0.7184 -0.5387
 2905SOL    HW119934   9.631   8.854   1.263 -0.5307 -1.1589 -0.3771
 2905SOL    HW219935   9.482   8.920   1.262  0.1048  0.3189  0.4126
 2906SOL     OW19936   4.450   0.619   2.927  0.0116  0.0625  0.0011
 2906SOL    HW119937   4.499   0.532   2.936  0.8391  0.0301 -3.8256
 2906SOL    HW219938   4.355   0.601   2.899  0.5827  0.3706 -2.2397
 2907SOL     OW19939   4.156   1.996   3.584 -0.1120  0.5858 -0.2328
 2907SOL    HW119940   4.193   2.075   3.534 -0.2310  1.3055  0.7844
 2907SOL    HW219941   4.218   1.919   3.577 -0.2155  0.6283 -1.6335
 2908SOL     OW19942   8.767   9.955   6.118 -0.1868 -0.0768  0.2611
 2908SOL    HW119943   8.863   9.963   6.088 -0.4159  1.3754 -0.1070
 2908SOL    HW219944   8.720   9.890   6.059 -0.6639  2.8405 -2.7219
 2909SOL     OW19945   5.128   5.985   1.339  0.3879  0.0375 -0.5742
 2909SOL    HW119946   5.194   5.962   1.267  0.8048 -0.4191 -0.0500
 2909SOL    HW219947   5.169   6.050   1.403 -0.3264  1.2088 -1.2956
 2910SOL     OW19948   7.822   3.623   5.585  0.0892  0.4350  0.4503
 2910SOL    HW119949   7.742   3.678   5.607 -1.0775 -0.9854 -0.1832
 2910SOL    HW219950   7.800   3.526   5.597  2.3689  0.1115  2.3937
 2911SOL     OW19951   1.811   6.896   1.232  0.1603  0.2973 -0.1320
 2911SOL    HW119952   1.905   6.875   1.261  1.6283  3.8198 -1.9571
 2911SOL    HW219953   1.808   6.904   1.133 -1.9589  0.7852 -0.0474
 2912SOL     OW19954   6.056   0.703   5.479 -0.1184 -0.4698 -0.1265
 2912SOL    HW119955   5.981   0.678   5.540  0.2671 -0.7856  0.2211
 2912SOL    HW219956   6.133   0.642   5.495  0.6105  0.5396  0.2820
 2913SOL     OW19957   5.227   2.310   3.559 -0.1925 -0.2700  0.1306
 2913SOL    HW119958   5.275   2.369   3.494  0.6310 -1.8437 -0.7372
 2913SOL    HW219959   5.288   2.287   3.634 -1.3783  2.1395  1.8887
 2914SOL     OW19960   4.503   7.868   3.623  0.5308  0.0668 -0.2060
 2914SOL    HW119961   4.409   7.837   3.636  0.3790  1.2613  1.7318
 2914SOL    HW219962   4.513   7.905   3.531 -0.3162 -1.9939 -1.1642
 2915SOL     OW19963   6.798   1.530   3.208  0.8006 -0.4911 -0.6108
 2915SOL    HW119964   6.705   1.494   3.214  1.2078 -1.9394 -2.4479
 2915SOL    HW219965   6.799   1.613   3.151  0.6098 -0.4080 -0.4900
 2916SOL     OW19966   7.610   0.755   2.826 -0.4685  0.6760 -1.0784
 2916SOL    HW119967   7.684   0.723   2.766 -0.3756 -0.5557 -0.3134
 2916SOL    HW219968   7.526   0.763   2.774 -0.3917 -0.4145 -1.3844
 2917SOL     OW19969   7.364   1.319   3.987 -0.3264 -0.0521 -0.3576
 2917SOL    HW119970   7.447   1.264   3.974  0.0323  0.7025 -1.3418
 2917SOL    HW219971   7.302   1.302   3.911 -0.7425 -0.0166 -0.0241
 2918SOL     OW19972   8.210   7.633   3.236  0.4328 -0.2107 -0.1322
 2918SOL    HW119973   8.217   7.541   3.274 -0.2932 -0.4880 -0.6513
 2918SOL    HW219974   8.301   7.674   3.230  0.7194 -0.7642  0.4191
 2919SOL     OW19975   1.934   6.983   5.860 -0.9537  0.2625 -0.4255
 2919SOL    HW119976   1.995   6.995   5.782 -1.7096 -0.3570 -1.1251
 2919SOL    HW219977   1.929   6.886   5.884  0.4228  0.6074  1.3396
 2920SOL     OW19978   3.391   1.463   0.081 -0.1403  0.2352  0.6907
 2920SOL    HW119979   3.352   1.529   0.017 -0.1666 -1.3914 -0.9786
 2920SOL    HW219980   3.449   1.399   0.032  0.2872 -0.6926  2.3816
 2921SOL     OW19981   2.885   1.848   4.822 -0.4037  0.0300 -0.4881
 2921SOL    HW119982   2.916   1.903   4.900 -0.6062 -1.2884  0.5277
 2921SOL    HW219983   2.881   1.752   4.848 -0.7565 -0.3929 -2.0489
 2922SOL     OW19984   1.302   2.225   5.982  0.4733  0.0007 -0.2604
 2922SOL    HW119985   1.376   2.235   6.049  0.4966 -1.0247 -0.1395
 2922SOL    HW219986   1.307   2.135   5.939 -0.2229  0.2310 -0.8386
 2923SOL     OW19987   3.702   1.901   3.541 -0.2882  0.7010 -0.0189
 2923SOL    HW119988   3.630   1.971   3.529  0.0879  1.0149 -0.4545
 2923SOL    HW219989   3.764   1.930   3.614 -0.5512  0.4725  0.2963
 2924SOL     OW19990   4.300   9.101   3.235 -0.2357  0.2676 -0.6022
 2924SOL    HW119991   4.233   9.069   3.302  1.2577 -2.8130 -0.4724
 2924SOL    HW219992   4.283   9.056   3.147  0.5086  0.8735 -1.0587
 2925SOL     OW19993   0.862   9.926   5.003 -0.0212  0.1278 -0.1997
 2925SOL    HW119994   0.914   9.844   4.979 -1.6021 -0.6424 -1.0647
 2925SOL    HW219995   0.800   9.950   4.929 -1.0166  0.9476  0.8643
 2926SOL     OW19996   4.939   5.347   0.404 -0.4103  0.1836  0.6594
 2926SOL    HW119997   4.966   5.436   0.367 -0.0706  0.3247  1.2264
 2926SOL    HW219998   5.006   5.278   0.377 -1.4198 -0.1888 -0.9575
 2927SOL     OW19999   0.584   4.272   1.105  0.3977 -0.1574  0.1312
 2927SOL    HW120000   0.528   4.307   1.180  0.5200  0.7477 -0.1889
 2927SOL    HW220001   0.554   4.179   1.082 -1.8073  0.7277 -0.8098
 2928SOL     OW20002   8.482   8.127   3.726 -0.0467 -0.0426  0.0342
 2928SOL    HW120003   8.459   8.085   3.638  0.6532  1.1946 -0.7482
 2928SOL    HW220004   8.410   8.191   3.753  0.7982  1.2695 -0.7554
 2929SOL     OW20005   8.319   5.981   3.675 -0.4073 -0.1565  0.2700
 2929SOL    HW120006   8.314   5.968   3.576 -0.4754  1.6212  0.0084
 2929SOL    HW220007   8.233   5.953   3.717 -1.4029  1.5735 -0.5260
 2930SOL     OW20008   6.374   1.622   0.263 -0.3867  0.5002  0.5360
 2930SOL    HW120009   6.286   1.584   0.292 -0.9066  2.8041  2.1222
 2930SOL    HW220010   6.421   1.661   0.342  1.0812  1.2474 -0.6819
 2931SOL     OW20011   2.425   0.194   5.098 -0.6513  0.1678  0.4190
 2931SOL    HW120012   2.334   0.233   5.085 -0.4345  0.3385 -0.6597
 2931SOL    HW220013   2.432   0.108   5.048 -0.4732 -0.2246  1.1275
 2932SOL     OW20014   2.625   4.577   1.545 -0.1276  0.0441  0.7149
 2932SOL    HW120015   2.561   4.654   1.538  0.2409  0.3159  0.2750
 2932SOL    HW220016   2.702   4.603   1.602 -0.1545 -0.1062  0.8193
 2933SOL     OW20017   8.240   9.091   3.808 -1.1007  0.1721  0.6026
 2933SOL    HW120018   8.256   9.000   3.769  0.7592  0.2681  1.0742
 2933SOL    HW220019   8.224   9.081   3.907  0.6428  0.4602  0.9346
 2934SOL     OW20020   5.828   0.070   2.716 -0.0515  0.2233  0.2221
 2934SOL    HW120021   5.923   0.070   2.748 -0.1868  0.2123  0.6247
 2934SOL    HW220022   5.799  -0.024   2.696 -0.5856  0.0015  1.9253
 2935SOL     OW20023   7.671   0.285   4.909 -0.0410  0.3845 -0.3064
 2935SOL    HW120024   7.684   0.213   4.841  1.0265  0.0964  0.1882
 2935SOL    HW220025   7.679   0.375   4.865  0.2959  0.1995 -0.6240
 2936SOL     OW20026   8.735   1.942   2.466 -0.1401 -0.5954  0.7910
 2936SOL    HW120027   8.645   1.987   2.460  0.1416 -0.1498 -0.2742
 2936SOL    HW220028   8.726   1.846   2.438 -0.1849 -0.3905  0.0694
 2937SOL     OW20029   0.769   8.458   4.126  0.2482  0.0448  0.6402
 2937SOL    HW120030   0.687   8.494   4.081 -0.1974 -0.9876  0.6226
 2937SOL    HW220031   0.748   8.369   4.167  1.6559 -0.7210 -0.3016
 2938SOL     OW20032   2.006   8.714   5.532 -0.0201 -0.3595 -0.7054
 2938SOL    HW120033   2.053   8.802   5.524  0.5907 -0.5701  0.5460
 2938SOL    HW220034   1.927   8.724   5.591  0.2410 -0.7325 -0.2969
 2939SOL     OW20035   2.803   0.762   2.485  0.0732  0.6253 -0.4949
 2939SOL    HW120036   2.822   0.666   2.467 -1.1713 -0.1690  2.2352
 2939SOL    HW220037   2.817   0.815   2.401  1.9552 -1.7301 -1.7209
 2940SOL     OW20038   6.873   9.767   4.845 -0.5865  0.5491  0.0667
 2940SOL    HW120039   6.866   9.856   4.890 -0.5202  0.8459 -0.4962
 2940SOL    HW220040   6.839   9.695   4.906  2.0152  0.5939  1.6385
 2941SOL     OW20041   1.713   0.024   6.584  0.1126 -0.1666  0.0436
 2941SOL    HW120042   1.636  -0.037   6.564  0.2778 -0.4579  0.2929
 2941SOL    HW220043   1.798  -0.030   6.587  0.2919  0.1134  0.0202
 2942SOL     OW20044   4.964   8.572   2.690 -0.5626  0.1146 -0.0796
 2942SOL    HW120045   4.974   8.658   2.642 -0.3152  0.8600  1.2830
 2942SOL    HW220046   4.896   8.515   2.644 -1.0763  1.2261 -0.6958
 2943SOL     OW20047   8.007   1.910   2.417  0.2949  0.5438 -0.0136
 2943SOL    HW120048   7.979   1.954   2.331 -0.4159 -0.0667 -0.1053
 2943SOL    HW220049   8.107   1.906   2.421  0.3238 -1.3629 -1.8240
 2944SOL     OW20050   2.136   6.931   4.553  0.0341  0.1214  0.5936
 2944SOL    HW120051   2.171   6.968   4.467  0.7725 -1.0490  0.3741
 2944SOL    HW220052   2.204   6.869   4.593 -2.4299 -3.5796 -0.7085
 2945SOL     OW20053   0.342   9.562   0.633 -0.1761  0.4187  0.0705
 2945SOL    HW120054   0.307   9.655   0.631  1.8338  1.1972 -0.1500
 2945SOL    HW220055   0.412   9.551   0.562 -0.3111 -1.2313  0.1603
 2946SOL     OW20056   5.881   9.250   3.989  0.2412 -0.2251 -0.3231
 2946SOL    HW120057   5.876   9.220   4.084 -0.1690  4.0985  1.0940
 2946SOL    HW220058   5.809   9.206   3.936 -0.5469 -1.4488  1.7166
 2947SOL     OW20059   6.034   1.122   3.390 -0.1756  0.3131  0.0911
 2947SOL    HW120060   6.091   1.050   3.348 -1.5642 -3.0378  3.5915
 2947SOL    HW220061   5.964   1.150   3.326 -1.6747 -3.9809 -0.3464
 2948SOL     OW20062   9.173   9.529   2.518  0.1280  0.5188 -0.7838
 2948SOL    HW120063   9.205   9.449   2.568  0.4639  1.6695  0.8678
 2948SOL    HW220064   9.177   9.511   2.420  2.1976 -0.7207 -0.4889
 2949SOL     OW20065   5.303   0.740   1.161 -0.2616 -0.4262 -0.1897
 2949SOL    HW120066   5.313   0.641   1.158 -0.1044 -0.4452  0.8367
 2949SOL    HW220067   5.208   0.763   1.179 -0.0882 -0.4135  0.7348
 2950SOL     OW20068   1.913   7.308   2.954  0.3106  0.1490  0.5106
 2950SOL    HW120069   1.826   7.286   2.999  0.8094 -0.5104  1.1681
 2950SOL    HW220070   1.955   7.386   3.001 -0.2956  0.9730 -0.2998
 2951SOL     OW20071   0.296   2.702   1.163 -0.0763  0.0848 -0.6395
 2951SOL    HW120072   0.215   2.660   1.122  0.6503 -0.2900 -1.6905
 2951SOL    HW220073   0.348   2.632   1.213 -0.4628  0.3544  0.1608
 2952SOL     OW20074   9.384   9.154   4.648  0.2933 -0.0564  0.3336
 2952SOL    HW120075   9.426   9.143   4.738  0.9279  0.5139  0.1032
 2952SOL    HW220076   9.372   9.251   4.628 -0.5325 -0.1954  0.1126
 2953SOL     OW20077   8.899   0.083   4.540 -0.2980 -0.4120 -0.3376
 2953SOL    HW120078   8.891  -0.017   4.545 -3.8468 -0.1698  0.0363
 2953SOL    HW220079   8.984   0.112   4.584  0.5788 -3.2134 -0.0771
 2954SOL     OW20080   0.876   9.686   1.120  0.0896  0.1433 -0.3108
 2954SOL    HW120081   0.811   9.633   1.174  0.4279  0.5487  0.4982
 2954SOL    HW220082   0.828   9.729   1.044 -0.4367 -0.2192 -0.1852
 2955SOL     OW20083   8.757   3.342   0.860  0.2540  0.1404 -0.5763
 2955SOL    HW120084   8.851   3.314   0.838  0.1961  0.0872 -0.7633
 2955SOL    HW220085   8.742   3.333   0.958 -0.2574 -2.0178 -0.8201
 2956SOL     OW20086   9.156   3.622   2.733 -0.1600 -0.3882  0.7591
 2956SOL    HW120087   9.095   3.698   2.709  2.0599  0.6453 -1.8096
 2956SOL    HW220088   9.172   3.565   2.652  0.6282 -1.8814  1.9344
 2957SOL     OW20089   0.939   4.194   1.218 -0.2392 -0.2521  0.2677
 2957SOL    HW120090   0.936   4.283   1.262 -0.3716 -0.6327  1.0303
 2957SOL    HW220091   0.984   4.203   1.129 -1.2683  0.7794 -0.1623
 2958SOL     OW20092   4.300   4.908   3.638  0.1795 -0.2768  0.4152
 2958SOL    HW120093   4.258   4.913   3.547  1.3980 -0.7269 -0.1766
 2958SOL    HW220094   4.291   4.815   3.673  0.8966 -0.4376  0.1797
 2959SOL     OW20095   4.880   7.721   1.804  0.0506  0.1602  0.2534
 2959SOL    HW120096   4.831   7.653   1.859 -0.1560  1.2297  1.4111
 2959SOL    HW220097   4.918   7.677   1.723 -0.0863 -1.3348  0.9856
 2960SOL     OW20098   8.649   6.271   4.904 -0.8322 -0.1408  0.1088
 2960SOL    HW120099   8.663   6.173   4.890  3.2718  0.3590  0.3172
 2960SOL    HW220100   8.689   6.321   4.828  0.7737  1.5604  2.0327
 2961SOL     OW20101   0.781   3.755   3.385  0.0536 -0.5933  0.2689
 2961SOL    HW120102   0.803   3.851   3.368 -0.5162 -0.4145  0.5201
 2961SOL    HW220103   0.862   3.698   3.367 -0.0751 -0.2469 -1.4376
 2962SOL     OW20104   0.542   1.467   0.586 -0.0392 -0.6329  0.4032
 2962SOL    HW120105   0.524   1.502   0.678 -0.7496 -1.0132  0.4159
 2962SOL    HW220106   0.634   1.430   0.581 -0.4905 -1.8782  1.3564
 2963SOL     OW20107   4.147   5.990   2.194  0.1517 -0.4487 -0.1043
 2963SOL    HW120108   4.078   6.058   2.172 -0.4145 -0.7921  0.5915
 2963SOL    HW220109   4.131   5.907   2.140 -0.3793 -0.7653  0.5235
 2964SOL     OW20110   8.198   4.272   6.155 -0.0061 -0.4389  0.0811
 2964SOL    HW120111   8.172   4.191   6.205 -0.3021  1.0108  2.3303
 2964SOL    HW220112   8.285   4.256   6.108  1.1197 -1.2844  2.4141
 2965SOL     OW20113   9.457   3.147   3.765  0.4877  0.6021 -0.0948
 2965SOL    HW120114   9.434   3.054   3.794 -0.0270  0.5893 -0.5412
 2965SOL    HW220115   9.373   3.196   3.739  0.7554  1.1842  0.1165
 2966SOL     OW20116   8.246   5.174   2.327 -0.1242 -0.5536  0.9487
 2966SOL    HW120117   8.157   5.130   2.322  0.4695 -1.9467  2.3599
 2966SOL    HW220118   8.234   5.272   2.345 -1.3409 -1.1072  3.3781
 2967SOL     OW20119   4.818   1.026   0.396  0.2429 -0.5956 -0.0857
 2967SOL    HW120120   4.831   0.981   0.484  2.8023  0.9927  0.4039
 2967SOL    HW220121   4.839   0.962   0.322  2.2275 -0.7401  0.5704
 2968SOL     OW20122   2.060   0.863   2.511 -0.1660 -0.1983 -0.0446
 2968SOL    HW120123   1.985   0.891   2.571 -0.4054 -0.8394 -0.0427
 2968SOL    HW220124   2.077   0.935   2.443 -0.4754  0.1480  0.2414
 2969SOL     OW20125   0.345   2.628   5.099  1.0517  0.0431  0.4059
 2969SOL    HW120126   0.347   2.725   5.072 -2.1468  0.0213 -0.1161
 2969SOL    HW220127   0.420   2.610   5.162  2.6500  2.4917 -0.6937
 2970SOL     OW20128   4.501   6.378   1.327  0.0913  0.2335  0.2137
 2970SOL    HW120129   4.505   6.407   1.423 -0.5714  1.1952 -0.0298
 2970SOL    HW220130   4.467   6.284   1.322 -2.7102  1.1362  0.8204
 2971SOL     OW20131   7.095   8.691   2.161  0.1417  0.3326 -0.6312
 2971SOL    HW120132   7.140   8.780   2.173 -1.8587  1.4228 -0.8703
 2971SOL    HW220133   7.048   8.666   2.246  0.0146 -0.1127 -0.8320
 2972SOL     OW20134   2.313   0.916   6.113 -0.2012 -0.0804 -0.5062
 2972SOL    HW120135   2.331   0.954   6.022 -1.3034  0.4123 -0.5274
 2972SOL    HW220136   2.298   0.991   6.178 -1.0037 -0.4527 -0.2585
 2973SOL     OW20137   0.683   6.515   1.444  0.1750 -0.1117  0.5585
 2973SOL    HW120138   0.653   6.604   1.411 -0.7966 -1.2776 -1.8877
 2973SOL    HW220139   0.744   6.526   1.522  0.6860  2.7058 -0.2011
 2974SOL     OW20140   7.823   3.245   4.882 -0.9272  0.1630  0.6562
 2974SOL    HW120141   7.815   3.184   4.803 -2.0628 -0.0396  0.9217
 2974SOL    HW220142   7.858   3.334   4.851  0.9300 -0.6778  0.3077
 2975SOL     OW20143   1.215   0.029   3.642  0.3612  0.2119 -0.2058
 2975SOL    HW120144   1.201   0.060   3.737 -0.2202  0.6208 -0.4173
 2975SOL    HW220145   1.298   0.072   3.605 -1.1103  2.5447 -0.9006
 2976SOL     OW20146   1.982   6.234   0.056 -0.4979 -0.4122  0.0487
 2976SOL    HW120147   1.965   6.184   0.141 -0.3575 -1.6318 -0.6200
 2976SOL    HW220148   1.904   6.292   0.035 -0.3220  0.2892  1.2666
 2977SOL     OW20149   9.729   4.337   0.253  0.5111 -0.0244 -0.0712
 2977SOL    HW120150   9.765   4.329   0.346  0.9226  0.0648 -0.2210
 2977SOL    HW220151   9.666   4.414   0.247 -0.5892 -0.8571  0.4738
 2978SOL     OW20152   8.926   0.215   0.938 -0.6799  0.3793 -0.9426
 2978SOL    HW120153   8.983   0.226   0.856  0.2997  0.6900 -0.2260
 2978SOL    HW220154   8.903   0.305   0.974  0.0972  0.2274 -0.0506
 2979SOL     OW20155   4.565   2.506   0.565  0.1359 -0.3892  0.6014
 2979SOL    HW120156   4.566   2.452   0.481 -0.6780  0.7079 -0.1276
 2979SOL    HW220157   4.640   2.477   0.625  2.1132  0.3359 -1.4802
 2980SOL     OW20158   6.280   7.925   3.471 -0.3770  1.0089  0.0784
 2980SOL    HW120159   6.267   7.833   3.434 -1.4071  0.8448  0.8365
 2980SOL    HW220160   6.372   7.932   3.509 -0.1062  0.4584 -0.4657
 2981SOL     OW20161   8.554   0.151   6.018 -0.5158 -0.4057 -1.0318
 2981SOL    HW120162   8.468   0.157   6.070  1.5629  0.3105  2.4987
 2981SOL    HW220163   8.624   0.108   6.075  1.8363  0.2119 -3.3711
 2982SOL     OW20164   1.327   4.629   1.320  0.5510 -0.2257  0.4134
 2982SOL    HW120165   1.270   4.610   1.240  1.6405 -0.1953 -0.3906
 2982SOL    HW220166   1.336   4.727   1.332 -0.0068 -0.2295  0.8627
 2983SOL     OW20167   4.336   1.742   1.188 -0.1450 -0.0349 -0.2651
 2983SOL    HW120168   4.240   1.752   1.162 -0.7672 -0.0169  1.8761
 2983SOL    HW220169   4.342   1.726   1.287  2.1240  1.1661 -0.1609
 2984SOL     OW20170   0.596   3.702   0.635 -0.0295 -0.9192 -0.2173
 2984SOL    HW120171   0.531   3.731   0.705  0.9379  1.1195 -0.1175
 2984SOL    HW220172   0.652   3.627   0.670 -0.8654 -1.2401  0.4619
 2985SOL     OW20173   3.815   3.470   5.446  0.0949  0.3526  0.8282
 2985SOL    HW120174   3.887   3.531   5.414 -0.3497  0.7854  0.6458
 2985SOL    HW220175   3.737   3.474   5.384 -0.0986 -0.0983  1.0338
 2986SOL     OW20176   3.839   2.932   5.788  0.0389  0.1349 -0.0595
 2986SOL    HW120177   3.915   2.991   5.761 -1.2821  1.2361 -1.5256
 2986SOL    HW220178   3.832   2.855   5.724 -1.1475  1.0125 -1.0173
 2987SOL     OW20179   2.430   7.591   1.792 -0.2912 -0.3228 -0.1323
 2987SOL    HW120180   2.338   7.631   1.796  0.3816  1.1883  0.8942
 2987SOL    HW220181   2.461   7.570   1.884  1.5826  2.0823 -0.1466
 2988SOL     OW20182   4.104   7.940   3.317 -0.0377  0.5822  0.4342
 2988SOL    HW120183   4.162   8.020   3.303 -0.4815  0.9409  0.6499
 2988SOL    HW220184   4.029   7.963   3.380 -1.3521  0.5864 -1.0943
 2989SOL     OW20185   2.683   3.691   4.686 -0.5646  0.0300 -0.2910
 2989SOL    HW120186   2.674   3.783   4.725  0.5076  0.4411 -1.0012
 2989SOL    HW220187   2.645   3.690   4.594  1.3628  0.3300 -1.1192
 2990SOL     OW20188   3.349   3.198   4.087  0.5432  0.6495  0.3670
 2990SOL    HW120189   3.375   3.198   3.990 -1.0979  2.3123 -0.0996
 2990SOL    HW220190   3.255   3.165   4.096  1.5225 -1.9863  1.6941
 2991SOL     OW20191   3.174   8.968   0.214  0.0405  0.1576 -0.5139
 2991SOL    HW120192   3.158   8.902   0.288  1.7939  0.1787 -0.0857
 2991SOL    HW220193   3.208   8.919   0.133 -1.4971  0.1823 -1.1895
 2992SOL     OW20194   7.995   3.049   4.044 -0.8067  0.3051 -0.0785
 2992SOL    HW120195   7.973   2.953   4.053 -1.2751  0.2605 -1.5773
 2992SOL    HW220196   7.924   3.105   4.087 -0.7310 -0.0043  0.4471
 2993SOL     OW20197   5.311   1.737   3.693  0.2162 -0.5101  0.0940
 2993SOL    HW120198   5.397   1.719   3.645  0.7145  0.0711  0.7446
 2993SOL    HW220199   5.319   1.823   3.744 -1.5919  0.8172 -1.7686
 2994SOL     OW20200   0.792   8.417   1.115 -0.3982 -0.1208  0.4076
 2994SOL    HW120201   0.778   8.350   1.187 -1.8947  1.2514  1.4335
 2994SOL    HW220202   0.721   8.487   1.120  0.5722  1.0267 -1.2183
 2995SOL     OW20203   0.942   0.595   3.649  0.0141 -0.5424 -0.0214
 2995SOL    HW120204   0.856   0.613   3.601  0.4930  1.8219 -0.0234
 2995SOL    HW220205   0.958   0.666   3.717  2.1708 -0.7336 -0.3075
 2996SOL     OW20206   7.637   4.288   0.775 -0.1678 -0.0380 -0.2162
 2996SOL    HW120207   7.690   4.357   0.825  0.3214 -0.2352 -0.4587
 2996SOL    HW220208   7.570   4.333   0.716  0.2617  0.2370 -0.4984
 2997SOL     OW20209   8.298   7.241   3.421  0.0066  0.4130  0.7172
 2997SOL    HW120210   8.224   7.305   3.403 -0.5829 -0.3825  0.2522
 2997SOL    HW220211   8.270   7.176   3.492 -1.2210 -2.1977 -1.9974
 2998SOL     OW20212   0.387   2.579   0.491 -0.3190  0.1658 -0.0036
 2998SOL    HW120213   0.334   2.547   0.412 -1.0125  0.4851  0.3277
 2998SOL    HW220214   0.326   2.625   0.555  0.2264 -0.1823  0.7714
 2999SOL     OW20215   0.924   9.396   4.328  0.0352 -0.3192 -0.8204
 2999SOL    HW120216   0.961   9.453   4.401  0.3383 -0.4145 -0.8951
 2999SOL    HW220217   0.865   9.451   4.269 -1.9616 -0.7552  0.7498
 3000SOL     OW20218   1.287   5.228   1.525  0.4375  0.2160 -0.3802
 3000SOL    HW120219   1.282   5.231   1.625  0.5440  1.1118 -0.3976
 3000SOL    HW220220   1.210   5.279   1.486  1.0293  0.8375 -0.7445
 3001SOL     OW20221   9.937   0.525   5.750  0.3329  0.7329  0.0501
 3001SOL    HW120222   9.873   0.559   5.681  0.6614 -0.7570 -1.0144
 3001SOL    HW220223   9.904   0.437   5.786  1.6889  0.0390 -0.3843
 3002SOL     OW20224   9.995   7.414   1.881  0.2778  0.6095  0.0479
 3002SOL    HW120225  10.051   7.332   1.865 -1.4746 -0.3716 -1.2569
 3002SOL    HW220226  10.053   7.488   1.914  2.0010 -0.9805  0.6540
 3003SOL     OW20227   2.476   9.811   5.776  0.8797  0.0158  0.1812
 3003SOL    HW120228   2.400   9.873   5.754  0.1256 -0.6646  0.8504
 3003SOL    HW220229   2.559   9.865   5.793  0.6596  0.7400 -0.9476
 3004SOL     OW20230   1.098   9.289   5.175  0.1946  0.1962 -0.5495
 3004SOL    HW120231   1.040   9.310   5.254  0.8451  2.0516 -0.5447
 3004SOL    HW220232   1.179   9.238   5.205 -0.7806 -1.2834 -0.3805
 3005SOL     OW20233   6.166   1.205   5.741  0.5049 -0.0037  0.6500
 3005SOL    HW120234   6.228   1.235   5.813  1.1321  0.3717 -0.0400
 3005SOL    HW220235   6.119   1.121   5.770  2.2448 -0.9883  0.6909
 3006SOL     OW20236   2.193   2.296   5.266  0.2487  0.3142  0.5048
 3006SOL    HW120237   2.112   2.290   5.326  0.5669 -0.0455  0.9020
 3006SOL    HW220238   2.163   2.305   5.171 -0.2643  1.8749  0.8033
 3007SOL     OW20239   9.392   9.243   4.946 -0.4682 -0.3868  0.5214
 3007SOL    HW120240   9.311   9.298   4.927  0.2321  1.1004  1.7210
 3007SOL    HW220241   9.429   9.267   5.036  2.2870  0.1914 -0.7078
 3008SOL     OW20242   8.008   3.491   2.562  0.3118 -0.2388 -0.0222
 3008SOL    HW120243   7.926   3.435   2.552 -0.1546  0.1559  1.4220
 3008SOL    HW220244   8.055   3.466   2.646  0.7143  0.7389  0.0500
 3009SOL     OW20245   9.919   6.276   1.308 -0.2088  0.1545  0.4678
 3009SOL    HW120246   9.942   6.229   1.394  1.4179  0.4632  0.2232
 3009SOL    HW220247   9.959   6.226   1.231  1.5025  1.8812  0.2008
 3010SOL     OW20248   8.596   9.870   2.884 -0.1345  0.1584 -0.4683
 3010SOL    HW120249   8.528   9.899   2.817  0.3660  0.6347 -0.7826
 3010SOL    HW220250   8.562   9.885   2.976 -0.2155  0.9784 -0.6256
 3011SOL     OW20251   2.664   5.369   1.298 -0.1229  0.1133  0.6764
 3011SOL    HW120252   2.618   5.293   1.345 -1.3712  0.7009  0.4057
 3011SOL    HW220253   2.643   5.366   1.201  0.3619  0.4252  0.5620
 3012SOL     OW20254   0.472   1.232   6.677  0.2801 -0.0662  0.4726
 3012SOL    HW120255   0.529   1.246   6.597 -1.9410  0.5294 -1.0469
 3012SOL    HW220256   0.528   1.241   6.760  2.2001  1.3327 -0.9370
 3013SOL     OW20257   4.230   0.167   5.243 -0.3121 -0.0599 -0.5301
 3013SOL    HW120258   4.303   0.110   5.280  1.3421  1.1046 -1.8863
 3013SOL    HW220259   4.236   0.259   5.282 -1.2936 -0.0592 -0.3629
 3014SOL     OW20260   9.180   8.824   5.409 -0.2283 -0.4587  0.5223
 3014SOL    HW120261   9.125   8.874   5.477 -0.0338 -1.0991  1.1572
 3014SOL    HW220262   9.183   8.727   5.433 -0.2330 -0.7091 -0.4615
 3015SOL     OW20263   8.998   3.019   0.102  0.0248  0.1638  0.1299
 3015SOL    HW120264   8.935   3.011   0.025  0.1629 -0.1770  0.0517
 3015SOL    HW220265   9.066   2.946   0.097 -0.0386  0.0695  0.6434
 3016SOL     OW20266   0.671   2.839   1.946 -0.6492 -0.4194 -0.7695
 3016SOL    HW120267   0.717   2.814   1.861  0.5888 -1.6952  0.2440
 3016SOL    HW220268   0.731   2.895   2.003 -0.5418 -1.5632  0.2877
 3017SOL     OW20269   1.154   4.311   0.365  0.0205 -0.3528  0.2867
 3017SOL    HW120270   1.122   4.404   0.386  0.9704  0.4916 -1.8489
 3017SOL    HW220271   1.087   4.265   0.306  1.5461  0.5776 -2.2556
 3018SOL     OW20272   0.074   3.256   2.424 -0.1105  0.5972 -0.0707
 3018SOL    HW120273   0.098   3.337   2.478  0.3069  1.8491 -2.0704
 3018SOL    HW220274   0.033   3.187   2.484  2.5862  0.9258  2.3057
 3019SOL     OW20275   5.685   4.191   1.302  1.3267 -0.5493  0.1702
 3019SOL    HW120276   5.719   4.146   1.384 -0.5310 -2.5446 -0.0952
 3019SOL    HW220277   5.660   4.286   1.323  0.7634 -1.0748  1.9518
 3020SOL     OW20278   4.596   1.814   6.360  0.0562 -0.7876 -0.2962
 3020SOL    HW120279   4.515   1.789   6.413 -0.5709  1.3556 -0.2051
 3020SOL    HW220280   4.678   1.782   6.408 -0.6373 -1.3002  0.5670
 3021SOL     OW20281   2.048   6.568   1.482  0.1006  0.2521  0.4705
 3021SOL    HW120282   2.119   6.532   1.422 -0.6218  0.1230 -0.3040
 3021SOL    HW220283   1.973   6.503   1.489  0.0873  0.3578  1.3444
 3022SOL     OW20284   6.071   1.165   0.712  0.3355  0.8090  1.1810
 3022SOL    HW120285   5.993   1.112   0.744 -0.1681  0.9180  0.1360
 3022SOL    HW220286   6.115   1.117   0.636 -0.2984  2.0472  0.0406
 3023SOL     OW20287   4.789   2.675   3.391 -0.6107  0.1004 -0.2175
 3023SOL    HW120288   4.726   2.615   3.440 -1.0446  1.5383  1.0287
 3023SOL    HW220289   4.862   2.704   3.453  1.0133 -1.1166 -1.4962
 3024SOL     OW20290   1.998   4.712   0.286  0.2672 -0.2852 -0.5359
 3024SOL    HW120291   2.058   4.783   0.324 -0.8269  0.5203 -0.2988
 3024SOL    HW220292   1.954   4.746   0.203  2.1964 -1.8297 -2.2486
 3025SOL     OW20293   0.559   4.993   5.619  0.1277  0.3222  0.1229
 3025SOL    HW120294   0.506   5.059   5.671 -0.5042 -1.3897  1.7342
 3025SOL    HW220295   0.646   4.976   5.665 -1.1068 -2.4089  1.6349
 3026SOL     OW20296   0.356   3.382   5.737  0.4104 -0.2174 -0.0811
 3026SOL    HW120297   0.394   3.298   5.777  0.8944  0.3382  0.6279
 3026SOL    HW220298   0.352   3.453   5.807 -1.8831 -0.2474 -0.1718
 3027SOL     OW20299   6.157   0.809   2.351  0.6194  0.3298  0.3458
 3027SOL    HW120300   6.226   0.764   2.293  1.1497  0.6109  0.7540
 3027SOL    HW220301   6.068   0.802   2.308  0.5168 -1.9517  0.8175
 3028SOL     OW20302   3.577   0.158   1.165 -0.2745 -0.2919  0.0993
 3028SOL    HW120303   3.554   0.251   1.194 -0.3604 -0.4606  0.5786
 3028SOL    HW220304   3.652   0.123   1.221  0.2998 -0.2200 -0.6107
 3029SOL     OW20305   9.052   2.830   3.920 -0.1037 -0.0538 -0.0934
 3029SOL    HW120306   9.051   2.749   3.978  0.8674  0.1925  0.2732
 3029SOL    HW220307   9.127   2.890   3.948 -0.5166  0.7391 -0.6752
 3030SOL     OW20308   4.142   2.009   5.531 -0.1303  0.4911 -0.6376
 3030SOL    HW120309   4.203   1.944   5.487  1.9217  0.2148  2.4750
 3030SOL    HW220310   4.145   2.096   5.482  1.3680 -0.0655 -1.5626
 3031SOL     OW20311   6.767   9.393   2.755  0.4304 -0.4976 -0.2588
 3031SOL    HW120312   6.679   9.398   2.802  0.3650  1.1955 -0.5505
 3031SOL    HW220313   6.840   9.424   2.816  0.3944  1.3287 -1.0972
 3032SOL     OW20314   0.866   9.943   3.843  0.4128  0.1780  0.0394
 3032SOL    HW120315   0.908   9.861   3.882  1.1747  0.5515  0.0169
 3032SOL    HW220316   0.883   9.946   3.744  1.0301  0.7376  0.1577
 3033SOL     OW20317   8.394   2.204   1.767 -0.7366  0.2903  0.0986
 3033SOL    HW120318   8.461   2.131   1.775  0.1051  0.8564 -1.4632
 3033SOL    HW220319   8.302   2.165   1.772 -0.2963 -0.7268  0.4354
 3034SOL     OW20320   0.539   7.989   5.607  0.3681 -0.0271  0.1418
 3034SOL    HW120321   0.506   7.905   5.562  3.3576 -1.4947  0.5760
 3034SOL    HW220322   0.566   8.055   5.537  0.8330 -0.5945 -0.2193
 3035SOL     OW20323   8.524   6.906   1.341  0.3081 -0.1192  0.1688
 3035SOL    HW120324   8.471   6.943   1.264 -0.9740  2.5419  2.2412
 3035SOL    HW220325   8.621   6.918   1.323  0.0588 -0.2330 -1.3614
 3036SOL     OW20326   2.018   2.985   2.267 -0.0078 -0.4451 -0.8240
 3036SOL    HW120327   2.041   2.889   2.251 -0.6614 -0.7517  0.0248
 3036SOL    HW220328   2.102   3.040   2.264  0.3238 -0.9894 -1.6530
 3037SOL     OW20329   5.756   9.787   4.164 -0.3841  1.0056  0.5344
 3037SOL    HW120330   5.745   9.833   4.253 -0.8921  0.7271  0.6199
 3037SOL    HW220331   5.669   9.745   4.138 -0.3022  1.2986 -0.2166
 3038SOL     OW20332   9.261   4.594   5.901 -0.3519  0.0573 -0.3104
 3038SOL    HW120333   9.261   4.614   5.803  0.6812  0.1009 -0.3042
 3038SOL    HW220334   9.338   4.641   5.944  0.1443 -1.2594  0.2595
 3039SOL     OW20335   8.468   1.136   2.180  0.0818 -0.1931  0.4123
 3039SOL    HW120336   8.549   1.089   2.144 -0.6985 -1.1051 -0.2118
 3039SOL    HW220337   8.464   1.125   2.279 -0.3772 -1.9559  0.2192
 3040SOL     OW20338   8.148   1.885   1.561 -0.7756  0.1610  0.2662
 3040SOL    HW120339   8.177   1.843   1.475  0.4117  0.1644  0.6493
 3040SOL    HW220340   8.202   1.846   1.636 -2.0763 -0.1289  1.0621
 3041SOL     OW20341   7.590   5.476   1.215 -0.2774  0.0195 -0.0286
 3041SOL    HW120342   7.496   5.508   1.228 -0.4898 -0.4609 -0.3391
 3041SOL    HW220343   7.654   5.549   1.239 -0.7429  0.6079 -0.5479
 3042SOL     OW20344   5.106   1.098   3.500  0.0487 -0.1516  0.0919
 3042SOL    HW120345   5.191   1.067   3.544 -0.5481 -3.9517 -1.1996
 3042SOL    HW220346   5.029   1.047   3.539 -1.0023 -0.3480 -2.1801
 3043SOL     OW20347   0.144   9.502   3.327 -0.0895  0.2111 -0.3501
 3043SOL    HW120348   0.166   9.599   3.319 -0.6043  0.3173 -0.5662
 3043SOL    HW220349   0.129   9.479   3.423 -3.3933  1.1573 -0.5536
 3044SOL     OW20350   1.621   2.531   3.213  0.0046 -0.1652  0.1586
 3044SOL    HW120351   1.540   2.550   3.269  0.0084  0.2498  0.0231
 3044SOL    HW220352   1.700   2.521   3.273 -0.0197  0.1264  0.2416
 3045SOL     OW20353   0.968   4.491   5.734 -0.1418  0.4978 -0.0322
 3045SOL    HW120354   1.006   4.578   5.764 -1.2970  1.1616 -0.4778
 3045SOL    HW220355   1.005   4.417   5.791  0.3637  1.3426  0.7445
 3046SOL     OW20356   1.625   6.878   0.013 -0.1170 -0.5572 -0.2964
 3046SOL    HW120357   1.600   6.790   0.053 -0.5208 -0.6012 -0.6323
 3046SOL    HW220358   1.671   6.934   0.081 -0.5177 -0.7495  0.1378
 3047SOL     OW20359   2.406   4.984   3.581 -0.1902 -0.6179  0.9826
 3047SOL    HW120360   2.504   4.985   3.560 -0.5571 -1.3990 -0.8809
 3047SOL    HW220361   2.364   4.902   3.541 -1.8767  0.4667  0.4808
 3048SOL     OW20362   9.310   6.749   5.388 -0.1165  0.2433 -0.1386
 3048SOL    HW120363   9.322   6.687   5.465  2.2770 -0.9933 -1.4261
 3048SOL    HW220364   9.221   6.733   5.346 -0.0008 -1.5640  0.2397
 3049SOL     OW20365   0.699   7.633   6.270  0.1736  0.0250 -0.0921
 3049SOL    HW120366   0.771   7.578   6.228 -0.7019 -0.6993 -0.6320
 3049SOL    HW220367   0.683   7.601   6.363  1.1211  0.7208  0.3208
 3050SOL     OW20368   4.278   3.326   1.410 -0.1085 -0.5469  0.3812
 3050SOL    HW120369   4.272   3.269   1.492  0.2976 -0.6953  0.3074
 3050SOL    HW220370   4.332   3.278   1.341  0.5657  0.0937  0.4559
 3051SOL     OW20371   3.392   6.167   2.278 -0.2642  0.1802 -0.0069
 3051SOL    HW120372   3.430   6.125   2.360  0.2657 -0.9432 -0.8023
 3051SOL    HW220373   3.293   6.170   2.284 -0.2162  0.2676  0.7467
 3052SOL     OW20374   2.065   0.839   1.504  0.2236 -0.0022  0.5974
 3052SOL    HW120375   1.991   0.787   1.548  0.5621 -1.9492 -1.0512
 3052SOL    HW220376   2.036   0.934   1.492 -1.8118 -0.6049  0.4892
 3053SOL     OW20377   2.968   5.380   1.650 -0.1159  0.0208  0.0897
 3053SOL    HW120378   2.897   5.415   1.589 -1.1922 -2.9743 -0.4646
 3053SOL    HW220379   3.044   5.344   1.595  0.3901  0.2891  0.6067
 3054SOL     OW20380   5.934   9.809   1.683 -0.5431  0.1521 -0.7507
 3054SOL    HW120381   5.999   9.785   1.756 -0.2524  0.8440 -0.7741
 3054SOL    HW220382   5.888   9.726   1.651  0.4894 -0.3926 -0.8777
 3055SOL     OW20383   7.995   9.992   4.072  0.2362 -0.0237 -0.1549
 3055SOL    HW120384   7.924   9.932   4.035 -1.4525  1.9628 -0.2469
 3055SOL    HW220385   7.982  10.003   4.170  1.0838 -0.4907  0.0174
 3056SOL     OW20386   6.890   6.925   5.494 -0.4861  0.9207 -0.1963
 3056SOL    HW120387   6.799   6.948   5.461 -0.8354 -0.6117 -0.3035
 3056SOL    HW220388   6.914   6.986   5.570 -2.2403  0.2996  0.8811
 3057SOL     OW20389   3.100   4.214   4.118 -0.3668 -0.2372  0.3299
 3057SOL    HW120390   3.171   4.228   4.186  0.0131 -0.8380  0.0635
 3057SOL    HW220391   3.125   4.137   4.059  1.0819  2.4695 -2.7808
 3058SOL     OW20392   7.394   2.823   4.609 -0.3693  0.2370  0.0768
 3058SOL    HW120393   7.348   2.788   4.527 -0.6659  2.8274 -0.8990
 3058SOL    HW220394   7.325   2.854   4.674 -0.1137 -1.2871  1.0977
 3059SOL     OW20395   9.924   9.931   4.544 -0.2457  0.6717  0.4396
 3059SOL    HW120396   9.868   9.931   4.627  1.0498  0.3146  1.3224
 3059SOL    HW220397   9.900   9.852   4.487  0.1979 -0.1553  1.3895
 3060SOL     OW20398   6.128   8.445   4.188  0.1375  0.5633 -0.0956
 3060SOL    HW120399   6.170   8.358   4.213 -0.5690  0.8420  2.1818
 3060SOL    HW220400   6.067   8.432   4.110  0.7672 -0.7625 -0.3828
 3061SOL     OW20401   2.706   4.946   3.513 -0.1994 -0.0231  0.5025
 3061SOL    HW120402   2.800   4.952   3.479 -0.4036  1.0723  0.1218
 3061SOL    HW220403   2.693   5.012   3.586 -1.5014  1.9341 -1.4364
 3062SOL     OW20404   7.372   6.577   5.224 -0.0739 -0.1428 -0.0287
 3062SOL    HW120405   7.314   6.573   5.142 -0.5088  0.7031  0.2300
 3062SOL    HW220406   7.315   6.594   5.304  0.4528 -0.0134  0.3212
 3063SOL     OW20407   9.307   4.561   4.714  0.2132  0.2069 -0.7000
 3063SOL    HW120408   9.381   4.615   4.754  0.6224  0.1802 -1.3934
 3063SOL    HW220409   9.341   4.515   4.631  0.1112 -1.7692  0.3190
 3064SOL     OW20410   8.975   7.490   5.506 -0.4809  0.0713 -0.0323
 3064SOL    HW120411   8.978   7.570   5.566 -0.1626  0.1121 -0.1028
 3064SOL    HW220412   8.933   7.413   5.555 -2.0609  0.6712 -0.4161
 3065SOL     OW20413   2.077   8.313   5.815  0.0069  0.2962 -0.0179
 3065SOL    HW120414   2.082   8.346   5.720  0.4949 -0.2764 -0.1913
 3065SOL    HW220415   2.162   8.267   5.839 -0.7182 -0.9613  0.1761
 3066SOL     OW20416   3.380   8.857   4.340 -0.1786 -0.2593 -0.1374
 3066SOL    HW120417   3.406   8.870   4.244 -0.0021  0.3792 -0.0065
 3066SOL    HW220418   3.351   8.762   4.354 -1.4978 -0.0118 -1.1149
 3067SOL     OW20419   0.215   7.128   3.426 -0.7052 -0.4711  0.2622
 3067SOL    HW120420   0.287   7.146   3.359  0.6318 -3.4493  0.8016
 3067SOL    HW220421   0.148   7.064   3.386 -0.4347 -1.4844  1.4051
 3068SOL     OW20422   1.384   5.052   2.897 -0.0177 -0.1729  0.2793
 3068SOL    HW120423   1.483   5.062   2.901  0.1684 -1.4523 -0.6823
 3068SOL    HW220424   1.361   4.969   2.845 -1.6182  1.0239 -0.9676
 3069SOL     OW20425   0.390   4.402   1.249  0.1175 -0.3268  0.5040
 3069SOL    HW120426   0.327   4.330   1.279  0.1727 -1.1508 -1.2645
 3069SOL    HW220427   0.342   4.463   1.185  1.3616 -1.5661 -1.6738
 3070SOL     OW20428   3.295   5.788   0.272  0.7700  0.0349 -0.4005
 3070SOL    HW120429   3.222   5.796   0.339  0.8389  0.2092 -0.3455
 3070SOL    HW220430   3.313   5.878   0.232  0.0734 -0.2372 -1.3468
 3071SOL     OW20431   8.257   3.108   6.277  0.9479 -0.1084  0.1391
 3071SOL    HW120432   8.307   3.133   6.360 -0.4408 -1.7854  1.5300
 3071SOL    HW220433   8.315   3.051   6.219  0.0300 -3.9106  2.7813
 3072SOL     OW20434   2.568   6.211   0.644  0.1103 -0.0817 -0.4131
 3072SOL    HW120435   2.510   6.200   0.564  0.0303 -0.0180 -0.3642
 3072SOL    HW220436   2.590   6.308   0.656 -0.4634 -0.0041  0.0504
 3073SOL     OW20437   1.773   7.514   4.015 -0.4530  0.3090 -0.3007
 3073SOL    HW120438   1.713   7.444   3.977 -1.1089  0.6131  0.1630
 3073SOL    HW220439   1.868   7.485   4.005 -0.7307 -0.8302  0.2473
 3074SOL     OW20440   8.354   9.632   2.436  0.0862  0.3744 -0.4861
 3074SOL    HW120441   8.267   9.584   2.442 -0.3454  1.1706 -0.3878
 3074SOL    HW220442   8.362   9.676   2.346 -0.1998  1.4263 -0.0013
 3075SOL     OW20443   9.927   7.717   6.238  0.4490  0.5763  0.1723
 3075SOL    HW120444   9.986   7.708   6.158 -0.0565  1.3244 -0.2928
 3075SOL    HW220445   9.855   7.648   6.235  0.1043  0.9560 -0.3038
 3076SOL     OW20446   5.226   5.461   1.191 -0.2035 -0.3867 -0.3144
 3076SOL    HW120447   5.220   5.362   1.173 -0.6719 -0.2178 -1.1196
 3076SOL    HW220448   5.198   5.511   1.109  1.0417  0.4252 -0.2570
 3077SOL     OW20449   2.915   6.503   2.091  0.0876  0.3143  0.0586
 3077SOL    HW120450   2.872   6.592   2.078 -0.3608  0.1868  0.6699
 3077SOL    HW220451   2.852   6.431   2.061  0.8521  0.2478 -1.4327
 3078SOL     OW20452   7.004   3.046   0.528  0.0848 -0.3223 -0.6505
 3078SOL    HW120453   6.943   2.981   0.484 -2.6486  0.6074  1.6224
 3078SOL    HW220454   7.045   3.005   0.609  0.6990 -0.1657 -0.8733
 3079SOL     OW20455   9.712   2.890   2.109  0.2961  0.4486 -0.4524
 3079SOL    HW120456   9.625   2.916   2.149 -0.4821 -0.2609 -1.6466
 3079SOL    HW220457   9.775   2.967   2.113 -0.3238  0.9081  0.5780
 3080SOL     OW20458   2.464   5.345   1.729  0.2828 -0.1443 -0.6209
 3080SOL    HW120459   2.518   5.418   1.685  0.3440 -0.3144 -0.8262
 3080SOL    HW220460   2.367   5.370   1.725  0.4072  0.5661  0.5025
 3081SOL     OW20461   8.731   9.391   1.330 -0.1804  0.2676  0.0143
 3081SOL    HW120462   8.788   9.473   1.321  0.1400  0.2000  1.3746
 3081SOL    HW220463   8.737   9.337   1.247  1.0280  0.7205 -0.1942
 3082SOL     OW20464   2.981   6.364   3.038  0.2440 -0.0531 -0.2991
 3082SOL    HW120465   2.902   6.387   2.980  0.3593 -0.9689 -0.8214
 3082SOL    HW220466   3.012   6.272   3.016 -1.4173 -1.5025  3.1197
 3083SOL     OW20467   1.511   9.813   6.637  0.2806  0.1953 -0.2830
 3083SOL    HW120468   1.456   9.843   6.715 -0.6072  0.7783 -1.1183
 3083SOL    HW220469   1.549   9.722   6.656  0.3327  0.4572  0.9442
 3084SOL     OW20470   0.077   2.622   1.014 -0.4642 -0.2672 -0.6027
 3084SOL    HW120471   0.098   2.668   0.928  2.4369 -1.2541 -0.4651
 3084SOL    HW220472  -0.006   2.567   1.002 -1.5437  1.5987 -1.9855
 3085SOL     OW20473   9.670   9.139   2.302 -0.1837  0.6034 -0.1338
 3085SOL    HW120474   9.626   9.225   2.326  0.4229  1.1079 -0.8105
 3085SOL    HW220475   9.751   9.157   2.245  0.7015 -0.3199  0.7928
 3086SOL     OW20476   5.774   6.350   1.507 -0.1842  0.3739 -0.0807
 3086SOL    HW120477   5.712   6.304   1.571 -0.8325  1.2447 -0.0764
 3086SOL    HW220478   5.867   6.319   1.523 -0.6943 -1.3837 -0.4778
 3087SOL     OW20479   9.699   1.031   2.433  0.2308  0.1393  0.7353
 3087SOL    HW120480   9.776   0.973   2.407  0.3152 -0.2762  1.9191
 3087SOL    HW220481   9.642   0.984   2.500 -0.0699  1.1537  1.2080
 3088SOL     OW20482   9.609   9.130   5.505  0.6843 -1.1075  0.2410
 3088SOL    HW120483   9.518   9.149   5.469  1.0074 -1.3237 -0.7003
 3088SOL    HW220484   9.649   9.215   5.540  1.5448 -0.2330 -2.6487
 3089SOL     OW20485   6.942   5.114   1.678  0.2799 -0.2260  0.2848
 3089SOL    HW120486   6.914   5.201   1.717  0.0220 -0.5105  0.7416
 3089SOL    HW220487   7.029   5.085   1.720 -0.4458 -0.9596  1.3019
 3090SOL     OW20488   9.308   1.476   1.036 -0.1056  0.0243  0.5272
 3090SOL    HW120489   9.406   1.474   1.015  0.2125 -0.5577  1.9346
 3090SOL    HW220490   9.270   1.566   1.016  0.1878 -0.4528 -2.2882
 3091SOL     OW20491   4.213   3.355   2.269 -0.4165  0.5193  0.4046
 3091SOL    HW120492   4.216   3.354   2.369 -2.0667 -0.9490  0.4605
 3091SOL    HW220493   4.306   3.358   2.233  0.1993  0.8316  1.9846
 3092SOL     OW20494   3.925   4.055   6.302  0.1846  1.0260 -0.0737
 3092SOL    HW120495   3.910   4.068   6.400 -2.2091 -1.4851 -0.0454
 3092SOL    HW220496   3.848   4.095   6.252 -0.2847 -0.6171 -0.7010
 3093SOL     OW20497   8.237   1.051   0.405  0.0320  0.5333  0.1859
 3093SOL    HW120498   8.235   1.148   0.381 -2.2111  0.1842 -1.1565
 3093SOL    HW220499   8.222   1.042   0.504  3.8431  1.6750  0.9750
 3094SOL     OW20500   8.420   2.575   1.084  0.3477 -0.6967 -0.3670
 3094SOL    HW120501   8.376   2.547   1.169  1.1245 -1.8356 -0.3329
 3094SOL    HW220502   8.436   2.674   1.087  0.2246 -0.6948  0.7464
 3095SOL     OW20503   5.760   6.535   1.289  0.0415 -0.2928  0.0588
 3095SOL    HW120504   5.860   6.542   1.295  0.0559  0.4877 -1.0112
 3095SOL    HW220505   5.725   6.488   1.371  0.9940  2.1288  1.9151
 3096SOL     OW20506   7.900   8.060   3.695  0.2147  0.4023 -0.1140
 3096SOL    HW120507   7.979   8.100   3.741 -0.0781 -0.3972  1.1183
 3096SOL    HW220508   7.817   8.107   3.725  0.2074  1.1242 -1.2702
 3097SOL     OW20509   8.797   0.870   1.310  0.3695 -0.2975 -0.3284
 3097SOL    HW120510   8.724   0.925   1.268  2.6832  0.3447 -3.7499
 3097SOL    HW220511   8.849   0.927   1.373 -1.4972 -0.5323  1.4841
 3098SOL     OW20512   8.068   5.908   3.793 -0.4399 -0.3561  0.2186
 3098SOL    HW120513   8.026   5.957   3.869 -0.5920  0.4507 -0.3812
 3098SOL    HW220514   8.024   5.935   3.708 -1.5784 -2.6742  0.0219
 3099SOL     OW20515   1.107   9.908   2.561  0.2657 -0.0926  0.5615
 3099SOL    HW120516   1.096   9.954   2.474 -0.6396 -0.8142  0.2860
 3099SOL    HW220517   1.205   9.893   2.579  0.4895  0.7186  0.0308
 3100SOL     OW20518   9.304   2.009   1.821  0.6650  0.2039  0.1955
 3100SOL    HW120519   9.323   1.935   1.757  1.8600  0.5557  0.1221
 3100SOL    HW220520   9.305   2.097   1.773  0.3298  0.3638  0.4737
 3101SOL     OW20521   4.627   5.212   0.439 -0.3187 -0.4267 -0.1252
 3101SOL    HW120522   4.660   5.243   0.528 -1.8648  2.3190 -0.4464
 3101SOL    HW220523   4.700   5.163   0.392  1.1733 -0.1483  1.8287
 3102SOL     OW20524   7.630   0.449   6.239  0.3553  0.1795  0.4240
 3102SOL    HW120525   7.573   0.400   6.173 -0.0870 -1.6937  2.1621
 3102SOL    HW220526   7.719   0.467   6.197  0.1161 -1.0466 -0.6719
 3103SOL     OW20527   0.824   5.869   2.828 -0.5765 -0.0107  0.1296
 3103SOL    HW120528   0.895   5.937   2.848 -0.1891 -0.1587 -0.7550
 3103SOL    HW220529   0.801   5.819   2.912  0.0831  0.3056  0.4988
 3104SOL     OW20530   5.957   1.204   0.264  0.1494 -0.5386  0.3427
 3104SOL    HW120531   5.923   1.282   0.212 -1.5620 -0.9548  0.8040
 3104SOL    HW220532   6.054   1.193   0.247  0.1770  0.9992 -0.6194
 3105SOL     OW20533   7.688   1.325   5.083 -0.4843 -0.3778 -0.1909
 3105SOL    HW120534   7.640   1.322   4.995  1.2801 -1.5921 -1.1301
 3105SOL    HW220535   7.652   1.254   5.143 -0.5348 -0.6320 -0.5230
 3106SOL     OW20536   2.994   5.783   5.710 -0.0031  0.2119  0.0659
 3106SOL    HW120537   3.077   5.757   5.758 -0.3269 -1.2718 -0.1708
 3106SOL    HW220538   3.014   5.859   5.649  0.8563  0.7964  1.0513
 3107SOL     OW20539   6.261   0.622   4.082 -0.1528  0.3047  0.0215
 3107SOL    HW120540   6.309   0.578   4.158 -0.3319  1.6485  0.9280
 3107SOL    HW220541   6.207   0.699   4.117 -1.3342  0.0716 -1.2763
 3108SOL     OW20542   6.211   0.366   3.761 -0.0292 -0.7570  0.1132
 3108SOL    HW120543   6.280   0.397   3.827 -1.7651  0.8348  1.2187
 3108SOL    HW220544   6.200   0.267   3.769  0.0278 -0.6302  1.9806
 3109SOL     OW20545   0.812   0.857   0.327  0.0877 -0.0554 -0.0700
 3109SOL    HW120546   0.752   0.923   0.374 -1.2956 -0.8058 -0.7573
 3109SOL    HW220547   0.907   0.877   0.350 -0.4083  1.2352  0.9495
 3110SOL     OW20548   3.670   7.958   4.568 -0.0571 -0.4258  0.3263
 3110SOL    HW120549   3.637   7.928   4.656 -1.5012 -0.2612 -0.1513
 3110SOL    HW220550   3.638   8.051   4.550  2.2095  0.4669  0.6610
 3111SOL     OW20551   8.673   5.258   3.844 -0.5439  0.3705 -0.3366
 3111SOL    HW120552   8.641   5.306   3.762 -0.8698 -1.5181 -1.3456
 3111SOL    HW220553   8.773   5.253   3.843 -0.3933  2.4806  0.6423
 3112SOL     OW20554   3.306   8.952   2.435 -0.0519 -0.6684 -0.5080
 3112SOL    HW120555   3.323   8.998   2.522  0.4794 -1.1075 -0.3787
 3112SOL    HW220556   3.209   8.960   2.412  0.1795  1.1579 -0.8639
 3113SOL     OW20557   2.784   1.249   1.630  0.2796  0.0211  0.1707
 3113SOL    HW120558   2.771   1.223   1.726  1.2398  0.3196  0.3911
 3113SOL    HW220559   2.720   1.323   1.606 -0.3710 -0.4591  0.4042
 3114SOL     OW20560   1.248   9.131   1.076  0.7826  0.2950  0.6613
 3114SOL    HW120561   1.273   9.094   1.166 -0.9234 -2.1965  0.1690
 3114SOL    HW220562   1.177   9.201   1.087 -0.7345 -1.2885  1.1586
 3115SOL     OW20563   9.848   2.253   5.909 -0.3378  0.5681 -0.2095
 3115SOL    HW120564   9.826   2.342   5.870  1.2651  0.7821 -0.6450
 3115SOL    HW220565   9.905   2.201   5.845 -0.2909 -0.3122  0.5300
 3116SOL     OW20566   9.500   4.149   2.209 -0.7587  0.2353  0.0441
 3116SOL    HW120567   9.401   4.151   2.196 -0.9352 -1.1888  0.9589
 3116SOL    HW220568   9.533   4.055   2.197  0.4849  0.6996 -0.2740
 3117SOL     OW20569   1.931   2.046   6.591 -0.7481 -0.0824  0.2866
 3117SOL    HW120570   1.832   2.042   6.588 -0.8673  1.2019  1.4856
 3117SOL    HW220571   1.962   2.031   6.686  0.1906 -0.3820 -0.0580
 3118SOL     OW20572   7.359   7.337   3.719 -0.0437 -0.3998  0.1748
 3118SOL    HW120573   7.459   7.340   3.708 -0.2246 -0.5903 -1.8367
 3118SOL    HW220574   7.328   7.243   3.717 -0.4745 -0.2379 -1.6348
 3119SOL     OW20575   8.566   6.606   6.023  0.1052  0.2891  0.2455
 3119SOL    HW120576   8.520   6.578   5.939 -0.2942  0.6844  0.3281
 3119SOL    HW220577   8.639   6.542   6.045 -1.5270 -1.3411  1.0637
 3120SOL     OW20578   3.861   6.329   0.561 -0.2205  0.4090  0.1304
 3120SOL    HW120579   3.909   6.284   0.486 -0.1957 -0.5209  0.7007
 3120SOL    HW220580   3.813   6.410   0.526  1.3854  1.1071 -0.5265
 3121SOL     OW20581   5.871   5.620   0.867  0.1029  0.1172 -0.0452
 3121SOL    HW120582   5.880   5.643   0.770  0.9373  0.1271  0.0291
 3121SOL    HW220583   5.798   5.553   0.878  0.2514 -0.1670 -0.7238
 3122SOL     OW20584   5.578   5.117   0.108 -0.1717 -0.4939  0.5618
 3122SOL    HW120585   5.504   5.155   0.052 -0.1942 -1.7917 -0.3053
 3122SOL    HW220586   5.564   5.019   0.120  0.3173 -0.3888  2.1160
 3123SOL     OW20587   9.606   0.067   1.437 -0.0867  0.3538  0.3246
 3123SOL    HW120588   9.556   0.052   1.522  0.8351  1.3777  1.0500
 3123SOL    HW220589   9.588   0.159   1.402 -0.6822 -0.1522 -0.7500
 3124SOL     OW20590   8.369   2.314   0.148  0.7232 -0.1455  0.5622
 3124SOL    HW120591   8.319   2.295   0.064 -0.6184 -0.1367  1.3390
 3124SOL    HW220592   8.467   2.308   0.131  0.4732  0.1110 -1.0589
 3125SOL     OW20593   8.618   6.528   6.609 -0.5041  0.3874  0.3669
 3125SOL    HW120594   8.559   6.466   6.661  0.2513  0.8299  1.7833
 3125SOL    HW220595   8.564   6.572   6.537 -1.4349 -0.6685  0.3916
 3126SOL     OW20596   7.341   9.552   2.650 -0.1254 -0.4919  0.9140
 3126SOL    HW120597   7.325   9.459   2.684 -2.4920  0.3291  2.1497
 3126SOL    HW220598   7.256   9.588   2.610  1.4878  0.1490 -2.0890
 3127SOL     OW20599   8.658   2.867   4.179  0.4099 -0.1994 -0.5324
 3127SOL    HW120600   8.697   2.938   4.120  0.2877 -0.8450 -1.4011
 3127SOL    HW220601   8.598   2.809   4.125  1.5330 -1.7797 -0.1023
 3128SOL     OW20602   8.390   3.326   0.746  0.1659 -0.7627 -0.7405
 3128SOL    HW120603   8.435   3.245   0.784 -0.1901 -0.7557 -0.3042
 3128SOL    HW220604   8.341   3.301   0.663  0.1616 -0.9704 -0.6769
 3129SOL     OW20605   2.223   0.558   4.062 -0.6084  0.0867  1.0496
 3129SOL    HW120606   2.206   0.502   4.143  0.4848 -0.3662  0.9766
 3129SOL    HW220607   2.312   0.534   4.023 -1.0900  0.3816 -0.2315
 3130SOL     OW20608   2.434   7.817   3.167  0.2639 -0.7138 -0.3699
 3130SOL    HW120609   2.451   7.905   3.211 -0.1254 -1.4078  1.1991
 3130SOL    HW220610   2.516   7.787   3.119  0.4199  0.4632 -0.8497
 3131SOL     OW20611   0.110   7.456   3.180  0.3294 -0.1452  0.0486
 3131SOL    HW120612   0.013   7.433   3.180 -0.0922  1.5485 -1.2092
 3131SOL    HW220613   0.133   7.507   3.263 -0.0499  0.2387 -0.0840
 3132SOL     OW20614   1.595   9.524   3.866 -0.3455  0.4688  0.2729
 3132SOL    HW120615   1.687   9.528   3.826 -0.8061 -0.7855 -0.9396
 3132SOL    HW220616   1.602   9.529   3.966  0.9132  2.1130  0.1141
 3133SOL     OW20617   6.451   1.660   5.653  0.0436 -1.0133 -0.1312
 3133SOL    HW120618   6.488   1.724   5.585 -1.5604  0.4180  0.3034
 3133SOL    HW220619   6.351   1.663   5.650 -0.0557 -1.0913  2.1330
 3134SOL     OW20620   4.180   1.170   1.715 -0.4182 -0.2754 -0.1869
 3134SOL    HW120621   4.180   1.191   1.617 -0.1080 -1.8679 -0.5435
 3134SOL    HW220622   4.123   1.090   1.732  0.6194 -0.8289  0.7498
 3135SOL     OW20623   1.486   2.188   1.859 -0.4514  0.0671 -0.0164
 3135SOL    HW120624   1.513   2.106   1.909  1.1087 -0.0950 -1.0794
 3135SOL    HW220625   1.476   2.166   1.762 -0.8311  0.9565 -0.1854
 3136SOL     OW20626   0.935   7.343   4.301 -0.6177 -0.5852  0.3130
 3136SOL    HW120627   0.899   7.431   4.271  0.1711  0.3724  2.1053
 3136SOL    HW220628   0.861   7.276   4.303 -0.6999 -0.6811 -3.6238
 3137SOL     OW20629   0.582   8.612   4.016  0.3546  0.3540 -0.1911
 3137SOL    HW120630   0.500   8.598   4.072  0.7717 -2.3559 -0.1536
 3137SOL    HW220631   0.555   8.639   3.924 -0.7233 -2.2383 -0.6867
 3138SOL     OW20632   1.292   0.623   5.330  0.2473  0.3711 -0.1980
 3138SOL    HW120633   1.195   0.634   5.351  0.6294 -0.5927  2.2860
 3138SOL    HW220634   1.316   0.679   5.251 -2.6412 -0.5411 -1.7668
 3139SOL     OW20635   0.562   7.566   0.756  0.1238  0.2930  0.5444
 3139SOL    HW120636   0.464   7.552   0.775  0.0661 -0.2349 -0.1264
 3139SOL    HW220637   0.615   7.547   0.838 -0.5274  2.9815  1.6566
 3140SOL     OW20638   0.735   5.375   5.378  0.3826  0.4245 -0.5203
 3140SOL    HW120639   0.681   5.395   5.460  0.3611  1.6923 -0.8259
 3140SOL    HW220640   0.829   5.352   5.404  0.1656  0.0305 -0.0917
 3141SOL     OW20641   0.605   5.724   5.423  0.0641 -0.0120 -0.0012
 3141SOL    HW120642   0.669   5.664   5.471 -0.4524 -0.8341 -0.3315
 3141SOL    HW220643   0.524   5.672   5.395 -0.4579  0.8695 -0.1643
 3142SOL     OW20644   7.655   0.887   0.541  0.2783  0.0739 -0.1060
 3142SOL    HW120645   7.716   0.904   0.463 -0.4175 -1.0708 -0.9065
 3142SOL    HW220646   7.622   0.974   0.577 -0.1532  0.5661 -1.6849
 3143SOL     OW20647   9.106   6.432   5.554  0.1130  0.5156 -0.4412
 3143SOL    HW120648   9.021   6.482   5.565 -0.9937 -1.1473 -1.2494
 3143SOL    HW220649   9.108   6.354   5.617  0.5406 -0.0985 -1.2064
 3144SOL     OW20650   1.660   5.558   3.926  0.1667  0.3897  0.2260
 3144SOL    HW120651   1.649   5.657   3.915  0.4830  0.3769 -0.2190
 3144SOL    HW220652   1.754   5.532   3.902 -0.0209 -0.0713 -0.0198
 3145SOL     OW20653   8.176   0.072   0.643  0.0574  0.0468  0.0469
 3145SOL    HW120654   8.248   0.051   0.710 -0.1331  0.2732  0.3234
 3145SOL    HW220655   8.178   0.003   0.570 -1.7616 -2.0635  1.8924
 3146SOL     OW20656   2.196   0.314   5.116 -0.1764 -0.0511 -0.0805
 3146SOL    HW120657   2.148   0.258   5.184 -1.4164  1.0171 -0.0453
 3146SOL    HW220658   2.206   0.407   5.151  0.4141  0.1594 -0.7985
 3147SOL     OW20659   6.790   9.413   2.269 -0.5703  1.2765  0.2588
 3147SOL    HW120660   6.824   9.343   2.207 -1.0660  1.0392  0.2597
 3147SOL    HW220661   6.837   9.406   2.357 -0.4346  1.1156  0.1724
 3148SOL     OW20662   7.643   6.170   6.120  0.1689  0.1114  0.4409
 3148SOL    HW120663   7.634   6.269   6.112  1.1708  0.0742 -1.2448
 3148SOL    HW220664   7.585   6.126   6.051  0.8088 -0.4548  0.2657
 3149SOL     OW20665   0.433   8.218   1.289 -0.1274  0.6890  0.2117
 3149SOL    HW120666   0.440   8.305   1.337 -0.9284  0.3977  0.8685
 3149SOL    HW220667   0.523   8.192   1.253  0.5111  0.8449  1.6669
 3150SOL     OW20668   1.137   8.840   2.722 -0.3027 -0.1229  0.2602
 3150SOL    HW120669   1.226   8.795   2.728  0.0027  0.4233 -0.0709
 3150SOL    HW220670   1.143   8.931   2.764 -0.5799  0.0967 -0.1724
 3151SOL     OW20671   4.110   5.337   5.549  0.0611  0.2143 -0.6570
 3151SOL    HW120672   4.125   5.434   5.531  1.5211 -0.0468 -0.9906
 3151SOL    HW220673   4.111   5.321   5.647  0.2012  0.4960 -0.6102
 3152SOL     OW20674   8.492   8.904   4.534 -0.0287  0.3967 -0.3979
 3152SOL    HW120675   8.439   8.937   4.612 -0.1672 -0.2558 -0.2142
 3152SOL    HW220676   8.561   8.838   4.565  0.8676  1.2012 -0.6403
 3153SOL     OW20677   1.783   4.044   2.785  0.5814 -0.0655  0.6055
 3153SOL    HW120678   1.826   4.105   2.718 -1.6562  1.7146  0.6960
 3153SOL    HW220679   1.793   3.949   2.756  1.7200  0.5297 -1.0049
 3154SOL     OW20680   2.104   8.280   6.716 -0.6140  0.6098 -0.2092
 3154SOL    HW120681   2.087   8.183   6.700  1.0062  0.1787  0.5327
 3154SOL    HW220682   2.158   8.291   6.799 -1.1160  2.1836 -0.0722
 3155SOL     OW20683   5.765   0.907   5.072  0.0070  0.4723  0.2255
 3155SOL    HW120684   5.734   0.857   4.991  1.0959 -0.7420  0.5508
 3155SOL    HW220685   5.769   0.845   5.151  4.0439  0.3621  0.0151
 3156SOL     OW20686   8.464   5.607   5.013  0.0804  0.0513 -0.2481
 3156SOL    HW120687   8.533   5.613   5.086  0.8503 -0.6909 -0.9123
 3156SOL    HW220688   8.379   5.648   5.045  0.3865 -0.3389  1.1119
 3157SOL     OW20689   4.538   8.902   4.051  0.2698  0.0675  0.1968
 3157SOL    HW120690   4.591   8.849   3.985  0.3218 -0.8875  0.9928
 3157SOL    HW220691   4.468   8.954   4.003  0.3276 -0.5869 -0.6141
 3158SOL     OW20692   6.822   1.555   0.082  0.6872  0.0269  0.1879
 3158SOL    HW120693   6.850   1.515  -0.006  1.6147  0.0684  0.4528
 3158SOL    HW220694   6.781   1.644   0.066  0.3447 -0.2065 -0.2531
 3159SOL     OW20695   5.053   8.128   2.978  0.3541  0.6876 -0.2178
 3159SOL    HW120696   5.041   8.031   2.956  1.1133  0.2795  1.1637
 3159SOL    HW220697   4.988   8.154   3.049  0.2397  1.1741 -0.4949
 3160SOL     OW20698   8.645   8.626   4.250 -0.0961  0.2809 -0.3643
 3160SOL    HW120699   8.576   8.698   4.248  1.5880  1.9870  0.7063
 3160SOL    HW220700   8.630   8.562   4.175 -2.1180  1.2763 -0.8276
 3161SOL     OW20701   1.806   0.946   2.040 -0.2956  0.0905  0.1359
 3161SOL    HW120702   1.886   0.996   2.075 -1.0852  2.0510 -0.7850
 3161SOL    HW220703   1.821   0.848   2.052  2.0755  0.4378  0.3639
 3162SOL     OW20704   7.180   0.220   2.977  0.4155 -0.1671  0.5025
 3162SOL    HW120705   7.229   0.137   2.951  0.8429 -0.2905  1.6679
 3162SOL    HW220706   7.236   0.300   2.957  0.7293 -0.2596  1.0012
 3163SOL     OW20707   7.704   4.469   5.659 -0.5183  0.3264 -0.2697
 3163SOL    HW120708   7.775   4.461   5.589 -0.5792 -3.1578 -0.0161
 3163SOL    HW220709   7.736   4.428   5.744 -2.6477 -1.0032 -0.0575
 3164SOL     OW20710   4.316   7.511   3.890 -0.4924 -0.0342 -0.5564
 3164SOL    HW120711   4.259   7.505   3.972  1.5075  0.5379  0.9522
 3164SOL    HW220712   4.394   7.572   3.909 -0.2132  0.4290 -3.0347
 3165SOL     OW20713   8.078   2.973   1.607 -0.0109  0.5079  0.7853
 3165SOL    HW120714   8.020   3.053   1.626 -0.9446 -0.2900  1.3630
 3165SOL    HW220715   8.019   2.894   1.588  0.9082  0.2225 -0.9312
 3166SOL     OW20716   5.779   8.403   2.649  0.4907 -0.3302 -0.3495
 3166SOL    HW120717   5.859   8.463   2.658  1.0613 -1.4859  3.0123
 3166SOL    HW220718   5.809   8.310   2.628 -0.0594 -0.5096 -0.3545
 3167SOL     OW20719   0.924   2.623   0.889 -0.3874 -1.0456 -0.1995
 3167SOL    HW120720   1.006   2.634   0.944 -1.7145  1.9287  1.2786
 3167SOL    HW220721   0.858   2.567   0.939 -0.5173 -0.6762  0.0459
 3168SOL     OW20722   8.432   0.896   0.084 -0.0968  0.2831 -0.3072
 3168SOL    HW120723   8.373   0.845   0.022  0.0017 -1.3288  0.8865
 3168SOL    HW220724   8.442   0.990   0.052 -0.5993 -0.3469 -2.3392
 3169SOL     OW20725   2.684   3.240   4.296  0.3422  0.2853  0.0476
 3169SOL    HW120726   2.661   3.300   4.374 -2.7691 -0.6907 -0.0373
 3169SOL    HW220727   2.687   3.295   4.212  1.2269  0.9249  0.4846
 3170SOL     OW20728   0.652   7.993   1.063 -0.2116 -0.0178  0.0603
 3170SOL    HW120729   0.629   8.017   0.969 -1.1175 -0.7586  0.0842
 3170SOL    HW220730   0.726   8.052   1.096  1.0749 -0.6783 -1.5761
 3171SOL     OW20731   0.075   2.686   5.514 -0.2666  0.0459 -0.0306
 3171SOL    HW120732   0.143   2.722   5.450 -1.0559  1.5813 -0.0430
 3171SOL    HW220733   0.093   2.721   5.606 -0.7801  0.1300  0.0420
 3172SOL     OW20734   3.380   2.140   1.924 -0.5211 -0.7274 -0.1100
 3172SOL    HW120735   3.405   2.177   2.014 -1.3654  0.4793 -0.3654
 3172SOL    HW220736   3.370   2.215   1.859 -0.4417 -1.5618 -1.0889
 3173SOL     OW20737   1.877   5.313   6.089  0.6275 -0.0528 -0.9127
 3173SOL    HW120738   1.823   5.348   6.012 -1.2185  0.0303  0.3661
 3173SOL    HW220739   1.815   5.276   6.159  2.3439 -1.6501 -0.1920
 3174SOL     OW20740   2.289   3.644   3.635 -0.0889 -0.0254  0.2006
 3174SOL    HW120741   2.266   3.578   3.565 -1.4263  0.6481 -0.0182
 3174SOL    HW220742   2.302   3.734   3.594 -0.4705  0.2913  0.7560
 3175SOL     OW20743   0.061   8.469   1.899  0.3490  0.2800 -0.6653
 3175SOL    HW120744   0.078   8.397   1.832 -1.0034  1.1443 -1.9589
 3175SOL    HW220745   0.089   8.557   1.861 -1.3380  0.9052 -0.4893
 3176SOL     OW20746   4.202   4.587   5.154 -0.6262 -0.0140 -0.3177
 3176SOL    HW120747   4.223   4.682   5.131  2.2698  0.1073  2.4859
 3176SOL    HW220748   4.171   4.539   5.072  1.1486  2.4602 -2.5211
 3177SOL     OW20749   0.033   3.494   2.609 -0.6983  0.4696 -0.1982
 3177SOL    HW120750   0.107   3.492   2.676  0.1047 -0.6822 -1.1140
 3177SOL    HW220751   0.048   3.569   2.544 -0.3418  0.2408 -0.3796
 3178SOL     OW20752   9.128   3.868   2.284  0.5522  0.1211  0.0816
 3178SOL    HW120753   9.147   3.951   2.335 -1.4299  1.4902 -1.3329
 3178SOL    HW220754   9.183   3.867   2.200  0.4412  0.0929  0.0086
 3179SOL     OW20755   0.968   4.921   0.519 -0.2826 -0.2122 -0.0758
 3179SOL    HW120756   0.952   4.979   0.598  0.7929 -1.0911  0.7898
 3179SOL    HW220757   0.940   4.828   0.539  0.3597 -0.5230 -0.6097
 3180SOL     OW20758   8.803   3.983   3.573  0.1629  0.6582 -0.2160
 3180SOL    HW120759   8.718   3.990   3.624  0.0063  0.6579 -0.4771
 3180SOL    HW220760   8.804   3.898   3.520  0.3827  0.5918 -0.1088
 3181SOL     OW20761   6.367   6.938   4.801  0.4665  0.2567 -0.3048
 3181SOL    HW120762   6.413   7.013   4.849 -0.4082  0.9600 -0.5657
 3181SOL    HW220763   6.291   6.974   4.747 -1.2363 -1.0502  1.1638
 3182SOL     OW20764   8.646   5.520   4.055 -0.3221 -0.0958 -0.1861
 3182SOL    HW120765   8.689   5.440   4.012  1.2126  0.0962  0.9543
 3182SOL    HW220766   8.608   5.580   3.984  2.0048  0.1188 -1.2942
 3183SOL     OW20767   1.727   7.141   3.127 -0.3336 -0.6719  0.2469
 3183SOL    HW120768   1.659   7.128   3.199 -0.1464 -1.3215  0.3113
 3183SOL    HW220769   1.819   7.131   3.166 -0.1870  0.5406  0.2299
 3184SOL     OW20770   4.695   9.247   4.912 -0.0879  0.1671  0.3236
 3184SOL    HW120771   4.733   9.163   4.951  0.1838  0.2485  0.2360
 3184SOL    HW220772   4.745   9.326   4.947 -0.4443  0.3048  0.5256
 3185SOL     OW20773   3.238   0.941   3.393  0.0454  0.0523  0.2874
 3185SOL    HW120774   3.309   0.888   3.440 -0.4347 -0.4055  0.4925
 3185SOL    HW220775   3.202   1.010   3.455  2.2287  2.1200 -0.6557
 3186SOL     OW20776   2.827   8.942   4.516 -0.1102 -0.0844 -0.0071
 3186SOL    HW120777   2.830   8.866   4.581 -0.8603 -2.5346 -2.7542
 3186SOL    HW220778   2.859   9.025   4.561  1.0900 -2.0794  2.9657
 3187SOL     OW20779   7.355   4.000   0.574 -0.2560 -0.0802  0.1939
 3187SOL    HW120780   7.357   4.068   0.501 -1.1207  0.2263  0.4502
 3187SOL    HW220781   7.414   4.029   0.649 -1.6015  1.0244  0.8512
 3188SOL     OW20782   5.537   1.746   5.149  0.4914 -0.7924 -0.3205
 3188SOL    HW120783   5.533   1.769   5.051 -1.6419 -2.6934 -0.7290
 3188SOL    HW220784   5.485   1.662   5.165  2.9662 -1.9236  2.0735
 3189SOL     OW20785   6.888   0.133   4.807  0.4208 -0.3705 -0.4778
 3189SOL    HW120786   6.849   0.225   4.804  0.4273 -0.3700 -0.5348
 3189SOL    HW220787   6.873   0.094   4.898  0.2067 -0.4046 -0.5283
 3190SOL     OW20788   3.429   9.178   1.705  0.5226  0.0080 -0.0143
 3190SOL    HW120789   3.352   9.132   1.748 -0.2713  0.8837 -0.4789
 3190SOL    HW220790   3.396   9.257   1.654  1.9237  1.4055  1.2090
 3191SOL     OW20791   1.674   2.046   3.391  0.0586  0.4671  0.3963
 3191SOL    HW120792   1.584   2.018   3.424 -0.3640  0.1253 -0.9891
 3191SOL    HW220793   1.713   2.115   3.453 -1.2877  0.8436  0.8384
 3192SOL     OW20794   4.727   5.593   0.651 -0.2810 -0.5579 -0.1759
 3192SOL    HW120795   4.724   5.542   0.565  0.1570 -1.3846  0.2912
 3192SOL    HW220796   4.823   5.612   0.675 -0.3263 -1.5883  0.8580
 3193SOL     OW20797   3.362   1.880   2.792  0.1690 -0.6583 -0.6457
 3193SOL    HW120798   3.341   1.973   2.762  0.3643 -0.5351 -0.4017
 3193SOL    HW220799   3.460   1.872   2.810 -0.1112 -0.4206  1.0457
 3194SOL     OW20800   3.845   4.140   1.132  0.0593 -0.3004  0.1041
 3194SOL    HW120801   3.932   4.110   1.170 -0.8544 -1.4601  1.3322
 3194SOL    HW220802   3.808   4.214   1.187  1.6842  2.2937 -2.1710
 3195SOL     OW20803   7.989   3.816   0.159  0.2719 -0.0515 -0.2329
 3195SOL    HW120804   7.995   3.815   0.059  1.4428  0.1152 -0.1695
 3195SOL    HW220805   8.056   3.880   0.196  1.3176 -1.6975  0.7597
 3196SOL     OW20806   0.505   1.274   1.015 -0.4649  0.6138 -0.1474
 3196SOL    HW120807   0.576   1.294   0.948  0.3309  2.5042  1.1906
 3196SOL    HW220808   0.547   1.233   1.096 -1.3696 -1.3477 -0.6448
 3197SOL     OW20809   2.737   2.591   2.967  0.9142  0.2614 -0.3901
 3197SOL    HW120810   2.724   2.647   2.885 -1.5553  1.2808  0.6287
 3197SOL    HW220811   2.813   2.627   3.020 -0.5521  2.6133  0.1717
 3198SOL     OW20812   9.636   5.952   2.413 -0.1175 -0.1475 -0.3557
 3198SOL    HW120813   9.684   5.993   2.490  1.1383  0.6240 -1.5334
 3198SOL    HW220814   9.542   5.986   2.411  0.9663  2.9061 -1.4630
 3199SOL     OW20815   4.373   6.577   1.201 -0.1696  0.1281  0.0459
 3199SOL    HW120816   4.411   6.498   1.249 -0.2759 -0.7857 -1.3407
 3199SOL    HW220817   4.377   6.562   1.103 -0.1701  1.8723 -0.2478
 3200SOL     OW20818   4.263   1.830   2.124 -1.0178  0.0738  0.0157
 3200SOL    HW120819   4.346   1.791   2.164 -1.2360  0.5767  0.9589
 3200SOL    HW220820   4.213   1.759   2.074  0.6493  0.0505 -1.7003
 3201SOL     OW20821   1.658   5.925   0.775 -0.1073 -0.1729 -0.7126
 3201SOL    HW120822   1.693   6.014   0.748  1.5033 -0.9729 -1.2803
 3201SOL    HW220823   1.559   5.930   0.787 -0.3517  1.0752 -3.1755
 3202SOL     OW20824   7.404   9.644   3.802  0.1288  0.1293  0.7844
 3202SOL    HW120825   7.383   9.556   3.759  1.8600 -0.2969  0.7616
 3202SOL    HW220826   7.426   9.711   3.731 -0.8611  0.5035  0.8207
 3203SOL     OW20827   4.929   0.652   2.077 -0.4736  0.5843 -0.1326
 3203SOL    HW120828   4.976   0.738   2.093  0.7461 -0.0420 -0.2918
 3203SOL    HW220829   4.831   0.669   2.062 -0.4576  1.8105  1.0848
 3204SOL     OW20830   5.298   8.384   3.738  0.0141  0.1135 -0.0382
 3204SOL    HW120831   5.393   8.357   3.720  0.1125  0.9871 -0.8835
 3204SOL    HW220832   5.242   8.362   3.658 -0.3692  0.2003  0.2040
 3205SOL     OW20833   6.362   1.979   3.437 -0.9890 -0.1013  0.0015
 3205SOL    HW120834   6.342   2.057   3.497 -1.5074  0.3170 -0.7122
 3205SOL    HW220835   6.440   2.002   3.378 -1.5187  0.1153 -0.6276
 3206SOL     OW20836   2.451   5.718   2.206 -0.2572 -0.3045 -0.1366
 3206SOL    HW120837   2.412   5.804   2.173  1.2174  0.5989  0.4461
 3206SOL    HW220838   2.496   5.733   2.294 -0.5875 -1.8284  0.3186
 3207SOL     OW20839   3.718   0.376   4.483  0.3530 -0.1183 -0.3001
 3207SOL    HW120840   3.632   0.424   4.469  0.7151  0.0361 -2.1976
 3207SOL    HW220841   3.719   0.292   4.429  1.5832  0.1499 -0.7277
 3208SOL     OW20842   6.929   0.420   5.967 -0.1271 -0.0992 -0.0979
 3208SOL    HW120843   6.888   0.460   6.049  0.5590  2.2813 -0.8776
 3208SOL    HW220844   7.027   0.437   5.966 -0.0818 -0.3695 -1.2536
 3209SOL     OW20845   3.284   8.255   3.567  0.3842 -0.0354  0.3225
 3209SOL    HW120846   3.187   8.255   3.590  0.6534 -0.1340  1.4662
 3209SOL    HW220847   3.299   8.204   3.482 -0.6649  0.6964 -0.3113
 3210SOL     OW20848   0.807   3.568   0.732 -0.3617 -0.7112  0.1593
 3210SOL    HW120849   0.876   3.539   0.798  0.2724 -0.4493 -0.3863
 3210SOL    HW220850   0.837   3.546   0.640  0.1167  1.5999 -0.2720
 3211SOL     OW20851   7.296   9.793   2.993 -0.3208 -0.8601 -0.3909
 3211SOL    HW120852   7.333   9.726   2.929 -0.7932 -2.1640  0.6653
 3211SOL    HW220853   7.345   9.787   3.080  0.1663  0.7385 -0.5418
 3212SOL     OW20854   6.792   5.058   0.050  0.2724 -0.0270 -0.1419
 3212SOL    HW120855   6.860   5.047  -0.022  0.9798  1.3227  0.2973
 3212SOL    HW220856   6.722   4.987   0.042  0.0660  0.4197 -2.4662
 3213SOL     OW20857   5.073   0.932   6.637 -0.1765  0.6630  0.4206
 3213SOL    HW120858   5.164   0.896   6.616 -0.2050  0.1652  1.0979
 3213SOL    HW220859   5.045   0.996   6.566  0.4140  0.2981 -0.1522
 3214SOL     OW20860   1.300   3.321   5.475  0.2958 -0.4756  0.2725
 3214SOL    HW120861   1.332   3.247   5.415 -0.1591 -0.7397  0.3545
 3214SOL    HW220862   1.361   3.400   5.465 -1.1064  0.3454 -2.3474
 3215SOL     OW20863   1.255   5.508   1.850  0.6493  0.8690  0.7943
 3215SOL    HW120864   1.161   5.482   1.830  0.7804 -1.1990  2.7713
 3215SOL    HW220865   1.255   5.580   1.919  0.5634 -0.6136  2.3592
 3216SOL     OW20866   2.615   2.068   6.128 -0.2016  0.1765  0.1308
 3216SOL    HW120867   2.637   2.045   6.033 -1.6336  0.1271 -0.1905
 3216SOL    HW220868   2.622   2.167   6.141  2.3217 -0.0247  0.5861
 3217SOL     OW20869   7.677   3.191   2.552  0.4686 -0.6328 -0.1930
 3217SOL    HW120870   7.649   3.274   2.600 -1.3330 -1.6198  0.5033
 3217SOL    HW220871   7.762   3.157   2.591 -0.3775 -0.7899  1.5565
 3218SOL     OW20872   4.407   0.137   5.575 -0.1763 -0.2334 -0.3351
 3218SOL    HW120873   4.310   0.158   5.560 -0.1063  0.3673  0.0064
 3218SOL    HW220874   4.463   0.208   5.533  0.1211 -0.6344 -0.6179
 3219SOL     OW20875   9.110   1.859   2.249 -0.1579 -0.0304 -0.2383
 3219SOL    HW120876   9.068   1.900   2.169 -1.5042  0.3596  0.6561
 3219SOL    HW220877   9.149   1.932   2.307 -1.6693 -0.0645  0.8519
 3220SOL     OW20878   1.985   2.911   1.225  0.0929  0.8206 -0.2056
 3220SOL    HW120879   1.896   2.866   1.234 -0.9357  2.6994 -0.6255
 3220SOL    HW220880   1.998   2.975   1.301  2.1494 -1.1197  1.1595
 3221SOL     OW20881   1.574   3.048   6.244  0.0387 -0.0921  0.4738
 3221SOL    HW120882   1.607   3.103   6.167 -2.4895 -0.1613 -0.6935
 3221SOL    HW220883   1.606   2.954   6.233 -2.2946 -0.6716 -1.8349
 3222SOL     OW20884   8.155   9.162   2.385  0.4000  0.2366  0.3366
 3222SOL    HW120885   8.208   9.098   2.329  0.8999  0.9771 -0.0361
 3222SOL    HW220886   8.175   9.145   2.482 -0.3461 -0.9390  0.2991
 3223SOL     OW20887   5.155   0.002   1.944 -0.1689  0.5876 -0.5498
 3223SOL    HW120888   5.185  -0.093   1.937 -1.4234  0.2286 -1.1250
 3223SOL    HW220889   5.234   0.061   1.960  0.5374 -0.6205  0.4233
 3224SOL     OW20890   0.463   4.357   4.397  0.1109  0.4480 -0.5349
 3224SOL    HW120891   0.525   4.395   4.466 -0.7913 -0.8208  1.0074
 3224SOL    HW220892   0.396   4.427   4.371 -0.1545  0.6357  0.6181
 3225SOL     OW20893   6.879   2.344   5.380  0.2039 -0.1272 -0.1134
 3225SOL    HW120894   6.908   2.261   5.428  1.2882 -0.7600 -1.8009
 3225SOL    HW220895   6.933   2.422   5.412 -0.9772 -0.0042  1.6473
 3226SOL     OW20896   3.514   8.575   6.727 -0.6484 -0.2769 -0.0442
 3226SOL    HW120897   3.531   8.520   6.644 -0.2076  1.8253 -1.3811
 3226SOL    HW220898   3.559   8.663   6.718  0.5566 -0.5275  3.0770
 3227SOL     OW20899   9.487   7.328   6.335  0.1595 -0.3594  0.1317
 3227SOL    HW120900   9.509   7.336   6.432 -0.5490 -3.8539  0.6570
 3227SOL    HW220901   9.542   7.255   6.294 -1.2161 -0.5097 -1.5156
 3228SOL     OW20902   8.770   4.071   0.135  0.3558  0.3950  0.0476
 3228SOL    HW120903   8.715   4.155   0.130 -0.4166 -0.0567  1.0111
 3228SOL    HW220904   8.710   3.992   0.148  0.9617 -0.4836 -2.2295
 3229SOL     OW20905   9.289   2.283   1.764 -0.2632 -0.1045  0.1129
 3229SOL    HW120906   9.365   2.317   1.818  0.9286  0.3809 -1.8093
 3229SOL    HW220907   9.268   2.348   1.691 -1.7806 -0.7634 -0.0509
 3230SOL     OW20908   9.044   3.796   1.914 -0.0842 -0.1097  0.0666
 3230SOL    HW120909   9.050   3.731   1.990  0.9430 -1.8739 -1.4599
 3230SOL    HW220910   8.947   3.811   1.891 -0.3349 -1.5750  0.0795
 3231SOL     OW20911   4.870   6.889   2.670 -0.0589  0.3073  0.0312
 3231SOL    HW120912   4.771   6.877   2.659 -0.2063  0.3966  1.1858
 3231SOL    HW220913   4.887   6.967   2.731  0.7680  1.7999 -2.0759
 3232SOL     OW20914   0.622   6.986   3.263 -0.6273 -0.3402 -0.2044
 3232SOL    HW120915   0.714   6.947   3.252  0.0751  1.3923 -0.6673
 3232SOL    HW220916   0.595   6.982   3.359  0.1030 -0.5100 -0.0015
 3233SOL     OW20917   2.602   6.655   3.127 -0.1179 -0.2959  0.0157
 3233SOL    HW120918   2.574   6.723   3.195  0.3073  0.8392 -0.9372
 3233SOL    HW220919   2.538   6.656   3.051  1.0512  0.5021 -0.9707
 3234SOL     OW20920   4.327   3.711   3.158  0.0073 -0.4031 -0.4939
 3234SOL    HW120921   4.370   3.786   3.108 -0.7127 -0.7179 -1.5945
 3234SOL    HW220922   4.250   3.746   3.211  0.5291 -0.1381  0.1044
 3235SOL     OW20923   8.304   9.294   4.430  0.2424  0.2347  0.1672
 3235SOL    HW120924   8.241   9.226   4.395 -0.9164  1.6256 -0.4742
 3235SOL    HW220925   8.385   9.299   4.371  0.3207 -0.5591  0.2059
 3236SOL     OW20926   3.038   8.565   6.011 -0.2159  0.0079 -0.0238
 3236SOL    HW120927   3.079   8.491   5.957  2.1185  0.4791  1.0117
 3236SOL    HW220928   2.976   8.618   5.953  0.9562 -0.4939 -1.7995
 3237SOL     OW20929   2.065   7.898   5.273  0.4080 -0.0506  0.8873
 3237SOL    HW120930   2.129   7.869   5.344  0.3606 -1.5822  0.3332
 3237SOL    HW220931   1.985   7.838   5.274  2.6115 -3.3968 -3.6874
 3238SOL     OW20932   0.344   2.233   3.337 -0.6489  0.2576  0.1176
 3238SOL    HW120933   0.244   2.226   3.341 -0.5795 -1.4398 -0.8477
 3238SOL    HW220934   0.370   2.323   3.302 -1.8078  1.0188  1.1484
 3239SOL     OW20935   9.442   8.556   0.783  0.3615 -0.1978 -0.2456
 3239SOL    HW120936   9.382   8.542   0.862 -0.0798  2.3260 -0.0842
 3239SOL    HW220937   9.535   8.526   0.807 -0.1614 -1.2013  0.5773
 3240SOL     OW20938   5.784   1.749   1.084 -0.2129  0.0470  0.0028
 3240SOL    HW120939   5.765   1.664   1.132  3.4310 -0.1265  1.2912
 3240SOL    HW220940   5.808   1.729   0.988  0.2154 -0.3554  0.1914
 3241SOL     OW20941   4.292   9.671   1.112  0.1040  0.1927 -0.5545
 3241SOL    HW120942   4.193   9.677   1.111  0.1158  0.3187 -1.5846
 3241SOL    HW220943   4.323   9.640   1.202 -0.9239 -0.8963 -0.5661
 3242SOL     OW20944   1.588   5.271   0.356 -0.5461  0.5704  0.5025
 3242SOL    HW120945   1.509   5.212   0.337  0.9748 -1.7722  1.3147
 3242SOL    HW220946   1.610   5.267   0.453  1.4537  0.0651  0.0511
 3243SOL     OW20947   0.022   6.976   0.490 -0.3636  0.5597 -0.4465
 3243SOL    HW120948  -0.023   7.019   0.412  0.0260  0.5880 -0.6612
 3243SOL    HW220949  -0.046   6.940   0.553 -0.6946 -1.0909 -1.7039
 3244SOL     OW20950   9.731   3.630   1.816  0.2691 -0.3586  0.4016
 3244SOL    HW120951   9.820   3.603   1.779  0.6420  0.5908  0.5958
 3244SOL    HW220952   9.743   3.664   1.909 -0.4875 -1.5011  0.9336
 3245SOL     OW20953   2.762   5.001   1.020 -0.1846 -0.4921 -0.2662
 3245SOL    HW120954   2.754   5.097   0.992 -0.2826 -0.9383 -1.8086
 3245SOL    HW220955   2.735   4.992   1.116  0.3998  1.1138  0.0635
 3246SOL     OW20956   9.716   1.955   1.817 -0.3591 -0.5930 -0.8849
 3246SOL    HW120957   9.726   2.050   1.848 -2.4369 -0.6072 -0.1057
 3246SOL    HW220958   9.625   1.922   1.840  1.0599 -3.5221  0.8745
 3247SOL     OW20959   2.564   3.441   6.561  0.1319  0.0860  0.4936
 3247SOL    HW120960   2.514   3.360   6.529  0.6095 -0.2431  0.5811
 3247SOL    HW220961   2.561   3.444   6.661 -0.8269  0.7770  0.4556
 3248SOL     OW20962   0.542   9.732   5.841  0.6683  0.1048  0.1799
 3248SOL    HW120963   0.525   9.695   5.750  0.7142 -0.4045  0.3776
 3248SOL    HW220964   0.548   9.657   5.907 -2.1725  0.5874  1.0541
 3249SOL     OW20965   7.056   1.676   2.964  0.5449 -0.1710  0.9740
 3249SOL    HW120966   7.078   1.709   3.056  1.3207  3.0635 -0.2939
 3249SOL    HW220967   6.957   1.670   2.954  0.3446  2.0625  1.2304
 3250SOL     OW20968   8.059   4.517   1.187  0.5931 -0.2961 -0.0079
 3250SOL    HW120969   8.157   4.503   1.170  0.5227 -0.3948 -0.3268
 3250SOL    HW220970   8.006   4.476   1.113  0.3486  0.8336 -0.4741
 3251SOL     OW20971   6.216   0.392   3.177  0.1113  0.0378 -0.4637
 3251SOL    HW120972   6.122   0.365   3.155  0.2110 -1.0336  0.4193
 3251SOL    HW220973   6.230   0.388   3.276  1.6790 -1.7858 -0.7314
 3252SOL     OW20974   1.196   1.187   0.529  0.4446 -1.3885  0.0891
 3252SOL    HW120975   1.128   1.240   0.480  0.3481  0.2230  1.8993
 3252SOL    HW220976   1.155   1.146   0.611  1.7830  0.2951  1.6639
 3253SOL     OW20977   7.996   0.938   4.531 -0.2091  0.4424 -0.0347
 3253SOL    HW120978   8.050   1.011   4.573  0.1952  0.9037 -1.3405
 3253SOL    HW220979   8.025   0.850   4.569  1.6225  0.6698 -0.8361
 3254SOL     OW20980   8.313   6.215   1.463 -0.1470  0.9560  0.1229
 3254SOL    HW120981   8.356   6.285   1.521  2.5764 -0.1773 -0.4173
 3254SOL    HW220982   8.384   6.168   1.411 -2.0526 -1.3525 -0.4677
 3255SOL     OW20983   7.952   7.661   4.128 -0.2610  0.3296 -0.7495
 3255SOL    HW120984   7.877   7.609   4.168 -0.1784  0.7279 -0.0858
 3255SOL    HW220985   7.941   7.664   4.028 -0.5800 -0.4614 -0.7393
 3256SOL     OW20986   8.430   1.644   1.541 -0.3453  0.2330  0.2071
 3256SOL    HW120987   8.488   1.713   1.585 -1.2194  1.5876 -0.7237
 3256SOL    HW220988   8.488   1.580   1.490  0.4073  1.0398  0.0285
 3257SOL     OW20989   1.365   8.140   6.163  0.3005  0.0253 -0.0738
 3257SOL    HW120990   1.448   8.101   6.123  0.7351 -0.6641  1.4389
 3257SOL    HW220991   1.377   8.149   6.262 -0.5221  2.2446 -0.1522
 3258SOL     OW20992   3.245   9.110   0.934  0.0139 -0.2257  0.1087
 3258SOL    HW120993   3.208   9.052   0.860  2.0738 -1.6227  0.1204
 3258SOL    HW220994   3.173   9.130   1.000 -1.1290 -1.5249 -0.7156
 3259SOL     OW20995   3.989   2.597   0.514 -0.3669 -0.2866  0.3418
 3259SOL    HW120996   4.075   2.556   0.543  0.3614  0.6596 -0.4727
 3259SOL    HW220997   4.005   2.688   0.476 -1.7123 -0.1132  0.1367
 3260SOL     OW20998   2.205   7.309   1.759  0.1705  0.5081 -0.1829
 3260SOL    HW120999   2.242   7.373   1.692  0.3048  0.3917 -0.2202
 3260SOL    HW221000   2.280   7.264   1.807  0.0852  1.8610  1.2697
 3261SOL     OW21001   1.655   6.317   2.398  0.2373  0.1051  0.0767
 3261SOL    HW121002   1.604   6.353   2.320 -2.0546 -3.2429 -0.0897
 3261SOL    HW221003   1.736   6.269   2.365 -0.1760 -0.4161 -0.1940
 3262SOL     OW21004   9.385   1.782   3.669 -0.7194  0.3717  0.3413
 3262SOL    HW121005   9.440   1.737   3.739  0.4024  1.5321  0.2203
 3262SOL    HW221006   9.444   1.819   3.598 -1.7582  0.4297 -0.5028
 3263SOL     OW21007   3.321   3.653   2.328  0.2977  0.1141  0.2501
 3263SOL    HW121008   3.233   3.608   2.315  0.0829  0.1787  1.4661
 3263SOL    HW221009   3.326   3.691   2.420  1.2877  0.7980 -0.0757
 3264SOL     OW21010   8.285   9.449   1.188 -0.0901  0.2153 -0.4462
 3264SOL    HW121011   8.209   9.410   1.137 -0.0885  0.6065 -0.7505
 3264SOL    HW221012   8.286   9.411   1.281  0.0852 -0.7330 -0.8238
 3265SOL     OW21013   8.121   3.021   5.504  0.6427  0.0869  0.6564
 3265SOL    HW121014   8.216   2.990   5.513  0.9840  0.8263 -0.2996
 3265SOL    HW221015   8.096   3.024   5.407  0.0487  1.0960  0.8327
 3266SOL     OW21016   1.029   7.310   6.089 -0.0649 -0.8869 -0.5541
 3266SOL    HW121017   1.033   7.211   6.097 -0.6557 -0.7937  1.1255
 3266SOL    HW221018   1.122   7.348   6.095 -0.0509 -1.1802  1.4123
 3267SOL     OW21019   5.554   4.431   1.304 -0.5427  0.5839 -0.0403
 3267SOL    HW121020   5.481   4.439   1.372 -0.4587  1.2233 -0.0192
 3267SOL    HW221021   5.518   4.455   1.214 -0.1640  1.6675  0.0959
 3268SOL     OW21022   6.402   1.540   4.473  0.0476  0.2620  0.1315
 3268SOL    HW121023   6.423   1.610   4.405 -0.9367  0.5461  0.1093
 3268SOL    HW221024   6.333   1.478   4.436  1.2510 -1.0060 -0.0260
 3269SOL     OW21025   8.774   5.645   0.241  0.1929 -0.3237  0.1005
 3269SOL    HW121026   8.751   5.674   0.334 -0.2917 -2.7602  0.7592
 3269SOL    HW221027   8.873   5.631   0.233  0.3804  1.0520 -0.1082
 3270SOL     OW21028   7.567   6.260   1.666 -0.2042 -0.0987 -0.0692
 3270SOL    HW121029   7.575   6.281   1.764  0.9335  0.1977 -0.2216
 3270SOL    HW221030   7.532   6.340   1.618 -0.2252 -0.0573  0.0147
 3271SOL     OW21031   9.860   0.979   1.464  0.3418 -0.0129  0.0051
 3271SOL    HW121032   9.846   0.889   1.424 -1.1708  0.4625 -0.5912
 3271SOL    HW221033   9.856   0.973   1.564  1.1246 -0.7370 -0.0067
 3272SOL     OW21034   4.169   8.472   2.599 -0.8002 -0.4279 -0.1908
 3272SOL    HW121035   4.085   8.485   2.652 -0.1811 -1.5255  1.0597
 3272SOL    HW221036   4.238   8.537   2.631 -0.5816 -0.7612  0.0090
 3273SOL     OW21037   9.266   6.038   1.823 -0.1907  0.5522  0.4929
 3273SOL    HW121038   9.300   6.015   1.732 -2.1656  0.0546 -0.1505
 3273SOL    HW221039   9.320   5.989   1.892  1.1075  0.6801 -0.4141
 3274SOL     OW21040   9.123   4.690   5.028  0.0019  0.3873  0.1121
 3274SOL    HW121041   9.222   4.698   5.038 -0.3065  2.8339  1.4427
 3274SOL    HW221042   9.101   4.677   4.931  1.6729 -1.6113 -0.0561
 3275SOL     OW21043   8.837   9.881   4.795  0.1942  0.3248 -0.6192
 3275SOL    HW121044   8.765   9.950   4.806  0.5946  0.5081  1.0251
 3275SOL    HW221045   8.818   9.804   4.856  0.8629 -0.0698 -0.9075
 3276SOL     OW21046   2.750   4.963   2.641 -0.6168 -0.2226  0.4095
 3276SOL    HW121047   2.724   4.872   2.674 -1.2331  0.0121  0.5741
 3276SOL    HW221048   2.843   4.959   2.602 -0.8087 -1.0168  0.0168
 3277SOL     OW21049   1.198   0.179   1.380 -0.4075  0.2997 -0.0342
 3277SOL    HW121050   1.268   0.241   1.415 -0.4861 -0.3361  1.2843
 3277SOL    HW221051   1.116   0.231   1.354 -1.0818  0.5927  2.6032
 3278SOL     OW21052   4.269   1.331   5.839 -0.2360  0.1938 -0.6127
 3278SOL    HW121053   4.241   1.405   5.777 -1.7619  0.3460  0.2160
 3278SOL    HW221054   4.257   1.361   5.934 -0.6743 -1.0359 -0.2687
 3279SOL     OW21055   9.297   1.531   5.464 -0.3103  0.4676 -0.1484
 3279SOL    HW121056   9.290   1.436   5.496 -0.1348 -0.0318 -1.5550
 3279SOL    HW221057   9.206   1.569   5.452 -0.4366 -0.4219 -2.1560
 3280SOL     OW21058   2.046   2.338   0.212 -0.6685 -0.0085  0.2963
 3280SOL    HW121059   2.059   2.415   0.273 -1.2917  0.4005 -0.0792
 3280SOL    HW221060   1.952   2.303   0.222 -0.4004 -0.7068  0.4506
 3281SOL     OW21061   5.802   9.003   5.094  0.2638  0.1780  0.1471
 3281SOL    HW121062   5.900   8.986   5.100  0.8391  2.7711 -1.2689
 3281SOL    HW221063   5.777   9.080   5.152 -0.8555 -0.1553  0.1290
 3282SOL     OW21064   3.954   2.185   3.389  0.2124 -0.3188  0.4283
 3282SOL    HW121065   3.930   2.117   3.458 -0.1164 -0.1020  0.5258
 3282SOL    HW221066   3.938   2.277   3.425  0.0268 -0.2044  0.0620
 3283SOL     OW21067   1.674   3.284   6.089  1.0394  0.5873 -0.3261
 3283SOL    HW121068   1.636   3.315   6.001  2.8390  0.1019 -1.3107
 3283SOL    HW221069   1.772   3.305   6.092  1.7860 -2.6589  0.0281
 3284SOL     OW21070   7.933   6.854   2.676  0.1235 -0.0356  0.1541
 3284SOL    HW121071   7.924   6.835   2.578 -0.6541  1.7816 -0.1386
 3284SOL    HW221072   7.963   6.949   2.689 -1.1784  0.1732  1.7185
 3285SOL     OW21073   6.949   2.883   4.638 -0.3674  0.2894  0.3288
 3285SOL    HW121074   7.032   2.880   4.694 -0.2770  0.2735  0.1942
 3285SOL    HW221075   6.969   2.929   4.552 -0.8355  1.5576  0.8731
 3286SOL     OW21076   7.464   3.117   1.021 -0.2016 -0.0304  0.3086
 3286SOL    HW121077   7.470   3.119   0.921 -1.4879 -2.6035  0.1461
 3286SOL    HW221078   7.397   3.185   1.052  1.3370  1.8759 -0.4402
 3287SOL     OW21079   1.149   3.039   6.125 -0.1507 -0.3416 -0.7086
 3287SOL    HW121080   1.140   3.127   6.078 -0.9155 -0.0386 -0.0304
 3287SOL    HW221081   1.210   3.050   6.203  1.4795 -0.9544 -1.8887
 3288SOL     OW21082   7.188   8.899   3.633  0.0001  0.9123  0.5616
 3288SOL    HW121083   7.173   8.841   3.554 -0.1156  1.8980 -0.1493
 3288SOL    HW221084   7.266   8.865   3.686  0.1645  0.3444 -0.0495
 3289SOL     OW21085   2.479   2.776   0.405  0.0977 -0.3392 -0.1023
 3289SOL    HW121086   2.389   2.812   0.380  0.4826 -0.1597 -1.2512
 3289SOL    HW221087   2.547   2.808   0.339  1.2037  0.4622  1.4041
 3290SOL     OW21088   0.057   3.556   4.436  0.7372 -0.4842 -0.0828
 3290SOL    HW121089   0.109   3.563   4.351  1.6755 -0.3122  0.4997
 3290SOL    HW221090   0.084   3.474   4.485 -2.4474 -2.5973 -1.6842
 3291SOL     OW21091   7.996   8.520   4.356  0.3360 -0.4045 -0.4332
 3291SOL    HW121092   7.948   8.492   4.439  0.4197  1.4092  0.2462
 3291SOL    HW221093   8.095   8.515   4.371  0.3586 -0.7534 -0.6724
 3292SOL     OW21094   3.412   9.796   3.947 -0.6474 -0.0595  0.0427
 3292SOL    HW121095   3.372   9.775   3.858 -0.6881  0.3006 -0.0256
 3292SOL    HW221096   3.342   9.786   4.018 -0.7241  0.0614 -0.0155
 3293SOL     OW21097   8.829   6.514   3.420  0.2617 -0.1133 -0.7270
 3293SOL    HW121098   8.881   6.525   3.505 -1.7179  0.8710  0.3990
 3293SOL    HW221099   8.881   6.554   3.344  1.8434 -0.5916  0.0721
 3294SOL     OW21100   3.641   5.249   5.445  0.3092  0.5486  0.3075
 3294SOL    HW121101   3.574   5.306   5.492 -0.5824  0.3509 -0.7122
 3294SOL    HW221102   3.724   5.302   5.428 -0.5824  1.6048 -0.7878
 3295SOL     OW21103   1.968   2.151   2.113  0.0104 -0.0549 -0.0307
 3295SOL    HW121104   1.924   2.080   2.167 -0.7948  1.0274  0.7400
 3295SOL    HW221105   2.051   2.114   2.071  1.0442 -0.7173  2.5049
 3296SOL     OW21106   6.847   7.920   4.407  0.3582  0.5875 -0.3079
 3296SOL    HW121107   6.931   7.911   4.462  0.0455 -1.8334 -0.1780
 3296SOL    HW221108   6.857   7.868   4.323 -0.6848  1.0494 -0.7241
 3297SOL     OW21109   7.613   1.374   3.447  0.3028  0.0578 -0.0547
 3297SOL    HW121110   7.556   1.399   3.525  0.3791 -0.8380  0.2863
 3297SOL    HW221111   7.709   1.384   3.471  0.3607 -1.6761  0.4592
 3298SOL     OW21112   7.678   0.347   2.029  0.1173  0.2743 -0.0913
 3298SOL    HW121113   7.688   0.446   2.043  5.0361 -0.0701 -0.2154
 3298SOL    HW221114   7.649   0.304   2.115 -2.7892  1.8253 -0.2279
 3299SOL     OW21115   7.837   1.790   0.662  0.3760 -0.1897 -0.4387
 3299SOL    HW121116   7.927   1.758   0.632  0.1327 -0.0857 -1.2972
 3299SOL    HW221117   7.847   1.875   0.713  0.5373  1.3292 -2.9082
 3300SOL     OW21118   8.553   4.027   3.699 -0.0796  0.2843 -0.1656
 3300SOL    HW121119   8.564   4.073   3.787 -0.1833 -1.0456  0.5614
 3300SOL    HW221120   8.465   3.978   3.698 -0.0418  0.2260 -0.9812
 3301SOL     OW21121   8.288   9.682   6.254 -0.1100 -0.6296 -0.1707
 3301SOL    HW121122   8.345   9.604   6.228 -0.3147 -0.4761 -1.0935
 3301SOL    HW221123   8.247   9.665   6.344 -0.2625 -1.6496 -0.4293
 3302SOL     OW21124   7.141   4.955   0.205  0.5336  0.6533 -0.1203
 3302SOL    HW121125   7.044   4.929   0.211  0.7007 -0.5367 -1.9372
 3302SOL    HW221126   7.150   5.033   0.144  0.9194 -0.6896 -1.8316
 3303SOL     OW21127   0.069   7.250   5.112 -0.0944  0.1578  0.3859
 3303SOL    HW121128   0.116   7.169   5.077 -1.6025 -0.4904 -0.1736
 3303SOL    HW221129   0.061   7.244   5.212  0.6955  0.1191  0.4512
 3304SOL     OW21130   1.949   1.049   3.360  0.0352 -0.3093  0.3757
 3304SOL    HW121131   2.024   0.993   3.395  0.1392  0.9547  2.2552
 3304SOL    HW221132   1.987   1.127   3.311 -0.1099 -2.0076 -2.5517
 3305SOL     OW21133   1.148   4.481   6.071 -0.0705 -0.1500  0.0342
 3305SOL    HW121134   1.134   4.576   6.046  0.0330 -0.2594 -0.4375
 3305SOL    HW221135   1.132   4.422   5.991  1.0961 -0.4282  0.0069
 3306SOL     OW21136   1.672   6.672   1.687  0.3560  0.0457  0.1516
 3306SOL    HW121137   1.597   6.727   1.723  0.0233 -0.6799  0.5981
 3306SOL    HW221138   1.736   6.730   1.638 -1.3013  0.4632 -1.5903
 3307SOL     OW21139   3.014   0.647   0.235 -0.6928  0.0263  0.3215
 3307SOL    HW121140   3.088   0.583   0.255 -0.2086 -0.2649 -2.2271
 3307SOL    HW221141   3.046   0.740   0.252 -0.7162 -0.2568  2.0172
 3308SOL     OW21142   2.316   5.614   6.014  0.6758 -0.3557 -0.2228
 3308SOL    HW121143   2.237   5.555   6.033  0.8286 -0.6056 -0.3680
 3308SOL    HW221144   2.379   5.611   6.091  0.3817  0.1073  0.0384
 3309SOL     OW21145   9.316   9.676   4.767 -0.3660 -0.3436 -0.1042
 3309SOL    HW121146   9.248   9.748   4.785  0.0149  0.0229 -0.1158
 3309SOL    HW221147   9.403   9.703   4.808 -0.3606 -1.0543  0.3617
 3310SOL     OW21148   3.157   4.040   5.438 -0.8875 -0.3023  0.2556
 3310SOL    HW121149   3.080   3.978   5.426 -0.9970 -0.3033  0.9866
 3310SOL    HW221150   3.188   4.037   5.533 -0.5540  0.3669  0.1680
 3311SOL     OW21151   7.120   8.224   4.746 -0.3787 -0.0622  0.3888
 3311SOL    HW121152   7.175   8.296   4.703  0.4338 -1.1370 -0.3831
 3311SOL    HW221153   7.108   8.149   4.681  1.0600 -1.8242  2.1208
 3312SOL     OW21154   3.377   9.133   5.691 -0.5692  0.2550  0.8588
 3312SOL    HW121155   3.406   9.226   5.671  0.2671  0.0595  1.1353
 3312SOL    HW221156   3.311   9.103   5.622 -1.3067  1.2591  1.1162
 3313SOL     OW21157   8.953   9.306   4.066 -0.4017 -0.0610 -0.1403
 3313SOL    HW121158   9.009   9.350   3.996 -0.2744  0.9025  0.5582
 3313SOL    HW221159   8.863   9.285   4.028  0.5441 -2.0476 -1.4122
 3314SOL     OW21160   8.691   0.785   4.741 -0.0445 -0.0540 -0.0714
 3314SOL    HW121161   8.660   0.722   4.812 -1.0393  1.4890  0.9012
 3314SOL    HW221162   8.611   0.831   4.701  0.2576 -2.5552 -3.8293
 3315SOL     OW21163   1.250   9.564   1.642  0.1279 -0.2335 -0.0442
 3315SOL    HW121164   1.322   9.593   1.705  0.1097  0.2003 -0.2192
 3315SOL    HW221165   1.240   9.633   1.570  0.1395 -0.7181 -0.5132
 3316SOL     OW21166   7.618   2.004   0.373  0.5469  0.0838  0.3417
 3316SOL    HW121167   7.533   1.964   0.338 -0.7615  1.8581  1.4322
 3316SOL    HW221168   7.682   1.930   0.396  0.6509 -1.2022 -3.6613
 3317SOL     OW21169   3.469   5.338   1.532 -0.1345  0.4481 -0.3049
 3317SOL    HW121170   3.474   5.433   1.565 -1.8472 -0.0181  1.3580
 3317SOL    HW221171   3.557   5.293   1.548 -0.1508  0.9688  1.3594
 3318SOL     OW21172   9.964   4.384   0.967 -0.2073 -0.0702 -1.2443
 3318SOL    HW121173  10.007   4.294   0.973  0.0554  0.1534  0.3120
 3318SOL    HW221174   9.876   4.375   0.919 -1.1256 -1.5034  0.6467
 3319SOL     OW21175   9.753   9.143   3.704  0.2467 -0.1656  0.4533
 3319SOL    HW121176   9.657   9.127   3.683 -0.0296  1.4630  0.3973
 3319SOL    HW221177   9.801   9.056   3.713 -0.7896 -0.9774 -1.5907
 3320SOL     OW21178   9.606   6.635   5.729 -0.3932 -0.1467  0.5819
 3320SOL    HW121179   9.587   6.555   5.672  0.4387 -0.5366  0.8325
 3320SOL    HW221180   9.521   6.669   5.769 -0.9324 -0.0673 -0.6261
 3321SOL     OW21181   8.997   9.654   3.155  0.1186  0.7060  0.7158
 3321SOL    HW121182   8.974   9.727   3.219  0.0694  1.1638  0.1830
 3321SOL    HW221183   9.063   9.689   3.088  0.9073 -0.0393  1.0955
 3322SOL     OW21184   2.464   5.333   4.849 -0.0469  0.2915  0.9371
 3322SOL    HW121185   2.485   5.236   4.840  1.2641  0.6778 -0.3473
 3322SOL    HW221186   2.382   5.356   4.797  1.6827  0.5478 -1.7326
 3323SOL     OW21187   4.412   5.439   0.863  0.3540  0.5007 -0.3835
 3323SOL    HW121188   4.353   5.406   0.936  1.0175  0.1429 -0.0097
 3323SOL    HW221189   4.358   5.454   0.780  0.0375 -1.3967 -0.5233
 3324SOL     OW21190   2.422   4.773   1.529 -0.5343 -0.3339  0.4099
 3324SOL    HW121191   2.440   4.840   1.601 -1.6478  2.2509 -1.6419
 3324SOL    HW221192   2.327   4.781   1.499  0.0725 -0.9288 -1.7444
 3325SOL     OW21193   6.857   3.490   0.720 -0.6123  0.1185 -0.1059
 3325SOL    HW121194   6.922   3.426   0.677 -1.1538  0.1283 -0.9607
 3325SOL    HW221195   6.893   3.583   0.714  0.6752 -0.2017  2.0838
 3326SOL     OW21196   8.990   8.888   6.675 -0.1717 -0.1583 -0.7749
 3326SOL    HW121197   8.999   8.987   6.685  1.7722 -0.3418 -0.4356
 3326SOL    HW221198   8.967   8.848   6.764  0.0583 -0.1032 -0.6887
 3327SOL     OW21199   6.625   0.161   3.462 -0.4088 -0.0170  0.2756
 3327SOL    HW121200   6.696   0.090   3.461 -1.9677 -1.6296 -2.0869
 3327SOL    HW221201   6.659   0.243   3.415 -0.0136 -0.7036 -0.6543
 3328SOL     OW21202   5.469   7.849   4.858 -0.2003  0.0955 -0.3150
 3328SOL    HW121203   5.493   7.771   4.915 -1.0478  0.4644  0.5659
 3328SOL    HW221204   5.550   7.882   4.810  0.3136 -0.8428 -0.0971
 3329SOL     OW21205   6.754   4.825   1.655 -0.4446 -0.3575  0.0442
 3329SOL    HW121206   6.655   4.834   1.664 -0.3442 -0.3841  1.2644
 3329SOL    HW221207   6.789   4.763   1.726  0.1376 -2.3668 -1.9249
 3330SOL     OW21208   9.783   1.812   0.721  0.4370 -0.1516 -0.2851
 3330SOL    HW121209   9.779   1.750   0.643  0.1652 -1.5976  0.8577
 3330SOL    HW221210   9.874   1.853   0.726  0.1379  0.7649 -1.9667
 3331SOL     OW21211   7.565   1.032   3.591  0.1630  0.7638 -0.6825
 3331SOL    HW121212   7.642   1.065   3.536  1.0900  0.2040  0.2688
 3331SOL    HW221213   7.583   0.939   3.622 -0.5374  0.9241  0.2332
 3332SOL     OW21214   6.024   0.560   4.449  0.4025 -0.0353  0.2929
 3332SOL    HW121215   5.977   0.592   4.367  0.7055  1.0800  0.5561
 3332SOL    HW221216   6.021   0.460   4.451  0.7299 -0.0881 -1.2648
 3333SOL     OW21217   9.673   4.770   2.536  0.5090 -1.0959  0.0923
 3333SOL    HW121218   9.763   4.730   2.524  1.1660  0.2576  0.4453
 3333SOL    HW221219   9.663   4.848   2.474  0.9345  0.9818  2.5791
 3334SOL     OW21220   0.573   7.215   6.355  0.0348  0.2204 -0.4005
 3334SOL    HW121221   0.618   7.143   6.303 -0.2377 -0.5857  0.4698
 3334SOL    HW221222   0.614   7.222   6.446 -0.5904  0.4995 -0.1337
 3335SOL     OW21223   5.357   1.763   2.721 -0.2692 -0.3485  0.5413
 3335SOL    HW121224   5.353   1.711   2.635  2.2846 -0.8998  0.7221
 3335SOL    HW221225   5.450   1.760   2.757 -1.1604  0.4898  2.9801
 3336SOL     OW21226   8.638   7.473   6.534 -0.4574  0.3403 -0.4452
 3336SOL    HW121227   8.591   7.500   6.618  2.0419  2.0479  0.4769
 3336SOL    HW221228   8.702   7.545   6.508  0.7315 -1.3651 -2.3189
 3337SOL     OW21229   1.664   2.535   5.079  0.1980  0.9493  0.0391
 3337SOL    HW121230   1.673   2.573   5.171  1.4626 -3.7554  2.0181
 3337SOL    HW221231   1.575   2.492   5.069  0.2133  1.1006 -0.8523
 3338SOL     OW21232   9.735   8.743   5.801  0.2618 -0.7818 -0.1754
 3338SOL    HW121233   9.774   8.801   5.729 -0.5425  0.7657  0.6160
 3338SOL    HW221234   9.643   8.714   5.774 -0.3313  0.4121  0.5522
 3339SOL     OW21235   9.671   6.099   3.746 -0.2611  0.4138  0.9424
 3339SOL    HW121236   9.622   6.127   3.664 -0.1296 -0.2939  0.6148
 3339SOL    HW221237   9.769   6.091   3.725 -0.1549  0.7480  1.3057
 3340SOL     OW21238   3.011   1.227   6.743  0.8220  0.0898  0.0423
 3340SOL    HW121239   3.030   1.303   6.681 -1.1161  2.5597  2.3137
 3340SOL    HW221240   2.938   1.171   6.705  0.8604  0.5613 -0.7347
 3341SOL     OW21241   3.358   9.491   4.334 -0.1908 -0.4102 -0.4020
 3341SOL    HW121242   3.432   9.556   4.314 -0.4556 -0.1433 -0.5286
 3341SOL    HW221243   3.386   9.431   4.408 -0.0977  0.1138 -0.0071
 3342SOL     OW21244   2.487   0.134   3.211 -0.0282 -0.3412  0.4392
 3342SOL    HW121245   2.453   0.043   3.232 -0.6834  0.1322  1.4812
 3342SOL    HW221246   2.553   0.162   3.281  0.4454 -0.1534 -0.0727
 3343SOL     OW21247   9.608   0.679   2.668 -0.5305  0.6551  0.7483
 3343SOL    HW121248   9.681   0.668   2.600 -1.0946 -1.2214  0.4246
 3343SOL    HW221249   9.563   0.591   2.682 -0.7539  1.1433  3.1813
 3344SOL     OW21250   0.298   1.165   6.360  0.3263  0.5472  0.6220
 3344SOL    HW121251   0.284   1.255   6.318  0.6720  0.4063  0.1989
 3344SOL    HW221252   0.258   1.095   6.302  0.5468  0.3756  0.6801
 3345SOL     OW21253   3.041   0.171   6.139  0.2706  0.4672  0.2927
 3345SOL    HW121254   3.112   0.128   6.084 -1.5672 -1.2119 -0.8307
 3345SOL    HW221255   3.050   0.143   6.234  2.3671  1.9377  0.5430
 3346SOL     OW21256   0.397   0.027   2.438  0.0782 -0.2023  0.4449
 3346SOL    HW121257   0.435  -0.028   2.512  1.5813 -1.1684 -0.9851
 3346SOL    HW221258   0.307  -0.010   2.412  0.4066 -1.0566  0.5065
 3347SOL     OW21259   1.805   8.172   2.161  0.0795  0.4796  0.4315
 3347SOL    HW121260   1.783   8.120   2.078 -0.9119  2.5583 -0.6544
 3347SOL    HW221261   1.720   8.208   2.200  0.7442  1.1692  1.2322
 3348SOL     OW21262   9.851   2.296   1.344 -0.8920 -0.0757  0.0927
 3348SOL    HW121263   9.816   2.389   1.356 -0.4518  0.1634 -0.4507
 3348SOL    HW221264   9.866   2.255   1.434  2.2216  1.6350  0.4378
 3349SOL     OW21265   2.158   4.431   4.726 -0.1641 -0.3989 -0.5211
 3349SOL    HW121266   2.242   4.428   4.671  0.7398  0.2047  0.7808
 3349SOL    HW221267   2.132   4.338   4.752 -0.2582 -0.6358 -1.4710
 3350SOL     OW21268   7.316   1.599   5.609 -0.2164  0.3022  0.1061
 3350SOL    HW121269   7.400   1.652   5.620 -0.4376  0.6424  0.1624
 3350SOL    HW221270   7.283   1.571   5.699  0.8275 -1.3966 -0.0061
 3351SOL     OW21271   5.706   8.412   4.439  0.3441 -0.3460 -0.3362
 3351SOL    HW121272   5.641   8.472   4.393  1.4051 -0.1414 -1.6133
 3351SOL    HW221273   5.780   8.467   4.477  1.1838 -0.8064 -1.2848
 3352SOL     OW21274   8.344   4.839   0.515  0.2524  0.2340  0.3781
 3352SOL    HW121275   8.303   4.891   0.440 -0.1550  0.0005  0.4354
 3352SOL    HW221276   8.411   4.775   0.478 -0.0820 -0.0129  0.1881
 3353SOL     OW21277   8.977   4.770   5.930 -0.6854 -0.1048  0.3475
 3353SOL    HW121278   9.065   4.772   5.977 -0.1216  0.4756 -0.7403
 3353SOL    HW221279   8.904   4.784   5.997  0.1354  1.0637  1.0215
 3354SOL     OW21280   9.812   6.954   3.552  0.3248 -0.0748  0.0759
 3354SOL    HW121281   9.894   6.951   3.495  0.3283 -1.3231  0.1467
 3354SOL    HW221282   9.767   6.865   3.551  0.0257  0.0455  1.5868
 3355SOL     OW21283   9.350   2.259   3.398  0.7858 -0.0263  0.2022
 3355SOL    HW121284   9.301   2.337   3.359 -0.7419 -0.3228  1.4965
 3355SOL    HW221285   9.444   2.257   3.362 -0.2943  0.1980 -2.7750
 3356SOL     OW21286   8.585   0.193   3.798  0.0833 -0.0782  0.4090
 3356SOL    HW121287   8.672   0.146   3.810 -0.0394 -0.6531 -0.8769
 3356SOL    HW221288   8.597   0.291   3.814  1.2246  0.0128 -0.8931
 3357SOL     OW21289   0.273   3.533   5.541  0.3008  0.4048 -0.2718
 3357SOL    HW121290   0.296   3.482   5.624 -0.0051  0.4166 -0.1794
 3357SOL    HW221291   0.187   3.498   5.503  0.9984 -0.3446 -1.1996
 3358SOL     OW21292   4.459   2.119   4.582 -0.2236 -0.0125 -1.2547
 3358SOL    HW121293   4.414   2.208   4.573 -0.1373  0.4403  2.0730
 3358SOL    HW221294   4.390   2.048   4.593 -0.3218  0.5819  3.0166
 3359SOL     OW21295   1.240   6.102   4.483 -0.1990 -0.1102 -0.0122
 3359SOL    HW121296   1.254   6.162   4.562  0.1011  0.3176 -0.3876
 3359SOL    HW221297   1.281   6.013   4.501  0.7800  0.3208 -0.0942
 3360SOL     OW21298   3.558   2.129   2.436  0.3946  0.4241 -0.2399
 3360SOL    HW121299   3.472   2.129   2.487  0.9183  0.4757  0.6683
 3360SOL    HW221300   3.623   2.191   2.480  0.5454  1.2031 -1.5382
 3361SOL     OW21301   9.209   9.561   4.377  0.0248  0.5405 -0.6810
 3361SOL    HW121302   9.110   9.554   4.362  0.2131 -0.9505 -1.2344
 3361SOL    HW221303   9.231   9.655   4.405 -1.7094  0.5472  0.7684
 3362SOL     OW21304   2.415   1.223   0.942 -0.4039  0.0828 -0.1545
 3362SOL    HW121305   2.477   1.209   0.866 -1.6910 -0.8682 -1.0580
 3362SOL    HW221306   2.374   1.314   0.937  0.3529  0.4338  0.0317
 3363SOL     OW21307   8.792   4.006   1.620 -0.2493 -0.3436 -0.0192
 3363SOL    HW121308   8.840   4.081   1.666  0.1775  0.1891 -1.3224
 3363SOL    HW221309   8.789   4.023   1.522 -2.5245 -0.7036 -0.0496
 3364SOL     OW21310   9.534   2.504   5.342 -0.4687  0.2055  0.9299
 3364SOL    HW121311   9.630   2.522   5.318 -0.1480 -0.3859  1.7408
 3364SOL    HW221312   9.496   2.439   5.277  0.0426 -0.4774  1.3068
 3365SOL     OW21313   8.445   9.322   3.029  0.2847  0.1776  0.0186
 3365SOL    HW121314   8.467   9.250   3.094  0.9816  0.8413  0.5321
 3365SOL    HW221315   8.515   9.393   3.034  0.5831  0.0507 -1.7329
 3366SOL     OW21316   9.256   5.631   6.335 -0.6019  0.1133 -0.0954
 3366SOL    HW121317   9.351   5.614   6.306 -0.2993 -0.3523  1.1421
 3366SOL    HW221318   9.196   5.624   6.256  0.3059 -0.4192 -0.7538
 3367SOL     OW21319   7.851   9.743   2.159  0.1718 -0.2445  0.0551
 3367SOL    HW121320   7.798   9.761   2.241 -0.8764  1.2973 -0.9277
 3367SOL    HW221321   7.850   9.824   2.100  0.3264 -1.5392 -1.7871
 3368SOL     OW21322   6.077   9.122   2.760  0.1761  0.3390  0.3034
 3368SOL    HW121323   6.027   9.182   2.698 -1.4536 -0.2836  1.0054
 3368SOL    HW221324   6.173   9.118   2.732 -0.4219  0.5158 -1.8292
 3369SOL     OW21325   5.493   6.030   2.116 -0.1561 -0.3695 -0.4768
 3369SOL    HW121326   5.544   6.031   2.202 -0.2290 -2.1937 -0.3968
 3369SOL    HW221327   5.413   5.971   2.124 -0.6865  0.1915 -1.5009
 3370SOL     OW21328   3.149   6.142   2.985  0.0127 -1.0401 -0.1406
 3370SOL    HW121329   3.150   6.072   3.057 -0.4280 -0.7718  0.1329
 3370SOL    HW221330   3.140   6.098   2.896 -1.5173 -1.2753  0.1164
 3371SOL     OW21331   0.269   8.841   1.556 -0.2830 -0.2426 -0.1462
 3371SOL    HW121332   0.185   8.837   1.502  0.0244 -0.3702 -0.6218
 3371SOL    HW221333   0.338   8.893   1.506 -0.0565 -0.1959  0.2126
 3372SOL     OW21334   1.432   7.147   0.760  0.5198 -0.1123  0.1230
 3372SOL    HW121335   1.461   7.238   0.787  1.6603 -0.1471 -0.9400
 3372SOL    HW221336   1.366   7.153   0.686  1.4250 -0.1629 -0.7048
 3373SOL     OW21337   4.307   8.486   1.672 -0.1269 -0.2117 -0.0325
 3373SOL    HW121338   4.268   8.540   1.597  0.0559 -1.8419 -1.3332
 3373SOL    HW221339   4.363   8.544   1.730 -0.8414  1.2203 -0.7571
 3374SOL     OW21340   3.625   3.890   6.021 -0.4760  0.0609  0.9351
 3374SOL    HW121341   3.619   3.920   6.116  0.2157 -0.3494  1.1070
 3374SOL    HW221342   3.625   3.791   6.016  0.1048  0.0723  0.5548
 3375SOL     OW21343   1.537   1.852   4.384 -0.4071 -0.1253 -0.3127
 3375SOL    HW121344   1.556   1.911   4.306  1.7162  0.1176  0.3548
 3375SOL    HW221345   1.589   1.767   4.374  0.4917  0.2332  1.1902
 3376SOL     OW21346   8.421   6.847   2.329 -0.4390  0.7324 -0.0139
 3376SOL    HW121347   8.450   6.803   2.244 -0.2680 -0.2300  0.5299
 3376SOL    HW221348   8.475   6.930   2.344  0.4863  0.1714 -0.1622
 3377SOL     OW21349   7.263   2.929   1.346  0.0346 -0.0258 -0.5161
 3377SOL    HW121350   7.213   3.011   1.320  3.1902  2.1120 -0.1344
 3377SOL    HW221351   7.303   2.887   1.265  3.2696  2.1719 -0.1398
 3378SOL     OW21352   7.325   9.904   0.074  0.4130 -0.7092  0.6359
 3378SOL    HW121353   7.298   9.874   0.165  0.5728  0.1413  0.9721
 3378SOL    HW221354   7.253   9.881   0.008 -0.8037  0.8202  1.3863
 3379SOL     OW21355   8.857   4.559   0.911 -0.3253 -0.0796  0.4700
 3379SOL    HW121356   8.894   4.595   0.997  0.5474 -0.1089  0.1107
 3379SOL    HW221357   8.928   4.509   0.862 -0.5082  0.8531 -0.7789
 3380SOL     OW21358   2.733   0.127   4.420  0.1805 -0.2340 -0.2337
 3380SOL    HW121359   2.643   0.159   4.450  0.3941  1.0449 -0.9253
 3380SOL    HW221360   2.803   0.188   4.457  0.6170 -0.0527 -1.3670
 3381SOL     OW21361   9.127   9.538   6.231 -0.8002 -0.3960 -0.2709
 3381SOL    HW121362   9.167   9.626   6.206 -2.6951  0.0862 -1.6383
 3381SOL    HW221363   9.128   9.529   6.331 -1.6804  1.6845 -0.0608
 3382SOL     OW21364   7.934   5.159   1.746  0.4446  0.4418 -0.5038
 3382SOL    HW121365   7.856   5.196   1.797  1.0478  1.1697 -0.0834
 3382SOL    HW221366   7.962   5.072   1.787 -0.5595 -0.1574 -1.0729
 3383SOL     OW21367   9.714   3.604   0.303 -0.0912 -0.0016  0.1471
 3383SOL    HW121368   9.800   3.601   0.354  0.3072 -0.9514 -0.5880
 3383SOL    HW221369   9.732   3.633   0.209 -0.7463  1.0903  0.3502
 3384SOL     OW21370   7.342   2.417   2.238 -0.2544 -0.1931  0.2020
 3384SOL    HW121371   7.265   2.353   2.235 -1.1353  0.9269 -1.2084
 3384SOL    HW221372   7.328   2.490   2.172  2.3502 -0.3266 -0.5476
 3385SOL     OW21373   7.703   6.530   5.509 -0.3441  0.2441  0.2327
 3385SOL    HW121374   7.624   6.564   5.561 -1.4419 -0.0958 -1.1617
 3385SOL    HW221375   7.675   6.515   5.414  0.7161 -2.3966  0.3121
 3386SOL     OW21376   9.988   6.064   3.247  0.4103 -0.0602 -0.0236
 3386SOL    HW121377  10.039   5.985   3.282 -1.0367 -0.5967  0.9386
 3386SOL    HW221378  10.006   6.143   3.305  0.8849 -0.0039 -0.2468
 3387SOL     OW21379   2.955   9.658   4.092 -0.7663 -0.2740  0.0516
 3387SOL    HW121380   2.939   9.735   4.154 -0.2722  0.7270 -1.0402
 3387SOL    HW221381   2.867   9.629   4.052 -1.0092 -0.5583  0.7876
 3388SOL     OW21382   3.291   1.680   6.689 -0.0598 -0.2974  0.4444
 3388SOL    HW121383   3.242   1.721   6.613 -2.4061 -1.9302  1.0285
 3388SOL    HW221384   3.237   1.688   6.773  0.9753 -1.4931  1.2585
 3389SOL     OW21385   0.539   5.028   3.088 -0.0500  0.4783  0.6181
 3389SOL    HW121386   0.593   5.100   3.044  0.2148  0.4945  0.9749
 3389SOL    HW221387   0.548   4.943   3.035 -0.0510  0.6027  0.4159
 3390SOL     OW21388   3.434   0.345   4.398 -0.9278 -0.1828 -0.3399
 3390SOL    HW121389   3.434   0.397   4.312 -0.5149 -1.1611 -0.9471
 3390SOL    HW221390   3.414   0.248   4.378  0.2887 -0.6186  0.5401
 3391SOL     OW21391   4.902   6.626   1.475 -0.1247  0.1107  0.1362
 3391SOL    HW121392   4.924   6.639   1.572 -0.4963 -1.8106  0.5093
 3391SOL    HW221393   4.921   6.531   1.449 -1.1492  0.2924 -1.3661
 3392SOL     OW21394   2.411   2.654   3.576  0.2198  0.1073  0.5691
 3392SOL    HW121395   2.475   2.641   3.652 -0.4587 -3.7052  0.6159
 3392SOL    HW221396   2.317   2.660   3.612  0.2342  2.4323  0.2787
 3393SOL     OW21397   8.558   9.104   1.679 -0.0364  0.4919  0.1521
 3393SOL    HW121398   8.514   9.115   1.590 -2.6084 -0.3748  1.2687
 3393SOL    HW221399   8.563   9.192   1.725  0.3778  0.7745 -0.4328
 3394SOL     OW21400   2.624   3.273   6.020 -0.3333 -0.3834  0.8962
 3394SOL    HW121401   2.587   3.212   6.091  0.5423 -0.5226  1.2419
 3394SOL    HW221402   2.707   3.232   5.982 -1.7342 -1.1636 -1.4597
 3395SOL     OW21403   6.381   8.010   4.112 -0.7803 -0.2623  0.1623
 3395SOL    HW121404   6.362   8.105   4.136 -1.6719 -0.2749 -0.5040
 3395SOL    HW221405   6.454   7.975   4.171 -1.9643  0.1490  1.8888
 3396SOL     OW21406   9.108   7.080   0.983 -0.1420  0.1082 -0.1443
 3396SOL    HW121407   9.183   7.020   1.012 -0.5869 -0.6026 -0.4547
 3396SOL    HW221408   9.131   7.175   1.006  0.3465 -0.2273  0.7940
 3397SOL     OW21409   2.329   9.429   0.020 -0.2426  0.7068 -0.8449
 3397SOL    HW121410   2.288   9.356   0.074 -0.0688  0.4306 -1.0874
 3397SOL    HW221411   2.382   9.390  -0.056  1.0487  1.0349 -0.1327
 3398SOL     OW21412   9.931   2.636   6.069  0.6673 -0.1291  0.0942
 3398SOL    HW121413   9.863   2.579   6.023  1.2578 -0.8590  0.1229
 3398SOL    HW221414  10.017   2.586   6.077  1.7291  1.3595 -1.4349
 3399SOL     OW21415   0.915   9.941   6.501  0.0340 -0.2745 -0.0447
 3399SOL    HW121416   0.925  10.014   6.569 -0.7475 -0.0197 -0.1972
 3399SOL    HW221417   0.894   9.981   6.412  0.3725 -0.6438 -0.2909
 3400SOL     OW21418   8.746   4.662   3.965 -0.2111 -0.3516  0.0406
 3400SOL    HW121419   8.808   4.625   3.896  0.6432  0.1075  0.5660
 3400SOL    HW221420   8.738   4.597   4.041  0.1509 -0.1091  0.2855
 3401SOL     OW21421   0.929   7.037   5.510  0.5657 -0.6046 -0.2907
 3401SOL    HW121422   0.882   7.119   5.544 -1.2154 -1.5138 -0.4659
 3401SOL    HW221423   0.982   6.996   5.584  0.6431  0.1422  0.0737
 3402SOL     OW21424   1.282   1.851   4.991 -0.2103  0.0944 -0.0653
 3402SOL    HW121425   1.232   1.842   4.905 -2.5733 -2.5418  1.5216
 3402SOL    HW221426   1.364   1.908   4.976 -1.4303  1.0340 -3.6333
 3403SOL     OW21427   0.352   9.920   5.869 -0.0557 -0.0517 -0.0710
 3403SOL    HW121428   0.390  10.012   5.862  0.7031 -0.3528  0.0117
 3403SOL    HW221429   0.419   9.853   5.835 -1.1975 -0.4422 -1.6162
 3404SOL     OW21430   4.480   3.638   4.588  0.0882  0.4005 -0.4373
 3404SOL    HW121431   4.395   3.595   4.555  0.3313 -1.4245  1.2128
 3404SOL    HW221432   4.514   3.587   4.666  1.7573  2.2106  0.0403
 3405SOL     OW21433   4.350   9.439   6.050  0.3570 -0.4633 -0.1469
 3405SOL    HW121434   4.327   9.434   6.148  0.9929 -0.3870  0.0099
 3405SOL    HW221435   4.371   9.348   6.016  0.5962 -0.4236 -0.1016
 3406SOL     OW21436   7.793   0.644   0.837 -0.1478  0.2719 -0.0173
 3406SOL    HW121437   7.762   0.609   0.926  0.2009 -1.2305 -0.4677
 3406SOL    HW221438   7.723   0.703   0.798 -1.0800 -0.5156  0.4373
 3407SOL     OW21439   9.202   2.424   0.105  0.1334 -0.2912 -0.1536
 3407SOL    HW121440   9.297   2.450   0.122 -0.3231 -0.4923  3.1567
 3407SOL    HW221441   9.142   2.499   0.132 -0.7826 -1.5583  1.4457
 3408SOL     OW21442   5.094   0.660   3.393 -0.4875 -0.0881 -0.6616
 3408SOL    HW121443   5.040   0.653   3.477 -0.6733 -1.9416 -0.9098
 3408SOL    HW221444   5.163   0.732   3.403  1.7196 -2.5072  2.3778
 3409SOL     OW21445   9.509   7.092   1.944  0.2485  0.4548 -0.2660
 3409SOL    HW121446   9.498   7.054   2.036 -0.3465 -0.4699 -0.7145
 3409SOL    HW221447   9.435   7.157   1.926 -0.1728 -0.0685 -0.4369
 3410SOL     OW21448   5.011   9.295   2.170  0.4130 -0.7656 -0.4240
 3410SOL    HW121449   5.108   9.286   2.147  1.6754  2.3959  3.0470
 3410SOL    HW221450   4.982   9.218   2.226  1.5447 -0.6661  0.3120
 3411SOL     OW21451   1.330   6.703   6.127  0.2852 -0.5559  0.3100
 3411SOL    HW121452   1.337   6.755   6.042  0.7272  0.1034  0.7454
 3411SOL    HW221453   1.368   6.611   6.113  0.5633 -0.3733 -0.1377
 3412SOL     OW21454   3.119   4.057   3.015 -0.5679  0.0121  0.2237
 3412SOL    HW121455   3.170   4.065   2.930  0.5363 -0.4206  0.8416
 3412SOL    HW221456   3.132   4.140   3.070 -1.4213  0.3679 -0.0927
 3413SOL     OW21457   3.142   2.515   1.171  0.1218  0.8892  0.1544
 3413SOL    HW121458   3.193   2.490   1.089 -0.5276  1.0604 -0.3087
 3413SOL    HW221459   3.064   2.573   1.145  0.4465  1.7162  0.9877
 3414SOL     OW21460   8.190   9.819   2.680 -0.1835  0.3282  0.2673
 3414SOL    HW121461   8.149   9.900   2.721  0.1088 -0.2968  1.8470
 3414SOL    HW221462   8.129   9.782   2.610 -0.1631  2.0858 -0.7131
 3415SOL     OW21463   7.680   7.288   6.072  0.3138 -0.5698  0.2594
 3415SOL    HW121464   7.721   7.352   6.137 -1.6853 -0.0232  1.0135
 3415SOL    HW221465   7.673   7.198   6.114  0.5168 -0.6085  0.2113
 3416SOL     OW21466   7.343   2.080   1.164  0.3099 -0.4680 -0.4746
 3416SOL    HW121467   7.386   2.028   1.239  1.3265 -1.0024 -1.3986
 3416SOL    HW221468   7.250   2.047   1.150 -0.3487  0.5460  1.4176
 3417SOL     OW21469   7.521   6.323   4.799  0.7311 -0.7407  0.4027
 3417SOL    HW121470   7.528   6.223   4.806 -0.2267 -0.8573 -0.0875
 3417SOL    HW221471   7.428   6.351   4.823  0.6628 -0.0858 -0.5669
 3418SOL     OW21472   0.119   2.719   2.941 -0.6983  0.7638  0.5175
 3418SOL    HW121473   0.175   2.753   2.866 -0.1479  1.8010  1.3837
 3418SOL    HW221474   0.151   2.629   2.969 -1.0576  0.2709 -0.6442
 3419SOL     OW21475   3.073   6.460   1.861 -0.2910 -0.1918  0.1498
 3419SOL    HW121476   3.011   6.468   1.939 -0.1583  0.1234  0.2233
 3419SOL    HW221477   3.135   6.383   1.876  1.0360  1.0613  1.2750
 3420SOL     OW21478   4.891   9.737   1.533  0.7634 -0.5176 -0.6184
 3420SOL    HW121479   4.907   9.659   1.594  0.8094 -1.2803 -1.5880
 3420SOL    HW221480   4.952   9.730   1.454  0.4930  0.3008 -0.8968
 3421SOL     OW21481   3.696   2.121   4.421 -0.3360  0.5614  0.3702
 3421SOL    HW121482   3.649   2.184   4.359  2.2710  1.0615 -1.1469
 3421SOL    HW221483   3.760   2.173   4.478  1.2343 -0.5813 -0.3252
 3422SOL     OW21484   2.195   3.218   1.642 -0.1782  0.0382  0.5410
 3422SOL    HW121485   2.264   3.271   1.691 -1.8552  0.5102  2.4827
 3422SOL    HW221486   2.207   3.121   1.661 -0.8123  0.2162  1.9486
 3423SOL     OW21487   7.923   9.564   3.149  0.1028 -0.6614  0.2780
 3423SOL    HW121488   7.863   9.644   3.139 -1.7633 -2.0942 -0.2338
 3423SOL    HW221489   8.002   9.589   3.205  0.2116  1.8883 -0.9319
 3424SOL     OW21490   3.981   9.520   6.306  0.4044  0.0203  0.3274
 3424SOL    HW121491   3.972   9.560   6.397  0.4903  0.3779  0.1837
 3424SOL    HW221492   4.077   9.523   6.278  0.3810 -0.1032  0.2325
 3425SOL     OW21493   9.196   3.030   4.653  0.2395 -0.1959 -0.0868
 3425SOL    HW121494   9.268   2.961   4.643  2.5461  2.3377 -1.5233
 3425SOL    HW221495   9.227   3.102   4.715 -0.6823  1.3986 -1.4429
 3426SOL     OW21496   1.690   3.837   4.926 -0.1236  0.0662  0.7343
 3426SOL    HW121497   1.620   3.888   4.975 -0.2070  0.1773  0.4963
 3426SOL    HW221498   1.651   3.795   4.844  0.6484  2.2123 -0.7586
 3427SOL     OW21499   7.896   1.532   3.698  0.0681 -0.2619  0.2450
 3427SOL    HW121500   7.808   1.518   3.744 -0.4250 -0.5920 -0.7876
 3427SOL    HW221501   7.962   1.465   3.733 -0.1007 -0.0537  0.9772
 3428SOL     OW21502   3.864   0.477   2.334 -0.8392  0.3233 -0.1396
 3428SOL    HW121503   3.841   0.541   2.260 -0.9934  1.7848  1.1470
 3428SOL    HW221504   3.815   0.503   2.417 -2.1387 -2.4363  0.0009
 3429SOL     OW21505   9.095   3.077   1.371 -0.7453 -0.1828  0.1464
 3429SOL    HW121506   9.053   3.118   1.290 -1.5151  0.4174  0.8379
 3429SOL    HW221507   9.085   3.139   1.449  0.8494 -0.3242  0.4838
 3430SOL     OW21508   8.061   5.294   3.160 -0.1609  0.0108  0.2214
 3430SOL    HW121509   8.158   5.273   3.171  0.1715  0.9740 -0.8013
 3430SOL    HW221510   8.044   5.389   3.186 -0.5750  0.2736 -0.9784
 3431SOL     OW21511   3.722   8.410   3.128  0.1401 -0.0953 -0.3053
 3431SOL    HW121512   3.814   8.373   3.135  0.2875  0.4299  0.6849
 3431SOL    HW221513   3.659   8.339   3.094  0.7966 -0.6099 -0.4512
 3432SOL     OW21514   0.991   8.353   5.510  0.2875 -0.1219 -0.2871
 3432SOL    HW121515   1.038   8.435   5.542  0.6972 -0.6267  0.4168
 3432SOL    HW221516   1.031   8.323   5.423 -0.4261  0.8986 -0.9909
 3433SOL     OW21517   8.279   8.386   1.175  0.0580 -0.3287  0.3113
 3433SOL    HW121518   8.204   8.451   1.183 -0.0269 -0.5485  1.3021
 3433SOL    HW221519   8.251   8.309   1.118  0.6466  1.2000 -2.1324
 3434SOL     OW21520   3.012   6.591   1.439 -0.1000 -0.8216  0.2922
 3434SOL    HW121521   3.071   6.533   1.381 -1.8371 -0.8140 -1.5407
 3434SOL    HW221522   3.011   6.683   1.401 -1.8332 -0.9954 -0.1102
 3435SOL     OW21523   0.057   1.438   5.289 -0.5144  0.3817  0.8135
 3435SOL    HW121524  -0.019   1.451   5.353 -0.5042  0.2207  0.8583
 3435SOL    HW221525   0.107   1.524   5.280 -0.4361  0.3697  1.1211
 3436SOL     OW21526   8.291   6.964   2.826 -0.1995  1.0730 -0.6551
 3436SOL    HW121527   8.365   6.926   2.771 -0.8694  0.2172 -0.9893
 3436SOL    HW221528   8.224   6.892   2.845  0.6347  1.0342  2.3388
 3437SOL     OW21529   6.725   6.360   5.562 -0.4176  0.2963  0.2412
 3437SOL    HW121530   6.679   6.347   5.474  0.5066  1.4110 -0.4043
 3437SOL    HW221531   6.723   6.273   5.613  0.6132 -0.8372 -1.6059
 3438SOL     OW21532   0.402   5.179   5.734 -0.3320  0.1988  0.2932
 3438SOL    HW121533   0.430   5.220   5.821 -1.1103 -1.6799  1.4527
 3438SOL    HW221534   0.303   5.174   5.730 -0.2451 -1.4138  0.0928
 3439SOL     OW21535   0.240   2.756   3.396  0.1789 -0.7580  0.4637
 3439SOL    HW121536   0.202   2.672   3.359 -1.7218 -0.0056  0.6207
 3439SOL    HW221537   0.320   2.735   3.452 -0.0317 -2.4095  0.1681
 3440SOL     OW21538   8.400   2.464   4.107 -0.5125 -0.2578 -0.5886
 3440SOL    HW121539   8.391   2.388   4.171  1.3083 -0.5326 -0.6380
 3440SOL    HW221540   8.425   2.429   4.017 -3.0825  0.1214 -1.5005
 3441SOL     OW21541   8.500   3.145   0.063 -0.5864  0.5484 -0.1407
 3441SOL    HW121542   8.528   3.204  -0.013  1.1701 -1.9983 -1.5408
 3441SOL    HW221543   8.498   3.050   0.032 -2.1836 -0.2816  2.3902
 3442SOL     OW21544   0.235   2.290   2.270 -0.3907 -0.2450  0.3802
 3442SOL    HW121545   0.334   2.282   2.265 -0.1433  2.0786  0.9369
 3442SOL    HW221546   0.193   2.218   2.216  1.6534  0.9585 -3.0090
 3443SOL     OW21547   0.235   1.448   6.147  0.5376  0.4782  0.0455
 3443SOL    HW121548   0.307   1.417   6.086  1.5232  1.0542  0.9079
 3443SOL    HW221549   0.154   1.390   6.136  1.7198 -1.2287  0.2979
 3444SOL     OW21550   3.546   9.221   4.528  0.2715 -0.1745  0.1140
 3444SOL    HW121551   3.597   9.280   4.465 -1.4123  0.4804 -0.6947
 3444SOL    HW221552   3.492   9.278   4.590  0.4694 -0.8509  0.9215
 3445SOL     OW21553   9.834   6.972   1.012  0.2685 -0.3276 -0.4698
 3445SOL    HW121554   9.765   7.033   0.973  1.6569  0.4724 -1.7294
 3445SOL    HW221555   9.801   6.878   1.010 -0.3318 -0.0960 -2.1241
 3446SOL     OW21556   8.202   4.040   2.846 -0.0952 -0.0344  0.4928
 3446SOL    HW121557   8.210   4.112   2.777  2.0920 -1.6507 -1.0098
 3446SOL    HW221558   8.112   3.997   2.840  0.0622 -0.1340 -1.3457
 3447SOL     OW21559   9.818   0.396   4.248  0.1742  0.0039 -0.5610
 3447SOL    HW121560   9.738   0.454   4.229  0.5901  0.3253 -1.3574
 3447SOL    HW221561   9.841   0.402   4.345  0.6555  1.7745 -0.7562
 3448SOL     OW21562   8.164   8.171   3.382  0.2286  0.6342 -0.5278
 3448SOL    HW121563   8.069   8.150   3.407  0.5690  1.0682  1.1681
 3448SOL    HW221564   8.192   8.257   3.423  0.7465  1.5017 -2.6466
 3449SOL     OW21565   8.824   5.979   4.256 -0.5527 -0.0396  0.3703
 3449SOL    HW121566   8.895   6.047   4.238  2.1894 -2.1520  2.6575
 3449SOL    HW221567   8.792   5.988   4.350 -1.9537 -0.3844 -0.0561
 3450SOL     OW21568   2.401   3.363   2.243  0.0157 -0.7584 -0.1998
 3450SOL    HW121569   2.481   3.352   2.183 -1.0935 -1.6549 -1.5671
 3450SOL    HW221570   2.349   3.277   2.245 -0.7526 -0.2779  0.9103
 3451SOL     OW21571   8.610   4.040   6.242  0.3581  0.0716 -0.4337
 3451SOL    HW121572   8.707   4.057   6.258  0.7582 -0.4976 -2.1322
 3451SOL    HW221573   8.576   4.106   6.174 -0.4160  0.2047  0.0849
 3452SOL     OW21574   3.047   3.053   5.194 -0.6290 -0.3713  0.1126
 3452SOL    HW121575   3.135   3.080   5.231 -0.3999 -0.6212 -0.2499
 3452SOL    HW221576   2.990   3.133   5.180 -0.2052 -0.1485 -0.3160
 3453SOL     OW21577   0.868   7.126   4.950 -0.6908 -0.0430  0.4333
 3453SOL    HW121578   0.909   7.122   4.859  1.0993 -0.4465  1.2489
 3453SOL    HW221579   0.781   7.077   4.949  0.2718 -1.7853 -0.5710
 3454SOL     OW21580   1.207   0.843   4.629 -0.0329 -0.9204 -0.3945
 3454SOL    HW121581   1.257   0.761   4.659  1.3016 -0.1314 -0.4005
 3454SOL    HW221582   1.134   0.816   4.566 -0.1058 -2.1767  0.2072
 3455SOL     OW21583   9.528   9.647   2.024  0.1351 -0.6471 -0.5668
 3455SOL    HW121584   9.558   9.699   1.944 -1.0933 -0.5400 -0.9717
 3455SOL    HW221585   9.521   9.550   2.000  0.4698 -0.7177 -0.3822
 3456SOL     OW21586   7.084   0.345   2.202 -0.2196  0.2477 -0.7127
 3456SOL    HW121587   7.015   0.415   2.182 -0.9016 -0.2623 -0.1692
 3456SOL    HW221588   7.140   0.375   2.278  0.2497  0.7211 -1.2369
 3457SOL     OW21589   9.568   1.307   0.505 -0.1857 -0.3995  0.4686
 3457SOL    HW121590   9.481   1.263   0.481 -0.8397  1.7643 -1.2542
 3457SOL    HW221591   9.576   1.313   0.604 -2.2569 -0.1264  0.6335
 3458SOL     OW21592   0.388   7.851   0.659  0.1668  0.1572  0.7748
 3458SOL    HW121593   0.348   7.763   0.633  0.3165 -0.4008  2.3579
 3458SOL    HW221594   0.404   7.853   0.758  2.1545  1.1590  0.4667
 3459SOL     OW21595   2.611   8.833   1.284  0.1805  0.3102  0.7010
 3459SOL    HW121596   2.532   8.863   1.338 -1.0503 -0.1047 -0.8380
 3459SOL    HW221597   2.686   8.898   1.297 -1.1734  1.9682  0.4124
 3460SOL     OW21598   7.331   5.357   5.418 -0.0969 -0.0193 -0.0489
 3460SOL    HW121599   7.346   5.259   5.429 -0.0017  0.1665  1.5971
 3460SOL    HW221600   7.323   5.379   5.320 -0.0131 -1.6373 -0.4335
 3461SOL     OW21601   4.022   1.756   5.069  0.1539 -0.4900  0.0967
 3461SOL    HW121602   4.012   1.677   5.009  0.0729 -0.0457 -0.4720
 3461SOL    HW221603   4.037   1.838   5.015  1.3601 -0.2836  0.7273
 3462SOL     OW21604   5.490   1.475   5.468 -0.1613  0.1048 -0.4026
 3462SOL    HW121605   5.523   1.513   5.554 -0.6851 -0.5086  0.0765
 3462SOL    HW221606   5.549   1.504   5.393  0.8282 -0.1078  0.2964
 3463SOL     OW21607   0.245   4.865   2.794 -0.2757 -0.7571 -0.3176
 3463SOL    HW121608   0.290   4.841   2.880  0.2719  0.2639 -0.3177
 3463SOL    HW221609   0.170   4.801   2.777  2.1272 -3.4578 -1.1145
 3464SOL     OW21610   2.405   1.259   6.261  0.1028  0.5501  0.8171
 3464SOL    HW121611   2.348   1.182   6.289  0.7527  0.0132  0.6908
 3464SOL    HW221612   2.501   1.231   6.260  0.1573  0.7351 -1.3349
 3465SOL     OW21613   0.202   8.574   3.628  0.5169  0.1056  0.0984
 3465SOL    HW121614   0.253   8.650   3.587  0.9911  1.2841  2.7243
 3465SOL    HW221615   0.254   8.489   3.619  1.3140  0.6348 -0.3573
 3466SOL     OW21616   2.924   3.480   6.026 -0.3596  0.1012  0.3106
 3466SOL    HW121617   2.848   3.528   5.981 -0.0259  1.2740  0.9585
 3466SOL    HW221618   2.896   3.454   6.118  0.1431  0.8774  0.6890
 3467SOL     OW21619   8.523   6.368   5.140 -0.2251  0.4710  0.0148
 3467SOL    HW121620   8.584   6.404   5.210 -0.6612 -0.0418  0.6588
 3467SOL    HW221621   8.577   6.335   5.062  0.2300  1.5066 -0.1073
 3468SOL     OW21622   0.847   8.976   2.969  0.3152 -0.6517  0.4836
 3468SOL    HW121623   0.813   9.067   2.944  1.6024 -0.6166 -1.2174
 3468SOL    HW221624   0.943   8.983   2.995  0.2687 -1.4545  0.8758
 3469SOL     OW21625   6.573   9.582   3.673 -0.2311 -0.5436 -0.4328
 3469SOL    HW121626   6.493   9.549   3.723 -1.3703  3.6094  0.7034
 3469SOL    HW221627   6.655   9.564   3.727 -0.7620 -1.7592 -0.0156
 3470SOL     OW21628   6.135   9.486   3.628 -0.1859  0.5574 -0.2273
 3470SOL    HW121629   6.061   9.553   3.631 -0.0965  0.5759  2.1417
 3470SOL    HW221630   6.211   9.517   3.685  0.1216 -1.2265  0.3678
 3471SOL     OW21631   3.103   3.404   3.699  0.0632  0.4277 -0.1695
 3471SOL    HW121632   3.146   3.425   3.787 -0.3175  0.1342  0.0919
 3471SOL    HW221633   3.078   3.307   3.696 -0.6061  0.5976 -0.2968
 3472SOL     OW21634   0.428   5.457   3.583 -0.2667 -0.3143  0.0932
 3472SOL    HW121635   0.333   5.427   3.582 -0.3074 -0.1667 -0.5787
 3472SOL    HW221636   0.471   5.436   3.495 -0.0735  0.8716 -0.1069
 3473SOL     OW21637   9.717   7.952   0.784 -0.5377 -0.5428 -0.2525
 3473SOL    HW121638   9.633   7.996   0.751  0.8604  1.1410 -1.6037
 3473SOL    HW221639   9.708   7.853   0.775 -2.2660 -0.3652 -0.6633
 3474SOL     OW21640   6.263   7.688   3.316  0.1065 -0.2758 -0.3521
 3474SOL    HW121641   6.274   7.612   3.379 -0.4239  1.1521  1.4996
 3474SOL    HW221642   6.189   7.668   3.251  0.0192 -1.3573  0.0862
 3475SOL     OW21643   7.158   0.633   0.320 -0.2544 -0.3469 -0.1032
 3475SOL    HW121644   7.176   0.538   0.294 -1.0093 -0.3266 -0.7360
 3475SOL    HW221645   7.227   0.664   0.385  0.3245 -1.1519 -0.3260
 3476SOL     OW21646   8.841   1.563   4.924  0.1400 -0.1822  0.0605
 3476SOL    HW121647   8.916   1.576   4.988  1.6565  1.2739 -1.9267
 3476SOL    HW221648   8.869   1.500   4.852 -1.6953 -2.1596  1.0152
 3477SOL     OW21649   3.812   8.739   5.310 -0.3174 -0.1891  0.5126
 3477SOL    HW121650   3.823   8.664   5.245  0.1080  0.5590 -0.2763
 3477SOL    HW221651   3.715   8.748   5.333 -0.4385 -0.6280  0.1978
 3478SOL     OW21652   1.951   2.326   3.276 -0.3358  0.0743 -0.4725
 3478SOL    HW121653   1.976   2.371   3.191  1.4100 -0.6121 -0.3435
 3478SOL    HW221654   1.935   2.228   3.259  1.4325 -0.3511  0.2158
 3479SOL     OW21655   3.814   3.990   5.303  0.3306 -0.5100 -0.1731
 3479SOL    HW121656   3.854   4.024   5.218  0.6103 -3.2520 -1.1686
 3479SOL    HW221657   3.745   3.920   5.282 -2.2269  1.3480  1.6928
 3480SOL     OW21658   3.663   3.500   3.262 -0.4053  0.0999  0.6759
 3480SOL    HW121659   3.728   3.572   3.239 -0.2951 -0.6224 -1.3717
 3480SOL    HW221660   3.704   3.411   3.240 -1.5602 -0.4314  0.6709
 3481SOL     OW21661   7.542   5.012   0.180 -0.0435  0.4311 -0.0514
 3481SOL    HW121662   7.561   5.085   0.245  0.4399 -0.7931  1.2191
 3481SOL    HW221663   7.511   4.930   0.230  2.6056 -1.3066 -1.1276
 3482SOL     OW21664   7.460   8.294   5.139  0.0205 -0.1485  0.0170
 3482SOL    HW121665   7.466   8.251   5.048 -0.3630 -1.9516  0.8136
 3482SOL    HW221666   7.497   8.231   5.207  2.1579  1.9708  0.9111
 3483SOL     OW21667   7.156   1.686   1.141 -0.0168 -0.2227 -0.4516
 3483SOL    HW121668   7.197   1.612   1.088 -0.2854 -1.4001  0.9496
 3483SOL    HW221669   7.058   1.668   1.152 -0.0091  0.1320  0.2152
 3484SOL     OW21670   4.265   8.699   0.670 -0.6185  0.5673 -0.1598
 3484SOL    HW121671   4.232   8.707   0.576  1.3552  0.2257 -0.9080
 3484SOL    HW221672   4.306   8.786   0.699  1.0609 -0.0951 -0.5223
 3485SOL     OW21673   1.561   9.272   0.518 -0.4865 -0.5048 -0.2014
 3485SOL    HW121674   1.482   9.330   0.532 -0.5806 -0.8525  0.7090
 3485SOL    HW221675   1.537   9.176   0.534 -0.3146 -0.8048 -1.6131
 3486SOL     OW21676   0.643   8.221   4.542 -0.0508  0.1514 -0.6048
 3486SOL    HW121677   0.645   8.321   4.550  1.1193  0.2186 -1.4737
 3486SOL    HW221678   0.672   8.181   4.628  2.0387  0.6457 -1.0215
 3487SOL     OW21679   7.445   3.141   0.734 -0.0918 -0.0685  0.6178
 3487SOL    HW121680   7.405   3.093   0.656  1.0330 -1.8290  1.0869
 3487SOL    HW221681   7.429   3.239   0.725 -0.3783 -0.2950 -1.5894
 3488SOL     OW21682   2.248   8.721   5.216 -0.0841 -0.0102 -0.1418
 3488SOL    HW121683   2.244   8.716   5.316  0.4891  0.3094 -0.1018
 3488SOL    HW221684   2.255   8.629   5.178 -1.0414 -0.1794  0.0778
 3489SOL     OW21685   7.061   9.753   5.829 -0.2966  0.2682  0.2418
 3489SOL    HW121686   6.969   9.765   5.792  0.3678 -0.0249 -1.5193
 3489SOL    HW221687   7.057   9.757   5.929 -2.0835  1.1656  0.1515
 3490SOL     OW21688   6.434   2.813   3.956  0.3813  0.0433 -0.8117
 3490SOL    HW121689   6.335   2.808   3.971  0.2367  0.1833 -1.6984
 3490SOL    HW221690   6.452   2.857   3.868  1.2291 -0.3123 -0.8158
 3491SOL     OW21691   9.472   3.665   3.355 -0.6908  0.2539  0.7054
 3491SOL    HW121692   9.428   3.575   3.357 -0.0762 -0.0389  1.4372
 3491SOL    HW221693   9.515   3.683   3.443 -0.6448  1.1894  0.4986
 3492SOL     OW21694   2.657   2.189   3.552 -0.4022  0.3965 -0.4435
 3492SOL    HW121695   2.582   2.247   3.521 -0.6567  0.5634  0.4797
 3492SOL    HW221696   2.665   2.195   3.651  0.4107 -0.1324 -0.4757
 3493SOL     OW21697   0.214   2.710   0.632 -0.1197 -0.0557  0.1374
 3493SOL    HW121698   0.180   2.743   0.544 -1.4494 -0.9993  0.2647
 3493SOL    HW221699   0.162   2.753   0.706  1.2592  1.0289  0.4833
 3494SOL     OW21700   3.940   0.509   4.435 -0.3879 -0.2543 -0.4403
 3494SOL    HW121701   3.847   0.471   4.442  0.3764 -1.8782  1.3406
 3494SOL    HW221702   4.007   0.435   4.445  1.1225  1.3627  1.7645
 3495SOL     OW21703   9.040   3.199   1.080 -0.5911 -0.1403  0.1525
 3495SOL    HW121704   8.955   3.246   1.105 -1.0413  0.1327 -1.8543
 3495SOL    HW221705   9.054   3.205   0.982  2.8913  1.7065  0.6847
 3496SOL     OW21706   0.414   4.413   5.004 -0.2354  0.5652  0.0542
 3496SOL    HW121707   0.489   4.463   4.959 -0.4564  0.9401  0.1002
 3496SOL    HW221708   0.405   4.445   5.098  0.1225 -0.1072  0.3181
 3497SOL     OW21709   4.211   9.964   0.527 -0.2381  0.5789  0.6916
 3497SOL    HW121710   4.193   9.887   0.589 -0.1361 -1.1360 -1.3188
 3497SOL    HW221711   4.309   9.972   0.511 -0.2343  1.2739  1.0783
 3498SOL     OW21712   0.758   2.282   5.366  0.2299 -0.5048 -0.0976
 3498SOL    HW121713   0.667   2.280   5.406  0.4423  2.7079  0.6466
 3498SOL    HW221714   0.820   2.226   5.421 -1.3364 -3.1215 -0.8911
 3499SOL     OW21715   0.895   8.002   2.898  0.0761 -0.3735  0.3145
 3499SOL    HW121716   0.828   7.958   2.959 -0.0449  0.3083  0.6745
 3499SOL    HW221717   0.986   7.965   2.916 -0.0235 -0.4642  0.6308
 3500SOL     OW21718   9.041   9.944   6.056  0.4402 -0.3464  0.1191
 3500SOL    HW121719   9.111   9.872   6.060 -0.2109 -1.0468 -0.8999
 3500SOL    HW221720   9.060  10.012   6.126  2.6190 -0.1207 -0.6234
 3501SOL     OW21721   5.552   0.025   1.279  0.3611 -0.1429 -0.2485
 3501SOL    HW121722   5.494  -0.056   1.279 -0.0585  0.1539 -0.9070
 3501SOL    HW221723   5.537   0.077   1.195 -0.3675  1.3174  0.7552
 3502SOL     OW21724   1.179   3.618   0.548 -0.7777 -0.4209  0.3058
 3502SOL    HW121725   1.158   3.586   0.641 -2.6837 -0.9294 -0.2720
 3502SOL    HW221726   1.103   3.594   0.487  0.7789 -0.7441 -1.5411
 3503SOL     OW21727   5.166   9.180   3.660  0.1689 -0.2388  0.3115
 3503SOL    HW121728   5.246   9.225   3.621 -1.1223  0.0679 -2.0752
 3503SOL    HW221729   5.124   9.239   3.729 -0.1630  1.2396 -1.1310
 3504SOL     OW21730   8.325   9.560   1.725  0.3742 -0.2294  0.3896
 3504SOL    HW121731   8.425   9.557   1.736  0.5182 -2.0604 -1.3016
 3504SOL    HW221732   8.303   9.586   1.631 -0.7240 -1.5719  0.2678
 3505SOL     OW21733   2.531   7.433   6.169  0.2581 -0.0204 -0.1634
 3505SOL    HW121734   2.567   7.349   6.211  1.8160  1.3981  1.4198
 3505SOL    HW221735   2.474   7.482   6.235 -0.6427  0.1891 -1.0795
 3506SOL     OW21736   3.535   5.069   3.986 -1.1047 -0.0960  0.2121
 3506SOL    HW121737   3.605   5.065   4.057 -1.5593  0.7518  0.7173
 3506SOL    HW221738   3.517   4.977   3.952  0.6598 -0.2575 -0.3389
 3507SOL     OW21739   7.831   3.780   5.319  0.4768  0.2828  0.5451
 3507SOL    HW121740   7.898   3.710   5.344  1.0988  0.5540 -0.3266
 3507SOL    HW221741   7.878   3.861   5.285 -0.2293  1.3634  2.1073
 3508SOL     OW21742   5.352   0.582   1.416 -0.1342 -0.0616  0.1111
 3508SOL    HW121743   5.404   0.553   1.336 -0.1692  1.0894 -0.3302
 3508SOL    HW221744   5.254   0.575   1.396 -0.1443  0.0388  0.1278
 3509SOL     OW21745   5.474   2.851   3.822  0.2864  0.6515 -0.4947
 3509SOL    HW121746   5.543   2.919   3.847 -0.5736  1.0021  0.9400
 3509SOL    HW221747   5.448   2.799   3.903 -0.6334  0.0537 -1.1698
 3510SOL     OW21748   6.720   0.700   4.016  0.0251  0.0739 -0.2547
 3510SOL    HW121749   6.675   0.626   3.966  1.4348  0.2111 -1.7662
 3510SOL    HW221750   6.652   0.769   4.042 -0.8892 -0.5046 -1.0878
 3511SOL     OW21751   2.337   1.693   0.616  0.1918  0.0059 -0.3419
 3511SOL    HW121752   2.400   1.618   0.595 -0.7003 -0.8580  0.0409
 3511SOL    HW221753   2.365   1.774   0.565  0.1701 -1.0618 -2.1100
 3512SOL     OW21754   6.902   7.467   4.284 -0.0180 -0.2866 -0.1759
 3512SOL    HW121755   6.869   7.398   4.219  2.0799 -0.7502 -0.7992
 3512SOL    HW221756   6.998   7.449   4.305  0.2124  1.7574  0.5825
 3513SOL     OW21757   2.297   3.838   5.916 -0.3270  0.2904  0.0107
 3513SOL    HW121758   2.232   3.770   5.882  0.2844 -0.1705 -0.2499
 3513SOL    HW221759   2.282   3.853   6.014 -1.7150  1.1922 -0.3414
 3514SOL     OW21760   0.154   1.222   2.134  0.8169 -0.3971  0.6849
 3514SOL    HW121761   0.153   1.130   2.096 -1.3420  0.2223 -0.8415
 3514SOL    HW221762   0.145   1.289   2.060 -0.4633  0.9404  2.0113
 3515SOL     OW21763   7.992   4.688   6.023 -0.2740  0.0008 -0.0991
 3515SOL    HW121764   7.909   4.741   6.042 -0.9276 -1.2007  0.4316
 3515SOL    HW221765   7.971   4.590   6.028  1.5805 -0.3270  1.9429
 3516SOL     OW21766   3.867   4.946   3.082 -0.0374  0.4776 -0.2112
 3516SOL    HW121767   3.912   4.858   3.097 -1.4781 -0.5154 -1.5177
 3516SOL    HW221768   3.905   5.014   3.145  0.9309 -1.1272  0.9874
 3517SOL     OW21769   3.343   2.068   5.863 -0.7555  0.0602  0.0174
 3517SOL    HW121770   3.363   2.022   5.950  0.2597 -0.3405 -0.4152
 3517SOL    HW221771   3.386   2.158   5.862 -2.4887  0.9137  0.7416
 3518SOL     OW21772   6.601   0.375   1.603  0.2342 -0.1165  0.2230
 3518SOL    HW121773   6.693   0.405   1.631  0.7102  0.2428 -1.6394
 3518SOL    HW221774   6.540   0.454   1.599  0.5541  0.0608 -1.1918
 3519SOL     OW21775   0.756   5.486   0.259  0.4370  0.4760 -0.1832
 3519SOL    HW121776   0.825   5.433   0.310 -0.1177  1.0767  1.2265
 3519SOL    HW221777   0.778   5.485   0.162  0.5625 -2.1809 -0.1586
 3520SOL     OW21778   9.252   2.678   2.825  0.2126  0.9114 -0.5059
 3520SOL    HW121779   9.278   2.707   2.917  0.1055 -0.4135 -0.0559
 3520SOL    HW221780   9.227   2.581   2.825  2.2131  0.3365 -2.3072
 3521SOL     OW21781   8.907   4.683   3.438 -0.2378  0.0778  0.0470
 3521SOL    HW121782   8.896   4.742   3.518  0.5891  0.5756 -0.2030
 3521SOL    HW221783   8.840   4.708   3.368  1.0085  1.6545 -0.6105
 3522SOL     OW21784   0.581   8.727   4.346 -0.1356 -0.2066 -0.5495
 3522SOL    HW121785   0.515   8.749   4.418 -2.5891 -3.8885 -1.4889
 3522SOL    HW221786   0.609   8.811   4.300 -1.2487  1.8509  2.3649
 3523SOL     OW21787   8.788   7.590   0.788 -0.1780 -0.5235 -0.5307
 3523SOL    HW121788   8.888   7.584   0.785 -0.3371 -2.8813 -2.3806
 3523SOL    HW221789   8.757   7.579   0.882  1.2767 -0.3635 -0.0241
 3524SOL     OW21790   7.631   6.413   6.333 -0.5994  0.2365  0.0002
 3524SOL    HW121791   7.604   6.316   6.338 -1.3457  0.4980  1.5212
 3524SOL    HW221792   7.731   6.420   6.328 -0.6203 -0.6541 -2.1152
 3525SOL     OW21793   2.702   0.096   5.704  0.0597 -0.1604 -0.1273
 3525SOL    HW121794   2.787   0.129   5.661  0.3783  0.8625  1.2557
 3525SOL    HW221795   2.724   0.046   5.787 -0.6946  0.0158  0.1826
 3526SOL     OW21796   4.457   7.307   1.511 -0.1298 -0.2491  0.0139
 3526SOL    HW121797   4.412   7.276   1.595 -2.7767  1.7873 -0.5848
 3526SOL    HW221798   4.427   7.250   1.434 -0.5495  0.1814 -0.1428
 3527SOL     OW21799   2.479   1.324   3.537 -0.3997 -0.2903 -0.4084
 3527SOL    HW121800   2.512   1.341   3.444 -0.5507  0.6243 -0.3053
 3527SOL    HW221801   2.550   1.349   3.603 -0.7972  0.4252 -0.2349
 3528SOL     OW21802   4.799   3.002   4.641  0.3267  0.7323 -0.3522
 3528SOL    HW121803   4.860   3.002   4.562  0.3986 -1.0005 -0.2985
 3528SOL    HW221804   4.764   2.910   4.657 -1.4370  1.4835  0.2941
 3529SOL     OW21805   8.947   5.819   3.117 -0.0908 -0.1251  0.3000
 3529SOL    HW121806   8.868   5.782   3.165 -1.9692  1.6283 -1.3334
 3529SOL    HW221807   8.989   5.891   3.172 -0.5676 -0.0228  0.5370
 3530SOL     OW21808   1.669   3.431   0.884  0.1317 -0.2083  0.9065
 3530SOL    HW121809   1.708   3.476   0.803  0.0067 -2.6836 -0.5826
 3530SOL    HW221810   1.718   3.462   0.965  0.7441  1.7940 -0.1849
 3531SOL     OW21811   4.140   2.634   2.106 -0.4971  0.4064 -0.0874
 3531SOL    HW121812   4.196   2.588   2.038 -0.7337  2.2116 -1.5552
 3531SOL    HW221813   4.197   2.693   2.163 -0.6350  0.8676 -0.4175
 3532SOL     OW21814   3.248   5.521   2.101  0.6363  0.3686 -0.3245
 3532SOL    HW121815   3.182   5.458   2.143  0.4750 -0.2989 -1.5755
 3532SOL    HW221816   3.288   5.479   2.020 -0.4975  2.3933 -1.9943
 3533SOL     OW21817   7.470   1.337   6.094  0.1279  0.0123  0.3309
 3533SOL    HW121818   7.498   1.374   6.183 -0.5556 -0.0758  0.5808
 3533SOL    HW221819   7.517   1.388   6.021 -0.5109  1.1292  0.6802
 3534SOL     OW21820   9.640   3.303   5.719  0.4363  0.0523 -0.0498
 3534SOL    HW121821   9.607   3.213   5.746  0.5290  0.4421  1.3852
 3534SOL    HW221822   9.724   3.324   5.768  0.5810  0.7968 -0.6093
 3535SOL     OW21823   7.544   5.992   6.702 -0.2120 -0.6375 -0.4105
 3535SOL    HW121824   7.462   6.038   6.668  0.3716  0.4772 -0.3327
 3535SOL    HW221825   7.535   5.974   6.800 -0.6020 -1.0523 -0.5210
 3536SOL     OW21826   8.940   4.749   1.116 -0.0502 -0.5929 -0.0241
 3536SOL    HW121827   8.995   4.778   1.037 -1.0774 -0.5918 -0.7593
 3536SOL    HW221828   8.931   4.825   1.180 -2.7162  0.7886 -1.9330
 3537SOL     OW21829   3.056   3.408   4.246  0.1707  0.1006  0.0151
 3537SOL    HW121830   3.123   3.478   4.221  1.3359 -0.7625  0.6852
 3537SOL    HW221831   3.037   3.351   4.166  0.8757 -0.1679  0.0329
 3538SOL     OW21832   0.234   0.641   3.667 -0.0203  0.7447  0.5992
 3538SOL    HW121833   0.299   0.564   3.668  1.5546  2.0374  0.4605
 3538SOL    HW221834   0.188   0.645   3.579 -1.9864 -1.5441  1.4706
 3539SOL     OW21835   8.196   5.146   3.498  0.2799  0.0149 -0.1158
 3539SOL    HW121836   8.193   5.068   3.435  2.5385 -0.6507  0.5331
 3539SOL    HW221837   8.162   5.118   3.588 -0.1997  0.1535 -0.2554
 3540SOL     OW21838   2.084   7.682   2.317  0.3716  0.2323  0.0677
 3540SOL    HW121839   2.160   7.618   2.306  0.5101  0.4540 -0.2904
 3540SOL    HW221840   2.013   7.641   2.374 -0.8934 -1.4084 -2.5786
 3541SOL     OW21841   0.259   0.775   4.448  0.1129  0.1177 -0.1939
 3541SOL    HW121842   0.301   0.846   4.392  0.3960  0.4670  0.4618
 3541SOL    HW221843   0.319   0.695   4.450 -0.4415 -0.3385 -1.3513
 3542SOL     OW21844   7.244   9.417   2.325 -1.0363 -0.2902 -0.2918
 3542SOL    HW121845   7.328   9.392   2.373  0.6775  0.8523 -2.6294
 3542SOL    HW221846   7.228   9.352   2.250 -3.0757 -1.3796  1.0234
 3543SOL     OW21847   0.393   6.497   2.159  0.0916  0.2214 -0.3658
 3543SOL    HW121848   0.449   6.543   2.227  0.2802  0.5886 -0.7735
 3543SOL    HW221849   0.433   6.509   2.068 -1.0640  1.1402 -0.7566
 3544SOL     OW21850   6.575   1.953   2.952 -0.0716 -0.0220 -0.2431
 3544SOL    HW121851   6.631   2.030   2.921 -0.0464  0.2000  0.3662
 3544SOL    HW221852   6.520   1.980   3.030  1.2577 -1.1218  1.0959
 3545SOL     OW21853   5.185   4.253   1.490  0.5110 -0.2071  0.3732
 3545SOL    HW121854   5.250   4.187   1.452 -1.1014 -1.1214 -0.8993
 3545SOL    HW221855   5.108   4.264   1.427 -0.6475  0.7442  1.9013
 3546SOL     OW21856   2.882   6.308   0.542  0.5943  0.0429  0.2554
 3546SOL    HW121857   2.968   6.278   0.583  1.1925  1.1209 -0.1868
 3546SOL    HW221858   2.844   6.383   0.596 -0.3714 -0.7930  0.7692
 3547SOL     OW21859   1.238   1.417   5.497 -0.0627 -0.0517  0.1671
 3547SOL    HW121860   1.292   1.499   5.481  0.1639 -0.3414 -0.5581
 3547SOL    HW221861   1.297   1.336   5.494 -0.3383 -0.2702  0.5510
 3548SOL     OW21862   7.962   4.425   6.124  0.6103 -0.1785  0.4691
 3548SOL    HW121863   7.913   4.440   6.210 -1.3495 -1.4986 -0.3801
 3548SOL    HW221864   8.055   4.395   6.144 -0.0348 -1.1681  2.1386
 3549SOL     OW21865   9.292   4.162   3.579  0.4447  0.2950 -0.2927
 3549SOL    HW121866   9.192   4.155   3.577  0.5685 -1.4087 -3.3656
 3549SOL    HW221867   9.321   4.233   3.514  1.3169 -0.1944 -0.4393
 3550SOL     OW21868   6.856   0.862   2.986 -0.6064 -0.1304  0.2030
 3550SOL    HW121869   6.902   0.942   3.024 -0.5109 -0.6752  1.2361
 3550SOL    HW221870   6.875   0.856   2.888  0.4647  0.3722  0.3727
 3551SOL     OW21871   9.006   3.532   1.017  0.5691 -0.3154  0.3501
 3551SOL    HW121872   9.062   3.455   0.983  1.4083  0.5033 -0.1677
 3551SOL    HW221873   9.041   3.562   1.105  1.5898  0.8240 -0.4163
 3552SOL     OW21874   2.626   6.591   2.787  0.2279  0.0684  0.3894
 3552SOL    HW121875   2.542   6.608   2.839  0.0535  1.2087 -0.2540
 3552SOL    HW221876   2.670   6.678   2.765  1.4774 -0.5031  0.5325
 3553SOL     OW21877   9.681   2.161   0.124 -0.7799  0.2516 -0.6387
 3553SOL    HW121878   9.719   2.071   0.105  0.5166  0.6369  0.0944
 3553SOL    HW221879   9.729   2.230   0.070 -0.8572  0.6677 -0.1811
 3554SOL     OW21880   3.370   5.189   6.256 -0.1664 -0.1763 -0.5094
 3554SOL    HW121881   3.446   5.161   6.314 -1.1687 -1.0473  0.4253
 3554SOL    HW221882   3.404   5.218   6.167  1.2665 -0.3138 -0.0114
 3555SOL     OW21883   9.387   4.778   6.356 -0.5387  0.1892  0.0909
 3555SOL    HW121884   9.477   4.783   6.313 -1.2167  1.3330 -1.2628
 3555SOL    HW221885   9.372   4.859   6.412 -1.5349  1.0223 -1.3614
 3556SOL     OW21886   9.683   6.865   6.194 -0.4751 -0.6547  0.3350
 3556SOL    HW121887   9.636   6.780   6.220 -0.1046 -1.0145 -0.1638
 3556SOL    HW221888   9.757   6.844   6.131 -1.4565  0.2186 -1.1416
 3557SOL     OW21889   0.584   5.042   0.633  0.3658 -0.0416  0.3827
 3557SOL    HW121890   0.651   5.113   0.657  0.1312 -0.8082  3.5110
 3557SOL    HW221891   0.543   5.063   0.544  1.5513  2.7898  0.4666
 3558SOL     OW21892   5.555   9.034   3.128 -0.0427 -0.3293 -0.0614
 3558SOL    HW121893   5.636   8.990   3.090 -0.3349 -0.9183 -0.0071
 3558SOL    HW221894   5.577   9.073   3.218  0.8075  1.5897 -1.0677
 3559SOL     OW21895   8.461   9.647   3.143  0.0425  0.1841 -0.7897
 3559SOL    HW121896   8.550   9.600   3.148  1.5013  2.8338 -1.1146
 3559SOL    HW221897   8.399   9.605   3.209  2.4506  0.1683  1.5836
 3560SOL     OW21898   2.005   6.024   2.841 -0.5045  0.7201 -0.1432
 3560SOL    HW121899   1.922   5.993   2.795 -1.1911  1.0335  0.8594
 3560SOL    HW221900   2.048   6.096   2.788 -1.4393  1.2734 -0.1609
 3561SOL     OW21901   2.817   3.739   1.762 -0.3138 -0.5355  0.0075
 3561SOL    HW121902   2.863   3.671   1.705 -0.3561 -0.0592 -0.6036
 3561SOL    HW221903   2.826   3.829   1.720 -0.7846 -0.2586  0.4940
 3562SOL     OW21904   0.506   2.213   4.132 -0.0001  0.1462 -0.1856
 3562SOL    HW121905   0.489   2.301   4.177 -0.3880  0.9212 -1.8092
 3562SOL    HW221906   0.536   2.229   4.038  0.3737 -1.4596 -0.3580
 3563SOL     OW21907   9.925   8.457   3.236 -0.3383  0.1159  0.0306
 3563SOL    HW121908   9.918   8.504   3.148 -0.7877  0.3618  0.1928
 3563SOL    HW221909  10.012   8.408   3.241 -0.0525  0.5773 -0.3187
 3564SOL     OW21910   3.219   9.889   4.490 -0.5670 -0.0510  0.0551
 3564SOL    HW121911   3.277   9.936   4.424 -0.1108  0.2796  0.6853
 3564SOL    HW221912   3.165   9.819   4.443  0.9591 -0.9393 -0.4191
 3565SOL     OW21913   2.966   4.939   3.436  0.2555  0.2142  0.0870
 3565SOL    HW121914   3.026   5.020   3.431  0.4099  0.0114 -1.6986
 3565SOL    HW221915   3.019   4.860   3.467  0.4129  0.5058  0.5630
 3566SOL     OW21916   6.200   1.647   4.233 -0.5325  0.0408 -0.0557
 3566SOL    HW121917   6.127   1.692   4.285  0.1057 -0.0316  0.9198
 3566SOL    HW221918   6.163   1.568   4.185 -1.0841 -0.0309  0.4816
 3567SOL     OW21919   9.885   7.862   3.996  0.2083  0.1326  0.0338
 3567SOL    HW121920   9.965   7.802   3.994 -1.3407 -1.9385 -2.4306
 3567SOL    HW221921   9.893   7.932   3.925  0.9204  1.4644  1.3850
 3568SOL     OW21922   1.824   4.191   4.568  0.7430 -0.0516  0.3792
 3568SOL    HW121923   1.746   4.239   4.608 -0.1293 -1.2349  0.1053
 3568SOL    HW221924   1.867   4.250   4.498 -1.0120 -0.0984 -0.7730
 3569SOL     OW21925   8.786   8.818   3.528  0.1385  0.3087  0.3630
 3569SOL    HW121926   8.757   8.912   3.509 -0.8492 -0.1573 -0.4687
 3569SOL    HW221927   8.787   8.803   3.627  0.7588  1.3349  0.5213
 3570SOL     OW21928   7.707   8.518   5.605 -0.0268 -0.1794 -0.4382
 3570SOL    HW121929   7.636   8.479   5.546  0.1634 -0.5623 -0.4204
 3570SOL    HW221930   7.771   8.446   5.631 -0.5276 -0.1725  0.8472
 3571SOL     OW21931   3.442   0.357   3.681  0.2968 -0.0366 -0.8276
 3571SOL    HW121932   3.540   0.372   3.692  0.1979  0.2700 -0.2861
 3571SOL    HW221933   3.413   0.281   3.739  0.3960 -0.8257 -1.8062
 3572SOL     OW21934   0.781   4.968   0.099  0.4777 -0.0353 -0.3614
 3572SOL    HW121935   0.686   4.999   0.107  0.0488 -1.4892  0.4583
 3572SOL    HW221936   0.823   5.010   0.019 -0.7909  0.7874 -0.6170
 3573SOL     OW21937   0.732   5.455   3.210  0.2499 -0.3516  0.2013
 3573SOL    HW121938   0.725   5.450   3.309  0.8521 -0.2550  0.2520
 3573SOL    HW221939   0.734   5.362   3.172 -0.3247 -0.3859  0.2536
 3574SOL     OW21940   2.607   4.114   1.338 -0.9296  0.4825  0.2574
 3574SOL    HW121941   2.703   4.111   1.365 -1.0408 -1.2909  0.4993
 3574SOL    HW221942   2.586   4.036   1.279 -2.4712  0.2762  1.0553
 3575SOL     OW21943   2.753   5.854   5.482 -0.3424  0.3815  0.0375
 3575SOL    HW121944   2.691   5.873   5.405  0.9045  1.4155 -0.7243
 3575SOL    HW221945   2.824   5.790   5.453  0.9805  1.8874 -0.1169
 3576SOL     OW21946   1.194   9.616   0.408 -0.1249  0.3937 -0.1665
 3576SOL    HW121947   1.146   9.594   0.324  2.1339  0.9812 -1.6413
 3576SOL    HW221948   1.163   9.554   0.481 -0.4511 -1.6318 -1.9640
 3577SOL     OW21949   8.377   6.919   1.933  0.3213 -0.7658 -0.6035
 3577SOL    HW121950   8.358   6.928   1.836  0.2309  0.2085 -0.4984
 3577SOL    HW221951   8.295   6.939   1.986  0.1971 -1.9152 -0.3370
 3578SOL     OW21952   4.495   9.060   1.865  0.1892 -0.1412  0.1041
 3578SOL    HW121953   4.401   9.043   1.896 -0.1786  1.0817 -0.3081
 3578SOL    HW221954   4.534   9.136   1.917  1.1947 -1.0701  0.7253
 3579SOL     OW21955   6.585   8.970   4.920  0.5158  0.0282 -0.0841
 3579SOL    HW121956   6.677   9.002   4.943  0.6835 -0.1150 -0.5696
 3579SOL    HW221957   6.530   9.047   4.888  0.4342  0.1301  0.2930
 3580SOL     OW21958   3.131   5.630   6.048  0.3161  0.2635 -0.0455
 3580SOL    HW121959   3.160   5.725   6.056 -0.9852  0.7532 -0.9408
 3580SOL    HW221960   3.047   5.625   5.994 -0.7138 -1.2065  1.6205
 3581SOL     OW21961   2.875   7.577   5.997 -0.0181 -0.0584  0.3639
 3581SOL    HW121962   2.778   7.604   5.995 -0.1877 -0.4862  2.3730
 3581SOL    HW221963   2.931   7.656   5.972 -0.8798  0.0840 -1.2448
 3582SOL     OW21964   1.326   3.636   2.165 -0.2693  0.4647 -0.0412
 3582SOL    HW121965   1.229   3.658   2.170 -0.0672  1.1616  0.9335
 3582SOL    HW221966   1.337   3.539   2.141 -1.2072  0.1227  0.8691
 3583SOL     OW21967   1.262   8.853   4.650 -0.1645  0.4415  0.1961
 3583SOL    HW121968   1.281   8.755   4.656 -1.3055  0.0889 -1.6564
 3583SOL    HW221969   1.336   8.904   4.693  1.6677 -1.1570 -0.9931
 3584SOL     OW21970   4.124   1.864   0.778 -0.1215 -0.0108 -0.0101
 3584SOL    HW121971   4.136   1.804   0.699  0.5182  0.4978 -0.3073
 3584SOL    HW221972   4.213   1.881   0.821 -0.6204 -1.3647  1.6321
 3585SOL     OW21973   0.294   8.818   6.333 -0.0681  0.0413 -0.8416
 3585SOL    HW121974   0.342   8.764   6.402 -1.0384  1.0592  0.6710
 3585SOL    HW221975   0.254   8.756   6.265 -0.2381 -1.0794  0.2523
 3586SOL     OW21976   0.479   1.895   6.463  0.5863  0.3931  0.1132
 3586SOL    HW121977   0.558   1.897   6.524  0.5285  0.9452  0.1688
 3586SOL    HW221978   0.496   1.830   6.388  0.8811  0.1311  0.4062
 3587SOL     OW21979   6.514   0.645   1.849  0.8464 -0.0570 -0.1237
 3587SOL    HW121980   6.578   0.600   1.911  0.0986 -0.2031  0.5501
 3587SOL    HW221981   6.422   0.610   1.865  0.2322  1.7788  0.4860
 3588SOL     OW21982   2.889   3.101   4.873  0.5665 -0.3706 -0.2370
 3588SOL    HW121983   2.936   3.146   4.797 -1.0741 -0.1828 -1.1606
 3588SOL    HW221984   2.910   3.004   4.872 -2.7064 -1.1561 -3.5046
 3589SOL     OW21985   2.566   3.063   1.908  0.2699  0.2037  0.1028
 3589SOL    HW121986   2.644   3.037   1.852  0.6033  0.0863  0.6167
 3589SOL    HW221987   2.536   3.155   1.882  1.5373  0.8689  0.9184
 3590SOL     OW21988   3.097   9.572   3.870 -0.1177 -0.0250 -0.1269
 3590SOL    HW121989   3.185   9.537   3.901  0.9682  1.6642 -1.2434
 3590SOL    HW221990   3.043   9.601   3.950  0.3171 -1.0853  0.5609
 3591SOL     OW21991   0.990   5.919   4.572  0.1156  0.1190  0.2634
 3591SOL    HW121992   1.048   5.940   4.494 -0.4446  2.2783  0.3776
 3591SOL    HW221993   0.974   5.821   4.577  0.8815 -0.1290 -1.8050
 3592SOL     OW21994   1.529   3.124   0.328 -0.4709  0.1634 -0.1400
 3592SOL    HW121995   1.487   3.199   0.379 -3.3919 -0.4475 -1.5340
 3592SOL    HW221996   1.479   3.040   0.344  2.5854 -1.4723  1.1379
 3593SOL     OW21997   4.165   2.486   6.320 -0.1778  0.0562 -0.6663
 3593SOL    HW121998   4.182   2.406   6.377  2.0032  0.0121 -1.3415
 3593SOL    HW221999   4.170   2.461   6.224  1.0098  1.0673 -0.8916
 3594SOL     OW22000   1.512   0.271   1.186 -0.3966  0.2784  0.1568
 3594SOL    HW122001   1.489   0.281   1.283 -0.0356  1.6369  0.1181
 3594SOL    HW222002   1.455   0.333   1.132  1.9533  2.2432 -0.1350
 3595SOL     OW22003   8.702   8.049   3.140  0.6639 -0.2713 -0.2004
 3595SOL    HW122004   8.727   8.145   3.127 -0.1016 -0.1664 -0.8690
 3595SOL    HW222005   8.608   8.035   3.112  0.9817 -1.3646 -0.7129
 3596SOL     OW22006   5.066   8.752   4.984  0.1397  0.0546 -0.2017
 3596SOL    HW122007   5.080   8.684   4.912  2.4399 -0.9312  1.1410
 3596SOL    HW222008   4.968   8.762   5.000 -0.3312 -1.1935 -2.0671
 3597SOL     OW22009   9.829   6.305   2.550 -0.1041  0.0942  0.0808
 3597SOL    HW122010   9.788   6.220   2.584 -0.8018  0.7496  0.8981
 3597SOL    HW222011   9.768   6.346   2.482 -0.1779  0.3833  0.3194
 3598SOL     OW22012   7.250   0.075   4.079 -0.1095  0.4526 -0.0463
 3598SOL    HW122013   7.332   0.070   4.021  0.2611 -1.2080  0.5968
 3598SOL    HW222014   7.171   0.041   4.027  0.1612 -0.7207  0.2927
 3599SOL     OW22015   9.228   7.289   6.538  0.2131  0.4180  0.6446
 3599SOL    HW122016   9.300   7.298   6.606  0.6604  0.7853  0.1308
 3599SOL    HW222017   9.268   7.258   6.451 -0.0338  1.8872 -0.0106
 3600SOL     OW22018   9.368   3.637   4.005  0.4569  0.2184  0.0216
 3600SOL    HW122019   9.302   3.626   4.079  1.1282 -1.1670  0.4295
 3600SOL    HW222020   9.395   3.733   3.999 -0.6977  0.5930  0.6075
 3601SOL     OW22021   9.688   8.242   3.802  0.2547 -0.3059 -0.0168
 3601SOL    HW122022   9.622   8.311   3.772 -0.4892 -1.1386 -0.3338
 3601SOL    HW222023   9.707   8.255   3.899 -1.7585 -1.1337  0.5266
 3602SOL     OW22024   9.153   1.258   4.693 -0.1770 -0.0991 -0.0466
 3602SOL    HW122025   9.177   1.353   4.711 -1.4436  0.2654 -0.2462
 3602SOL    HW222026   9.235   1.202   4.695  0.3270  0.6659  2.1805
 3603SOL     OW22027   4.754   7.437   2.529  0.1836  0.4652  0.0082
 3603SOL    HW122028   4.804   7.363   2.483  1.1940  0.0311  1.7453
 3603SOL    HW222029   4.807   7.521   2.523  0.6950  0.2264  1.0184
 3604SOL     OW22030   1.708   0.240   0.795  0.6067  0.1259  0.3497
 3604SOL    HW122031   1.757   0.237   0.883  0.3693 -0.1221  0.4742
 3604SOL    HW222032   1.610   0.255   0.812  0.3205 -1.5403  0.2116
 3605SOL     OW22033   2.227   9.358   4.886 -0.1396  0.6292  0.3564
 3605SOL    HW122034   2.253   9.452   4.863 -0.6962  0.7199  0.0861
 3605SOL    HW222035   2.136   9.358   4.927 -0.3064  0.1636 -0.0103
 3606SOL     OW22036   8.707   0.169   0.433 -0.4927 -0.4224 -0.2036
 3606SOL    HW122037   8.693   0.095   0.498 -2.8749  0.4648  0.3523
 3606SOL    HW222038   8.701   0.133   0.340 -2.1849 -0.8573  0.0628
 3607SOL     OW22039   1.301   2.804   0.395 -0.0340 -0.4775  0.1557
 3607SOL    HW122040   1.382   2.752   0.367 -1.5491 -1.9031 -1.6849
 3607SOL    HW222041   1.230   2.796   0.325 -1.9738  0.3253  1.9691
 3608SOL     OW22042   9.013   1.199   5.163 -0.2048  0.0012 -0.7532
 3608SOL    HW122043   9.058   1.281   5.198 -0.9550  0.3430 -0.5833
 3608SOL    HW222044   8.965   1.152   5.237  0.8403 -1.0032 -0.7008
 3609SOL     OW22045   4.780   1.201   6.623  0.6826  0.5160  1.1646
 3609SOL    HW122046   4.697   1.148   6.604  0.5304  1.0000  0.4141
 3609SOL    HW222047   4.796   1.206   6.721  2.2351 -3.2532  1.1865
 3610SOL     OW22048   1.552   9.537   2.002  0.1443  0.3677 -0.1541
 3610SOL    HW122049   1.520   9.566   1.912  1.3149  1.0436 -0.3660
 3610SOL    HW222050   1.496   9.580   2.073  0.0034  0.8195 -0.5338
 3611SOL     OW22051   7.491   0.253   1.842 -0.0063 -0.1546 -0.0974
 3611SOL    HW122052   7.501   0.318   1.767  1.4671 -0.4451 -0.1620
 3611SOL    HW222053   7.554   0.277   1.916  0.4140 -1.3878 -0.0451
 3612SOL     OW22054   6.588   2.805   2.933  0.5659 -0.2734  0.2158
 3612SOL    HW122055   6.569   2.715   2.893 -0.2836 -0.5058  1.1345
 3612SOL    HW222056   6.502   2.846   2.965  1.2559 -0.1164  1.8866
 3613SOL     OW22057   9.961   1.491   4.915 -0.3867  0.7592  0.0444
 3613SOL    HW122058  10.029   1.561   4.892 -0.2165  1.0993  1.5911
 3613SOL    HW222059   9.873   1.516   4.874 -0.1473  1.4804 -0.0382
 3614SOL     OW22060   5.932   1.149   2.324  0.4204 -0.1564  0.0708
 3614SOL    HW122061   5.904   1.073   2.382  0.5329  1.0561  1.7273
 3614SOL    HW222062   5.851   1.198   2.291  0.4331  1.0024  1.7109
 3615SOL     OW22063   6.188   0.574   1.175  0.3992  0.0495 -0.4715
 3615SOL    HW122064   6.108   0.558   1.117  0.1764  2.0377 -0.7686
 3615SOL    HW222065   6.254   0.632   1.126  0.5372  1.1420  0.9519
 3616SOL     OW22066   9.850   3.750   4.843  0.1759  0.6269 -0.3046
 3616SOL    HW122067   9.772   3.740   4.905 -0.1184  3.9547 -0.0560
 3616SOL    HW222068   9.830   3.704   4.756  0.1110 -3.0615  1.5476
 3617SOL     OW22069   1.841   6.427   4.568 -0.1526  0.9031 -0.1796
 3617SOL    HW122070   1.812   6.522   4.583 -2.0438  0.7221 -2.3751
 3617SOL    HW222071   1.863   6.385   4.655 -0.8613  2.8731  0.9869
 3618SOL     OW22072   9.699   6.189   0.519 -0.2292 -0.4108 -0.0159
 3618SOL    HW122073   9.625   6.209   0.455 -1.8801 -0.3586  1.8477
 3618SOL    HW222074   9.679   6.105   0.569  0.0859  0.5339  1.7564
 3619SOL     OW22075   3.448   3.194   1.943  0.1493  0.3505 -0.6594
 3619SOL    HW122076   3.450   3.188   1.844 -0.8460  1.0031 -0.7174
 3619SOL    HW222077   3.391   3.270   1.972  1.3766  0.9116  0.3930
 3620SOL     OW22078   0.475   6.990   4.598 -0.3577 -0.2116 -0.3655
 3620SOL    HW122079   0.409   7.061   4.620 -0.2985 -0.2391 -0.1044
 3620SOL    HW222080   0.428   6.902   4.588 -0.0584 -0.6580  2.0507
 3621SOL     OW22081   2.370   0.319   1.227 -0.0174  0.0460  0.1799
 3621SOL    HW122082   2.344   0.371   1.308 -0.4493 -0.1605  0.1782
 3621SOL    HW222083   2.425   0.377   1.166 -2.0207  1.0998 -0.6841
 3622SOL     OW22084   2.170   7.029   2.727 -0.1621  0.6592  0.0552
 3622SOL    HW122085   2.223   6.985   2.799 -0.0920  0.6317 -0.0127
 3622SOL    HW222086   2.231   7.057   2.652 -0.1518  1.2530  0.2838
 3623SOL     OW22087   2.937   3.084   2.666  0.6555 -0.0010 -0.1837
 3623SOL    HW122088   2.904   3.171   2.704  0.7590  0.3675 -0.9306
 3623SOL    HW222089   2.918   3.081   2.568 -3.8206 -2.8993  0.6394
 3624SOL     OW22090   3.216   2.626   0.039  0.1079 -0.1867 -0.3249
 3624SOL    HW122091   3.195   2.718   0.071  0.0582 -0.3467  0.1031
 3624SOL    HW222092   3.265   2.631  -0.048  1.2275  0.2740  0.3324
 3625SOL     OW22093   9.448   3.778   6.606  0.0988 -0.3704  0.3590
 3625SOL    HW122094   9.505   3.856   6.582  0.1240 -0.7686 -0.9156
 3625SOL    HW222095   9.505   3.696   6.616 -0.0472 -0.4308  0.7129
 3626SOL     OW22096   2.790   7.626   3.573  0.1306 -0.0070 -0.0400
 3626SOL    HW122097   2.730   7.590   3.501  0.5487  0.2859 -0.5428
 3626SOL    HW222098   2.753   7.601   3.662  0.1564 -1.2697 -0.3727
 3627SOL     OW22099   1.978   2.910   6.182 -0.0151 -0.2019  0.1816
 3627SOL    HW122100   2.029   2.993   6.162  0.4101 -0.7057 -0.8970
 3627SOL    HW222101   2.040   2.831   6.179 -0.5285 -0.6292  0.5974
 3628SOL     OW22102   1.418   0.173   3.529 -0.2829  0.4203  0.0399
 3628SOL    HW122103   1.457   0.244   3.587  0.9838 -0.2090 -0.0416
 3628SOL    HW222104   1.358   0.216   3.460 -0.3084  1.3151  0.6099
 3629SOL     OW22105   3.960   5.210   0.558 -0.3116  0.4905 -0.8580
 3629SOL    HW122106   3.887   5.155   0.519 -2.1343  1.1985  1.4274
 3629SOL    HW222107   3.922   5.275   0.624  2.4572  0.4138  0.9217
 3630SOL     OW22108   3.865   0.111   5.935  0.0215  0.6118 -0.0711
 3630SOL    HW122109   3.930   0.127   6.009  0.1736 -0.7676  0.1089
 3630SOL    HW222110   3.834   0.198   5.898  0.3379  1.3046  1.2799
 3631SOL     OW22111   9.371   6.340   4.916 -0.1900 -0.3358 -0.3732
 3631SOL    HW122112   9.390   6.403   4.841 -0.3178  1.0318  0.7322
 3631SOL    HW222113   9.371   6.246   4.882  1.1797  0.1739 -1.8104
 3632SOL     OW22114   0.471   5.182   1.367  0.2091  0.2427  0.2845
 3632SOL    HW122115   0.426   5.247   1.306 -0.7597  0.1953  0.9474
 3632SOL    HW222116   0.557   5.152   1.325 -1.4721 -1.4663 -2.0648
 3633SOL     OW22117   7.901   4.786   0.316  0.6344  0.2327 -0.0556
 3633SOL    HW122118   7.990   4.831   0.310  0.5738  0.1857 -1.5461
 3633SOL    HW222119   7.913   4.687   0.307  0.2629  0.3672 -2.5161
 3634SOL     OW22120   5.120   2.248   2.729 -1.0084  0.7409  0.5315
 3634SOL    HW122121   5.126   2.150   2.707 -0.8806  0.9482 -0.4054
 3634SOL    HW222122   5.036   2.267   2.778 -0.4723 -0.0356  1.7593
 3635SOL     OW22123   6.775   8.242   4.661  0.1673  0.1736 -0.7671
 3635SOL    HW122124   6.809   8.312   4.724  2.1580 -0.3455 -1.2311
 3635SOL    HW222125   6.832   8.242   4.578 -1.4796 -0.1717 -1.9193
 3636SOL     OW22126   0.690   2.183   5.063 -0.8295 -0.1274 -0.3406
 3636SOL    HW122127   0.735   2.177   5.152 -1.4408  2.3899  0.1965
 3636SOL    HW222128   0.750   2.147   4.992  0.7737  0.3246  0.7636
 3637SOL     OW22129   0.828   7.166   1.711  0.0977  0.0755 -0.0485
 3637SOL    HW122130   0.760   7.159   1.783  0.5820  0.5609  0.4617
 3637SOL    HW222131   0.797   7.116   1.630 -0.4874 -0.3911  0.4636
 3638SOL     OW22132   4.571   8.530   2.875 -0.0051 -0.2668 -0.3299
 3638SOL    HW122133   4.497   8.574   2.825  0.8456  0.1758 -1.2063
 3638SOL    HW222134   4.618   8.598   2.932 -0.9181 -0.7494  1.0169
 3639SOL     OW22135   8.854   5.118   4.795  0.2143 -0.1253 -0.0630
 3639SOL    HW122136   8.914   5.142   4.871  0.2881 -2.2078  0.5831
 3639SOL    HW222137   8.903   5.059   4.731 -1.4100 -2.9228  1.1288
 3640SOL     OW22138   8.577   6.157   5.544  0.0427 -0.0024  0.3505
 3640SOL    HW122139   8.593   6.255   5.559  1.8987 -0.1257 -0.6434
 3640SOL    HW222140   8.644   6.123   5.479 -2.3002 -1.3673 -1.3779
 3641SOL     OW22141   0.310   5.631   0.632 -0.3169 -0.1378 -0.2827
 3641SOL    HW122142   0.232   5.662   0.687 -1.2428  0.1619 -1.7336
 3641SOL    HW222143   0.303   5.668   0.540  1.0579 -0.8818 -0.7088
 3642SOL     OW22144   1.919   4.169   5.889  0.1732  0.0286  0.2773
 3642SOL    HW122145   1.860   4.246   5.865  0.1755  0.4071  1.4579
 3642SOL    HW222146   1.931   4.110   5.809  0.7810  1.6550 -0.8376
 3643SOL     OW22147   9.371   1.091   4.720 -0.1817  0.1036  0.1815
 3643SOL    HW122148   9.423   1.017   4.678 -0.9820  0.4267 -1.4229
 3643SOL    HW222149   9.434   1.162   4.751  0.4017  0.1287 -1.0327
 3644SOL     OW22150   9.784   0.362   2.842 -0.0197  0.1607 -0.1010
 3644SOL    HW122151   9.850   0.335   2.772 -0.0358 -0.1396 -0.0044
 3644SOL    HW222152   9.747   0.280   2.885 -0.6765  0.3193 -0.3582
 3645SOL     OW22153   9.846   8.498   1.552 -0.0847  0.3413 -0.0127
 3645SOL    HW122154   9.877   8.593   1.556  0.9118  0.0232  0.0223
 3645SOL    HW222155   9.845   8.469   1.456 -1.5385  0.7470 -0.1393
 3646SOL     OW22156   2.012   4.385   2.390  0.9638  0.3735  0.2003
 3646SOL    HW122157   2.071   4.457   2.425  1.3584  0.0176  0.2715
 3646SOL    HW222158   2.066   4.321   2.335  0.6774 -0.0408  0.3985
 3647SOL     OW22159   0.208   2.449   4.298  0.0409  0.3238 -0.6515
 3647SOL    HW122160   0.215   2.373   4.363  2.6733 -1.8409 -3.3224
 3647SOL    HW222161   0.162   2.526   4.341  1.2372 -1.2125  3.5807
 3648SOL     OW22162   5.689   9.303   3.587  0.2457  0.1914  0.4994
 3648SOL    HW122163   5.780   9.271   3.563  0.8609  1.3482  1.2743
 3648SOL    HW222164   5.694   9.365   3.666 -1.3036 -0.4685  1.1475
 3649SOL     OW22165   1.317   7.821   4.259  0.3378 -0.3755 -0.2766
 3649SOL    HW122166   1.239   7.767   4.230  0.6164 -0.8684 -0.1051
 3649SOL    HW222167   1.338   7.802   4.355  0.5823 -0.1454 -0.2839
 3650SOL     OW22168   2.477   3.804   5.630  0.2824  0.1014 -0.3668
 3650SOL    HW122169   2.515   3.852   5.551  1.6401 -1.0822 -0.4632
 3650SOL    HW222170   2.517   3.840   5.714 -1.4762  1.6470 -0.1732
 3651SOL     OW22171   7.961   5.262   3.421 -0.1906  0.6847  0.0510
 3651SOL    HW122172   8.057   5.244   3.440 -0.4361 -1.4460 -0.5723
 3651SOL    HW222173   7.914   5.176   3.399 -2.0582  1.7853 -0.4452
 3652SOL     OW22174   6.143   2.262   3.334 -0.8766  0.2287 -0.3635
 3652SOL    HW122175   6.161   2.192   3.404 -2.0892 -0.6644 -0.9423
 3652SOL    HW222176   6.088   2.335   3.374  2.3485  2.0879  0.9158
 3653SOL     OW22177   4.612   9.242   2.854  0.5677  0.0879 -0.1579
 3653SOL    HW122178   4.671   9.237   2.934 -0.1272 -0.3878  0.3258
 3653SOL    HW222179   4.614   9.155   2.805  0.2548  0.0684 -0.1356
 3654SOL     OW22180   1.990   5.552   0.886 -0.4381 -0.3797  0.2818
 3654SOL    HW122181   1.980   5.650   0.902 -2.0053 -0.2407 -1.3829
 3654SOL    HW222182   1.988   5.504   0.974  1.9932  1.1758  1.2224
 3655SOL     OW22183   2.286   1.154   2.922 -0.2158  0.1639 -0.0460
 3655SOL    HW122184   2.217   1.217   2.887 -0.3621 -0.2380 -0.4934
 3655SOL    HW222185   2.252   1.109   3.005  0.0076  0.8900  0.4393
 3656SOL     OW22186   8.855   3.127   0.597  0.1902  0.1621  0.2114
 3656SOL    HW122187   8.921   3.052   0.592  0.2869  0.1767  1.0699
 3656SOL    HW222188   8.764   3.091   0.617 -0.2083  0.0804 -1.7121
 3657SOL     OW22189   2.351   9.772   1.303  0.1579 -0.2475 -0.2248
 3657SOL    HW122190   2.395   9.855   1.338 -0.0904 -1.0183  1.9894
 3657SOL    HW222191   2.253   9.776   1.319 -0.1463 -0.0767 -2.0015
 3658SOL     OW22192   8.513   9.781   0.316  0.7352  0.4032 -0.3928
 3658SOL    HW122193   8.599   9.780   0.265 -0.2150  0.5851 -2.0594
 3658SOL    HW222194   8.490   9.689   0.345  0.4212  0.0059 -1.8410
 3659SOL     OW22195   2.694   9.372   0.428  0.0872  0.0355 -0.2361
 3659SOL    HW122196   2.698   9.458   0.376 -0.8384 -0.7238 -1.5891
 3659SOL    HW222197   2.786   9.332   0.434  1.0731  2.5052  2.8519
 3660SOL     OW22198   8.944   6.966   0.471 -1.0269  0.1637 -0.0652
 3660SOL    HW122199   8.854   6.970   0.428 -0.7942 -1.2697 -0.7350
 3660SOL    HW222200   8.995   6.887   0.434  0.2366  0.5601  0.7970
 3661SOL     OW22201   0.851   4.157   4.154 -0.5737 -0.9152 -0.4552
 3661SOL    HW122202   0.858   4.063   4.121 -0.9554 -0.8654 -0.6825
 3661SOL    HW222203   0.805   4.158   4.243  1.8508 -1.2026  0.8416
 3662SOL     OW22204   0.084   7.448   0.587 -0.0602  0.4627 -0.2368
 3662SOL    HW122205   0.049   7.512   0.520 -0.4538 -1.6831 -2.1360
 3662SOL    HW222206   0.022   7.443   0.665 -0.8261  1.1897 -0.8002
 3663SOL     OW22207   9.615   6.721   3.648  0.1264  0.3149  0.2408
 3663SOL    HW122208   9.529   6.762   3.678 -0.1713  0.5521 -0.8992
 3663SOL    HW222209   9.623   6.629   3.687 -0.4254  0.4705  0.7330
 3664SOL     OW22210   9.761   5.902   1.552 -0.2205 -0.0637 -0.0250
 3664SOL    HW122211   9.723   5.898   1.459 -1.6018  0.4358  0.5072
 3664SOL    HW222212   9.822   5.824   1.566 -1.3718 -1.1311 -0.7655
 3665SOL     OW22213   0.593   8.585   2.007  0.5971 -0.1457  0.0608
 3665SOL    HW122214   0.560   8.603   1.914  1.9043  0.7071 -0.2442
 3665SOL    HW222215   0.548   8.503   2.042 -0.1764 -0.2788 -1.1844
 3666SOL     OW22216   0.088   3.469   2.059  0.3386  0.3259  0.0534
 3666SOL    HW122217   0.068   3.557   2.102 -1.2941 -0.4403  0.8961
 3666SOL    HW222218   0.017   3.404   2.082  3.1899 -2.2034  2.1816
 3667SOL     OW22219   0.738   2.716   3.044 -0.3277 -0.5983  0.5279
 3667SOL    HW122220   0.789   2.633   3.023  1.6425  0.9687 -0.9898
 3667SOL    HW222221   0.696   2.752   2.961 -0.1129  0.6183  0.9390
 3668SOL     OW22222   3.954   2.208   2.371  0.6667 -0.2433  0.2426
 3668SOL    HW122223   3.913   2.229   2.460 -0.1472 -1.9311  0.3030
 3668SOL    HW222224   3.947   2.288   2.312 -0.3378  0.3579  1.1407
 3669SOL     OW22225   2.143   6.456   5.890 -0.0031 -0.7721  0.5459
 3669SOL    HW122226   2.057   6.452   5.940  0.3693  2.1857  1.4995
 3669SOL    HW222227   2.132   6.514   5.809  0.4242 -2.4653 -0.7592
 3670SOL     OW22228   8.822   0.144   2.315 -0.3293  0.1827 -0.2759
 3670SOL    HW122229   8.852   0.094   2.396  0.3113  2.6105  1.0281
 3670SOL    HW222230   8.892   0.211   2.290 -1.9451  1.6702 -0.9098
 3671SOL     OW22231   6.566   9.900   2.463 -0.3581 -0.2850  0.0226
 3671SOL    HW122232   6.548   9.947   2.549 -2.1339 -1.7804  0.5103
 3671SOL    HW222233   6.636   9.949   2.412  0.5310  0.7908  2.1861
 3672SOL     OW22234   0.643   5.952   1.604  0.2469  0.9570  0.1517
 3672SOL    HW122235   0.686   6.032   1.563  0.0230  0.4196 -1.1369
 3672SOL    HW222236   0.565   5.923   1.549  1.1274 -0.9409 -0.1427
 3673SOL     OW22237   3.025   3.192   0.168 -0.0740 -0.7049 -0.5872
 3673SOL    HW122238   3.121   3.200   0.196 -0.6641  2.9484  0.6642
 3673SOL    HW222239   3.015   3.223   0.073 -0.2392  0.2951 -0.2433
 3674SOL     OW22240   3.582   7.316   3.937 -0.1429  0.7664  0.0659
 3674SOL    HW122241   3.616   7.407   3.960 -0.7182  0.7197  1.1412
 3674SOL    HW222242   3.549   7.271   4.020  1.6918 -1.0938 -0.1842
 3675SOL     OW22243   7.074   1.687   3.593  0.3898 -0.1933 -0.6291
 3675SOL    HW122244   7.171   1.666   3.597  0.4013  0.0709  3.1010
 3675SOL    HW222245   7.059   1.780   3.627 -1.1171 -0.0561 -1.6385
 3676SOL     OW22246   7.927   9.646   0.074 -0.2781 -0.5807  0.5499
 3676SOL    HW122247   7.986   9.567   0.058  0.8298  0.1610  0.9751
 3676SOL    HW222248   7.970   9.728   0.039 -1.0737 -0.0328  0.8318
 3677SOL     OW22249   0.597   2.689   1.023  0.7189  0.4116 -0.1376
 3677SOL    HW122250   0.586   2.722   0.929 -2.7089 -0.6743 -0.1893
 3677SOL    HW222251   0.513   2.708   1.075  1.7494 -0.9426  2.0901
 3678SOL     OW22252   3.981   9.638   4.939  0.0903  0.3470  0.1847
 3678SOL    HW122253   3.922   9.558   4.946 -0.6854  0.8870 -0.1028
 3678SOL    HW222254   3.986   9.668   4.843  1.0742  0.1261  0.1562
 3679SOL     OW22255   3.664   4.139   0.420  0.9367 -0.3419 -0.1896
 3679SOL    HW122256   3.571   4.144   0.454  0.5633  1.1163 -1.3622
 3679SOL    HW222257   3.716   4.072   0.474 -0.6965 -0.9825  0.6284
 3680SOL     OW22258   4.973   1.713   4.653  0.0838  0.5028  0.1307
 3680SOL    HW122259   4.989   1.617   4.633 -0.5397  1.1920 -4.0721
 3680SOL    HW222260   5.048   1.768   4.617 -2.4630  2.0756 -3.0279
 3681SOL     OW22261   9.429   5.698   3.547  0.4300 -0.1775 -0.1996
 3681SOL    HW122262   9.492   5.649   3.486  0.3262  1.1098 -1.3563
 3681SOL    HW222263   9.341   5.651   3.548  1.0351 -1.3388  0.5370
 3682SOL     OW22264   2.201   3.710   5.595  0.3086 -0.1733  0.8567
 3682SOL    HW122265   2.171   3.717   5.500  1.0668 -0.3376  0.5994
 3682SOL    HW222266   2.282   3.767   5.608  0.7604 -0.8741  1.1616
 3683SOL     OW22267   8.807   0.029   4.188 -0.4691 -0.2000  0.2634
 3683SOL    HW122268   8.753   0.039   4.271  0.3238 -0.6773  0.8482
 3683SOL    HW222269   8.805  -0.066   4.158 -0.0849 -0.1966  0.2145
 3684SOL     OW22270   7.606   1.143   0.602  0.4880  0.0736  0.2096
 3684SOL    HW122271   7.618   1.170   0.697  0.1298 -1.5566  0.7174
 3684SOL    HW222272   7.661   1.203   0.543  1.0317  0.8085  1.4599
 3685SOL     OW22273   3.557   9.672   0.267 -0.3539 -0.3603 -0.3457
 3685SOL    HW122274   3.545   9.573   0.270  0.4127 -0.4362  0.0885
 3685SOL    HW222275   3.475   9.717   0.303 -1.1095 -0.8096 -1.4664
 3686SOL     OW22276   0.739   9.831   6.679  0.6801 -0.3385 -0.7605
 3686SOL    HW122277   0.781   9.845   6.590 -0.2158  0.4094 -1.0745
 3686SOL    HW222278   0.715   9.920   6.719  2.4997 -0.5777  0.9187
 3687SOL     OW22279   9.449   9.958   2.374 -0.1491 -0.8112  0.0331
 3687SOL    HW122280   9.411  10.016   2.447 -0.7812 -2.0231  0.6710
 3687SOL    HW222281   9.545   9.981   2.361 -0.6721  1.1652 -0.4845
 3688SOL     OW22282   1.572   6.729   5.241  0.2546  0.1427  0.1067
 3688SOL    HW122283   1.656   6.677   5.257  0.8562  0.4807 -1.7921
 3688SOL    HW222284   1.587   6.795   5.166 -1.2228  1.3175  0.8046
 3689SOL     OW22285   8.065   9.835   5.444  0.1572 -0.3481 -0.4860
 3689SOL    HW122286   8.070   9.844   5.344  1.4575  3.2403 -0.1917
 3689SOL    HW222287   7.972   9.852   5.474  0.1249  0.3368 -0.9644
 3690SOL     OW22288   3.916   5.556   1.373 -0.2204 -0.0862  0.2163
 3690SOL    HW122289   3.850   5.615   1.420 -0.9779 -0.2639 -0.6035
 3690SOL    HW222290   3.896   5.556   1.275  1.2650  0.1804 -0.0868
 3691SOL     OW22291   0.811   1.485   0.837 -0.9009 -0.5387 -0.5021
 3691SOL    HW122292   0.903   1.524   0.838 -1.0828  0.0970 -3.1202
 3691SOL    HW222293   0.745   1.558   0.817 -1.9145 -1.0995  0.7557
 3692SOL     OW22294   0.326   1.290   4.032 -0.6106  0.2649 -0.2538
 3692SOL    HW122295   0.412   1.271   4.081  0.6235  0.1739 -2.4141
 3692SOL    HW222296   0.296   1.383   4.055  0.1481  0.3638  0.3964
 3693SOL     OW22297   1.614   3.777   1.246 -0.5916 -0.3669  0.1013
 3693SOL    HW122298   1.629   3.808   1.340  1.8981 -0.4960 -0.2262
 3693SOL    HW222299   1.681   3.820   1.186 -0.5194 -2.2719 -1.2088
 3694SOL     OW22300   7.032   6.656   5.932  0.3551  0.4305  0.1168
 3694SOL    HW122301   6.986   6.634   5.846 -1.2902  0.0115  1.0894
 3694SOL    HW222302   6.964   6.675   6.002  1.6782 -0.2015  1.5966
 3695SOL     OW22303   8.425   3.978   4.889 -0.3631  0.3284 -0.4081
 3695SOL    HW122304   8.499   4.044   4.886 -1.3774  1.5160  0.1686
 3695SOL    HW222305   8.409   3.949   4.983  0.5169 -1.2639 -0.7316
 3696SOL     OW22306   9.280   9.728   2.705 -0.3023 -0.1458 -0.1525
 3696SOL    HW122307   9.225   9.667   2.649 -2.0418  0.4063  0.9343
 3696SOL    HW222308   9.375   9.695   2.708 -0.1416 -0.1166 -3.4951
 3697SOL     OW22309   8.257   3.300   2.123  0.4596  0.8090  0.0687
 3697SOL    HW122310   8.202   3.298   2.040 -1.4431 -0.2566  1.3023
 3697SOL    HW222311   8.295   3.391   2.136  0.1572  1.1797 -1.5545
 3698SOL     OW22312   1.749   5.211   5.269 -0.0161  0.3719  0.0968
 3698SOL    HW122313   1.796   5.206   5.357  2.0975 -0.7080 -1.0735
 3698SOL    HW222314   1.743   5.307   5.241  1.3112  0.5476  0.3649
 3699SOL     OW22315   9.518   1.926   5.160  0.1472 -0.2431  0.4591
 3699SOL    HW122316   9.431   1.938   5.208  0.0954  0.4963  0.1846
 3699SOL    HW222317   9.502   1.879   5.073  0.0067 -0.0510  0.3789
 3700SOL     OW22318   8.141   1.003   4.295 -0.2295  0.4922 -0.1188
 3700SOL    HW122319   8.075   0.973   4.364 -0.4135  0.0861 -0.4631
 3700SOL    HW222320   8.182   1.089   4.322 -0.4960  0.4642  0.3704
 3701SOL     OW22321   8.399   3.642   4.136 -0.0046 -0.1208  0.1278
 3701SOL    HW122322   8.359   3.637   4.228  3.1348 -1.5737  1.5207
 3701SOL    HW222323   8.400   3.551   4.096 -0.9811  0.4445 -1.1893
 3702SOL     OW22324   6.282   9.413   3.405 -0.1057  0.2298  0.0527
 3702SOL    HW122325   6.219   9.434   3.480 -0.0066 -0.5765  0.3658
 3702SOL    HW222326   6.285   9.491   3.342 -1.5696  0.2144 -0.0715
 3703SOL     OW22327   2.791   3.746   6.152  0.0248 -0.2827  0.1334
 3703SOL    HW122328   2.727   3.670   6.166 -0.6236  0.5762  1.9236
 3703SOL    HW222329   2.767   3.794   6.067 -0.4605 -1.1985 -0.2546
 3704SOL     OW22330   1.216   3.996   3.291 -0.8665  0.2732  0.3950
 3704SOL    HW122331   1.161   4.079   3.281 -3.8426 -1.5777  0.8671
 3704SOL    HW222332   1.204   3.959   3.383 -0.9610 -1.6316 -0.3649
 3705SOL     OW22333   3.121   1.733   5.130  0.3635 -0.5646 -0.4550
 3705SOL    HW122334   3.175   1.790   5.192  1.9787 -3.0108  0.4398
 3705SOL    HW222335   3.130   1.767   5.036  1.9358  0.1708 -0.0500
 3706SOL     OW22336   2.815   4.060   2.563 -0.4722 -0.0511 -0.6200
 3706SOL    HW122337   2.741   4.026   2.505  0.7594 -1.0680 -1.6193
 3706SOL    HW222338   2.833   4.156   2.542 -1.4610  0.1841 -0.4092
 3707SOL     OW22339   7.697   2.733   3.516  0.2303  0.5205  0.3253
 3707SOL    HW122340   7.796   2.747   3.523  0.3917  0.5391 -1.6562
 3707SOL    HW222341   7.659   2.803   3.455 -1.1431  1.0440  1.7571
 3708SOL     OW22342   8.340   9.293   3.683  0.1563  0.0847  0.0103
 3708SOL    HW122343   8.390   9.297   3.596  3.2101  1.4384  1.7232
 3708SOL    HW222344   8.323   9.198   3.707  3.4566 -0.5490  0.1286
 3709SOL     OW22345   3.275   8.764   0.922 -0.0098 -0.1025  0.1796
 3709SOL    HW122346   3.181   8.764   0.958 -0.6071  0.9778 -1.3146
 3709SOL    HW222347   3.316   8.674   0.937 -1.4311 -0.7226  0.4980
 3710SOL     OW22348   1.227   4.076   1.914  0.3562 -0.9149  0.0548
 3710SOL    HW122349   1.187   4.158   1.874 -1.0955 -0.9224  1.4352
 3710SOL    HW222350   1.327   4.083   1.911  0.2552  0.6897 -0.2759
 3711SOL     OW22351   1.805   0.630   5.194  0.3562 -0.0987 -0.0946
 3711SOL    HW122352   1.806   0.729   5.182 -0.7247  0.4067  3.5619
 3711SOL    HW222353   1.711   0.597   5.189  0.8057 -1.1487 -2.4243
 3712SOL     OW22354   0.079   3.640   0.679  0.8607  0.0854  0.9067
 3712SOL    HW122355   0.128   3.553   0.688 -1.5363 -1.4529 -0.4263
 3712SOL    HW222356   0.021   3.653   0.759 -2.9203 -2.2923 -1.3071
 3713SOL     OW22357   9.880   6.303   2.862 -0.4274  0.2021 -0.3046
 3713SOL    HW122358   9.885   6.310   2.762 -0.8041  1.4256 -0.2506
 3713SOL    HW222359   9.951   6.242   2.895  0.3809  0.6218 -1.2430
 3714SOL     OW22360   2.980   3.212   1.094  0.3691  0.0032  0.0632
 3714SOL    HW122361   2.907   3.273   1.063  0.8744  1.0162  0.8399
 3714SOL    HW222362   3.066   3.238   1.051  0.7836  0.4877  1.1477
 3715SOL     OW22363   1.565   0.964   0.692 -0.6753  0.2818  0.0132
 3715SOL    HW122364   1.530   1.008   0.609 -1.8367 -0.0156  0.3314
 3715SOL    HW222365   1.617   1.030   0.746  0.0221  0.4957 -0.9205
 3716SOL     OW22366   3.082   9.814   3.391 -0.3262  0.0351 -0.0420
 3716SOL    HW122367   3.153   9.859   3.337 -1.8938 -0.0001 -2.1800
 3716SOL    HW222368   3.105   9.718   3.402 -0.4855 -0.1973 -1.5676
 3717SOL     OW22369   1.494   8.434   6.229  0.3407 -0.0378  0.6447
 3717SOL    HW122370   1.489   8.351   6.174  1.1660 -0.0993  0.6669
 3717SOL    HW222371   1.461   8.414   6.322  0.0944 -0.2242  0.5170
 3718SOL     OW22372   5.584   8.395   5.216 -0.3056  0.9500 -0.1643
 3718SOL    HW122373   5.484   8.399   5.224 -0.3317 -0.0067  0.0976
 3718SOL    HW222374   5.623   8.484   5.237 -1.1158  1.3532 -0.3646
 3719SOL     OW22375   9.472   8.256   4.187 -0.0228 -0.2102 -0.4691
 3719SOL    HW122376   9.409   8.279   4.261  0.0254  1.0571 -0.8145
 3719SOL    HW222377   9.435   8.178   4.135 -0.4257 -0.6111  0.4094
 3720SOL     OW22378   3.292   0.606   2.733 -0.0034  0.4198 -0.4840
 3720SOL    HW122379   3.246   0.573   2.816 -0.2143  3.3356  0.5961
 3720SOL    HW222380   3.265   0.700   2.715  3.8788  1.5035 -1.0620
 3721SOL     OW22381   2.968   1.887   4.016 -0.1187 -0.2804  0.3642
 3721SOL    HW122382   3.023   1.805   4.002  1.4088  0.8140 -0.1380
 3721SOL    HW222383   3.027   1.965   4.038 -1.4178  0.9770 -0.4328
 3722SOL     OW22384   2.355   8.944   4.765  0.0973  0.0856  0.0408
 3722SOL    HW122385   2.405   9.031   4.758  2.0815 -1.0563 -0.1510
 3722SOL    HW222386   2.370   8.905   4.856  1.5499 -1.4767 -0.8709
 3723SOL     OW22387   7.001   0.007   3.363 -0.6324  0.0258  0.6076
 3723SOL    HW122388   7.016   0.098   3.323 -0.9388 -0.2585 -0.1711
 3723SOL    HW222389   7.002  -0.062   3.290  3.7013 -1.1258  1.5910
 3724SOL     OW22390   0.375   5.227   3.206  0.2678  0.2944  0.2059
 3724SOL    HW122391   0.416   5.141   3.173  0.8478 -0.4265  2.7055
 3724SOL    HW222392   0.291   5.245   3.155  0.6589 -1.2472 -1.0381
 3725SOL     OW22393   7.373   1.289   3.362  0.3463  0.0361  0.4621
 3725SOL    HW122394   7.351   1.205   3.411  2.0890  0.1324  1.4720
 3725SOL    HW222395   7.469   1.313   3.379  0.3389  1.3195 -1.1679
 3726SOL     OW22396   6.405   1.730   4.089  0.3501 -0.2755  0.3109
 3726SOL    HW122397   6.391   1.817   4.040  1.5550 -0.5810 -0.6157
 3726SOL    HW222398   6.325   1.711   4.146  0.3166  1.7340  0.9908
 3727SOL     OW22399   1.870   9.582   4.642  0.2849  0.2546 -0.1967
 3727SOL    HW122400   1.905   9.506   4.587  1.1477  0.3614  0.2002
 3727SOL    HW222401   1.820   9.646   4.583  0.2798 -0.1837 -0.6706
 3728SOL     OW22402   2.573   3.243   2.886  0.3540  1.1944  0.3488
 3728SOL    HW122403   2.557   3.152   2.848  2.2876  0.1850  1.8528
 3728SOL    HW222404   2.523   3.252   2.972 -0.7237  1.9652 -0.3571
 3729SOL     OW22405   8.599   7.940   2.154 -0.4941 -0.2633 -0.0527
 3729SOL    HW122406   8.635   7.925   2.246  1.1906 -3.5668 -1.1975
 3729SOL    HW222407   8.503   7.912   2.150 -0.3921 -0.6920  0.5542
 3730SOL     OW22408   0.386   4.267   6.593  0.4568 -0.1664 -0.1035
 3730SOL    HW122409   0.425   4.196   6.651  1.2580 -0.0831 -0.5290
 3730SOL    HW222410   0.457   4.335   6.572 -0.1755  0.5005 -0.0854
 3731SOL     OW22411   1.571   8.508   3.791  0.6590 -0.0611 -0.2669
 3731SOL    HW122412   1.547   8.597   3.753 -1.3825 -1.1133 -1.5520
 3731SOL    HW222413   1.488   8.457   3.813  1.7699 -1.9970 -0.3866
 3732SOL     OW22414   0.140   2.970   4.647 -0.0798  0.0821 -0.6680
 3732SOL    HW122415   0.173   3.039   4.583  0.0094  2.3452  1.6960
 3732SOL    HW222416   0.153   3.003   4.741  0.5930 -3.4730  0.5816
 3733SOL     OW22417   4.085   3.762   6.708  0.0431  0.0874  0.7205
 3733SOL    HW122418   4.154   3.703   6.666  0.3319  0.8007  0.1934
 3733SOL    HW222419   4.094   3.855   6.673 -1.7484  0.0145 -0.0173
 3734SOL     OW22420   1.406   3.289   4.463 -0.5027 -0.3802 -0.1118
 3734SOL    HW122421   1.338   3.325   4.527  2.4500 -0.9386  3.4934
 3734SOL    HW222422   1.449   3.208   4.502  0.6275 -1.4433 -3.3814
 3735SOL     OW22423   3.428   5.283   2.995 -0.2435  0.6511  0.0226
 3735SOL    HW122424   3.389   5.227   2.922 -0.0963  0.5947 -0.0135
 3735SOL    HW222425   3.514   5.323   2.964  0.6743 -0.7261  0.7331
 3736SOL     OW22426   0.355   9.587   4.057 -0.3240 -0.5071 -0.4136
 3736SOL    HW122427   0.309   9.663   4.011 -0.0836  0.9211  1.6584
 3736SOL    HW222428   0.450   9.580   4.024 -0.1991  0.3969 -0.2496
 3737SOL     OW22429   4.000   5.434   0.344 -0.3870  0.3906  0.4421
 3737SOL    HW122430   3.958   5.409   0.257 -2.4905  2.4599  0.8107
 3737SOL    HW222431   3.986   5.360   0.410 -1.4002  0.0695 -0.1214
 3738SOL     OW22432   1.003   3.339   1.715  0.0264 -0.1921 -0.0829
 3738SOL    HW122433   0.950   3.309   1.794 -0.5071 -0.7927 -0.6558
 3738SOL    HW222434   0.971   3.428   1.685  0.0931 -0.0555  0.2543
 3739SOL     OW22435   0.885   6.332   0.177 -0.4175 -0.7980  0.6192
 3739SOL    HW122436   0.814   6.327   0.247  1.3053 -1.6014  2.3635
 3739SOL    HW222437   0.884   6.422   0.135 -1.4305 -0.2715  1.7441
 3740SOL     OW22438   6.359   4.232   1.089 -0.2710 -0.0725 -0.5403
 3740SOL    HW122439   6.260   4.244   1.084 -0.3371 -0.7547 -1.0095
 3740SOL    HW222440   6.387   4.162   1.023  0.4812 -0.1225 -0.1738
 3741SOL     OW22441   3.746   2.525   2.479 -0.1337  0.1689  0.2891
 3741SOL    HW122442   3.651   2.547   2.503 -0.0733  1.1795 -0.3314
 3741SOL    HW222443   3.807   2.591   2.521  0.1449  0.5837 -0.7351
 3742SOL     OW22444   6.175   9.205   4.796 -0.4255 -0.5640  0.2482
 3742SOL    HW122445   6.131   9.141   4.733 -2.3505 -0.7348  1.6863
 3742SOL    HW222446   6.133   9.295   4.787 -1.1370 -0.7320  1.6560
 3743SOL     OW22447   8.318   2.195   1.143  0.3977  0.0570  0.2348
 3743SOL    HW122448   8.381   2.247   1.201  0.9310  0.3847 -0.6324
 3743SOL    HW222449   8.319   2.232   1.051  0.7423 -1.4569 -0.3924
 3744SOL     OW22450   3.530   4.609   2.969  0.6559 -0.6297  0.0910
 3744SOL    HW122451   3.575   4.648   2.888  0.2340 -1.0849 -0.3628
 3744SOL    HW222452   3.525   4.679   3.041 -0.3477  0.2682 -0.8229
 3745SOL     OW22453   4.177   3.236   0.854  0.3742 -0.7971  0.0131
 3745SOL    HW122454   4.204   3.327   0.822  0.9952 -1.4220 -1.2315
 3745SOL    HW222455   4.127   3.246   0.940  2.1895  0.5701  0.9541
 3746SOL     OW22456   2.302   6.930   2.944 -0.2907  0.2678  0.4062
 3746SOL    HW122457   2.333   7.021   2.973  0.5510  0.3462 -0.7125
 3746SOL    HW222458   2.235   6.895   3.010 -1.7306  2.3232  0.0734
 3747SOL     OW22459   0.576   2.240   1.363 -0.5309 -0.1460  0.2592
 3747SOL    HW122460   0.628   2.242   1.278 -0.5256  0.7314  0.2796
 3747SOL    HW222461   0.601   2.159   1.416  0.4232 -0.0031  0.0239
 3748SOL     OW22462   1.412   4.770   4.985  1.1357  0.2044 -0.4315
 3748SOL    HW122463   1.325   4.814   4.964  1.2894  0.0175 -1.4618
 3748SOL    HW222464   1.415   4.749   5.083 -0.0842 -0.0209 -0.4257
 3749SOL     OW22465   8.235   2.228   3.424 -0.0305 -0.0087 -0.0219
 3749SOL    HW122466   8.224   2.278   3.338 -1.3753 -0.8522 -0.3504
 3749SOL    HW222467   8.177   2.147   3.423  0.2915 -0.2713  1.5115
 3750SOL     OW22468   7.994   2.417   0.006 -0.0237  0.7226  0.1445
 3750SOL    HW122469   8.069   2.388  -0.054 -1.7987 -1.2324 -1.2225
 3750SOL    HW222470   7.950   2.498  -0.033  0.3328  0.8771  0.0622
 3751SOL     OW22471   4.204   9.898   4.428 -0.2342 -0.1368  0.3120
 3751SOL    HW122472   4.262   9.943   4.361  0.1981  1.8847  1.9983
 3751SOL    HW222473   4.260   9.836   4.484 -0.2188 -0.2754  0.1427
 3752SOL     OW22474   7.883   3.977   3.870 -0.3738 -0.1758 -0.2860
 3752SOL    HW122475   7.912   4.057   3.922  1.5452 -1.2115  0.3076
 3752SOL    HW222476   7.783   3.972   3.869 -0.4957  1.7591  0.3675
 3753SOL     OW22477   9.078   1.181   0.804  0.0354 -0.0917  0.0710
 3753SOL    HW122478   9.167   1.192   0.759  0.0428  1.5644  0.4627
 3753SOL    HW222479   9.065   1.255   0.869 -1.9314  0.0555 -0.4777
 3754SOL     OW22480   0.331   1.089   3.836  0.1862  0.0837 -0.0332
 3754SOL    HW122481   0.257   1.025   3.856  0.8725 -0.5112  0.6039
 3754SOL    HW222482   0.324   1.168   3.897 -0.7411  0.6888 -0.9113
 3755SOL     OW22483   7.616   3.034   0.390  0.6100 -0.0707  0.3049
 3755SOL    HW122484   7.517   3.026   0.402  0.7127 -0.6696  0.7832
 3755SOL    HW222485   7.640   3.130   0.376 -0.1182 -0.0154 -0.5965
 3756SOL     OW22486   1.542   5.620   2.205  0.3782 -0.6694 -0.1276
 3756SOL    HW122487   1.504   5.561   2.134 -0.2717 -0.1905 -0.1828
 3756SOL    HW222488   1.476   5.629   2.280 -0.2447  1.3715 -0.8969
 3757SOL     OW22489   0.087   3.431   5.948 -0.0096  0.4289 -0.0920
 3757SOL    HW122490   0.122   3.340   5.927 -0.3375  0.8383 -2.6743
 3757SOL    HW222491   0.144   3.499   5.901 -0.3592  1.4803  1.0059
 3758SOL     OW22492   9.874   2.528   4.373  0.5135  0.0929 -0.2979
 3758SOL    HW122493   9.957   2.583   4.381  0.7905 -0.2990 -0.4814
 3758SOL    HW222494   9.886   2.459   4.302  0.4827 -0.7836  0.5483
 3759SOL     OW22495   3.790   2.742   6.378  0.1779 -0.1445 -0.3340
 3759SOL    HW122496   3.842   2.827   6.368 -0.5260  0.1803 -1.2976
 3759SOL    HW222497   3.846   2.665   6.347  1.6682 -0.3405  2.6777
 3760SOL     OW22498   1.982   3.446   3.612 -0.0116  0.3266  0.5853
 3760SOL    HW122499   1.892   3.486   3.596 -0.5525 -0.3424  1.9204
 3760SOL    HW222500   2.052   3.511   3.582 -0.9374  0.3398 -1.6088
 3761SOL     OW22501   3.756   3.230   3.113 -0.0776 -0.0390 -0.1657
 3761SOL    HW122502   3.666   3.185   3.116 -0.5586  1.0018  1.1496
 3761SOL    HW222503   3.756   3.301   3.043  0.3003 -1.2505 -1.4110
 3762SOL     OW22504   8.794   5.942   4.508 -0.0774  0.4681 -0.3103
 3762SOL    HW122505   8.818   5.853   4.545  0.6530  0.9343  0.3594
 3762SOL    HW222506   8.854   6.012   4.547 -1.7988  1.5037  0.5315
 3763SOL     OW22507   8.660   5.213   4.354 -0.2430 -0.0496 -0.7108
 3763SOL    HW122508   8.575   5.207   4.407 -0.9515 -1.0599 -1.9410
 3763SOL    HW222509   8.639   5.232   4.258  0.9992  0.9760 -0.8033
 3764SOL     OW22510   0.276   7.208   6.699 -1.0662 -0.2089  0.4791
 3764SOL    HW122511   0.246   7.266   6.623 -0.5394 -1.7268 -0.9184
 3764SOL    HW222512   0.355   7.250   6.744 -0.7810  0.2241 -0.4233
 3765SOL     OW22513   7.234   1.308   3.723 -0.0591 -0.3961 -0.0982
 3765SOL    HW122514   7.243   1.351   3.633  0.3392  0.9245  0.5666
 3765SOL    HW222515   7.143   1.267   3.730 -0.7662  1.0700 -0.4348
 3766SOL     OW22516   2.344   1.165   3.717 -0.4864  0.0718  0.0871
 3766SOL    HW122517   2.420   1.215   3.675 -1.5953 -0.1492 -2.2533
 3766SOL    HW222518   2.351   1.068   3.695 -0.6200 -0.1801  1.1373
 3767SOL     OW22519   0.371   7.112   3.951 -0.3098  0.3693 -0.0380
 3767SOL    HW122520   0.460   7.157   3.957 -0.0995  0.0309 -0.6511
 3767SOL    HW222521   0.299   7.179   3.969 -0.0196  1.0528 -1.3470
 3768SOL     OW22522   1.276   5.658   3.552 -0.7159  0.6703  0.1320
 3768SOL    HW122523   1.188   5.623   3.585 -0.2849  1.6634  2.3551
 3768SOL    HW222524   1.350   5.603   3.589 -0.2254  1.8066  0.8660
 3769SOL     OW22525   8.971   2.828   5.827 -0.5861  0.0881  0.1869
 3769SOL    HW122526   8.906   2.855   5.899 -0.6490 -1.1163  0.5992
 3769SOL    HW222527   8.968   2.895   5.753 -0.0378  1.7092  1.5945
 3770SOL     OW22528   3.309   9.508   5.121  0.1272 -0.3280  0.4563
 3770SOL    HW122529   3.255   9.507   5.205 -0.6316  2.8411  0.0725
 3770SOL    HW222530   3.318   9.415   5.086 -1.9375 -1.3507  2.5099
 3771SOL     OW22531   8.360   9.925   2.444 -0.7178  0.0434  0.1514
 3771SOL    HW122532   8.324   9.850   2.499 -1.6410  0.5437  0.2249
 3771SOL    HW222533   8.457   9.938   2.466 -0.9539 -0.0778  1.3028
 3772SOL     OW22534   4.413   2.182   2.984 -0.4186  0.3858 -0.6446
 3772SOL    HW122535   4.331   2.193   3.039  0.1971 -0.0512  0.3758
 3772SOL    HW222536   4.488   2.234   3.024 -0.3793  1.3739 -1.9809
 3773SOL     OW22537   9.241   4.327   3.024  0.0623 -0.9127  0.4876
 3773SOL    HW122538   9.184   4.367   3.096 -0.0548 -2.4185  1.2580
 3773SOL    HW222539   9.239   4.227   3.033  0.8111 -1.0640 -1.0301
 3774SOL     OW22540   2.908   8.940   6.304 -0.3703 -0.0254  0.2776
 3774SOL    HW122541   2.831   8.906   6.358 -1.5022  0.7284 -0.8296
 3774SOL    HW222542   2.929   9.034   6.331 -0.1133 -0.0875  0.2901
 3775SOL     OW22543   7.093   0.082   2.074  0.3570  0.2396  0.0057
 3775SOL    HW122544   7.100   0.164   2.130  0.2794  1.7605 -2.1783
 3775SOL    HW222545   6.997   0.057   2.063  0.3831 -0.1942  0.7108
 3776SOL     OW22546   7.484   8.568   4.337 -0.0885 -0.6482 -0.1239
 3776SOL    HW122547   7.527   8.576   4.247  0.2991  1.5095  0.2278
 3776SOL    HW222548   7.533   8.625   4.403 -1.6941 -0.4572  0.9429
 3777SOL     OW22549   9.379   6.769   2.479  0.2178  0.2958  0.2798
 3777SOL    HW122550   9.463   6.725   2.446 -1.3527 -2.6113 -0.0325
 3777SOL    HW222551   9.316   6.780   2.402 -0.1406  1.4022  0.7313
 3778SOL     OW22552   0.475   1.223   2.276  0.6581  0.0984  0.1463
 3778SOL    HW122553   0.417   1.143   2.288 -1.3557  1.6205  0.8439
 3778SOL    HW222554   0.438   1.282   2.204  1.7896  0.6983  0.0299
 3779SOL     OW22555   3.183   8.414   0.880 -0.1128  0.1375 -0.0853
 3779SOL    HW122556   3.272   8.457   0.893  1.0540 -1.7479 -1.5459
 3779SOL    HW222557   3.147   8.384   0.969  0.3819  1.5190  0.5897
 3780SOL     OW22558   8.102   2.974   4.768 -0.0096  0.2564 -0.1957
 3780SOL    HW122559   8.011   2.934   4.774  0.0898  0.2273  1.2650
 3780SOL    HW222560   8.169   2.911   4.808  0.5289  0.6392 -0.4955
 3781SOL     OW22561   1.174   6.803   1.778  0.1274 -0.2887 -0.2357
 3781SOL    HW122562   1.170   6.899   1.751 -0.9197 -0.2387  0.0615
 3781SOL    HW222563   1.098   6.753   1.736 -0.6363 -0.5163  1.3833
 3782SOL     OW22564   9.971   1.910   6.642 -0.1286 -0.0576  0.3125
 3782SOL    HW122565   9.964   1.954   6.553 -4.1683 -0.5187  0.3380
 3782SOL    HW222566  10.035   1.833   6.636  3.6804  3.0264 -0.7819
 3783SOL     OW22567   0.903   3.130   1.906  0.4249  0.3886 -0.0362
 3783SOL    HW122568   0.998   3.149   1.931  0.6309  0.9860 -1.2294
 3783SOL    HW222569   0.901   3.064   1.830 -0.1148  0.2770  0.0741
 3784SOL     OW22570   4.064   2.599   5.153  0.0656  0.3986 -0.3154
 3784SOL    HW122571   3.985   2.575   5.210  0.3172 -0.0981 -0.1790
 3784SOL    HW222572   4.082   2.697   5.163 -0.0006  0.3503  0.3292
 3785SOL     OW22573   7.179   9.917   0.974  0.1410  0.3202 -0.5162
 3785SOL    HW122574   7.124  10.000   0.963  0.2205  0.3343 -0.8127
 3785SOL    HW222575   7.274   9.941   0.990 -0.1085  0.3162  1.0493
 3786SOL     OW22576   1.523   2.921   1.530  0.6295 -0.2857  0.5330
 3786SOL    HW122577   1.433   2.895   1.564  1.1891 -1.5551  1.0863
 3786SOL    HW222578   1.513   2.987   1.456 -0.8278 -1.8084 -0.6734
 3787SOL     OW22579   8.539   7.554   5.402  0.6294 -0.0312 -0.6863
 3787SOL    HW122580   8.628   7.563   5.357  1.1469  0.0585  0.3329
 3787SOL    HW222581   8.486   7.483   5.356  1.2092 -0.0513 -1.3402
 3788SOL     OW22582   9.084   3.026   5.647  0.1604  0.0068  0.0201
 3788SOL    HW122583   9.135   3.054   5.729  0.0360  0.4498 -0.0525
 3788SOL    HW222584   9.029   3.103   5.614 -1.1279 -0.6652  0.5312
 3789SOL     OW22585   1.576   1.946   2.027 -0.6633  0.4372 -0.4031
 3789SOL    HW122586   1.551   1.865   1.975 -0.8202 -0.2340  0.7142
 3789SOL    HW222587   1.670   1.937   2.061 -0.8840  0.4527  0.2257
 3790SOL     OW22588   7.870   1.322   1.577  0.0162  0.1559 -0.0780
 3790SOL    HW122589   7.969   1.313   1.586 -0.2020 -0.6938  1.6428
 3790SOL    HW222590   7.845   1.315   1.480  1.5672 -0.3413 -0.4635
 3791SOL     OW22591   8.171   7.757   0.233  0.7680 -0.4020  0.2627
 3791SOL    HW122592   8.168   7.717   0.141 -1.0660 -1.2032  0.6517
 3791SOL    HW222593   8.093   7.818   0.246  1.9254  1.0239  0.7275
 3792SOL     OW22594   8.078   1.466   0.329  0.3543 -0.3085  0.4226
 3792SOL    HW122595   8.136   1.450   0.409 -1.3027 -2.0569  1.3154
 3792SOL    HW222596   8.050   1.378   0.291 -1.2225  0.5249 -0.3661
 3793SOL     OW22597   8.330   0.649   3.148 -0.6787  0.0610 -0.8290
 3793SOL    HW122598   8.344   0.589   3.069 -0.4437 -1.1246  0.0993
 3793SOL    HW222599   8.277   0.729   3.120  2.0397  1.2233 -2.8953
 3794SOL     OW22600   8.862   0.146   3.791 -0.0654 -0.1917  0.3101
 3794SOL    HW122601   8.875   0.241   3.762  0.1676 -0.6638 -1.1404
 3794SOL    HW222602   8.951   0.100   3.794 -0.0420 -0.0677  2.0960
 3795SOL     OW22603   0.693   2.620   5.723 -0.1298 -0.3875  0.0710
 3795SOL    HW122604   0.647   2.709   5.725  0.7976  0.0833  1.0796
 3795SOL    HW222605   0.747   2.612   5.640 -2.7123 -1.3033 -1.5588
 3796SOL     OW22606   3.687   9.516   4.917  0.2708 -0.0049 -0.2780
 3796SOL    HW122607   3.649   9.484   5.003 -1.5857 -0.7341 -1.3337
 3796SOL    HW222608   3.734   9.440   4.871 -2.0982 -0.6675 -1.6846
 3797SOL     OW22609   6.898   2.090   6.535  0.2103 -0.1012  0.5913
 3797SOL    HW122610   6.885   1.997   6.499 -1.6315  0.3507  0.0627
 3797SOL    HW222611   6.924   2.085   6.631 -2.4385 -1.1196  1.2975
 3798SOL     OW22612   4.421   0.585   1.298  0.3260 -0.2355 -0.1228
 3798SOL    HW122613   4.393   0.620   1.388  1.3770  2.6884 -0.8887
 3798SOL    HW222614   4.342   0.543   1.253 -0.4850 -0.7084  1.6980
 3799SOL     OW22615   1.586   8.032   6.045  0.2422 -0.2644 -0.0059
 3799SOL    HW122616   1.666   8.088   6.023  0.7972 -1.0605 -0.0141
 3799SOL    HW222617   1.583   7.953   5.984 -0.1832 -0.5996  0.4459
 3800SOL     OW22618   2.152   2.609   0.255 -0.2713 -0.0334  0.6675
 3800SOL    HW122619   2.131   2.611   0.157  0.0644 -1.7773  0.5531
 3800SOL    HW222620   2.166   2.703   0.287 -0.4259  0.5640 -0.9476
 3801SOL     OW22621   7.773   2.318   5.628  0.6204  0.7791  0.1220
 3801SOL    HW122622   7.687   2.356   5.592  0.0242 -1.6733 -1.1443
 3801SOL    HW222623   7.800   2.369   5.710 -1.9359  1.7348  0.4265
 3802SOL     OW22624   6.200   1.818   3.285  0.4503  0.0162 -0.2078
 3802SOL    HW122625   6.111   1.843   3.324  0.3218 -0.4373 -0.2081
 3802SOL    HW222626   6.273   1.847   3.347  0.2817  0.0007 -0.0022
 3803SOL     OW22627   1.731   1.354   2.991  0.2939 -0.6163 -0.2431
 3803SOL    HW122628   1.791   1.405   3.052 -1.2572  2.1998 -0.9512
 3803SOL    HW222629   1.764   1.363   2.897  0.1538 -1.1551 -0.3454
 3804SOL     OW22630   4.146   5.408   1.019 -0.0694 -0.1759 -0.4012
 3804SOL    HW122631   4.114   5.482   0.960  0.3350 -0.8265 -1.4424
 3804SOL    HW222632   4.071   5.378   1.078 -0.6813 -0.0169 -1.0952
 3805SOL     OW22633   2.020   9.805   4.623  0.1273  0.3354  0.3397
 3805SOL    HW122634   1.982   9.727   4.673  0.9374 -0.4405 -0.2512
 3805SOL    HW222635   1.989   9.803   4.529 -0.0323  0.8566  0.3796
 3806SOL     OW22636   4.543   2.962   5.016 -0.0813 -0.0247 -0.0347
 3806SOL    HW122637   4.484   3.040   5.032  0.5514  0.5317 -0.4019
 3806SOL    HW222638   4.590   2.937   5.100 -2.0802 -1.5123  0.6827
 3807SOL     OW22639   3.559   3.167   0.631  0.3454 -0.2034 -0.3607
 3807SOL    HW122640   3.655   3.189   0.651  0.7258 -2.3254  0.2895
 3807SOL    HW222641   3.536   3.079   0.673 -1.7832  0.0976 -0.8566
 3808SOL     OW22642   1.414   1.387   3.836 -0.3903 -0.1712 -0.3425
 3808SOL    HW122643   1.359   1.306   3.814  0.4914 -0.3030 -2.1807
 3808SOL    HW222644   1.493   1.359   3.891 -2.0492  0.0036  2.2087
 3809SOL     OW22645   9.307   6.437   1.824 -0.0812  0.3331  0.1221
 3809SOL    HW122646   9.253   6.362   1.862  1.1476 -0.3517  0.5391
 3809SOL    HW222647   9.315   6.510   1.892  1.8261 -0.7459  1.1068
 3810SOL     OW22648   1.376   5.012   2.508  0.0983  0.1043  0.1902
 3810SOL    HW122649   1.376   5.102   2.465  0.3681  0.3299  0.6639
 3810SOL    HW222650   1.291   4.964   2.485  0.1863  0.2752 -0.4882
 3811SOL     OW22651   1.697   4.038   3.528 -0.3371  0.0120  0.6190
 3811SOL    HW122652   1.684   4.107   3.600 -3.0632  0.0380  0.1195
 3811SOL    HW222653   1.611   3.991   3.510  0.6029 -0.8619 -1.7892
 3812SOL     OW22654   0.161   9.189   3.564  0.4558  0.0966 -0.0751
 3812SOL    HW122655   0.126   9.278   3.593  1.4033  0.7342 -0.8738
 3812SOL    HW222656   0.121   9.164   3.476  1.2007  0.3464 -0.4874
 3813SOL     OW22657   6.898   2.172   0.265  0.8055  0.0435 -0.3920
 3813SOL    HW122658   6.933   2.198   0.175  1.5603  0.6932  0.0801
 3813SOL    HW222659   6.799   2.184   0.266  0.4900 -2.1187 -1.8465
 3814SOL     OW22660   9.521   4.620   5.608  0.1232  0.0009 -0.2694
 3814SOL    HW122661   9.505   4.719   5.614  0.6817  0.1065 -0.5024
 3814SOL    HW222662   9.445   4.571   5.651  0.5400  0.5659  1.1246
 3815SOL     OW22663   8.037   6.339   5.758  0.1114  0.6530  0.3652
 3815SOL    HW122664   7.976   6.414   5.780 -0.6098  1.0129 -2.6414
 3815SOL    HW222665   8.073   6.351   5.666  0.1765 -2.5461 -0.1012
 3816SOL     OW22666   5.587   8.257   2.199  0.5666 -0.6615  0.1779
 3816SOL    HW122667   5.588   8.334   2.135 -4.4109 -0.6586 -0.1157
 3816SOL    HW222668   5.578   8.292   2.292 -2.4379 -0.7534 -0.0072
 3817SOL     OW22669   3.737   4.202   2.533  0.0966 -0.5179  0.0612
 3817SOL    HW122670   3.718   4.142   2.610  2.2030  0.0566  1.0647
 3817SOL    HW222671   3.767   4.148   2.455 -0.1232 -0.9394  0.2698
 3818SOL     OW22672   7.085   9.054   1.968 -0.0129  0.7739  0.2696
 3818SOL    HW122673   7.089   8.960   1.934 -0.9355  0.4240  1.1126
 3818SOL    HW222674   7.106   9.117   1.893 -1.0038 -0.0270 -0.7037
 3819SOL     OW22675   0.074   8.520   1.117  0.0025  0.0504  0.3912
 3819SOL    HW122676   0.016   8.595   1.086  1.2503 -0.0967 -2.4733
 3819SOL    HW222677   0.025   8.433   1.103  1.3197 -0.1924 -3.3846
 3820SOL     OW22678   8.175   7.271   5.636 -0.0877  0.5056  0.0560
 3820SOL    HW122679   8.271   7.296   5.653  0.2411  0.3813 -1.5126
 3820SOL    HW222680   8.118   7.308   5.708  1.0162  1.5318  0.4276
 3821SOL     OW22681   1.049   7.671   3.938 -0.3982 -0.1862  0.5038
 3821SOL    HW122682   0.956   7.641   3.958  0.1376 -1.2372  1.4700
 3821SOL    HW222683   1.112   7.593   3.942  0.4997  0.4621 -0.3847
 3822SOL     OW22684   3.444   2.503   0.671 -0.2089 -0.5825 -0.0994
 3822SOL    HW122685   3.444   2.403   0.670 -3.9798 -0.7263  3.1458
 3822SOL    HW222686   3.417   2.537   0.580 -1.6914 -2.5856 -0.4450
 3823SOL     OW22687   1.964   9.874   4.360 -0.6762 -0.2125  0.0578
 3823SOL    HW122688   2.046   9.842   4.313  0.6749  0.3857  1.9404
 3823SOL    HW222689   1.928   9.955   4.314  1.5684  1.3444  0.9668
 3824SOL     OW22690   0.550   5.368   2.006  0.1571  0.0999 -0.2762
 3824SOL    HW122691   0.554   5.355   2.105 -0.4249  1.0910 -0.1234
 3824SOL    HW222692   0.543   5.465   1.985 -1.0753 -0.1939 -1.2487
 3825SOL     OW22693   1.700   0.821   6.498  0.3765 -0.0178  0.4120
 3825SOL    HW122694   1.709   0.721   6.506 -0.6927 -0.3218 -1.6082
 3825SOL    HW222695   1.791   0.861   6.485  0.6204 -1.0021 -1.1243
 3826SOL     OW22696   1.493   5.454   3.348 -0.6377 -0.7803  0.1432
 3826SOL    HW122697   1.438   5.470   3.265  1.1582 -0.5128 -1.0140
 3826SOL    HW222698   1.506   5.356   3.361 -1.1295 -0.8343  0.2670
 3827SOL     OW22699   0.446   9.000   5.347 -0.2963 -0.1591 -0.2369
 3827SOL    HW122700   0.499   8.917   5.329 -0.7721 -0.3081 -0.9888
 3827SOL    HW222701   0.492   9.078   5.303  0.3551  0.0465  0.7931
 3828SOL     OW22702   8.963   0.998   2.512  0.2824  0.2116 -0.2671
 3828SOL    HW122703   8.875   0.983   2.468 -0.6787  1.7820  1.0365
 3828SOL    HW222704   9.021   0.918   2.500 -1.6412 -1.1968 -0.4066
 3829SOL     OW22705   0.172   9.941   6.536 -0.5728  0.2120 -0.3427
 3829SOL    HW122706   0.181  10.008   6.462 -0.3030  1.2540  0.6209
 3829SOL    HW222707   0.120   9.981   6.611 -0.2236 -0.5801  0.3334
 3830SOL     OW22708   3.561   5.051   6.417 -0.0221 -0.2701  0.1323
 3830SOL    HW122709   3.559   5.096   6.507 -1.8420 -0.3229  0.1349
 3830SOL    HW222710   3.569   4.952   6.429  1.3495 -0.1537  0.1923
 3831SOL     OW22711   7.682   1.535   6.241 -0.6235 -0.4100  0.4115
 3831SOL    HW122712   7.635   1.598   6.178 -1.1653 -1.1658  0.0387
 3831SOL    HW222713   7.615   1.498   6.306 -0.0854  0.2728  1.3618
 3832SOL     OW22714   8.254   8.638   4.209 -0.3078  0.5857 -0.2385
 3832SOL    HW122715   8.278   8.732   4.185 -2.5107  1.1559 -0.3316
 3832SOL    HW222716   8.261   8.627   4.308 -0.9419  1.1190 -0.1292
 3833SOL     OW22717   5.761   9.994   4.883 -0.7762 -0.0944 -0.5561
 3833SOL    HW122718   5.712  10.030   4.963 -0.9338 -0.1059 -0.6481
 3833SOL    HW222719   5.845  10.046   4.870 -0.4229 -0.5145  0.0077
 3834SOL     OW22720   9.178   3.271   0.409  0.7849 -0.0656  0.3826
 3834SOL    HW122721   9.247   3.336   0.377 -0.0676  0.8730  0.4080
 3834SOL    HW222722   9.165   3.281   0.508  0.2203  0.1497  0.2895
 3835SOL     OW22723   3.038   1.467   5.147 -0.2234 -0.0066  0.3220
 3835SOL    HW122724   3.075   1.560   5.148 -1.7297  0.6327 -1.3380
 3835SOL    HW222725   3.033   1.435   5.053 -0.3323 -1.5318  0.8435
 3836SOL     OW22726   0.409   2.469   4.874 -0.2566 -0.4277  0.3697
 3836SOL    HW122727   0.461   2.531   4.815 -0.8133 -0.7512 -0.4664
 3836SOL    HW222728   0.371   2.521   4.951 -1.8659  0.5585 -1.0583
 3837SOL     OW22729   8.720   2.559   5.375 -0.1536  0.7936 -0.2349
 3837SOL    HW122730   8.690   2.546   5.281 -0.2540 -0.4005 -0.0467
 3837SOL    HW222731   8.682   2.486   5.432  1.8894  0.1155  0.2834
 3838SOL     OW22732   9.566   1.615   6.172 -0.7437  0.4809  0.0902
 3838SOL    HW122733   9.563   1.552   6.094  0.2092 -1.1223  1.3114
 3838SOL    HW222734   9.532   1.704   6.143 -2.7675 -0.7444 -1.5226
 3839SOL     OW22735   1.415   7.128   5.941 -0.1233 -0.0455  0.2745
 3839SOL    HW122736   1.426   7.185   6.022  0.1535  0.0375  0.1796
 3839SOL    HW222737   1.450   7.176   5.861 -0.0141 -0.2911  0.1726
 3840SOL     OW22738   2.858   5.462   0.415  0.2977  0.1414 -0.4513
 3840SOL    HW122739   2.906   5.411   0.486 -0.4732 -0.3151 -0.2484
 3840SOL    HW222740   2.918   5.476   0.336  1.2260  0.8171  0.3603
 3841SOL     OW22741   1.163   2.853   1.912  0.4562 -0.0616  0.2766
 3841SOL    HW122742   1.197   2.943   1.884  0.3902 -0.0540  0.2213
 3841SOL    HW222743   1.107   2.863   1.994 -4.1327  0.7285 -2.7871
 3842SOL     OW22744   9.588   8.174   0.150 -0.4122  0.1414  0.0614
 3842SOL    HW122745   9.554   8.250   0.094 -1.1324 -0.8548 -0.8862
 3842SOL    HW222746   9.659   8.125   0.099 -2.0517 -1.6262 -0.5995
 3843SOL     OW22747   3.072   1.296   1.620 -0.9890 -0.2574  0.8765
 3843SOL    HW122748   3.124   1.240   1.556 -0.6384 -0.3484  1.2455
 3843SOL    HW222749   2.974   1.286   1.600 -0.8769 -0.1670  0.2546
 3844SOL     OW22750   1.888   8.914   1.995 -0.2967 -0.5060 -0.1845
 3844SOL    HW122751   1.962   8.955   2.049 -1.2912 -0.0422  0.8545
 3844SOL    HW222752   1.927   8.858   1.922  1.0848 -0.8708  0.8125
 3845SOL     OW22753   2.251   6.927   1.718 -0.5171 -0.7620 -0.9933
 3845SOL    HW122754   2.288   6.870   1.791 -0.4753 -0.0311 -0.4461
 3845SOL    HW222755   2.324   6.982   1.678 -0.7830 -0.2400 -0.7546
 3846SOL     OW22756   8.991   7.130   2.015 -0.4127 -0.5168  0.9034
 3846SOL    HW122757   8.918   7.063   2.021  0.4720 -1.5792  0.1112
 3846SOL    HW222758   9.063   7.107   2.080  1.5328 -2.4564 -1.8078
 3847SOL     OW22759   1.047   5.421   3.172  0.2614 -0.0861 -0.0385
 3847SOL    HW122760   0.966   5.420   3.113  0.4748  3.1216 -0.4667
 3847SOL    HW222761   1.022   5.457   3.262  1.4859  2.5852 -0.7113
 3848SOL     OW22762   4.890   0.015   2.920  0.2062  0.3469  0.1293
 3848SOL    HW122763   4.863  -0.033   2.837  1.1804 -1.1922  0.6782
 3848SOL    HW222764   4.983   0.050   2.909  0.5683 -0.3954  0.7885
 3849SOL     OW22765   1.069   8.243   2.761  0.2237 -0.4668 -0.2258
 3849SOL    HW122766   1.095   8.314   2.696 -0.5963  1.1241  1.1466
 3849SOL    HW222767   0.969   8.239   2.768  0.2650 -1.7187 -0.2300
 3850SOL     OW22768   8.524   2.687   0.386  0.6370 -0.6643  0.0623
 3850SOL    HW122769   8.502   2.754   0.315  0.7296  0.8517  1.4397
 3850SOL    HW222770   8.443   2.632   0.407  0.4322 -0.6677 -0.7258
 3851SOL     OW22771   8.759   8.385   3.269 -0.5337  1.0602 -0.4055
 3851SOL    HW122772   8.771   8.474   3.312  2.2754  0.5705 -0.0908
 3851SOL    HW222773   8.739   8.317   3.339 -0.7119  1.0928 -0.4246
 3852SOL     OW22774   8.858   5.218   6.634  0.1573  0.0121  0.5686
 3852SOL    HW122775   8.768   5.191   6.602  0.1787  0.9419 -0.3036
 3852SOL    HW222776   8.928   5.160   6.591 -0.0796 -1.4057  2.0530
 3853SOL     OW22777   6.619   1.745   4.256  0.3990  0.2091  0.0665
 3853SOL    HW122778   6.659   1.663   4.216  2.1674  1.4169 -0.7004
 3853SOL    HW222779   6.543   1.776   4.199 -0.9835 -1.4810  0.9427
 3854SOL     OW22780   1.879   5.042   3.577  0.2431 -0.0593  0.0719
 3854SOL    HW122781   1.914   5.057   3.669 -0.8854 -1.0688  0.6838
 3854SOL    HW222782   1.903   4.950   3.546  0.0187  0.0241 -0.3636
 3855SOL     OW22783   7.850   1.776   2.793  0.2962  0.5097 -0.2830
 3855SOL    HW122784   7.883   1.737   2.707 -0.7976 -1.0165 -0.0401
 3855SOL    HW222785   7.752   1.756   2.803  0.1700  1.5892  0.8247
 3856SOL     OW22786   2.189   2.487   2.033  0.0046  0.0675 -0.0468
 3856SOL    HW122787   2.196   2.490   1.933 -1.4263 -1.1582 -0.2052
 3856SOL    HW222788   2.096   2.463   2.059  0.5827 -0.4828  1.5718
 3857SOL     OW22789   0.771   5.015   5.068  0.2541 -0.4982 -0.0499
 3857SOL    HW122790   0.842   4.976   5.128  0.1353 -1.3670 -0.4727
 3857SOL    HW222791   0.688   4.960   5.075  0.3087 -0.7277 -1.1805
 3858SOL     OW22792   9.470   4.920   0.020 -0.6453  0.2757 -0.1667
 3858SOL    HW122793   9.556   4.914   0.071 -0.7943  1.7379  0.2601
 3858SOL    HW222794   9.425   4.830   0.019  0.5177 -0.3167  0.2317
 3859SOL     OW22795   0.942   7.108   6.342 -0.3733 -0.4852 -0.3978
 3859SOL    HW122796   0.961   7.047   6.419 -0.7875  1.2815  1.1549
 3859SOL    HW222797   0.982   7.198   6.361 -3.7785  1.1145 -0.4601
 3860SOL     OW22798   7.617   1.224   0.887  0.7063  0.7619 -0.1352
 3860SOL    HW122799   7.565   1.167   0.951 -0.9057 -0.3563 -2.3739
 3860SOL    HW222800   7.590   1.319   0.898 -0.3311  0.4458  0.1458
 3861SOL     OW22801   1.273   7.343   3.740  0.4206  0.6917  0.1367
 3861SOL    HW122802   1.340   7.272   3.716 -1.0451 -0.5159 -0.4458
 3861SOL    HW222803   1.239   7.386   3.657 -0.5191  0.3764  0.3553
 3862SOL     OW22804   7.473   9.086   1.574  0.0636 -0.4897 -0.2327
 3862SOL    HW122805   7.391   9.118   1.527  0.2489  0.9188  0.3617
 3862SOL    HW222806   7.457   8.995   1.612 -0.9230 -0.5838 -0.8686
 3863SOL     OW22807   1.310   3.966   4.674  0.0908 -0.4035 -0.3395
 3863SOL    HW122808   1.246   3.893   4.697 -1.0304  0.5562 -0.3570
 3863SOL    HW222809   1.382   3.930   4.614 -1.2820 -1.1392 -1.5796
 3864SOL     OW22810   5.397   7.862   1.877  0.2521 -0.5562 -0.0132
 3864SOL    HW122811   5.319   7.820   1.831  1.5864 -0.5464 -2.3398
 3864SOL    HW222812   5.450   7.792   1.923  0.6609 -0.9892 -1.1430
 3865SOL     OW22813   2.390   1.402   4.241 -0.2620  0.1957 -0.1905
 3865SOL    HW122814   2.345   1.345   4.172  1.2480 -0.7616 -0.4127
 3865SOL    HW222815   2.453   1.346   4.295 -1.0584  1.0327  1.6688
 3866SOL     OW22816   8.029   8.435   0.763 -0.2397  0.1845 -0.0537
 3866SOL    HW122817   8.116   8.463   0.803  0.5049 -0.7029 -1.0455
 3866SOL    HW222818   8.038   8.429   0.664 -0.8210 -1.9985  0.0056
 3867SOL     OW22819   4.568   4.154   1.490 -0.8033  0.2951  0.1740
 3867SOL    HW122820   4.650   4.110   1.526 -1.4137 -1.9601 -1.1204
 3867SOL    HW222821   4.510   4.183   1.566  0.3036  0.2149  1.0603
 3868SOL     OW22822   4.652   4.602   1.349 -0.3142  0.4052 -0.0963
 3868SOL    HW122823   4.692   4.512   1.364 -0.9742  0.2460  0.6855
 3868SOL    HW222824   4.687   4.639   1.263 -0.3161 -0.7482 -0.6090
 3869SOL     OW22825   9.245   4.530   5.626  0.4462 -0.6886  0.1467
 3869SOL    HW122826   9.251   4.608   5.564 -1.1757 -0.8627 -0.2522
 3869SOL    HW222827   9.169   4.471   5.598 -0.4252 -0.6802  2.3872
 3870SOL     OW22828   7.982   2.374   6.463 -0.1789  0.0654 -0.4198
 3870SOL    HW122829   7.888   2.390   6.494  0.0078 -0.3361  0.3505
 3870SOL    HW222830   8.001   2.276   6.463  1.4288  0.3421  2.9403
 3871SOL     OW22831   4.565   8.532   5.906 -0.2881 -0.8453 -0.0872
 3871SOL    HW122832   4.496   8.568   5.969 -0.1071  0.9741 -0.8873
 3871SOL    HW222833   4.654   8.530   5.952 -0.4807 -1.1771  0.2727
 3872SOL     OW22834   9.026   7.766   1.073 -0.0277 -0.1342 -0.2833
 3872SOL    HW122835   8.955   7.830   1.042  0.6811  1.4858  1.3650
 3872SOL    HW222836   9.062   7.716   0.994 -2.1601 -0.1210 -1.3033
 3873SOL     OW22837   8.721   5.568   1.505 -0.3986  0.5964  0.5351
 3873SOL    HW122838   8.819   5.560   1.526  0.1362  0.3882 -1.8546
 3873SOL    HW222839   8.701   5.663   1.479 -0.1241 -0.0003 -2.0585
 3874SOL     OW22840   0.965   1.546   1.288  0.6115  0.7413 -0.7157
 3874SOL    HW122841   1.065   1.542   1.290  0.5312 -0.8638  1.0333
 3874SOL    HW222842   0.928   1.454   1.302 -1.1262  1.2532 -1.7782
 3875SOL     OW22843   9.386   0.190   5.114 -0.3601 -0.0623 -0.1243
 3875SOL    HW122844   9.415   0.183   5.210  0.7752 -0.3221 -0.4723
 3875SOL    HW222845   9.326   0.268   5.103 -0.7400 -0.2031  0.8620
 3876SOL     OW22846   9.708   0.934   3.352 -0.4353 -0.8640  0.1087
 3876SOL    HW122847   9.773   0.955   3.278 -0.1787 -0.1146  0.5381
 3876SOL    HW222848   9.664   0.846   3.334  1.4015 -1.8437  0.3025
 3877SOL     OW22849   8.293   5.305   2.879  0.1906 -0.2840  0.1438
 3877SOL    HW122850   8.353   5.286   2.957  2.4635 -0.6589 -1.6248
 3877SOL    HW222851   8.276   5.221   2.828 -0.0917  0.1927 -0.5651
 3878SOL     OW22852   6.010   0.296   4.603  0.2140  0.5233  0.3433
 3878SOL    HW122853   6.110   0.296   4.592  0.1239 -0.2252 -0.5256
 3878SOL    HW222854   5.987   0.266   4.696  0.8503  2.5845  1.2008
 3879SOL     OW22855   1.454   2.493   3.456 -0.3171  0.6952 -0.2859
 3879SOL    HW122856   1.480   2.584   3.488  0.1665  0.0417  1.1700
 3879SOL    HW222857   1.380   2.457   3.513  0.1346 -0.2227 -0.2745
 3880SOL     OW22858   1.590   2.200   2.577 -0.1772  0.1282  0.1664
 3880SOL    HW122859   1.673   2.172   2.626  2.2299  2.7911 -2.1778
 3880SOL    HW222860   1.591   2.162   2.485 -1.2152  0.7663 -0.1147
 3881SOL     OW22861   1.957   4.649   1.009 -0.6744  0.4533 -0.2705
 3881SOL    HW122862   1.895   4.597   1.067 -0.2592  0.3175  0.0601
 3881SOL    HW222863   1.914   4.735   0.981 -0.9918  0.3777 -0.0167
 3882SOL     OW22864   2.312   7.543   2.354 -0.0291 -0.2691  0.4152
 3882SOL    HW122865   2.360   7.469   2.306  3.0174  0.2004  2.6246
 3882SOL    HW222866   2.278   7.509   2.442  0.3846  0.6236  0.9320
 3883SOL     OW22867   9.115   1.119   3.805 -0.2551 -0.0301  0.0859
 3883SOL    HW122868   9.075   1.196   3.754  0.2455  0.1076 -0.1038
 3883SOL    HW222869   9.151   1.052   3.740  3.2430  1.6278  0.2220
 3884SOL     OW22870   8.873   1.599   3.675 -0.3237 -0.4583 -0.2692
 3884SOL    HW122871   8.794   1.625   3.731 -1.0589 -1.9011 -0.6286
 3884SOL    HW222872   8.889   1.670   3.606 -0.3163  0.6075  0.8093
 3885SOL     OW22873   4.130   3.019   2.487  0.0926  0.3256 -0.2514
 3885SOL    HW122874   4.119   3.037   2.585 -0.0415 -1.8140  0.1583
 3885SOL    HW222875   4.215   3.060   2.455 -0.6776  2.4875  0.3601
 3886SOL     OW22876   0.359   9.136   3.298 -0.1259  0.1512  0.1753
 3886SOL    HW122877   0.434   9.116   3.361  1.1552 -0.8944 -1.6213
 3886SOL    HW222878   0.372   9.227   3.259 -0.3142  0.3566  0.5928
 3887SOL     OW22879   6.994   8.405   2.670  0.0946  0.4152 -0.3895
 3887SOL    HW122880   7.034   8.401   2.762 -1.9698  0.8022  0.5517
 3887SOL    HW222881   7.057   8.364   2.604  1.3577 -0.3795  1.2909
 3888SOL     OW22882   0.283   7.759   5.329  0.2279 -0.2982 -0.1391
 3888SOL    HW122883   0.377   7.791   5.319  0.9964 -2.6160 -0.4790
 3888SOL    HW222884   0.223   7.838   5.344  2.3512  1.1082  1.2123
 3889SOL     OW22885   4.844   5.459   0.909 -0.0181 -0.1576 -0.4658
 3889SOL    HW122886   4.880   5.369   0.930 -1.5968 -0.9387 -0.9872
 3889SOL    HW222887   4.868   5.485   0.815  1.4475  0.5005  0.0716
 3890SOL     OW22888   7.285   9.462   4.244  0.3024  0.3337  0.6894
 3890SOL    HW122889   7.301   9.539   4.183  2.0612  0.5793  1.4259
 3890SOL    HW222890   7.187   9.440   4.246 -0.2608  2.6926  0.6599
 3891SOL     OW22891   2.843   5.517   1.079 -0.0438  0.4700  0.7319
 3891SOL    HW122892   2.788   5.482   1.155 -1.7650 -0.0224 -0.7127
 3891SOL    HW222893   2.802   5.602   1.046 -0.8475 -0.6833 -1.3284
 3892SOL     OW22894   9.638   7.015   5.024 -0.0464 -0.3718  0.5754
 3892SOL    HW122895   9.666   6.920   5.031 -0.8300 -0.8320 -1.8666
 3892SOL    HW222896   9.589   7.043   5.107  1.2364 -1.7150  1.7984
 3893SOL     OW22897   6.463   0.680   3.391 -0.1813  0.3047 -0.1791
 3893SOL    HW122898   6.552   0.635   3.393 -0.6066 -0.6077 -1.3819
 3893SOL    HW222899   6.392   0.616   3.418 -0.8263  0.1468 -2.1709
 3894SOL     OW22900   0.207   7.575   0.259  0.2501  0.2109  0.5318
 3894SOL    HW122901   0.292   7.616   0.292 -0.6584  2.1382  0.4958
 3894SOL    HW222902   0.185   7.611   0.169 -0.3017 -0.7507  0.2688
 3895SOL     OW22903   7.992   8.375   6.191 -0.6008  0.3000 -0.2765
 3895SOL    HW122904   8.064   8.323   6.144 -1.7436 -2.1156  0.6073
 3895SOL    HW222905   7.915   8.388   6.129 -0.6764  0.1749 -0.2085
 3896SOL     OW22906   9.987   9.951   3.498  0.8665  0.0217  0.0047
 3896SOL    HW122907   9.994  10.036   3.549 -2.0494  1.0782 -1.2170
 3896SOL    HW222908   9.958   9.877   3.559 -2.4174  1.2331 -0.0149
 3897SOL     OW22909   9.707   1.478   1.817  0.2749 -0.8237  0.2855
 3897SOL    HW122910   9.803   1.451   1.829  0.3353 -0.4451  0.6609
 3897SOL    HW222911   9.672   1.439   1.732  1.4275  0.9772 -1.0279
 3898SOL     OW22912   4.046   2.964   6.515 -0.1354  0.1021  0.1747
 3898SOL    HW122913   3.986   3.018   6.457 -0.2191  1.2961  1.3555
 3898SOL    HW222914   4.077   2.883   6.465 -0.7789  0.7384 -1.2650
 3899SOL     OW22915   7.329   0.633   3.202 -0.4211  0.0110  0.0532
 3899SOL    HW122916   7.283   0.600   3.120  0.2796 -1.9786  0.4462
 3899SOL    HW222917   7.428   0.640   3.185  0.1519 -3.3702  1.6200
 3900SOL     OW22918   1.665   9.884   5.028  0.1004  0.2165  0.0885
 3900SOL    HW122919   1.660   9.931   5.116 -0.9757  0.9800 -0.3776
 3900SOL    HW222920   1.753   9.902   4.986  0.2880  0.5489  0.6183
 3901SOL     OW22921   5.889   8.485   3.348 -0.7890 -0.1926 -0.1029
 3901SOL    HW122922   5.878   8.408   3.411 -0.7046 -1.2806 -1.3766
 3901SOL    HW222923   5.836   8.466   3.264  1.1930  0.0057 -1.4181
 3902SOL     OW22924   5.329   9.783   2.652  0.0955  0.3695 -0.0556
 3902SOL    HW122925   5.368   9.722   2.721  1.2993  1.5353  0.3159
 3902SOL    HW222926   5.351   9.749   2.561 -0.0015 -0.2308  0.1429
 3903SOL     OW22927   8.563   9.085   6.011 -0.0569  0.2753 -0.2426
 3903SOL    HW122928   8.645   9.036   5.982 -0.7812 -0.6198 -0.8027
 3903SOL    HW222929   8.589   9.172   6.052  1.2292 -0.4049  0.4327
 3904SOL     OW22930   9.338   7.386   4.604 -0.1475  0.0416 -0.5681
 3904SOL    HW122931   9.262   7.326   4.630  0.1824 -0.2595 -0.2946
 3904SOL    HW222932   9.380   7.424   4.686  0.7655 -0.7547 -0.6646
 3905SOL     OW22933   9.356   0.792   3.845 -0.1434 -0.0374  0.1890
 3905SOL    HW122934   9.367   0.851   3.765 -1.3071 -1.7168 -1.2357
 3905SOL    HW222935   9.417   0.713   3.837 -0.5743 -0.4304  0.7457
 3906SOL     OW22936   7.390   2.993   3.825 -0.0694  0.0054  0.6456
 3906SOL    HW122937   7.466   2.963   3.883  1.8695  1.3998 -1.0682
 3906SOL    HW222938   7.384   2.934   3.744 -0.1337  0.5271  0.2666
 3907SOL     OW22939   2.719   3.055   1.266 -0.2526  0.3253  0.5343
 3907SOL    HW122940   2.642   3.098   1.313  0.2739  1.4935  0.3335
 3907SOL    HW222941   2.735   3.101   1.179 -0.7549 -1.3565 -0.4854
 3908SOL     OW22942   1.954   8.169   3.841 -0.1412 -0.4394 -0.7687
 3908SOL    HW122943   1.989   8.088   3.888 -2.8410 -1.6779 -0.7551
 3908SOL    HW222944   1.878   8.207   3.894  1.5626  2.5707 -0.4042
 3909SOL     OW22945   1.918   9.835   0.683  0.1003 -0.3589 -0.0761
 3909SOL    HW122946   1.995   9.812   0.624  0.5502 -0.1641  0.4223
 3909SOL    HW222947   1.928   9.787   0.770  0.1897  0.4359  0.3593
 3910SOL     OW22948   1.955   7.047   3.222 -0.0835 -0.3373  0.4515
 3910SOL    HW122949   1.953   6.956   3.262  4.2796 -0.5369  0.4570
 3910SOL    HW222950   1.995   7.042   3.130 -1.1716  1.3876 -0.1348
 3911SOL     OW22951   1.264   5.803   4.907  0.1303 -0.1508  0.3129
 3911SOL    HW122952   1.294   5.894   4.935  1.8475 -0.0338 -1.7571
 3911SOL    HW222953   1.165   5.804   4.891  0.3109  1.7003 -0.8867
 3912SOL     OW22954   7.923   9.643   6.324  0.0763  0.0309  0.0798
 3912SOL    HW122955   7.981   9.607   6.397  0.1672 -1.1212 -0.5485
 3912SOL    HW222956   7.874   9.725   6.356  0.3676 -0.2831  1.3118
 3913SOL     OW22957   3.868   8.194   1.200  0.4160  0.1877  0.0432
 3913SOL    HW122958   3.817   8.111   1.224  0.3485  0.6084  1.3384
 3913SOL    HW222959   3.868   8.205   1.100 -1.4654 -0.1634  0.0010
 3914SOL     OW22960   0.132   6.786   6.191  0.2026  0.0542 -0.7462
 3914SOL    HW122961   0.222   6.761   6.157  1.1756  2.1073  0.2712
 3914SOL    HW222962   0.066   6.784   6.116  1.1215 -1.2795 -1.5291
 3915SOL     OW22963   3.556   1.292   2.511 -0.4185 -0.8808 -0.0104
 3915SOL    HW122964   3.559   1.342   2.598  2.7692 -0.0484 -0.5492
 3915SOL    HW222965   3.555   1.356   2.435  1.2682 -1.5957 -0.6631
 3916SOL     OW22966   8.632   8.556   1.839  0.4060  0.1030  0.4468
 3916SOL    HW122967   8.685   8.514   1.913  0.9977  0.2140  0.0907
 3916SOL    HW222968   8.613   8.488   1.768 -1.0757 -0.2725  1.1873
 3917SOL     OW22969   0.361   5.606   5.398  0.3780  0.6432 -0.0676
 3917SOL    HW122970   0.356   5.613   5.498 -1.0098  1.5334 -0.1711
 3917SOL    HW222971   0.270   5.622   5.360  0.5508 -1.3971 -1.3953
 3918SOL     OW22972   8.418   0.693   6.139 -0.0944 -0.0076 -0.5748
 3918SOL    HW122973   8.423   0.793   6.132  0.7411  0.1416  1.6428
 3918SOL    HW222974   8.353   0.658   6.071 -2.2311  2.2616  0.1931
 3919SOL     OW22975   8.058   7.019   1.782 -0.8742 -0.3076 -0.1897
 3919SOL    HW122976   8.140   7.034   1.727 -0.4309 -0.5563  0.3857
 3919SOL    HW222977   8.018   6.931   1.759  1.4050 -2.1397  2.4259
 3920SOL     OW22978   2.182   8.447   2.148  0.5821 -0.3659 -0.0407
 3920SOL    HW122979   2.117   8.515   2.182  0.8958 -0.0207 -0.1361
 3920SOL    HW222980   2.146   8.355   2.166  0.2698 -0.1777  0.2925
 3921SOL     OW22981   9.609   3.847   1.702 -0.0452 -0.0029  0.0316
 3921SOL    HW122982   9.653   3.757   1.707 -0.1033  0.0032  0.7824
 3921SOL    HW222983   9.679   3.918   1.708 -0.3143  0.0443  4.1545
 3922SOL     OW22984   1.209   7.963   6.447 -0.6166 -0.0383  0.1616
 3922SOL    HW122985   1.165   7.998   6.364 -2.3119 -1.0012  0.6183
 3922SOL    HW222986   1.159   7.882   6.479  0.3178  0.0366  1.8470
 3923SOL     OW22987   5.836   1.160   5.082 -0.4174 -0.4790 -0.0746
 3923SOL    HW122988   5.805   1.065   5.072  0.5533 -0.7976 -0.1157
 3923SOL    HW222989   5.935   1.163   5.075 -0.3454  0.3880  1.1910
 3924SOL     OW22990   7.160   7.617   4.566 -0.0104 -0.3618  0.4274
 3924SOL    HW122991   7.096   7.540   4.562 -0.7312  0.3057 -1.5487
 3924SOL    HW222992   7.109   7.703   4.562  0.8391  0.2212  1.8572
 3925SOL     OW22993   8.212   4.884   3.359 -0.6774 -0.4207 -0.0832
 3925SOL    HW122994   8.140   4.897   3.292 -0.5006  0.1123 -0.1708
 3925SOL    HW222995   8.178   4.827   3.434 -1.0929 -0.4212 -0.2721
 3926SOL     OW22996   9.054   2.329   2.604 -0.8460 -0.2565  0.1517
 3926SOL    HW122997   9.012   2.238   2.606  0.8202 -1.0996 -1.3239
 3926SOL    HW222998   9.074   2.354   2.510 -0.9432  1.4991  0.5848
 3927SOL     OW22999   9.196   5.092   6.000 -0.3299 -0.0917 -0.1215
 3927SOL    HW123000   9.184   5.006   6.049 -2.0056  0.4035  0.3990
 3927SOL    HW223001   9.156   5.084   5.909 -0.1810  0.0238 -0.1967
 3928SOL     OW23002   8.882   0.759   6.211 -0.5339 -0.3013 -0.2644
 3928SOL    HW123003   8.917   0.842   6.167  0.3060  0.4396  1.7367
 3928SOL    HW223004   8.812   0.718   6.153 -1.4305  2.1671 -1.0061
 3929SOL     OW23005   5.658   9.782   2.404  0.9310  0.0257  0.2775
 3929SOL    HW123006   5.704   9.722   2.340 -0.8210 -1.4535  0.3642
 3929SOL    HW223007   5.562   9.753   2.414  0.9710  0.6917  2.9443
 3930SOL     OW23008   0.099   0.801   1.038 -0.2695  0.5849  0.4683
 3930SOL    HW123009   0.084   0.757   1.127  1.1008 -0.2345  0.3134
 3930SOL    HW223010   0.067   0.740   0.965 -0.1333  0.6671  0.3394
 3931SOL     OW23011   0.151   4.506   4.150  0.4277 -0.4540 -0.2513
 3931SOL    HW123012   0.186   4.456   4.071 -0.5355 -0.1939 -0.8632
 3931SOL    HW223013   0.131   4.601   4.123 -0.1949 -0.4465  0.2111
 3932SOL     OW23014   3.545   0.082   1.541 -0.2879 -0.3739  0.2820
 3932SOL    HW123015   3.610   0.011   1.568 -0.8454 -0.6211  0.9615
 3932SOL    HW223016   3.462   0.075   1.596 -0.8531  0.0159 -0.5148
 3933SOL     OW23017   1.133   2.239   2.662  0.0681  0.2141  0.1256
 3933SOL    HW123018   1.170   2.281   2.579 -0.1384 -0.0922 -0.1221
 3933SOL    HW223019   1.208   2.204   2.718  0.0815 -2.1140 -1.2800
 3934SOL     OW23020   2.487   2.543   6.023  0.3683  0.1561 -0.1716
 3934SOL    HW123021   2.402   2.503   6.057  0.6969  0.8007  1.4301
 3934SOL    HW223022   2.466   2.619   5.961 -0.2285  1.2258  1.3235
 3935SOL     OW23023   5.286   1.441   4.310 -0.1859  0.4693 -0.1953
 3935SOL    HW123024   5.349   1.370   4.279  0.1918  0.7213  0.0007
 3935SOL    HW223025   5.210   1.448   4.245 -1.9169 -2.3008  1.3945
 3936SOL     OW23026   8.082   4.529   1.471 -0.4728  0.1685 -0.0768
 3936SOL    HW123027   8.091   4.525   1.371 -0.5887 -1.0080 -0.0523
 3936SOL    HW223028   8.008   4.592   1.495 -0.6847  0.1881 -0.7598
 3937SOL     OW23029   1.023   1.038   1.826 -0.4651  0.3585  0.0679
 3937SOL    HW123030   0.928   1.034   1.793 -0.9968  1.3252  1.4447
 3937SOL    HW223031   1.052   0.946   1.853 -0.7409 -0.0764 -1.0837
 3938SOL     OW23032   1.997   4.093   1.798 -0.5284 -0.0213  0.0032
 3938SOL    HW123033   2.073   4.100   1.733 -0.4231 -2.2611 -0.1599
 3938SOL    HW223034   1.953   4.182   1.808  1.6911  1.1393 -0.4174
 3939SOL     OW23035   4.699   6.497   1.724  0.7397  0.1420  0.1514
 3939SOL    HW123036   4.657   6.566   1.665  0.3943  1.4036  1.8558
 3939SOL    HW223037   4.718   6.536   1.813  0.3651 -2.0236  1.2191
 3940SOL     OW23038   9.223   5.273   3.880 -0.1336  0.6238 -0.5818
 3940SOL    HW123039   9.142   5.328   3.861 -0.5792  0.0816 -0.2763
 3940SOL    HW223040   9.201   5.176   3.869 -0.1841  0.3176  1.8686
 3941SOL     OW23041   1.079   7.084   1.706 -0.2923 -0.2980 -0.4864
 3941SOL    HW123042   1.085   7.066   1.608 -0.7663  0.2219 -0.6116
 3941SOL    HW223043   0.995   7.135   1.726  1.1796  2.1114 -0.1912
 3942SOL     OW23044   4.507   6.337   2.710  0.3632 -0.4376 -0.1390
 3942SOL    HW123045   4.462   6.426   2.700 -1.3020 -1.0193  1.8193
 3942SOL    HW223046   4.603   6.351   2.736  1.1045  0.8016 -3.3142
 3943SOL     OW23047   4.121   2.576   3.925  0.0175  0.0602  0.0775
 3943SOL    HW123048   4.199   2.565   3.986 -0.7917  1.3897  1.3915
 3943SOL    HW223049   4.152   2.572   3.830  1.6232  0.2354  0.5753
 3944SOL     OW23050   2.187   7.385   1.257 -0.2245  0.5584 -0.3138
 3944SOL    HW123051   2.141   7.324   1.193  1.1148 -0.8661  0.0640
 3944SOL    HW223052   2.243   7.332   1.320 -1.0117  1.9745  1.6461
 3945SOL     OW23053   4.265   4.843   6.022 -0.2579 -0.1652 -0.4082
 3945SOL    HW123054   4.166   4.842   6.038 -0.2248  0.9794 -0.1196
 3945SOL    HW223055   4.310   4.791   6.095 -0.6868 -1.2570 -0.9019
 3946SOL     OW23056   7.372   1.667   1.399 -0.4942 -0.2030  0.0433
 3946SOL    HW123057   7.293   1.678   1.339 -0.9190 -1.3159  0.3983
 3946SOL    HW223058   7.403   1.572   1.397  0.5148  0.1108  0.3088
 3947SOL     OW23059   9.546   0.375   0.782 -0.1559 -0.2519  0.1123
 3947SOL    HW123060   9.622   0.323   0.743 -0.0061  0.6381 -0.7951
 3947SOL    HW223061   9.459   0.335   0.753 -0.0387 -0.3350 -0.1192
 3948SOL     OW23062   8.862   5.904   1.219  0.6921  0.3620  0.5380
 3948SOL    HW123063   8.792   5.925   1.150  0.7591  0.2936  0.4508
 3948SOL    HW223064   8.896   5.989   1.260  0.0804  0.3688  1.0526
 3949SOL     OW23065   7.468   4.481   2.357  0.2355 -0.5741 -0.4753
 3949SOL    HW123066   7.437   4.441   2.443 -1.1322  1.3206 -0.0473
 3949SOL    HW223067   7.566   4.498   2.362  0.1050 -0.1691  0.8530
 3950SOL     OW23068   6.182   8.313   2.405  0.0106 -0.5142 -0.4427
 3950SOL    HW123069   6.271   8.280   2.374  0.4279 -0.2984  0.4782
 3950SOL    HW223070   6.141   8.246   2.467  0.4237  0.2343  0.6665
 3951SOL     OW23071   2.104   2.186   2.594  0.0770 -0.2146 -0.2395
 3951SOL    HW123072   2.190   2.215   2.551  0.4550 -2.1880 -0.8808
 3951SOL    HW223073   2.029   2.244   2.562  1.4147  2.6284  1.6343
 3952SOL     OW23074   0.652   6.627   5.632 -0.4553  0.1126 -0.0894
 3952SOL    HW123075   0.659   6.725   5.615 -0.0094  0.1895  0.4848
 3952SOL    HW223076   0.643   6.578   5.546  0.3936  0.5860 -0.4482
 3953SOL     OW23077   0.482   6.702   4.095 -0.3193 -0.1372 -0.1503
 3953SOL    HW123078   0.514   6.714   4.001  0.3737  0.2331  0.1303
 3953SOL    HW223079   0.463   6.605   4.111  1.4188 -0.4714 -0.0852
 3954SOL     OW23080   9.698   6.746   1.118  0.1246  0.1100 -0.2637
 3954SOL    HW123081   9.745   6.689   1.186  0.9128  0.5331 -0.4456
 3954SOL    HW223082   9.616   6.699   1.085 -0.6439  0.1974  1.4862
 3955SOL     OW23083   1.729   5.321   2.182  0.1437  0.2910  0.0516
 3955SOL    HW123084   1.679   5.260   2.120 -0.7209 -0.8080  1.7801
 3955SOL    HW223085   1.819   5.341   2.144  0.1796 -1.5443 -0.8810
 3956SOL     OW23086   3.688   1.107   4.920  0.0924  0.0546 -0.0768
 3956SOL    HW123087   3.747   1.184   4.898 -0.4735 -0.2500 -2.7459
 3956SOL    HW223088   3.710   1.030   4.861 -1.0595 -1.0008  0.8432
 3957SOL     OW23089   7.923   9.418   2.668 -0.0289  0.3532 -0.3534
 3957SOL    HW123090   8.017   9.389   2.687 -1.0358 -2.4908  0.5888
 3957SOL    HW223091   7.879   9.447   2.753 -0.9313 -1.2764 -0.2385
 3958SOL     OW23092   7.799   8.420   3.661  0.0683 -0.2907 -0.0251
 3958SOL    HW123093   7.825   8.381   3.573  0.6386 -1.3796  0.6114
 3958SOL    HW223094   7.722   8.369   3.699 -0.5111  0.4960 -0.1179
 3959SOL     OW23095   1.144   9.319   3.577 -0.2630 -0.0209 -0.1031
 3959SOL    HW123096   1.061   9.298   3.627 -0.8628 -1.0461 -1.4772
 3959SOL    HW223097   1.146   9.416   3.553 -0.6868  0.1584  0.5973
 3960SOL     OW23098   3.600   3.624   2.212 -0.0042  0.2279  0.0613
 3960SOL    HW123099   3.668   3.604   2.283 -1.2462 -1.4894  0.8002
 3960SOL    HW223100   3.511   3.643   2.255  0.1861  3.5714 -0.8231
 3961SOL     OW23101   6.651   8.628   3.779  0.1788 -0.1878 -0.4395
 3961SOL    HW123102   6.726   8.678   3.736 -0.5825  0.4021 -1.0961
 3961SOL    HW223103   6.622   8.553   3.719 -1.2512  0.9725 -1.2678
 3962SOL     OW23104   7.476   1.098   2.637  0.2073  0.0532 -0.0355
 3962SOL    HW123105   7.552   1.141   2.589  0.6680 -0.0230  0.6204
 3962SOL    HW223106   7.428   1.166   2.692 -0.4326  0.1771 -0.7498
 3963SOL     OW23107   5.559   7.711   4.545 -0.2984 -0.2418 -0.2090
 3963SOL    HW123108   5.601   7.775   4.609  0.3706 -0.5747 -0.3046
 3963SOL    HW223109   5.465   7.739   4.527  0.3811  1.4660 -1.2577
 3964SOL     OW23110   7.698   4.441   5.003 -0.0355 -0.5403  0.0583
 3964SOL    HW123111   7.690   4.490   5.090 -0.4900  0.4809 -0.5553
 3964SOL    HW223112   7.615   4.388   4.986  0.1178 -0.8673  0.3162
 3965SOL     OW23113   4.802   0.853   2.395  0.2166  0.0147 -0.3689
 3965SOL    HW123114   4.766   0.940   2.362 -1.2968 -0.4775 -0.0643
 3965SOL    HW223115   4.806   0.854   2.495  1.0867  0.0682 -0.3984
 3966SOL     OW23116   9.023   5.309   4.958  0.2106  0.4552 -0.0452
 3966SOL    HW123117   9.078   5.321   4.875  1.8633 -0.3619  0.9060
 3966SOL    HW223118   8.982   5.396   4.983  2.9661  1.6511  0.4961
 3967SOL     OW23119   4.547   4.706   3.048 -0.1437  0.7629  0.0956
 3967SOL    HW123120   4.552   4.776   2.976 -0.6747 -1.2552 -1.9537
 3967SOL    HW223121   4.639   4.689   3.084  0.0092  2.4005  0.5080
 3968SOL     OW23122   3.096   2.167   5.215 -0.2402 -0.4117 -0.2186
 3968SOL    HW123123   3.176   2.181   5.157  1.1222 -0.3368  1.6350
 3968SOL    HW223124   3.031   2.242   5.201  1.9126  1.7903  1.3431
 3969SOL     OW23125   1.028   3.430   3.633  0.1554 -0.1526 -0.1349
 3969SOL    HW123126   1.013   3.450   3.536 -0.3958  2.4495  0.4589
 3969SOL    HW223127   0.940   3.412   3.678  0.0293  2.2052  0.6117
 3970SOL     OW23128   7.066   9.506   3.547 -0.1795 -0.0895  0.4574
 3970SOL    HW123129   7.139   9.470   3.605  0.1495 -0.0349  0.0771
 3970SOL    HW223130   7.103   9.575   3.485 -0.6290  0.2121  0.5276
 3971SOL     OW23131   6.698   7.611   3.565  0.4872  0.2437  0.5643
 3971SOL    HW123132   6.795   7.627   3.583  0.6585  1.2121 -1.0582
 3971SOL    HW223133   6.688   7.568   3.475 -0.3584 -3.5787  2.4266
 3972SOL     OW23134   1.386   9.404   0.054  0.4518  0.1087 -0.0188
 3972SOL    HW123135   1.318   9.364   0.115  0.6687 -0.4270 -0.1303
 3972SOL    HW223136   1.371   9.371  -0.039 -0.9389  2.2243 -0.5850
 3973SOL     OW23137   8.671   3.098   4.758  0.1203 -0.0233  0.3340
 3973SOL    HW123138   8.695   3.193   4.778 -1.1049  1.0641 -3.0999
 3973SOL    HW223139   8.748   3.052   4.714  0.8733 -0.8111  2.3970
 3974SOL     OW23140   7.837   9.463   2.116  0.7970 -0.1617  0.5360
 3974SOL    HW123141   7.739   9.445   2.114  0.7415  0.1874  0.0904
 3974SOL    HW223142   7.854   9.561   2.121  1.1309 -0.0623 -1.8658
 3975SOL     OW23143   3.045   7.800   5.941 -0.4675  1.1425 -0.1478
 3975SOL    HW123144   3.126   7.853   5.918 -0.4833  2.1588  1.9862
 3975SOL    HW223145   2.996   7.845   6.016 -2.4737  0.0285 -0.7427
 3976SOL     OW23146   0.580   4.104   6.276  0.4404  0.3834  0.0885
 3976SOL    HW123147   0.627   4.183   6.236  2.2347 -1.8129 -2.2725
 3976SOL    HW223148   0.515   4.068   6.210  1.9231 -2.0228 -0.1052
 3977SOL     OW23149   8.593   9.691   3.747 -0.3460 -0.3364  0.4168
 3977SOL    HW123150   8.673   9.747   3.769 -0.7981  0.6948 -0.5128
 3977SOL    HW223151   8.584   9.618   3.815  1.1212 -0.1904  0.7800
 3978SOL     OW23152   8.366   1.839   6.164 -0.0043 -0.3375  0.5167
 3978SOL    HW123153   8.296   1.847   6.235 -1.0655  0.1039 -0.5602
 3978SOL    HW223154   8.323   1.812   6.078  1.4463 -2.1521  0.3267
 3979SOL     OW23155   5.166   9.046   2.859  0.4259  0.0230 -0.3379
 3979SOL    HW123156   5.218   9.049   2.773  0.7364  1.4313 -0.1053
 3979SOL    HW223157   5.219   9.087   2.932  0.5223 -1.9663  0.7566
 3980SOL     OW23158   3.391   3.337   2.739  0.0266  0.3797 -0.1071
 3980SOL    HW123159   3.354   3.414   2.791  0.0133  0.4459 -0.2143
 3980SOL    HW223160   3.320   3.268   2.726 -0.2458  0.8034 -0.8868
 3981SOL     OW23161   4.322   9.312   2.855  0.3560  0.1306 -0.0884
 3981SOL    HW123162   4.278   9.246   2.916  1.1349 -0.7864 -0.4928
 3981SOL    HW223163   4.421   9.297   2.856  0.4554  0.6818 -0.8940
 3982SOL     OW23164   0.641   5.000   5.957  0.3698 -1.1996  0.1348
 3982SOL    HW123165   0.631   4.901   5.969 -0.3161 -1.0842  0.5342
 3982SOL    HW223166   0.557   5.038   5.918  1.2534 -1.0288 -1.6848
 3983SOL     OW23167   6.083   1.495   5.075 -0.5817  0.1649 -0.2921
 3983SOL    HW123168   6.080   1.476   5.173 -2.2180  1.8268  0.0294
 3983SOL    HW223169   6.177   1.493   5.043 -0.0573 -0.6793  1.2598
 3984SOL     OW23170   7.818   5.755   5.617 -0.0281 -0.1945 -0.1607
 3984SOL    HW123171   7.789   5.778   5.711 -0.5749 -2.2188  0.1873
 3984SOL    HW223172   7.760   5.682   5.582  3.6824 -3.3616 -0.0015
 3985SOL     OW23173   1.079   1.902   4.020  0.4392  0.7981 -0.0930
 3985SOL    HW123174   0.989   1.913   4.064  0.7271  1.1635  0.4162
 3985SOL    HW223175   1.070   1.922   3.922 -0.3136 -0.5508 -0.3087
 3986SOL     OW23176   7.309   9.397   3.708  0.0016  0.2791 -0.0736
 3986SOL    HW123177   7.239   9.347   3.759 -1.1279  1.6182 -0.2831
 3986SOL    HW223178   7.318   9.357   3.617  2.0383 -2.1379  1.1051
 3987SOL     OW23179   4.325   8.071   4.647 -0.0157  0.9210 -0.5888
 3987SOL    HW123180   4.232   8.096   4.620  0.9993  3.5007 -1.8408
 3987SOL    HW223181   4.331   8.066   4.747 -1.8571 -0.8924 -0.5229
 3988SOL     OW23182   1.021   2.983   6.760 -0.6293 -0.3538 -0.0676
 3988SOL    HW123183   1.049   2.921   6.833 -0.2888  0.6996  0.6936
 3988SOL    HW223184   1.028   2.935   6.672  0.7753 -1.0139  0.3947
 3989SOL     OW23185   7.408   2.675   3.177 -0.3251 -0.4728 -0.1417
 3989SOL    HW123186   7.507   2.685   3.174 -0.4228  0.2140 -1.2615
 3989SOL    HW223187   7.374   2.656   3.084 -1.1989 -1.0613  0.2950
 3990SOL     OW23188   8.606   1.750   6.543  0.4550 -0.9392 -0.5980
 3990SOL    HW123189   8.565   1.749   6.451  1.5057 -1.6846 -1.0662
 3990SOL    HW223190   8.575   1.832   6.591  0.5722 -0.0902 -1.9331
 3991SOL     OW23191   6.374   9.178   2.704 -0.6103  0.0819  0.2947
 3991SOL    HW123192   6.396   9.245   2.776 -0.7546  1.7234 -1.1584
 3991SOL    HW223193   6.445   9.180   2.634 -0.5811 -1.3653  0.2702
 3992SOL     OW23194   2.314   5.174   2.119 -0.0050  0.1328 -0.4036
 3992SOL    HW123195   2.376   5.252   2.109  0.2131  0.0121 -0.0187
 3992SOL    HW223196   2.260   5.184   2.202 -1.4966  0.9161 -1.4453
 3993SOL     OW23197   0.427   0.136   3.249  0.9331 -0.0865 -0.1459
 3993SOL    HW123198   0.394   0.101   3.337  1.7395  0.4329  0.3606
 3993SOL    HW223199   0.519   0.102   3.232  0.1527 -1.6106 -1.6095
 3994SOL     OW23200   1.236   6.206   5.826 -0.1715 -0.0692  0.7138
 3994SOL    HW123201   1.231   6.306   5.829  3.3756  0.2891 -1.8272
 3994SOL    HW223202   1.289   6.177   5.746  0.0198 -3.9332  2.1063
 3995SOL     OW23203   0.155   8.349   5.352  0.4196  0.3040  0.3504
 3995SOL    HW123204   0.128   8.423   5.414 -0.5318 -0.1631  0.5026
 3995SOL    HW223205   0.251   8.326   5.367  0.0997 -0.0431  1.9056
 3996SOL     OW23206   7.146   4.536   5.441  0.0480  0.5456  0.0484
 3996SOL    HW123207   7.064   4.587   5.412 -0.2661 -0.8073 -1.5151
 3996SOL    HW223208   7.119   4.459   5.499  0.1099 -0.4083 -1.1645
 3997SOL     OW23209   9.001   1.782   1.041  0.3237  0.0888  0.1228
 3997SOL    HW123210   8.923   1.818   0.989  0.7618 -1.2641 -1.5068
 3997SOL    HW223211   9.086   1.809   0.996  0.7385 -0.2751  0.6821
 3998SOL     OW23212   1.474   2.792   3.190  0.2238  0.3956  0.1174
 3998SOL    HW123213   1.455   2.811   3.286 -0.8561  0.6447 -0.1385
 3998SOL    HW223214   1.390   2.763   3.144  1.0101 -1.0978 -0.4283
 3999SOL     OW23215   8.872   7.399   1.278 -0.2482 -0.3286  0.0162
 3999SOL    HW123216   8.884   7.312   1.326  0.4809  0.6734  1.7205
 3999SOL    HW223217   8.802   7.453   1.325  0.9264  0.9342  0.3481
 4000SOL     OW23218   7.586   0.716   3.954 -0.1063 -0.1687  0.0286
 4000SOL    HW123219   7.655   0.651   3.922 -0.0425 -1.4594  2.5941
 4000SOL    HW223220   7.509   0.665   3.993  0.1328  1.2838  2.4820
 4001SOL     OW23221   8.730   8.217   3.795  0.5049  0.6711 -0.3211
 4001SOL    HW123222   8.759   8.137   3.848 -0.8610  1.0290  0.9934
 4001SOL    HW223223   8.640   8.200   3.756  1.4707  0.4375 -2.5120
 4002SOL     OW23224   0.762   8.983   5.946 -0.3553  0.0803  0.0777
 4002SOL    HW123225   0.801   8.891   5.941 -0.5848  0.0282 -0.9000
 4002SOL    HW223226   0.681   8.988   5.888 -0.7174  0.7223  0.6316
 4003SOL     OW23227   2.727   8.656   0.802 -0.2548  0.5592 -0.1268
 4003SOL    HW123228   2.736   8.728   0.733  0.4565 -0.8711 -1.5490
 4003SOL    HW223229   2.701   8.697   0.889 -0.9348  2.4260 -1.1723
 4004SOL     OW23230   1.001   8.580   2.926 -0.2190 -0.3284 -0.3458
 4004SOL    HW123231   1.099   8.583   2.949  0.0345 -1.2853 -1.2337
 4004SOL    HW223232   0.988   8.614   2.832 -1.0504  2.0951  0.6033
 4005SOL     OW23233   5.580   7.869   3.019  0.3304 -0.0644 -0.4063
 4005SOL    HW123234   5.631   7.791   2.981 -0.1372  0.2062 -1.6231
 4005SOL    HW223235   5.482   7.850   3.014  0.1948  0.7985 -1.1699
 4006SOL     OW23236   5.076   4.379   0.579  0.0802  0.0420 -0.3277
 4006SOL    HW123237   5.145   4.307   0.582 -0.2742 -0.2673  0.6688
 4006SOL    HW223238   5.115   4.465   0.610  0.8348  0.5876 -2.6412
 4007SOL     OW23239   6.464   7.339   4.395  0.3345  0.7885  0.3847
 4007SOL    HW123240   6.365   7.355   4.389  0.3105  0.0647 -1.4528
 4007SOL    HW223241   6.511   7.427   4.401 -0.3594  1.1777  0.2359
 4008SOL     OW23242   9.296   9.036   5.991  0.4697 -0.2421  0.0128
 4008SOL    HW123243   9.379   8.993   6.026  0.6494  0.4094  0.3944
 4008SOL    HW223244   9.320   9.103   5.921  0.2356 -0.2988 -0.1218
 4009SOL     OW23245   0.156   5.474   5.800  0.5632  0.1179 -0.2234
 4009SOL    HW123246   0.181   5.378   5.790 -0.0880 -0.3076  1.8453
 4009SOL    HW223247   0.223   5.532   5.753 -0.5519 -1.4217 -3.8855
 4010SOL     OW23248   8.640   5.230   2.096  0.4037  1.0920  0.1077
 4010SOL    HW123249   8.598   5.319   2.076  0.1098  0.5897 -1.5358
 4010SOL    HW223250   8.708   5.208   2.027 -0.7450 -0.7402 -0.4747
 4011SOL     OW23251   3.886   2.079   3.649 -0.2425  0.2460 -0.0106
 4011SOL    HW123252   3.853   2.141   3.719  1.0335  1.2175 -0.2574
 4011SOL    HW223253   3.969   2.032   3.681 -0.8794 -0.9295 -0.0343
 4012SOL     OW23254   7.680   2.637   3.206 -0.2195 -0.5000 -0.2561
 4012SOL    HW123255   7.749   2.671   3.270 -0.0902 -0.6632 -0.3104
 4012SOL    HW223256   7.682   2.537   3.204 -0.0842 -0.4882 -0.6722
 4013SOL     OW23257   4.656   1.649   3.473  0.0342  0.1063 -0.7549
 4013SOL    HW123258   4.597   1.683   3.400  0.4145 -0.5168 -1.3589
 4013SOL    HW223259   4.721   1.721   3.499 -0.6818  0.6377 -0.3989
 4014SOL     OW23260   4.508   9.127   1.567  0.3329 -0.6331  0.4673
 4014SOL    HW123261   4.442   9.122   1.492  1.8073  0.8792 -0.9788
 4014SOL    HW223262   4.460   9.123   1.655 -1.5211 -1.2108 -0.5615
 4015SOL     OW23263   1.803   3.980   4.174  0.1683 -0.1002  0.1938
 4015SOL    HW123264   1.844   3.957   4.085 -0.7204 -0.8590 -0.0236
 4015SOL    HW223265   1.799   3.898   4.231 -0.5359  0.0952  0.4191
 4016SOL     OW23266   6.015   0.916   3.635  0.4658 -0.1837  0.2762
 4016SOL    HW123267   5.970   0.894   3.549  1.3504  1.4796 -0.6341
 4016SOL    HW223268   5.949   0.958   3.698  0.6200  1.8937 -0.9110
 4017SOL     OW23269   3.626   7.378   2.544  0.3551 -0.0010 -0.4750
 4017SOL    HW123270   3.677   7.309   2.595  0.5580  1.6165  1.5999
 4017SOL    HW223271   3.690   7.441   2.500  0.1690  0.1486 -0.5328
 4018SOL     OW23272   2.629   7.920   6.598 -0.0649 -0.6260 -0.4980
 4018SOL    HW123273   2.591   8.012   6.607 -0.2839 -0.8372  0.8189
 4018SOL    HW223274   2.727   7.926   6.580  0.1552 -0.1406  0.7858
 4019SOL     OW23275   9.142   1.280   2.002  0.5531 -0.0576  0.2701
 4019SOL    HW123276   9.197   1.363   2.001  1.1192 -0.4293 -3.0659
 4019SOL    HW223277   9.055   1.298   2.049  0.1292  2.7754 -1.5276
 4020SOL     OW23278   7.325   5.912   5.064 -0.7352  0.7429 -0.0663
 4020SOL    HW123279   7.423   5.895   5.075 -0.9561 -0.2808  0.4191
 4020SOL    HW223280   7.297   5.987   5.124  0.0439  2.0714 -1.3595
 4021SOL     OW23281   6.869   0.437   2.490 -0.4926 -0.0826  0.6079
 4021SOL    HW123282   6.875   0.396   2.581  1.9926 -0.5881  0.2434
 4021SOL    HW223283   6.925   0.519   2.487  0.2504 -0.6319 -0.7629
 4022SOL     OW23284   8.453   7.664   5.100  0.7728  0.2110  0.0522
 4022SOL    HW123285   8.522   7.648   5.171 -0.4330 -2.0517  0.7707
 4022SOL    HW223286   8.432   7.577   5.054 -0.2844  1.2017 -1.3977
 4023SOL     OW23287   9.062   3.556   1.674 -0.8898 -0.5755  0.3466
 4023SOL    HW123288   8.992   3.526   1.739 -1.0118 -2.2219 -0.5219
 4023SOL    HW223289   9.028   3.635   1.623 -2.9111 -2.4875 -1.3805
 4024SOL     OW23290   1.752   4.734   0.643 -0.1850  0.0311 -0.1523
 4024SOL    HW123291   1.803   4.655   0.612 -1.0039 -0.6548  0.2241
 4024SOL    HW223292   1.739   4.798   0.567 -0.3528 -0.6433 -0.6871
 4025SOL     OW23293   6.946   0.318   2.709 -0.0929 -0.1809 -0.4427
 4025SOL    HW123294   7.026   0.273   2.670  0.4802 -1.7073  2.4442
 4025SOL    HW223295   6.873   0.251   2.724 -0.5317  0.4970  0.5334
 4026SOL     OW23296   4.608   4.056   6.722 -0.2796  0.2377  0.0704
 4026SOL    HW123297   4.673   4.121   6.761 -1.5043  1.8462 -0.5004
 4026SOL    HW223298   4.579   3.992   6.794  0.5020  0.6911  0.8029
 4027SOL     OW23299   2.514   2.158   6.372  0.3027 -0.5903 -0.1883
 4027SOL    HW123300   2.611   2.174   6.391  0.1370  0.6854 -0.4213
 4027SOL    HW223301   2.505   2.088   6.301  1.1130  1.1730 -2.0508
 4028SOL     OW23302   3.791   1.238   5.401 -0.2921  0.0076 -0.0972
 4028SOL    HW123303   3.860   1.229   5.329  1.4716  0.0192  1.5445
 4028SOL    HW223304   3.758   1.147   5.428  1.4467 -0.2496  1.2959
 4029SOL     OW23305   0.490   0.148   4.522  0.1389 -0.0559  0.3786
 4029SOL    HW123306   0.444   0.094   4.451  1.1896 -1.2003  0.5519
 4029SOL    HW223307   0.451   0.125   4.612 -0.3145  0.4479  0.3118
 4030SOL     OW23308   1.717   5.982   2.421 -0.6066 -0.2456  0.1919
 4030SOL    HW123309   1.681   6.061   2.370  0.2629  0.2060  0.2724
 4030SOL    HW223310   1.751   6.012   2.510  1.1063 -0.4568 -0.3742
 4031SOL     OW23311   8.152   6.943   5.014  0.0236  0.1189  0.4244
 4031SOL    HW123312   8.131   7.007   5.088  1.6116 -0.0186  1.0279
 4031SOL    HW223313   8.070   6.925   4.961 -1.5784 -1.0159  3.1370
 4032SOL     OW23314   9.076   2.713   1.547  0.0870 -0.4317 -0.0579
 4032SOL    HW123315   9.020   2.770   1.606  0.3563  1.0283 -1.1822
 4032SOL    HW223316   9.158   2.684   1.596  0.4099  0.9417  0.2209
 4033SOL     OW23317   5.654   4.418   0.901  0.1434  0.0990 -0.2618
 4033SOL    HW123318   5.572   4.439   0.956 -1.4993 -0.2711 -2.5016
 4033SOL    HW223319   5.716   4.362   0.955 -1.5188 -0.4077  1.1851
 4034SOL     OW23320   0.420   7.474   2.311 -0.1052 -0.0317  0.4159
 4034SOL    HW123321   0.364   7.556   2.301  0.4013  0.2650 -0.0286
 4034SOL    HW223322   0.377   7.398   2.262 -0.8235 -0.1591  1.2303
 4035SOL     OW23323   1.057   7.738   6.583  0.4271 -0.1121 -0.7527
 4035SOL    HW123324   1.015   7.690   6.505  2.2378 -1.9479 -0.6508
 4035SOL    HW223325   1.143   7.693   6.606  1.0825  1.8998  0.7968
 4036SOL     OW23326   1.414   7.696   2.496 -0.6550  0.3861  0.0837
 4036SOL    HW123327   1.343   7.632   2.526  1.2929 -0.8891  2.1799
 4036SOL    HW223328   1.488   7.645   2.452 -1.2676  1.7618 -2.6379
 4037SOL     OW23329   1.713   9.627   1.520  0.4139 -0.1007  0.2622
 4037SOL    HW123330   1.723   9.528   1.510  1.6299  0.0282  0.1128
 4037SOL    HW223331   1.801   9.671   1.500  0.2048  0.9181  1.5415
 4038SOL     OW23332   1.784   2.868   2.586 -0.1117  0.1529  0.5514
 4038SOL    HW123333   1.797   2.941   2.519  0.8554 -1.3014 -0.8683
 4038SOL    HW223334   1.860   2.804   2.580 -1.4323 -1.4877  1.1182
 4039SOL     OW23335   0.296   7.352   0.424 -0.6587 -0.2268 -0.1263
 4039SOL    HW123336   0.225   7.365   0.493 -0.7793 -0.2180 -0.2507
 4039SOL    HW223337   0.275   7.409   0.344  1.1705  2.2696  1.0788
 4040SOL     OW23338   1.231   5.191   3.911 -0.2097  0.4638 -0.2698
 4040SOL    HW123339   1.228   5.094   3.933 -0.0544  0.4154 -0.4514
 4040SOL    HW223340   1.282   5.240   3.982 -1.5474  0.6414  0.5803
 4041SOL     OW23341   6.860   8.457   4.805 -0.3059 -0.3403  0.2637
 4041SOL    HW123342   6.796   8.462   4.881 -0.7993  1.3872 -0.2411
 4041SOL    HW223343   6.939   8.515   4.824  0.2077 -0.9620  0.0455
 4042SOL     OW23344   6.957   9.245   2.111  0.0749 -0.6499  0.0106
 4042SOL    HW123345   7.004   9.167   2.071 -0.4032 -0.0269 -1.8091
 4042SOL    HW223346   7.001   9.330   2.081 -2.3209 -0.0360 -1.9764
 4043SOL     OW23347   1.442   6.770   1.818 -0.5080  0.1059 -0.0265
 4043SOL    HW123348   1.457   6.733   1.909  1.6313 -1.5176 -0.9922
 4043SOL    HW223349   1.347   6.754   1.790 -0.9423 -0.1302  1.5642
 4044SOL     OW23350   4.098   5.227   6.351 -0.2952  0.4151 -0.0105
 4044SOL    HW123351   4.127   5.314   6.312 -1.4424  0.9450  0.2986
 4044SOL    HW223352   4.066   5.167   6.279  0.7503  0.1402 -0.2554
 4045SOL     OW23353   9.491   0.647   1.150  0.4886 -0.5682 -0.6406
 4045SOL    HW123354   9.540   0.580   1.206  1.6227  0.7544 -0.0118
 4045SOL    HW223355   9.403   0.608   1.121  1.3604 -2.5186 -0.7583
 4046SOL     OW23356   0.385   4.633   6.136  0.1989  0.8989 -0.3466
 4046SOL    HW123357   0.384   4.548   6.190  0.5742 -0.3241 -2.2127
 4046SOL    HW223358   0.309   4.691   6.165 -0.7202 -0.5521  0.2333
 4047SOL     OW23359   7.906   3.349   5.146  0.1578 -0.3665  0.2014
 4047SOL    HW123360   7.852   3.304   5.216 -0.7224 -0.0469 -0.2663
 4047SOL    HW223361   7.859   3.344   5.058  0.6365  0.3701 -0.1074
 4048SOL     OW23362   5.499   1.756   0.753 -0.1698  0.0116 -0.1573
 4048SOL    HW123363   5.494   1.710   0.664  0.0223  1.1028 -0.7326
 4048SOL    HW223364   5.571   1.825   0.751 -0.9337  0.8392  0.4885
 4049SOL     OW23365   0.335   4.957   3.904  0.5262  0.3591  0.4576
 4049SOL    HW123366   0.430   4.930   3.886 -0.0344 -2.8678  1.9412
 4049SOL    HW223367   0.281   4.944   3.821  0.6782 -1.3957  0.5953
 4050SOL     OW23368   8.765   1.249   3.614 -0.0801 -0.4883 -0.3326
 4050SOL    HW123369   8.675   1.286   3.635 -0.1004 -0.2123 -0.9040
 4050SOL    HW223370   8.835   1.303   3.660 -0.1580 -0.2268 -0.5241
 4051SOL     OW23371   7.728   4.040   0.670 -0.2389 -0.5672  0.1272
 4051SOL    HW123372   7.709   4.136   0.691  1.2514 -0.1084 -0.5413
 4051SOL    HW223373   7.676   3.981   0.732 -1.3334  0.6602  0.4005
 4052SOL     OW23374   2.546   5.068   6.016 -0.0105  0.2452  0.3030
 4052SOL    HW123375   2.451   5.089   6.040 -0.8673 -0.7935 -2.1079
 4052SOL    HW223376   2.607   5.131   6.064 -1.8844  0.7856  2.0421
 4053SOL     OW23377   7.197   2.860   2.620  0.1383  0.0825  0.5407
 4053SOL    HW123378   7.215   2.956   2.597 -1.4236  0.1513 -0.4602
 4053SOL    HW223379   7.108   2.852   2.664  0.6965 -0.7933  1.5213
 4054SOL     OW23380   9.532   1.688   4.590 -0.1644 -0.3960  0.8818
 4054SOL    HW123381   9.472   1.667   4.513 -0.2454 -1.1807  1.1529
 4054SOL    HW223382   9.532   1.787   4.607 -0.7932 -0.3142  0.4105
 4055SOL     OW23383   3.717   5.231   1.625 -0.4563 -0.4711  0.2554
 4055SOL    HW123384   3.799   5.214   1.680 -0.3250  0.1919  0.2677
 4055SOL    HW223385   3.636   5.204   1.677 -0.4966  2.2128  1.6881
 4056SOL     OW23386   8.046   3.845   5.936 -0.5860  0.2632 -0.4635
 4056SOL    HW123387   8.136   3.887   5.927 -1.5024  1.9348 -2.2551
 4056SOL    HW223388   8.034   3.775   5.865 -0.2725 -0.7798  0.5013
 4057SOL     OW23389   9.236   7.589   4.103 -0.3181  0.1316 -0.2760
 4057SOL    HW123390   9.205   7.682   4.084 -2.2190 -0.5369 -0.5603
 4057SOL    HW223391   9.285   7.588   4.191  1.3821  1.7128 -1.1556
 4058SOL     OW23392   7.940   0.078   6.237 -0.0372 -0.2077  0.4647
 4058SOL    HW123393   8.037   0.092   6.258  0.1943  1.2770 -1.4458
 4058SOL    HW223394   7.899   0.165   6.211 -0.7107 -1.5621 -3.3250
 4059SOL     OW23395   2.210   9.617   2.903 -0.7922 -0.1352  0.3078
 4059SOL    HW123396   2.150   9.639   2.980  0.8396  1.8434  1.0410
 4059SOL    HW223397   2.197   9.684   2.829  0.1526  0.0400  0.2858
 4060SOL     OW23398   9.759   1.668   6.404 -0.3307  0.4512  0.3271
 4060SOL    HW123399   9.676   1.632   6.361 -1.5566  1.3041  1.9380
 4060SOL    HW223400   9.752   1.660   6.503  0.0823  3.5904  0.6690
 4061SOL     OW23401   2.445   6.878   3.734 -0.3903  0.5794 -0.1553
 4061SOL    HW123402   2.371   6.902   3.796 -0.1680  1.2248 -0.1416
 4061SOL    HW223403   2.469   6.957   3.677  0.7503  0.5780  0.3139
 4062SOL     OW23404   0.295   4.400   5.947  0.2423  0.0125  0.1186
 4062SOL    HW123405   0.369   4.448   5.995 -0.8602 -0.3997  2.3208
 4062SOL    HW223406   0.244   4.465   5.891  1.1098  0.6776  0.0938
 4063SOL     OW23407   1.503   2.819   4.630  0.5418 -0.0664 -0.2220
 4063SOL    HW123408   1.547   2.779   4.710 -2.2458  1.0542  1.9255
 4063SOL    HW223409   1.493   2.750   4.559  1.4517 -1.5107  1.0323
 4064SOL     OW23410   8.402   0.624   0.509 -0.1691  0.4961 -0.0819
 4064SOL    HW123411   8.451   0.567   0.443 -0.4875  0.6730 -0.4740
 4064SOL    HW223412   8.376   0.711   0.465 -1.5465  0.0744 -0.1218
 4065SOL     OW23413   5.381   2.295   2.755  0.2020 -0.0946  0.5947
 4065SOL    HW123414   5.384   2.348   2.839  0.0793 -1.4216  1.4609
 4065SOL    HW223415   5.286   2.273   2.732  0.3373 -1.2733  1.1182
 4066SOL     OW23416   3.541   0.705   0.329  0.1317  0.5031  0.1544
 4066SOL    HW123417   3.587   0.617   0.336 -0.4627 -0.0251 -2.0854
 4066SOL    HW223418   3.609   0.778   0.320  0.6086 -0.0084 -0.5248
 4067SOL     OW23419   9.000   3.539   0.720  0.1628 -0.3931  0.1118
 4067SOL    HW123420   9.036   3.632   0.708 -0.6806 -0.0912 -0.1114
 4067SOL    HW223421   8.951   3.534   0.806  1.8826 -1.1757  1.0564
 4068SOL     OW23422   8.844   9.085   3.142  0.2253  0.0209 -0.4625
 4068SOL    HW123423   8.941   9.063   3.141  0.5115  1.2323 -0.0902
 4068SOL    HW223424   8.832   9.184   3.134 -0.9382 -0.0279  0.4515
 4069SOL     OW23425   1.914   7.423   3.395  0.6449 -0.1320 -0.3090
 4069SOL    HW123426   1.881   7.438   3.488 -1.2456 -0.7398 -0.8574
 4069SOL    HW223427   1.928   7.511   3.350  2.1092  0.1841  0.6980
 4070SOL     OW23428   5.377   8.979   5.402 -0.4221 -0.0516 -0.1985
 4070SOL    HW123429   5.310   9.004   5.472  0.2225 -1.0826  0.7935
 4070SOL    HW223430   5.329   8.937   5.324 -1.0973  0.7457 -0.2250
 4071SOL     OW23431   7.629   0.093   4.185  0.3494  0.0904 -0.4031
 4071SOL    HW123432   7.657   0.188   4.172 -0.7866  0.5547  0.4061
 4071SOL    HW223433   7.688   0.050   4.253 -0.5939  0.9397  0.9891
 4072SOL     OW23434   2.112   4.542   2.671  0.5317 -0.2140  0.0577
 4072SOL    HW123435   2.173   4.464   2.680 -0.6475 -1.0153  1.3775
 4072SOL    HW223436   2.024   4.521   2.714 -0.6506  0.9358 -1.7107
 4073SOL     OW23437   4.410   6.808   1.346 -0.2632  0.5198 -0.6164
 4073SOL    HW123438   4.421   6.724   1.292 -0.5378  0.3879 -0.4715
 4073SOL    HW223439   4.471   6.806   1.424 -0.9383  0.0287 -0.0987
 4074SOL     OW23440   5.808   8.876   4.858  0.1063 -0.8742 -0.3325
 4074SOL    HW123441   5.798   8.934   4.938  2.1069  1.2303 -1.5363
 4074SOL    HW223442   5.724   8.878   4.804  0.3783  1.4919 -0.7064
 4075SOL     OW23443   1.057   3.716   2.142 -0.0324 -0.6342 -0.2758
 4075SOL    HW123444   1.078   3.743   2.048 -0.5736 -3.1567 -1.1659
 4075SOL    HW223445   0.959   3.702   2.151  0.0045 -0.2617  0.7014
 4076SOL     OW23446   2.807   1.152   5.466  0.3480  0.3904 -0.0632
 4076SOL    HW123447   2.768   1.233   5.423  0.4962  0.2010 -0.5617
 4076SOL    HW223448   2.884   1.177   5.523 -0.3449  0.7408  0.7234
 4077SOL     OW23449   4.377   8.825   3.183 -0.5993 -0.4588  0.4486
 4077SOL    HW123450   4.462   8.781   3.151  0.6107  1.5814  0.7664
 4077SOL    HW223451   4.384   8.844   3.281 -1.1356  0.3592  0.3319
 4078SOL     OW23452   2.401   5.934   5.688  0.0761  0.0305 -0.3446
 4078SOL    HW123453   2.438   5.970   5.602  2.5986  0.5549  0.9123
 4078SOL    HW223454   2.354   6.008   5.738 -0.0797  0.0911 -0.5808
 4079SOL     OW23455   8.820   8.722   1.510 -0.3120  0.0183  0.8888
 4079SOL    HW123456   8.874   8.804   1.530 -0.0216  0.0404  0.0167
 4079SOL    HW223457   8.725   8.737   1.537 -0.5407  1.1194 -0.4712
 4080SOL     OW23458   2.955   4.259   1.033  0.0828 -0.1060 -0.1006
 4080SOL    HW123459   2.866   4.214   1.027 -1.2263  2.3858 -0.0942
 4080SOL    HW223460   2.952   4.329   1.105  1.9454  0.1738 -0.2860
 4081SOL     OW23461   3.547   7.903   3.562  0.1421 -0.2996  0.2693
 4081SOL    HW123462   3.563   7.953   3.477 -2.2013  1.2377  0.6890
 4081SOL    HW223463   3.559   7.805   3.547  1.2107  0.0791 -1.4534
 4082SOL     OW23464   0.065   3.764   2.903  0.5199  0.1092 -0.5614
 4082SOL    HW123465  -0.027   3.733   2.881  0.6451  0.5996 -1.8303
 4082SOL    HW223466   0.111   3.695   2.960 -0.5954 -0.1580  0.0364
 4083SOL     OW23467   3.339   5.837   1.150  0.0738 -0.0097  0.0638
 4083SOL    HW123468   3.262   5.888   1.111  0.7193  1.4859  0.7133
 4083SOL    HW223469   3.423   5.891   1.141  0.3472  0.0873  2.8550
 4084SOL     OW23470   1.559   4.455   2.713 -0.0058 -0.3842  0.2370
 4084SOL    HW123471   1.577   4.447   2.811  3.0935 -0.8076 -0.3433
 4084SOL    HW223472   1.549   4.364   2.673  0.1614 -0.2561 -0.1016
 4085SOL     OW23473   6.357   7.233   5.079  0.5498 -0.0737 -0.5518
 4085SOL    HW123474   6.440   7.204   5.032  0.1634 -0.4074 -1.0329
 4085SOL    HW223475   6.300   7.287   5.017  0.5700  0.4588 -0.1160
 4086SOL     OW23476   1.133   9.028   3.886 -0.2546 -0.2583 -0.2652
 4086SOL    HW123477   1.229   9.008   3.905 -0.8013 -0.2931  2.6837
 4086SOL    HW223478   1.106   9.113   3.932 -1.5204 -0.0048 -1.4291
 4087SOL     OW23479   6.635   7.975   3.255 -0.2661  0.6773 -0.2591
 4087SOL    HW123480   6.611   7.948   3.162 -0.5944  1.9179 -0.5354
 4087SOL    HW223481   6.730   7.950   3.274 -0.3214  0.0691 -0.7847
 4088SOL     OW23482   3.695   5.213   0.359 -0.1903  0.0679 -0.1846
 4088SOL    HW123483   3.669   5.310   0.354 -1.6631 -0.3607 -1.3977
 4088SOL    HW223484   3.698   5.184   0.454  0.1483  1.2742  0.1803
 4089SOL     OW23485   2.559   9.562   4.533  0.1014 -0.2997 -0.0717
 4089SOL    HW123486   2.583   9.590   4.626  0.8775 -1.0218 -0.0492
 4089SOL    HW223487   2.506   9.477   4.537 -0.2889 -0.0682 -0.2652
 4090SOL     OW23488   0.397   5.933   2.316  0.8155 -0.2699  0.1894
 4090SOL    HW123489   0.387   5.861   2.248 -1.4912 -0.9512  1.2110
 4090SOL    HW223490   0.385   5.895   2.408  1.0044  1.1616  0.8232
 4091SOL     OW23491   7.729   2.687   4.180 -0.3170 -0.6728 -0.4384
 4091SOL    HW123492   7.824   2.709   4.159 -0.4598 -1.0980 -1.5646
 4091SOL    HW223493   7.681   2.771   4.207  0.0221 -0.2088 -1.2505
 4092SOL     OW23494   2.950   1.414   4.064 -0.1347  0.1193 -0.1728
 4092SOL    HW123495   2.898   1.333   4.091  0.3594  0.3024  1.3670
 4092SOL    HW223496   2.945   1.483   4.136  3.0798 -0.2636  0.4944
 4093SOL     OW23497   9.073   5.170   2.534 -0.2273  0.1101  0.2934
 4093SOL    HW123498   9.113   5.203   2.619  1.6243 -1.0765 -0.0844
 4093SOL    HW223499   9.051   5.073   2.543  0.7881 -0.2420 -0.8435
 4094SOL     OW23500   1.548   5.877   3.574 -0.2489  0.1911  0.6662
 4094SOL    HW123501   1.475   5.912   3.515  0.1683 -0.5700 -0.3245
 4094SOL    HW223502   1.567   5.782   3.550 -0.1091 -0.1582  2.0842
 4095SOL     OW23503   1.391   0.698   3.581  0.1699  0.3918 -0.2006
 4095SOL    HW123504   1.483   0.712   3.543 -0.3775  0.1232 -1.6693
 4095SOL    HW223505   1.336   0.647   3.515 -0.3125 -1.5911  1.6835
 4096SOL     OW23506   2.946   6.480   3.686  0.2299 -0.3383  0.1273
 4096SOL    HW123507   2.910   6.388   3.699  0.4057 -0.4021  0.1565
 4096SOL    HW223508   2.871   6.543   3.665 -0.0186 -0.3046  1.1045
 4097SOL     OW23509   1.821   4.522   1.232 -0.3715 -0.3095 -0.4905
 4097SOL    HW123510   1.738   4.488   1.276  0.8530  0.6113  2.6826
 4097SOL    HW223511   1.900   4.470   1.266  0.6895  0.8603 -1.1224
 4098SOL     OW23512   7.839   4.534   6.625  0.3203  0.0813  0.3442
 4098SOL    HW123513   7.836   4.634   6.628 -1.1752  0.1395 -1.8228
 4098SOL    HW223514   7.857   4.498   6.716 -2.5372  2.2332  1.8234
 4099SOL     OW23515   8.140   0.686   1.205 -0.1681 -0.5270 -0.0831
 4099SOL    HW123516   8.128   0.748   1.128  0.8870  0.1447  0.2858
 4099SOL    HW223517   8.053   0.675   1.253 -0.8608 -1.0385 -1.4203
 4100SOL     OW23518   2.867   9.936   4.516  0.5957 -0.2078  0.4101
 4100SOL    HW123519   2.821  10.020   4.488  2.1759  0.7497  0.5855
 4100SOL    HW223520   2.882   9.938   4.615  0.2139 -0.9130  0.4809
 4101SOL     OW23521   5.438   8.756   3.286 -0.3424  0.1372 -0.3648
 4101SOL    HW123522   5.373   8.718   3.220 -0.5970 -0.4359  0.2067
 4101SOL    HW223523   5.413   8.850   3.307 -1.5583 -0.3693  0.5597
 4102SOL     OW23524   1.089   6.110   4.846  1.1531 -0.7423  0.2621
 4102SOL    HW123525   1.171   6.090   4.900  0.3017 -1.8902  1.1576
 4102SOL    HW223526   1.033   6.028   4.839  0.7436 -0.3184 -1.5155
 4103SOL     OW23527   0.938   9.045   1.958 -0.1360  0.3910  1.0165
 4103SOL    HW123528   0.985   9.099   2.028 -1.9599  1.1182  1.6887
 4103SOL    HW223529   0.854   9.006   1.996 -0.1668 -0.7881 -0.2188
 4104SOL     OW23530   1.924   6.713   5.886 -0.6913 -0.1713  0.8378
 4104SOL    HW123531   1.888   6.641   5.945 -0.8344 -0.0179  0.9407
 4104SOL    HW223532   1.938   6.678   5.794 -1.1964 -0.2137  0.7707
 4105SOL     OW23533   3.273   7.688   2.653 -0.3467  0.6284  0.3555
 4105SOL    HW123534   3.315   7.662   2.566  1.0596 -1.8255  1.7260
 4105SOL    HW223535   3.177   7.662   2.653 -0.0362 -0.5237  0.0218
 4106SOL     OW23536   8.693   0.561   2.211 -0.2249  0.4088 -0.2765
 4106SOL    HW123537   8.661   0.478   2.257  0.4829  0.2721 -0.0206
 4106SOL    HW223538   8.777   0.593   2.255 -1.6896  2.5260  1.0683
 4107SOL     OW23539   7.473   1.793   0.023  0.3549 -0.0324 -0.3645
 4107SOL    HW123540   7.551   1.851  -0.002 -0.8817  0.7646 -2.5444
 4107SOL    HW223541   7.430   1.829   0.105  0.5965  1.1769 -0.7590
 4108SOL     OW23542   2.678   3.040   4.672 -0.5251 -0.0046  0.0755
 4108SOL    HW123543   2.700   3.024   4.576 -0.1149  0.2552  0.1231
 4108SOL    HW223544   2.763   3.045   4.725 -0.6848  1.4026  0.2058
 4109SOL     OW23545   6.637   2.024   1.348 -0.4307  0.0590  0.2149
 4109SOL    HW123546   6.613   2.119   1.327  2.6577  1.2992  1.9714
 4109SOL    HW223547   6.702   1.990   1.280  2.5005  1.0295  2.4149
 4110SOL     OW23548   6.072   8.837   2.519 -0.1840 -0.2079  0.4327
 4110SOL    HW123549   6.143   8.906   2.504 -0.9325  0.7881  1.3712
 4110SOL    HW223550   6.088   8.759   2.458 -0.0436  1.3437 -1.5805
 4111SOL     OW23551   8.506   2.770   1.755  0.3713 -0.1333 -0.2668
 4111SOL    HW123552   8.431   2.833   1.777 -0.7427 -0.2639 -3.4391
 4111SOL    HW223553   8.480   2.677   1.780  0.7971  0.2239  1.5943
 4112SOL     OW23554   8.527   2.558   3.283 -0.1285  0.2675  0.4001
 4112SOL    HW123555   8.475   2.523   3.361 -0.7085 -0.3802 -0.2680
 4112SOL    HW223556   8.463   2.589   3.212  0.3961  0.7300  0.1251
 4113SOL     OW23557   2.391   8.524   0.901 -0.0147 -0.1082 -0.0284
 4113SOL    HW123558   2.452   8.488   0.830 -0.8417 -2.5340  0.4697
 4113SOL    HW223559   2.305   8.551   0.859  0.6622  1.5291 -0.4254
 4114SOL     OW23560   9.103   8.873   3.939 -0.4588  0.1860  0.1300
 4114SOL    HW123561   9.086   8.833   4.029  0.1011  0.3254  0.3026
 4114SOL    HW223562   9.151   8.807   3.881 -1.3199 -0.1073 -0.2606
 4115SOL     OW23563   1.992   4.505   4.355  0.0221 -0.1639 -0.0743
 4115SOL    HW123564   1.929   4.573   4.392  0.3301 -0.1245  0.3813
 4115SOL    HW223565   2.079   4.549   4.332 -0.5460  0.0433 -1.9362
 4116SOL     OW23566   1.869   0.276   3.961 -0.0137  0.1268 -0.2370
 4116SOL    HW123567   1.949   0.236   4.006 -1.4233 -2.7159 -0.1400
 4116SOL    HW223568   1.847   0.222   3.879 -1.2384  1.5034 -0.8399
 4117SOL     OW23569   8.227   0.324   0.533 -0.1724  0.0115  0.3830
 4117SOL    HW123570   8.188   0.372   0.611 -1.1900 -0.4995  0.1902
 4117SOL    HW223571   8.202   0.227   0.538 -0.2547 -0.0129 -0.5985
 4118SOL     OW23572   1.455   0.806   2.676  0.2435  0.0516 -0.0152
 4118SOL    HW123573   1.545   0.848   2.688  1.2499 -1.7176 -1.0649
 4118SOL    HW223574   1.395   0.868   2.625  1.1371  0.8919 -0.0576
 4119SOL     OW23575   0.996   9.769   1.660 -0.1865 -0.1202 -0.2933
 4119SOL    HW123576   1.037   9.705   1.595  1.3392  0.8252 -0.2864
 4119SOL    HW223577   0.987   9.858   1.617  0.5451  0.4355  0.6967
 4120SOL     OW23578   7.320   8.321   3.731 -0.2160  0.2779 -0.1946
 4120SOL    HW123579   7.369   8.390   3.677 -1.9495  1.2736 -0.5267
 4120SOL    HW223580   7.228   8.308   3.693  0.5970 -3.3822 -1.0873
 4121SOL     OW23581   2.252   9.066   1.191 -0.7989  0.2730  0.2420
 4121SOL    HW123582   2.156   9.053   1.215 -1.4258  2.6707 -0.8282
 4121SOL    HW223583   2.259   9.106   1.100  1.3062 -1.6671 -0.5073
 4122SOL     OW23584   2.949   4.813   1.965  0.3803 -0.2789 -0.1091
 4122SOL    HW123585   3.046   4.829   1.984  0.9178 -0.2351 -2.7592
 4122SOL    HW223586   2.898   4.898   1.980  1.0491  0.2078 -0.6070
 4123SOL     OW23587   0.839   4.319   2.365 -0.4141  0.2417 -0.0249
 4123SOL    HW123588   0.826   4.297   2.269  1.3699  0.5416 -0.3384
 4123SOL    HW223589   0.907   4.258   2.406 -1.1614  0.1035  1.0578
 4124SOL     OW23590   7.032   1.879   2.781  0.8254 -0.2240 -0.7395
 4124SOL    HW123591   6.972   1.829   2.719  0.6065  0.3829 -1.0126
 4124SOL    HW223592   7.085   1.813   2.836  0.6434 -0.7555 -1.1971
 4125SOL     OW23593   7.456   6.589   0.716  0.1900 -0.5652  0.5247
 4125SOL    HW123594   7.473   6.506   0.770 -0.7661 -1.6265 -0.7941
 4125SOL    HW223595   7.360   6.592   0.689 -0.8291  3.0821  4.0582
 4126SOL     OW23596   2.021   8.771   1.801 -0.3898 -0.6435 -0.6830
 4126SOL    HW123597   2.111   8.808   1.823 -0.5305 -1.4437  1.4077
 4126SOL    HW223598   1.972   8.834   1.741  0.4715  1.1662  0.4762
 4127SOL     OW23599   3.553   5.046   2.142  0.4678  0.1052  0.3184
 4127SOL    HW123600   3.562   4.959   2.094  0.7282 -0.1672  0.8604
 4127SOL    HW223601   3.465   5.087   2.119  0.7339  0.1396 -0.6586
 4128SOL     OW23602   7.579   1.710   2.836 -0.0839 -0.2534  0.2109
 4128SOL    HW123603   7.501   1.680   2.781 -0.3894  0.7435  0.0830
 4128SOL    HW223604   7.547   1.751   2.921  0.2383  1.1536 -0.3291
 4129SOL     OW23605   7.772   4.173   3.032 -0.3285 -0.1315 -0.0789
 4129SOL    HW123606   7.862   4.135   3.055  0.7188  1.4545 -1.4081
 4129SOL    HW223607   7.741   4.135   2.945  0.1098  1.0013 -0.7451
 4130SOL     OW23608   4.162   5.606   5.705  0.9092  0.5544  0.2295
 4130SOL    HW123609   4.256   5.620   5.674  1.2836  0.0776  1.1570
 4130SOL    HW223610   4.162   5.558   5.792 -0.2196 -0.0389 -0.0899
 4131SOL     OW23611   7.628   4.439   3.707  0.4831 -0.3182 -0.2951
 4131SOL    HW123612   7.696   4.405   3.771  1.5038  1.3003 -0.4986
 4131SOL    HW223613   7.537   4.433   3.748  0.9674 -0.6618  0.7276
 4132SOL     OW23614   1.690   5.485   5.204  0.3559 -0.4450 -0.1453
 4132SOL    HW123615   1.601   5.521   5.232  0.1002 -0.4980 -0.8584
 4132SOL    HW223616   1.762   5.549   5.229  0.0825 -0.2669  0.1744
 4133SOL     OW23617   2.178   0.261   0.565  0.0573 -0.1428 -0.4348
 4133SOL    HW123618   2.138   0.328   0.628 -1.2853 -0.0901 -1.3161
 4133SOL    HW223619   2.127   0.175   0.571  0.9708 -0.6715 -0.2381
 4134SOL     OW23620   8.686   1.742   3.801 -0.2533 -0.6292 -0.2153
 4134SOL    HW123621   8.689   1.842   3.795  0.1200 -0.7189 -1.8426
 4134SOL    HW223622   8.592   1.711   3.785  0.2018 -0.6858 -3.2149
 4135SOL     OW23623   7.360   7.414   2.733  0.1219 -0.5765  0.2179
 4135SOL    HW123624   7.371   7.332   2.676 -0.4259 -0.0352 -0.6797
 4135SOL    HW223625   7.413   7.489   2.695 -1.3545  0.1879 -0.4024
 4136SOL     OW23626   0.996   8.120   0.823 -0.3774 -0.3297  0.0906
 4136SOL    HW123627   1.069   8.096   0.759 -1.0836 -0.4984 -0.6590
 4136SOL    HW223628   0.989   8.050   0.894  1.0393  0.3412  0.9008
 4137SOL     OW23629   1.426   5.034   3.687  0.1333  0.3794  0.3626
 4137SOL    HW123630   1.374   5.076   3.612  1.3758  0.1853 -0.6392
 4137SOL    HW223631   1.502   5.095   3.712 -0.3829  0.5196  1.5821
 4138SOL     OW23632   4.762   9.593   6.012  0.1920 -0.6294  0.2502
 4138SOL    HW123633   4.689   9.559   5.954 -0.0010 -0.9389  0.6716
 4138SOL    HW223634   4.738   9.684   6.047  0.6636 -0.0898 -0.7948
 4139SOL     OW23635   0.485   1.034   4.335 -0.2418 -0.4039 -0.2968
 4139SOL    HW123636   0.389   1.031   4.307 -0.3191 -0.5655 -0.0147
 4139SOL    HW223637   0.526   1.119   4.302 -0.0967 -0.9892 -1.6451
 4140SOL     OW23638   8.694   7.543   4.272 -0.1523  0.1647  0.2171
 4140SOL    HW123639   8.761   7.600   4.320  0.0720 -0.2914  0.4495
 4140SOL    HW223640   8.656   7.594   4.194 -0.7790  1.0375  1.0759
 4141SOL     OW23641   9.958   7.293   0.788  0.3841  0.6671  0.2970
 4141SOL    HW123642   9.871   7.245   0.801  0.5964  0.0211 -0.6068
 4141SOL    HW223643  10.007   7.297   0.874 -0.1573  0.2801  0.6301
 4142SOL     OW23644   6.306   6.995   5.209 -0.2494  0.3909 -0.0273
 4142SOL    HW123645   6.293   7.081   5.159 -1.0310  0.3352  0.0682
 4142SOL    HW223646   6.293   7.011   5.307  0.3028  0.3034  0.0612
 4143SOL     OW23647   6.982   1.818   5.193 -0.2700  0.2359  0.0957
 4143SOL    HW123648   7.075   1.830   5.160 -0.1397  1.8727  1.0174
 4143SOL    HW223649   6.977   1.736   5.251  0.6774  0.3519  0.3431
 4144SOL     OW23650   5.032   4.329   6.502  0.4641 -0.0247 -0.0081
 4144SOL    HW123651   5.016   4.244   6.451 -0.9592  0.3957 -0.2769
 4144SOL    HW223652   4.952   4.388   6.495  1.1969  1.0768  0.7154
 4145SOL     OW23653   3.584   9.848   4.508  0.1532 -0.1773 -0.1167
 4145SOL    HW123654   3.613   9.755   4.530 -1.1515 -0.5069  0.2427
 4145SOL    HW223655   3.491   9.863   4.543  0.9862  1.8193  1.3518
 4146SOL     OW23656   4.624   5.284   0.767 -0.3685 -0.1522  0.0139
 4146SOL    HW123657   4.709   5.322   0.731 -0.0422 -0.5578  0.3616
 4146SOL    HW223658   4.563   5.359   0.795 -0.1792  0.1383 -0.3468
 4147SOL     OW23659   5.106   1.731   2.453  0.1761 -0.2196 -0.3893
 4147SOL    HW123660   5.193   1.682   2.456  0.4509  0.2225 -1.1004
 4147SOL    HW223661   5.044   1.685   2.389 -0.1613 -0.6060  0.2088
 4148SOL     OW23662   6.964   1.901   2.003 -0.6176 -0.2177  0.4174
 4148SOL    HW123663   6.904   1.945   2.070 -0.8370  0.7485 -0.3951
 4148SOL    HW223664   7.009   1.971   1.948  1.7034 -0.9050  1.3766
 4149SOL     OW23665   7.092   2.015   3.529  0.3663 -0.2933  0.4404
 4149SOL    HW123666   7.028   2.020   3.606  0.1562  2.9866  0.0970
 4149SOL    HW223667   7.041   2.017   3.443  0.7981 -0.2286  0.1838
 4150SOL     OW23668   3.857   3.512   1.932 -0.5861 -0.4498 -0.2476
 4150SOL    HW123669   3.880   3.508   2.029  0.1221  0.3524 -0.3771
 4150SOL    HW223670   3.891   3.429   1.887 -0.6901 -0.7076  0.1415
 4151SOL     OW23671   8.689   1.708   1.243  0.2962 -0.2516 -0.0591
 4151SOL    HW123672   8.738   1.786   1.281  1.9915 -0.9600 -0.7505
 4151SOL    HW223673   8.663   1.646   1.317  1.8666 -0.6631  0.1578
 4152SOL     OW23674   9.695   0.018   2.058 -0.0281 -0.3055 -0.3949
 4152SOL    HW123675   9.674  -0.048   2.130 -2.8641 -1.5463 -2.2841
 4152SOL    HW223676   9.767   0.081   2.090  1.4175 -3.1156  2.0957
 4153SOL     OW23677   5.416   1.558   3.447 -0.4250 -0.3754  0.0312
 4153SOL    HW123678   5.484   1.608   3.501 -1.3230  0.3266  0.5330
 4153SOL    HW223679   5.443   1.463   3.438  1.1331  0.1070 -0.6118
 4154SOL     OW23680   6.064   8.388   2.168  0.1430  0.7076 -0.5313
 4154SOL    HW123681   6.102   8.364   2.258  0.4681  2.6994 -0.1108
 4154SOL    HW223682   5.965   8.402   2.177 -0.3179 -1.9024 -1.0955
 4155SOL     OW23683   8.311   3.752   0.927  0.0753  0.5271 -0.1596
 4155SOL    HW123684   8.354   3.802   0.852 -0.3875  0.6108 -0.3686
 4155SOL    HW223685   8.337   3.793   1.014 -0.1502  1.0036 -0.3214
 4156SOL     OW23686   1.254   0.446   3.803  0.5010  0.5060 -0.3959
 4156SOL    HW123687   1.300   0.486   3.723  1.0304  2.1016  0.6958
 4156SOL    HW223688   1.182   0.507   3.834  1.1116  0.4676  1.1116
 4157SOL     OW23689   0.601   3.593   6.328 -0.4823  0.2488  0.2432
 4157SOL    HW123690   0.692   3.572   6.365 -0.5255  1.0454  0.8125
 4157SOL    HW223691   0.556   3.508   6.301  0.3556 -0.1709  0.1342
 4158SOL     OW23692   3.761   8.183   3.934 -1.0387 -0.3053  0.3364
 4158SOL    HW123693   3.835   8.192   4.000 -1.3972 -0.0690  0.7058
 4158SOL    HW223694   3.769   8.256   3.865 -0.6473 -0.5713  0.0967
 4159SOL     OW23695   2.159   1.218   6.622 -0.0124 -0.2251 -0.5348
 4159SOL    HW123696   2.219   1.197   6.699 -1.4994  1.6382  1.1799
 4159SOL    HW223697   2.066   1.187   6.642 -0.1330 -0.9411 -2.1524
 4160SOL     OW23698   4.129   1.458   3.599 -0.0142 -0.5767  0.2117
 4160SOL    HW123699   4.085   1.548   3.601  2.8480  0.9128 -0.7597
 4160SOL    HW223700   4.116   1.412   3.687 -0.6201  1.2329  1.0961
 4161SOL     OW23701   4.179   0.287   3.298 -0.8864 -0.3068  0.4998
 4161SOL    HW123702   4.251   0.263   3.233  1.5794  1.8675  2.3531
 4161SOL    HW223703   4.103   0.222   3.288  1.2326 -2.6074 -1.5378
 4162SOL     OW23704   3.251   1.819   2.538  0.6617  0.2586  0.2564
 4162SOL    HW123705   3.291   1.813   2.629  1.7859  0.6840 -0.2035
 4162SOL    HW223706   3.283   1.901   2.492 -0.1195  0.1919 -0.4256
 4163SOL     OW23707   7.009   2.500   3.442  0.1353  0.5875  0.4411
 4163SOL    HW123708   6.969   2.559   3.512 -0.6002  1.1835 -0.4652
 4163SOL    HW223709   7.081   2.444   3.483  0.0937  1.3207  1.5501
 4164SOL     OW23710   0.723   5.865   5.032 -0.0690  0.6083 -0.4997
 4164SOL    HW123711   0.716   5.828   4.940 -1.4341  0.9927 -0.5595
 4164SOL    HW223712   0.713   5.791   5.099  0.6714  0.3683 -0.6446
 4165SOL     OW23713   2.889   1.436   4.470  0.5732 -0.2762 -0.9186
 4165SOL    HW123714   2.824   1.508   4.490 -0.6072 -1.0642 -1.8509
 4165SOL    HW223715   2.889   1.369   4.544  1.1316  0.2796 -0.4066
 4166SOL     OW23716   3.870   5.278   0.140  0.0212 -0.0232  0.3652
 4166SOL    HW123717   3.857   5.228   0.055  2.3920  1.6328 -1.0497
 4166SOL    HW223718   3.808   5.243   0.210 -1.9700 -1.4146 -2.0281
 4167SOL     OW23719   5.056   2.615   2.217  0.3860  0.1127 -0.8023
 4167SOL    HW123720   4.987   2.558   2.174 -0.3425  0.3651  0.0072
 4167SOL    HW223721   5.034   2.626   2.314  2.0925 -0.6186 -0.3053
 4168SOL     OW23722   0.246   2.075   3.994 -0.0546  0.3314  0.2329
 4168SOL    HW123723   0.343   2.064   4.016  0.1295  1.2325 -0.0692
 4168SOL    HW223724   0.197   1.991   4.015  0.3935  0.6064  2.5525
 4169SOL     OW23725   4.066   4.351   4.705 -0.1936 -0.0236 -0.0557
 4169SOL    HW123726   4.012   4.424   4.661 -0.9961 -0.5907 -0.0074
 4169SOL    HW223727   4.151   4.338   4.654 -0.5800  0.1482 -0.7492
 4170SOL     OW23728   8.781   8.810   0.555  0.0960 -0.2703 -0.2064
 4170SOL    HW123729   8.709   8.740   0.557 -0.1460 -0.0144  0.1662
 4170SOL    HW223730   8.860   8.776   0.505  0.2646 -1.0876  0.5997
 4171SOL     OW23731   1.241   6.983   0.181  0.0433  0.8600 -0.0034
 4171SOL    HW123732   1.281   6.972   0.090 -0.4536  1.1287 -0.2505
 4171SOL    HW223733   1.250   7.078   0.211  1.1892  0.5473  0.6870
 4172SOL     OW23734   3.373   5.788   4.498 -0.8592  0.1609 -0.0547
 4172SOL    HW123735   3.397   5.883   4.519 -2.4416  0.3118  1.1917
 4172SOL    HW223736   3.434   5.727   4.548  1.1507  0.4852 -2.0390
 4173SOL     OW23737   5.287   2.401   3.308  0.3760 -0.4772 -0.0144
 4173SOL    HW123738   5.286   2.492   3.267 -2.1584  0.5330  2.1141
 4173SOL    HW223739   5.254   2.334   3.241  1.5416  0.2769 -1.3547
 4174SOL     OW23740   7.714   9.723   3.388 -0.6248  0.0757 -0.1853
 4174SOL    HW123741   7.670   9.804   3.426  0.8135 -0.1649  2.1126
 4174SOL    HW223742   7.717   9.730   3.289 -0.3759  2.9093 -0.0164
 4175SOL     OW23743   3.432   1.487   3.440  0.2194 -0.5040 -0.2719
 4175SOL    HW123744   3.408   1.506   3.345 -1.8523  0.2827  0.4028
 4175SOL    HW223745   3.436   1.572   3.491 -0.4225 -1.0876  0.7578
 4176SOL     OW23746   2.231   9.950   1.680 -0.3462 -0.3665  0.8259
 4176SOL    HW123747   2.301   9.941   1.609 -1.3345 -0.1014 -0.1963
 4176SOL    HW223748   2.247  10.034   1.732  0.5915 -0.7454  1.1585
 4177SOL     OW23749   8.974   1.978   4.795 -0.3769  0.1837  0.1463
 4177SOL    HW123750   8.984   2.011   4.889  1.1176  1.3198 -0.4043
 4177SOL    HW223751   9.026   2.036   4.733 -0.8440 -0.9315 -1.3254
 4178SOL     OW23752   4.646   5.721   1.954 -0.1959  0.4591 -0.0532
 4178SOL    HW123753   4.646   5.794   2.021 -3.1167  0.2042  0.2666
 4178SOL    HW223754   4.610   5.755   1.867  1.9823  0.3505 -1.0394
 4179SOL     OW23755   3.339   8.094   6.023 -0.7116 -0.0078  0.4555
 4179SOL    HW123756   3.365   8.015   5.968 -1.7472 -0.4850  0.6531
 4179SOL    HW223757   3.264   8.143   5.979 -1.6384 -0.4718  1.4878
 4180SOL     OW23758   6.740   9.567   5.003 -0.6578  0.1763  0.0852
 4180SOL    HW123759   6.698   9.622   5.075 -0.5318  1.0576 -0.5086
 4180SOL    HW223760   6.788   9.489   5.045 -1.7174 -0.0822  0.8503
 4181SOL     OW23761   7.020   7.411   5.009 -0.3138  0.0469 -0.3299
 4181SOL    HW123762   6.924   7.411   5.039  0.2046 -1.0684  1.3724
 4181SOL    HW223763   7.065   7.493   5.042 -0.4933  0.2418 -0.5613
 4182SOL     OW23764   3.250   1.720   3.778  0.6503 -0.7665  0.4094
 4182SOL    HW123765   3.181   1.718   3.706  0.0287 -1.2035  1.0145
 4182SOL    HW223766   3.341   1.706   3.738  0.5807  1.4683 -0.5993
 4183SOL     OW23767   1.927   4.548   0.500 -0.0098  0.0870 -0.6604
 4183SOL    HW123768   1.857   4.484   0.467 -0.8696  1.1395 -0.9147
 4183SOL    HW223769   1.940   4.620   0.432 -0.5276  1.3180  0.5248
 4184SOL     OW23770   8.398   8.968   5.206  0.5912  0.3387  0.0972
 4184SOL    HW123771   8.339   8.903   5.255 -0.2962  2.5012  2.0006
 4184SOL    HW223772   8.492   8.957   5.237  0.5553 -0.5278 -0.1060
 4185SOL     OW23773   1.340   9.486   3.798  0.2743  0.4586  0.5661
 4185SOL    HW123774   1.285   9.456   3.875  0.5884  0.2340  0.7052
 4185SOL    HW223775   1.436   9.492   3.825  0.4020  0.2762  0.1656
 4186SOL     OW23776   0.624   9.396   3.894 -0.6201  0.2433 -0.0627
 4186SOL    HW123777   0.636   9.310   3.944  0.1022  1.0032  1.1056
 4186SOL    HW223778   0.618   9.378   3.796 -0.3587 -1.1184  0.1672
 4187SOL     OW23779   7.388   5.748   5.370 -0.3320  0.8232  0.4598
 4187SOL    HW123780   7.295   5.759   5.334  0.3317  2.2298 -0.8686
 4187SOL    HW223781   7.389   5.673   5.436 -1.9919 -0.5508 -1.0124
 4188SOL     OW23782   4.570   8.869   5.994 -0.1215  0.0380  0.0769
 4188SOL    HW123783   4.485   8.836   6.035 -0.5585  0.7529 -0.2384
 4188SOL    HW223784   4.556   8.885   5.896  0.3266  0.3182  0.0557
 4189SOL     OW23785   9.915   7.838   2.238  0.7082  0.7761  0.0975
 4189SOL    HW123786   9.997   7.785   2.260 -1.0119 -1.7794  0.5467
 4189SOL    HW223787   9.906   7.913   2.304  1.4568 -0.2996  1.4476
 4190SOL     OW23788   8.348   2.297   4.918  0.2859  0.0420  0.0915
 4190SOL    HW123789   8.274   2.325   4.979  0.1860 -0.7741  0.3484
 4190SOL    HW223790   8.378   2.376   4.864 -1.0428  0.2910 -0.3128
 4191SOL     OW23791   3.473   8.301   1.326  0.2486 -0.4857  0.4970
 4191SOL    HW123792   3.573   8.300   1.335  0.3775  1.4084 -0.3649
 4191SOL    HW223793   3.443   8.393   1.300 -1.5205 -1.5235 -1.3605
 4192SOL     OW23794   0.594   7.332   3.797  0.2559 -0.2667 -0.4696
 4192SOL    HW123795   0.669   7.369   3.742  0.5571 -2.6261 -1.7053
 4192SOL    HW223796   0.512   7.324   3.740 -0.1250 -0.3645  0.0940
 4193SOL     OW23797   1.505   2.193   5.207 -0.4361 -0.5785 -0.4047
 4193SOL    HW123798   1.600   2.166   5.223 -0.2506  0.0409 -0.4512
 4193SOL    HW223799   1.454   2.188   5.293 -0.4450 -1.2251 -0.4426
 4194SOL     OW23800   2.812   3.381   4.934  0.0961  0.4378  0.0710
 4194SOL    HW123801   2.856   3.291   4.941 -1.1100 -0.0457  1.6492
 4194SOL    HW223802   2.736   3.386   4.999 -0.9432  1.9800 -1.2336
 4195SOL     OW23803   0.220   6.864   0.281  0.3491  0.4941  0.3503
 4195SOL    HW123804   0.160   6.926   0.330 -1.5795  0.8566 -2.3568
 4195SOL    HW223805   0.315   6.887   0.301 -0.3656  1.8943  2.2771
 4196SOL     OW23806   0.715   1.958   4.538  1.0079 -0.0683  0.1460
 4196SOL    HW123807   0.758   1.999   4.456 -0.9160 -1.2400 -1.4861
 4196SOL    HW223808   0.619   1.985   4.542  1.0402 -0.1694  1.9694
 4197SOL     OW23809   4.883   3.917   2.707  0.0678 -0.3674 -0.0034
 4197SOL    HW123810   4.811   3.877   2.763  0.9128 -2.6319 -0.4919
 4197SOL    HW223811   4.849   4.001   2.665 -0.9841  0.7199  2.8711
 4198SOL     OW23812   5.283   9.414   2.087  0.3405  0.1435  0.3309
 4198SOL    HW123813   5.378   9.424   2.116  0.3784  3.1654 -0.6201
 4198SOL    HW223814   5.281   9.374   1.995  0.7642  1.0293 -0.0718
 4199SOL     OW23815   9.258   6.253   0.388  0.1217  0.0965 -0.6407
 4199SOL    HW123816   9.357   6.261   0.372 -0.1302  0.2646 -2.1330
 4199SOL    HW223817   9.208   6.275   0.305 -1.2524  1.4461  0.5194
 4200SOL     OW23818   8.942   4.148   4.939 -0.4012  0.0628 -0.1107
 4200SOL    HW123819   8.963   4.101   4.853 -2.3283  0.5171 -0.8669
 4200SOL    HW223820   8.945   4.247   4.924 -2.8009  0.1461 -0.2204
 4201SOL     OW23821   7.500   2.966   2.939  0.7463 -0.3807  0.2242
 4201SOL    HW123822   7.588   2.919   2.946  1.0337 -0.2556 -2.1827
 4201SOL    HW223823   7.463   2.954   2.846 -1.7147 -0.3298  1.1492
 4202SOL     OW23824   7.696   9.770   2.751  0.5394 -0.7062 -0.2858
 4202SOL    HW123825   7.613   9.734   2.795  1.0321 -0.8351  0.5471
 4202SOL    HW223826   7.777   9.737   2.800  1.0941 -0.6742 -1.1687
 4203SOL     OW23827   3.176   3.870   0.675  0.2066 -0.1632 -0.1827
 4203SOL    HW123828   3.180   3.970   0.670  0.1939 -0.1365  0.2555
 4203SOL    HW223829   3.262   3.832   0.643  0.9723  0.0741  1.4965
 4204SOL     OW23830   9.881   9.437   3.269 -0.9354 -0.4839 -0.1958
 4204SOL    HW123831   9.882   9.367   3.198  1.3960 -0.2380 -0.4304
 4204SOL    HW223832   9.975   9.464   3.291 -1.7752  2.3122  0.1460
 4205SOL     OW23833   9.663   1.124   4.509  0.4931  0.1042 -0.0578
 4205SOL    HW123834   9.597   1.199   4.499  1.9288  1.2127 -1.4237
 4205SOL    HW223835   9.625   1.055   4.571 -2.3167  0.3287 -1.4025
 4206SOL     OW23836   3.143   1.822   1.725  0.6335  0.2249 -0.8534
 4206SOL    HW123837   3.056   1.864   1.751  1.4604  1.9844 -0.8906
 4206SOL    HW223838   3.126   1.729   1.693 -1.1245  0.2115  0.0559
 4207SOL     OW23839   6.381   5.107   0.003  0.9147  0.4961  0.1460
 4207SOL    HW123840   6.424   5.026  -0.036 -0.1971  0.8418 -1.8846
 4207SOL    HW223841   6.449   5.180   0.011  1.5193 -0.0845  0.3430
 4208SOL     OW23842   0.488   7.874   5.864 -0.1602 -0.2702 -0.4558
 4208SOL    HW123843   0.543   7.913   5.790  0.0689 -0.7721 -0.5495
 4208SOL    HW223844   0.457   7.783   5.838 -0.4060 -0.2917 -0.0924
 4209SOL     OW23845   6.946   7.460   5.702  0.3816  0.3506 -0.8594
 4209SOL    HW123846   7.015   7.423   5.639 -0.1993 -1.9391 -0.2069
 4209SOL    HW223847   6.887   7.524   5.654  2.1578  1.3734 -1.7418
 4210SOL     OW23848   3.868   2.843   0.943  0.3544  0.4128  0.1914
 4210SOL    HW123849   3.934   2.873   1.013  0.5240  0.6958 -0.0874
 4210SOL    HW223850   3.782   2.818   0.987  1.2285 -1.7250  0.7566
 4211SOL     OW23851   3.543   4.323   5.795 -0.6010 -0.5854 -0.0555
 4211SOL    HW123852   3.563   4.231   5.828  0.8077 -0.5825 -0.8545
 4211SOL    HW223853   3.447   4.328   5.767 -1.0801 -1.3783  1.3638
 4212SOL     OW23854   9.756   8.007   0.014 -0.0271 -0.0924  0.3047
 4212SOL    HW123855   9.774   8.063  -0.067  0.7598 -0.3833  0.2764
 4212SOL    HW223856   9.783   7.912  -0.003  1.2739  0.0769  1.2991
 4213SOL     OW23857   0.198   0.740   2.735 -0.1874 -0.2582  0.5266
 4213SOL    HW123858   0.237   0.668   2.793 -1.0841 -0.9200  0.3278
 4213SOL    HW223859   0.163   0.700   2.651  1.8229  0.8227 -0.8518
 4214SOL     OW23860   8.661   2.047   3.846 -0.1867 -0.6400  0.0700
 4214SOL    HW123861   8.571   2.082   3.870 -0.2021 -0.2484 -0.5386
 4214SOL    HW223862   8.727   2.123   3.845  0.3446 -1.0665  1.4325
 4215SOL     OW23863   7.609   6.018   0.559  0.0851 -0.3494  0.3734
 4215SOL    HW123864   7.514   6.010   0.590 -0.2323  1.2644 -0.1360
 4215SOL    HW223865   7.610   6.034   0.461  0.8592  0.4568  0.5140
 4216SOL     OW23866   3.417   1.280   4.173  0.2668  0.0159 -0.3494
 4216SOL    HW123867   3.333   1.277   4.119 -0.0036 -1.2523  0.1380
 4216SOL    HW223868   3.394   1.286   4.270  0.7493  0.7556 -0.2711
 4217SOL     OW23869   2.868   2.619   1.750  0.4304 -0.3089  0.0640
 4217SOL    HW123870   2.959   2.617   1.710 -0.3646 -1.1643 -1.7377
 4217SOL    HW223871   2.801   2.648   1.682 -0.7259 -0.2121  1.2075
 4218SOL     OW23872   9.994   0.830   4.200 -0.2214 -0.1465 -0.3032
 4218SOL    HW123873   9.984   0.734   4.174 -1.0894 -0.1569  0.0280
 4218SOL    HW223874   9.947   0.846   4.287 -0.1569  0.5934 -0.3980
 4219SOL     OW23875   1.763   6.830   2.978 -0.4405 -0.4269 -0.7984
 4219SOL    HW123876   1.721   6.906   2.929 -0.8351 -0.5652 -0.6827
 4219SOL    HW223877   1.826   6.781   2.917 -1.3007 -0.8956 -1.3225
 4220SOL     OW23878   0.277   2.696   4.638 -0.1338 -0.4655  0.1402
 4220SOL    HW123879   0.375   2.691   4.659 -0.2623 -0.6887  0.6951
 4220SOL    HW223880   0.247   2.791   4.637 -0.3306 -0.4968  1.9365
 4221SOL     OW23881   9.638   7.623   1.965 -0.3870  0.2005  0.0043
 4221SOL    HW123882   9.609   7.608   1.870 -1.6060 -0.1995  0.4332
 4221SOL    HW223883   9.701   7.700   1.968 -1.4297  1.1130 -0.9537
 4222SOL     OW23884   6.750   1.576   3.565 -0.3611  0.0498  0.0339
 4222SOL    HW123885   6.749   1.476   3.569 -1.3433  0.0376 -0.4041
 4222SOL    HW223886   6.835   1.610   3.603 -0.1516 -0.9494  0.4640
 4223SOL     OW23887   2.615   1.196   6.463  0.2573 -0.0282  0.2366
 4223SOL    HW123888   2.555   1.139   6.519  0.3491  0.0130  0.3768
 4223SOL    HW223889   2.613   1.290   6.496  0.5063 -0.0550  0.3268
 4224SOL     OW23890   3.844   4.668   2.113 -0.1790 -0.0466  0.7142
 4224SOL    HW123891   3.796   4.658   2.200 -0.3058  1.0637  0.7843
 4224SOL    HW223892   3.939   4.694   2.130  0.1072 -0.9752  0.5457
 4225SOL     OW23893   1.767   5.714   6.068 -0.1576 -0.9827 -0.3455
 4225SOL    HW123894   1.726   5.776   6.135  0.1891 -0.3396 -0.7295
 4225SOL    HW223895   1.865   5.729   6.064 -0.0485 -1.6557 -0.3403
 4226SOL     OW23896   1.218   8.040   0.686  0.3545 -0.1554 -0.2676
 4226SOL    HW123897   1.250   7.950   0.716  0.2376  0.4080  1.6157
 4226SOL    HW223898   1.181   8.033   0.593  1.1051 -1.8745 -0.4580
 4227SOL     OW23899   2.525   9.291   6.135  0.0830  0.6114  0.5255
 4227SOL    HW123900   2.435   9.328   6.112  0.7305  2.9181  1.5001
 4227SOL    HW223901   2.547   9.215   6.075 -1.4483  1.6321 -1.3752
 4228SOL     OW23902   1.768   7.289   0.554 -0.1209 -0.0093 -0.1231
 4228SOL    HW123903   1.833   7.280   0.478  1.2889  0.8247  0.9421
 4228SOL    HW223904   1.793   7.226   0.628 -1.0991 -0.3655 -0.0918
 4229SOL     OW23905   0.410   6.009   4.054 -0.4583 -0.3064 -0.2588
 4229SOL    HW123906   0.491   6.051   4.095 -0.6223 -0.0780 -0.1659
 4229SOL    HW223907   0.433   5.919   4.018 -0.9342 -1.7344  2.8194
 4230SOL     OW23908   9.237   4.030   1.767  0.0894 -0.1986  1.1379
 4230SOL    HW123909   9.193   4.112   1.730  2.0421  1.0073  1.4136
 4230SOL    HW223910   9.194   3.949   1.728 -1.0373  0.9804 -0.1264
 4231SOL     OW23911   6.209   7.140   4.671 -0.2142  0.0434  0.0860
 4231SOL    HW123912   6.116   7.161   4.641 -0.1393  1.0344  0.5132
 4231SOL    HW223913   6.272   7.208   4.632  0.5656 -1.6178 -1.5888
 4232SOL     OW23914   7.974   2.872   2.523  0.0221  0.0387  0.1822
 4232SOL    HW123915   7.982   2.965   2.486  0.1446 -0.3209 -0.7072
 4232SOL    HW223916   7.879   2.842   2.519  0.1171 -0.1963 -0.3254
 4233SOL     OW23917   3.646   8.059   3.269  0.1875 -0.4190  0.0594
 4233SOL    HW123918   3.574   7.994   3.246  0.2036 -0.8413  1.1709
 4233SOL    HW223919   3.697   8.084   3.186 -0.5787 -0.9005 -0.5611
 4234SOL     OW23920   7.203   9.796   4.581 -0.1314  0.4386  0.5748
 4234SOL    HW123921   7.191   9.889   4.615  1.6983  0.9170 -0.0486
 4234SOL    HW223922   7.175   9.791   4.486  1.8482  0.9036 -0.0576
 4235SOL     OW23923   8.973   7.015   4.104 -0.2449  0.0040 -0.3507
 4235SOL    HW123924   9.052   7.077   4.103 -0.9261  0.8940  0.1509
 4235SOL    HW223925   8.896   7.060   4.059 -1.0186 -0.0988  0.8473
 4236SOL     OW23926   2.971   2.231   1.628 -0.3728 -0.2059 -0.3950
 4236SOL    HW123927   2.981   2.268   1.721  1.2843 -1.4743 -0.0581
 4236SOL    HW223928   2.992   2.303   1.561  0.4965  0.1215  0.2227
 4237SOL     OW23929   7.570   7.854   4.602  0.4451  0.0447  0.4033
 4237SOL    HW123930   7.658   7.818   4.632  0.2529 -1.7943 -1.1433
 4237SOL    HW223931   7.583   7.928   4.536  0.8407 -1.3488 -1.0995
 4238SOL     OW23932   3.214   5.844   4.780  0.0673  0.0366  0.7330
 4238SOL    HW123933   3.306   5.876   4.759  0.1810  0.1028  1.3180
 4238SOL    HW223934   3.210   5.744   4.768 -0.9466  0.4855 -3.5164
 4239SOL     OW23935   6.035   4.815   0.553 -0.2000 -0.2285  0.6421
 4239SOL    HW123936   6.099   4.883   0.518 -0.0680  0.4852  2.2264
 4239SOL    HW223937   6.083   4.731   0.575  0.3228  0.4992  2.3775
 4240SOL     OW23938   1.232   9.555   5.700  0.8042 -0.3686  0.2016
 4240SOL    HW123939   1.179   9.497   5.637  1.7609 -2.0547  0.9081
 4240SOL    HW223940   1.256   9.502   5.782 -0.7643  1.8952  2.2059
 4241SOL     OW23941   0.429   2.166   6.554  0.1394 -0.8221  0.3428
 4241SOL    HW123942   0.395   2.164   6.648  2.1227 -1.1705  1.0816
 4241SOL    HW223943   0.431   2.073   6.517 -1.2798 -0.6106 -0.3022
 4242SOL     OW23944   8.126   8.741   2.394  0.3052 -0.0477 -0.2621
 4242SOL    HW123945   8.147   8.645   2.376 -0.2649 -0.2856  0.3282
 4242SOL    HW223946   8.109   8.753   2.492 -0.0873  0.5675 -0.4076
 4243SOL     OW23947   9.586   9.223   0.327  0.1271  0.0536 -0.1985
 4243SOL    HW123948   9.538   9.136   0.319  1.1443 -0.5348 -0.0310
 4243SOL    HW223949   9.671   9.219   0.274  0.1204  0.9871 -0.2853
 4244SOL     OW23950   0.595   0.694   5.476  0.0701 -0.2711  0.6607
 4244SOL    HW123951   0.626   0.757   5.547 -0.0454 -0.6046  1.0108
 4244SOL    HW223952   0.597   0.740   5.388 -1.8660  0.8640  1.1699
 4245SOL     OW23953   8.912   7.515   5.075 -0.2169 -0.0976  0.0758
 4245SOL    HW123954   8.970   7.453   5.021 -0.0408  1.7655 -1.9161
 4245SOL    HW223955   8.845   7.558   5.015  0.8451  3.0231  1.0632
 4246SOL     OW23956   9.165   1.578   1.788 -0.2594 -0.2610 -0.0537
 4246SOL    HW123957   9.220   1.581   1.872 -2.8519  0.4865  1.6766
 4246SOL    HW223958   9.158   1.483   1.757  0.3010 -0.6191  0.8794
 4247SOL     OW23959   1.206   3.586   4.345  0.3390  0.6799 -0.1285
 4247SOL    HW123960   1.159   3.503   4.314  1.6535  0.2702 -1.0406
 4247SOL    HW223961   1.277   3.611   4.279  0.9785  1.6681  0.9211
 4248SOL     OW23962   8.784   9.853   3.187  0.0705  0.2845 -0.2057
 4248SOL    HW123963   8.750   9.947   3.195  2.8159  1.2455  0.7066
 4248SOL    HW223964   8.771   9.806   3.274 -1.5310 -0.2803 -0.7372
 4249SOL     OW23965   1.629   4.720   2.357 -0.2205  0.0994  0.1341
 4249SOL    HW123966   1.609   4.798   2.417  1.9469  0.4432  0.4224
 4249SOL    HW223967   1.561   4.648   2.373 -0.1082  0.4746  2.4880
 4250SOL     OW23968   0.694   7.904   6.372  0.2864  0.1821  0.0619
 4250SOL    HW123969   0.705   7.979   6.306  1.3523 -0.9798 -1.0936
 4250SOL    HW223970   0.714   7.817   6.328  1.4798 -0.5763  2.0342
 4251SOL     OW23971   2.635   2.134   4.341  0.5655  0.2833  0.2779
 4251SOL    HW123972   2.682   2.211   4.385  1.1189 -0.0107  0.2118
 4251SOL    HW223973   2.567   2.096   4.404  0.1481  0.9499  0.2377
 4252SOL     OW23974   0.953   3.402   2.467  0.2278  0.3089 -0.2395
 4252SOL    HW123975   0.875   3.416   2.528  0.6740  1.0580  0.1699
 4252SOL    HW223976   0.997   3.315   2.488 -0.1977  0.1232 -0.1303
 4253SOL     OW23977   2.146   7.468   5.071 -0.4082 -0.2467 -0.5030
 4253SOL    HW123978   2.134   7.488   4.974  0.0812 -1.4819 -0.8304
 4253SOL    HW223979   2.059   7.436   5.109 -0.5895  0.2018 -0.5356
 4254SOL     OW23980   2.381   3.310   2.699 -0.5920 -0.2179 -0.3721
 4254SOL    HW123981   2.451   3.297   2.769 -0.5371 -2.0609 -0.7570
 4254SOL    HW223982   2.291   3.318   2.742 -0.5743 -1.4698 -0.0848
 4255SOL     OW23983   1.787   0.405   1.244  0.1768 -0.0321 -0.3480
 4255SOL    HW123984   1.825   0.471   1.179 -0.6560  1.5030  0.6858
 4255SOL    HW223985   1.708   0.360   1.204 -0.8063  1.4750 -0.1241
 4256SOL     OW23986   2.904   7.427   2.295  0.2539  0.3930  0.1703
 4256SOL    HW123987   2.985   7.441   2.239  0.6161 -1.0877  0.2899
 4256SOL    HW223988   2.896   7.330   2.318 -0.4306  0.8223  1.8544
 4257SOL     OW23989   9.556   1.154   1.500  0.2123  0.0643 -0.6187
 4257SOL    HW123990   9.648   1.178   1.468 -0.0109 -0.4425 -1.6658
 4257SOL    HW223991   9.503   1.117   1.424 -0.4169 -0.9448  0.2931
 4258SOL     OW23992   5.774   0.477   2.555 -0.2896 -0.4094 -0.4541
 4258SOL    HW123993   5.867   0.478   2.592 -0.2510  1.0304 -0.5622
 4258SOL    HW223994   5.711   0.442   2.624  0.3900 -1.8270 -0.5351
 4259SOL     OW23995   4.998   6.276   2.256 -0.0343 -0.5333  0.1132
 4259SOL    HW123996   5.062   6.200   2.265  0.7345 -0.0682 -1.1596
 4259SOL    HW223997   4.923   6.265   2.321  0.0724 -2.3611 -0.0468
 4260SOL     OW23998   4.663   2.009   0.310 -0.2141  0.6674  0.4556
 4260SOL    HW123999   4.745   2.009   0.253 -0.9838 -0.4039 -0.6875
 4260SOL    HW224000   4.613   2.095   0.298  0.3336  1.0049  0.5748
 4261SOL     OW24001   5.523   0.153   4.189  0.2905  0.0757  0.1106
 4261SOL    HW124002   5.587   0.184   4.119  1.5286  1.9645  1.9910
 4261SOL    HW224003   5.563   0.076   4.239  0.4963  0.3169  0.3251
 4262SOL     OW24004   5.107   5.991   1.978 -0.0129  0.2697  0.6945
 4262SOL    HW124005   5.150   6.064   1.925  0.9860  0.2143  1.4133
 4262SOL    HW224006   5.019   5.968   1.937 -0.5939  2.2508  0.7784
 4263SOL     OW24007   4.006   6.585   0.763 -0.5347  0.3390  0.4542
 4263SOL    HW124008   3.961   6.568   0.851 -0.4639  1.0224  0.6271
 4263SOL    HW224009   3.980   6.514   0.698 -0.5893 -0.1675  1.0302
 4264SOL     OW24010   5.571   0.392   2.702 -0.3745  0.2554  0.2041
 4264SOL    HW124011   5.577   0.323   2.774 -1.3098 -0.4242 -0.3718
 4264SOL    HW224012   5.480   0.390   2.660 -0.3012  1.5841 -0.0688
 4265SOL     OW24013   7.943   9.759   2.884  0.1647  0.9322  0.3076
 4265SOL    HW124014   8.036   9.730   2.861  0.4880  1.1147  1.3735
 4265SOL    HW224015   7.931   9.855   2.858 -0.1730  0.5284 -1.0935
 4266SOL     OW24016   0.131   4.020   0.710  0.4038 -0.3037 -0.1956
 4266SOL    HW124017   0.065   3.946   0.712  1.7140 -1.5465 -1.3148
 4266SOL    HW224018   0.130   4.063   0.619 -0.5971  1.2853  0.5560
 4267SOL     OW24019   5.061   2.806   2.020 -0.0915  0.2895 -0.1043
 4267SOL    HW124020   5.148   2.855   2.022 -1.9589  3.7638  1.3815
 4267SOL    HW224021   5.066   2.727   2.081  0.8461  2.6524  3.0212
 4268SOL     OW24022   7.330   4.753   5.501  0.3143  0.2754  0.0307
 4268SOL    HW124023   7.314   4.835   5.557 -1.4990  0.3608 -0.5986
 4268SOL    HW224024   7.250   4.694   5.505  2.7097 -2.9423  2.8658
 4269SOL     OW24025   2.607   3.127   0.146  0.6237  0.2794  0.0250
 4269SOL    HW124026   2.622   3.101   0.051  0.6807  0.9361 -0.1469
 4269SOL    HW224027   2.690   3.167   0.183  0.3362  0.8088  0.0946
 4270SOL     OW24028   0.002   2.839   6.633  0.0323 -0.1123 -0.2212
 4270SOL    HW124029   0.063   2.843   6.554 -0.9575  0.2710 -0.9895
 4270SOL    HW224030  -0.060   2.917   6.630  1.0190  0.7747  1.8104
 4271SOL     OW24031   8.826   1.734   0.754  0.2410  0.0426 -0.1699
 4271SOL    HW124032   8.923   1.737   0.777 -0.1578  1.3198  1.4738
 4271SOL    HW224033   8.811   1.785   0.669  0.7819  1.3275  0.4856
 4272SOL     OW24034   1.109   6.511   4.017  0.0342 -0.0899  0.1226
 4272SOL    HW124035   1.069   6.441   3.957  0.3750 -0.5881  0.4756
 4272SOL    HW224036   1.120   6.473   4.109 -0.8521  0.7961  0.6033
 4273SOL     OW24037   8.428   7.683   5.826  0.5611  0.7968 -0.5425
 4273SOL    HW124038   8.344   7.664   5.776  0.3585 -0.2258  0.1748
 4273SOL    HW224039   8.505   7.636   5.783  0.2778 -0.6188  0.4676
 4274SOL     OW24040   4.590   8.159   3.146 -0.0878 -0.6648  0.3212
 4274SOL    HW124041   4.579   8.201   3.056 -1.1279 -2.3806 -0.3591
 4274SOL    HW224042   4.653   8.081   3.139  1.5216  0.4783  1.5070
 4275SOL     OW24043   1.496   3.722   4.214  0.0849 -0.0774 -0.2620
 4275SOL    HW124044   1.579   3.725   4.269  0.2296 -1.1484 -0.4051
 4275SOL    HW224045   1.488   3.805   4.159 -0.1705  1.0996  1.5258
 4276SOL     OW24046   4.641   3.034   3.556  0.3098  0.0134  0.0684
 4276SOL    HW124047   4.701   3.025   3.636 -0.4267  0.5583  0.6953
 4276SOL    HW224048   4.559   2.979   3.571 -0.9490  2.0130  0.7788
 4277SOL     OW24049   7.746   5.286   1.053  0.7597 -0.5603 -0.0792
 4277SOL    HW124050   7.811   5.257   1.123  1.1577  0.6599  0.0706
 4277SOL    HW224051   7.680   5.349   1.094  0.6280 -0.3114 -0.6750
 4278SOL     OW24052   0.530   6.163   3.156  0.1470 -0.3161 -0.0288
 4278SOL    HW124053   0.471   6.216   3.217  0.4673 -1.2337  1.0973
 4278SOL    HW224054   0.476   6.127   3.081 -0.7291 -1.0804  0.9462
 4279SOL     OW24055   1.096   2.620   4.290  0.4396 -0.0239 -0.0195
 4279SOL    HW124056   1.136   2.569   4.214 -0.6904 -0.7717 -0.1136
 4279SOL    HW224057   1.102   2.718   4.271 -0.2589 -0.2215 -1.2958
 4280SOL     OW24058   2.394   5.672   2.972 -0.0426  0.7042 -0.0305
 4280SOL    HW124059   2.344   5.592   3.003  0.3167  0.6828  0.5050
 4280SOL    HW224060   2.420   5.728   3.051  2.8267 -0.5016 -0.0417
 4281SOL     OW24061   5.815   7.519   4.305 -0.4080 -0.0354  0.0161
 4281SOL    HW124062   5.814   7.527   4.405 -0.2739  0.6012 -0.0292
 4281SOL    HW224063   5.734   7.563   4.267 -1.6559 -2.2699 -0.0383
 4282SOL     OW24064   3.716   6.763   2.580 -0.0068 -0.4866  0.3902
 4282SOL    HW124065   3.693   6.847   2.531 -1.2188 -1.5293 -0.8512
 4282SOL    HW224066   3.814   6.743   2.568  0.2401  0.6271  0.5210
 4283SOL     OW24067   2.676   6.856   1.299 -0.1096  0.2015  0.2888
 4283SOL    HW124068   2.661   6.836   1.396  1.0332  0.7891  0.6029
 4283SOL    HW224069   2.598   6.824   1.245 -0.1578 -1.3446  1.2429
 4284SOL     OW24070   1.903   4.818   5.645  0.7916 -0.2943  0.3256
 4284SOL    HW124071   1.816   4.859   5.618  0.8762 -1.7167 -2.3120
 4284SOL    HW224072   1.969   4.890   5.667 -0.1395  0.8761 -0.6384
 4285SOL     OW24073   2.202   8.155   5.001 -0.2011 -0.1513 -0.7216
 4285SOL    HW124074   2.217   8.213   4.921 -0.6916  1.1868  0.1287
 4285SOL    HW224075   2.287   8.149   5.054 -0.3945  0.5828 -0.3150
 4286SOL     OW24076   1.186   6.831   2.621  0.0183  0.3612  0.4367
 4286SOL    HW124077   1.095   6.871   2.628  0.3972  1.3608 -0.3082
 4286SOL    HW224078   1.221   6.811   2.713 -0.0774  1.9743  0.8382
 4287SOL     OW24079   4.379   1.107   6.640  0.4643  0.1578 -0.2717
 4287SOL    HW124080   4.428   1.044   6.580  1.5873 -0.0343  0.8208
 4287SOL    HW224081   4.366   1.064   6.729  0.6738  1.2196  0.2781
 4288SOL     OW24082   6.951   0.303   6.354  0.0976  0.1866 -0.9399
 4288SOL    HW124083   7.029   0.352   6.393  0.6258 -0.6968 -0.8754
 4288SOL    HW224084   6.904   0.363   6.289  0.9090  0.6843 -1.0863
 4289SOL     OW24085   7.532   9.545   3.449  0.1440  0.0243  0.0301
 4289SOL    HW124086   7.466   9.616   3.474 -0.9301 -1.0146  0.1787
 4289SOL    HW224087   7.621   9.587   3.431 -0.7269  1.5187 -0.8739
 4290SOL     OW24088   0.661   1.630   0.232 -0.0672  0.0812  0.6702
 4290SOL    HW124089   0.674   1.714   0.180 -0.5621 -0.3637 -0.1783
 4290SOL    HW224090   0.724   1.628   0.310  0.5137  0.8509  0.2145
 4291SOL     OW24091   9.640   7.941   5.453 -0.2967 -0.4852  0.0724
 4291SOL    HW124092   9.696   7.859   5.465 -0.6353 -0.8392 -0.7243
 4291SOL    HW224093   9.553   7.916   5.410 -0.6958  0.1903  0.4680
 4292SOL     OW24094   2.996   7.373   4.914 -0.1044 -0.6844  0.5360
 4292SOL    HW124095   2.957   7.454   4.957 -0.1723 -1.5447  2.1331
 4292SOL    HW224096   2.952   7.291   4.952  2.4917 -1.6325  1.5861
 4293SOL     OW24097   2.664   6.312   6.224  0.3880 -0.6050 -0.2146
 4293SOL    HW124098   2.717   6.338   6.144 -0.6873  1.4215 -0.2935
 4293SOL    HW224099   2.624   6.221   6.210  0.2824 -0.2968 -1.9388
 4294SOL     OW24100   9.036   5.180   0.316  0.2347  0.5347  0.2122
 4294SOL    HW124101   9.090   5.101   0.284 -0.9642 -0.2751  0.1708
 4294SOL    HW224102   9.094   5.239   0.372  1.4686  0.2416 -0.7269
 4295SOL     OW24103   7.861   1.432   6.722  0.0339 -0.2530 -0.5025
 4295SOL    HW124104   7.899   1.423   6.630 -1.0332  1.0205 -1.0874
 4295SOL    HW224105   7.903   1.510   6.768  1.1501 -1.3664  0.4087
 4296SOL     OW24106   2.831   1.939   0.379  0.1725 -0.0689 -0.0599
 4296SOL    HW124107   2.824   2.038   0.370 -1.1247 -0.1807 -0.3439
 4296SOL    HW224108   2.757   1.895   0.329 -1.3226 -1.0529  2.9237
 4297SOL     OW24109   1.759   6.176   2.962 -0.4157 -0.0043  0.2029
 4297SOL    HW124110   1.849   6.207   2.931 -0.5519 -0.9214 -1.1396
 4297SOL    HW224111   1.751   6.077   2.947 -0.9966 -0.2455  1.9433
 4298SOL     OW24112   2.698   0.245   3.382  0.4716  0.2639  0.2890
 4298SOL    HW124113   2.737   0.293   3.461 -0.5154  0.9428  0.3702
 4298SOL    HW224114   2.741   0.279   3.298  2.1104 -1.0317  0.5645
 4299SOL     OW24115   0.726   2.099   6.207  0.0891 -0.6853 -0.0282
 4299SOL    HW124116   0.799   2.034   6.229  0.7550  0.5081  1.3351
 4299SOL    HW224117   0.699   2.148   6.289 -1.7446 -0.5694 -0.6714
 4300SOL     OW24118   8.313   2.711   3.781  0.3796 -0.8173 -0.0360
 4300SOL    HW124119   8.274   2.649   3.848  0.8761 -2.4902 -1.2530
 4300SOL    HW224120   8.356   2.788   3.827  0.1881 -1.6336  1.5245
 4301SOL     OW24121   1.598   0.716   3.417 -0.4279  0.2488  0.4600
 4301SOL    HW124122   1.624   0.806   3.383 -0.4096  0.3258  0.6794
 4301SOL    HW224123   1.658   0.690   3.493 -0.2584 -0.0663  0.2190
 4302SOL     OW24124   2.096   0.273   5.402 -0.2356 -0.0084  0.2036
 4302SOL    HW124125   2.049   0.185   5.394 -0.7673  0.4162 -1.4787
 4302SOL    HW224126   2.028   0.346   5.414  0.1239  0.3560  0.0196
 4303SOL     OW24127   2.517   7.048   1.552  0.0575  0.3702  0.1523
 4303SOL    HW124128   2.543   7.116   1.484 -0.5002 -1.2358 -1.7247
 4303SOL    HW224129   2.595   6.989   1.573 -0.3044 -0.4323 -0.6871
 4304SOL     OW24130   7.141   2.560   0.282  0.0944  0.6183 -0.5685
 4304SOL    HW124131   7.107   2.541   0.190  0.1639 -0.1230 -0.4429
 4304SOL    HW224132   7.212   2.494   0.306 -1.2654 -0.3952  0.7514
 4305SOL     OW24133   2.009   9.634   1.136  0.0377 -0.1450 -0.3951
 4305SOL    HW124134   2.049   9.595   1.218 -0.7543 -1.7803 -0.7559
 4305SOL    HW224135   2.073   9.697   1.093  2.0152 -2.2737 -0.6653
 4306SOL     OW24136   1.348   2.585   3.857  0.0219 -0.1038  0.6361
 4306SOL    HW124137   1.292   2.508   3.826 -0.3085 -0.2222  1.5047
 4306SOL    HW224138   1.403   2.557   3.935  0.9883  0.1372  0.0473
 4307SOL     OW24139   2.380   4.348   0.342  0.3149  0.0525 -0.1740
 4307SOL    HW124140   2.344   4.324   0.251  0.6520  1.2084 -0.6287
 4307SOL    HW224141   2.350   4.440   0.366  1.0782  0.1502  0.4369
 4308SOL     OW24142   1.802   7.810   3.700  0.3688 -0.4884  0.0083
 4308SOL    HW124143   1.884   7.767   3.738  0.6592 -0.4575 -0.5608
 4308SOL    HW224144   1.726   7.800   3.763  0.2759 -2.3684 -0.3498
 4309SOL     OW24145   9.723   1.542   2.496  0.4811 -0.7711 -0.0168
 4309SOL    HW124146   9.788   1.600   2.545  0.9854 -0.3634 -1.1402
 4309SOL    HW224147   9.713   1.455   2.544 -0.8363  0.4984  2.0797
 4310SOL     OW24148   2.744   4.105   2.839 -0.0559  0.4173 -0.0734
 4310SOL    HW124149   2.766   4.104   2.742 -0.1624 -0.6967 -0.0951
 4310SOL    HW224150   2.781   4.187   2.882 -0.0142  0.9081 -1.0576
 4311SOL     OW24151   8.643   5.356   0.512 -0.0050 -0.6204  0.0162
 4311SOL    HW124152   8.677   5.267   0.542 -2.1408 -1.1685  0.9300
 4311SOL    HW224153   8.651   5.364   0.413  1.7149 -1.1595  0.1034
 4312SOL     OW24154   8.244   4.430   4.193 -0.0330 -0.2772 -0.6120
 4312SOL    HW124155   8.177   4.440   4.266  2.5330  1.5284  1.6007
 4312SOL    HW224156   8.255   4.334   4.170  0.9057 -1.1538  3.1826
 4313SOL     OW24157   6.337   8.888   4.519  0.0889  0.1806 -0.2195
 4313SOL    HW124158   6.244   8.853   4.509  0.1242 -0.3907  1.3126
 4313SOL    HW224159   6.335   8.988   4.519 -0.5671  0.1708  0.1768
 4314SOL     OW24160   8.273   8.478   3.208  0.1976  0.1315 -0.4381
 4314SOL    HW124161   8.336   8.405   3.182 -1.0035 -1.4128  0.9097
 4314SOL    HW224162   8.325   8.560   3.234  1.5771 -0.5683 -0.9665
 4315SOL     OW24163   9.236   1.501   0.439 -0.7160 -0.5495  0.2902
 4315SOL    HW124164   9.143   1.478   0.467 -1.6280 -0.1817 -2.2916
 4315SOL    HW224165   9.267   1.437   0.369 -0.6182  1.8127 -1.8756
 4316SOL     OW24166   2.114   0.456   0.777 -1.0327 -0.1340  0.1728
 4316SOL    HW124167   2.109   0.403   0.862 -0.3087 -0.8019 -0.1949
 4316SOL    HW224168   2.173   0.535   0.790 -0.6106 -0.4513  0.1716
 4317SOL     OW24169   8.399   1.937   5.586  0.2450 -0.2944 -0.0293
 4317SOL    HW124170   8.491   1.902   5.568 -0.7941 -2.1020 -2.0405
 4317SOL    HW224171   8.346   1.868   5.634 -0.8982 -0.3072 -1.2965
 4318SOL     OW24172   3.232   8.634   3.785 -0.5429  0.3198 -0.1473
 4318SOL    HW124173   3.160   8.623   3.716 -1.1216 -0.7308  0.6011
 4318SOL    HW224174   3.320   8.647   3.740 -1.0650  0.6783 -1.0795
 4319SOL     OW24175   7.687   9.574   5.141  0.4436  0.3750  0.2085
 4319SOL    HW124176   7.763   9.627   5.103  2.0223 -0.5558  2.0283
 4319SOL    HW224177   7.604   9.630   5.141  0.8960  1.1183 -2.5930
 4320SOL     OW24178   1.523   7.701   1.266  0.3671  0.2033 -0.8168
 4320SOL    HW124179   1.591   7.669   1.333 -1.0367  0.7302  0.9102
 4320SOL    HW224180   1.541   7.796   1.242  0.6657  0.1248 -0.8940
 4321SOL     OW24181   9.816   3.666   2.867  0.5464  0.0104 -0.1885
 4321SOL    HW124182   9.746   3.648   2.936 -0.4844 -1.5050 -1.5714
 4321SOL    HW224183   9.828   3.584   2.810  2.1583  0.8561 -1.0966
 4322SOL     OW24184   3.441   8.133   1.091 -0.0974  0.1894  0.3002
 4322SOL    HW124185   3.443   8.190   1.174  1.4779 -0.1110  0.4885
 4322SOL    HW224186   3.348   8.102   1.074 -0.9478  2.6065  0.3440
 4323SOL     OW24187   9.966   8.416   2.153 -0.0712  0.2195  0.4918
 4323SOL    HW124188   9.931   8.322   2.158  0.4796  0.0717  1.7638
 4323SOL    HW224189   9.973   8.444   2.057 -0.5106 -0.9345  0.1156
 4324SOL     OW24190   4.004   0.252   0.859 -0.2493 -0.6493 -0.2169
 4324SOL    HW124191   3.976   0.197   0.938  2.8288 -0.1336  1.3164
 4324SOL    HW224192   3.935   0.246   0.787 -3.6227 -0.3029  2.8982
 4325SOL     OW24193   2.236   1.240   4.060 -0.2895 -0.6414  0.0034
 4325SOL    HW124194   2.258   1.289   3.976 -0.4387  0.2269  0.4653
 4325SOL    HW224195   2.290   1.155   4.065 -0.4244 -0.7882 -1.0483
 4326SOL     OW24196   0.036   3.917   5.556  0.0714 -0.6523  0.1310
 4326SOL    HW124197   0.035   4.015   5.534  1.0385 -0.8718 -0.9549
 4326SOL    HW224198   0.078   3.867   5.480  0.4598 -1.8120  1.1112
 4327SOL     OW24199   7.812   2.983   6.001  0.1491  0.6518  0.0053
 4327SOL    HW124200   7.865   2.919   6.056  0.4287 -0.0654 -1.0853
 4327SOL    HW224201   7.817   2.956   5.905 -1.2101  1.2743 -0.2441
 4328SOL     OW24202   4.667   8.705   2.583  0.6094 -0.1173  0.1729
 4328SOL    HW124203   4.724   8.623   2.578  1.0527  0.2155 -0.3640
 4328SOL    HW224204   4.726   8.786   2.591  0.1908  0.1775  0.2702
 4329SOL     OW24205   4.086   9.230   0.729  0.6922 -0.6128  0.7069
 4329SOL    HW124206   4.001   9.180   0.711  0.8928 -0.4590 -0.7451
 4329SOL    HW224207   4.134   9.245   0.642  1.4229  0.6825  1.3371
 4330SOL     OW24208   3.679   9.210   0.121  0.2507  0.0554  0.0885
 4330SOL    HW124209   3.738   9.175   0.048 -1.5951 -0.0989 -1.3549
 4330SOL    HW224210   3.628   9.134   0.162 -2.1563  0.7440 -1.5942
 4331SOL     OW24211   9.201   6.947   2.593  0.4956  0.0945 -0.1902
 4331SOL    HW124212   9.249   6.884   2.533  0.4876  0.2276 -0.3359
 4331SOL    HW224213   9.256   7.029   2.608  1.3365 -0.7512  1.5128
 4332SOL     OW24214   8.670   2.733   0.084  0.2137  0.0432 -0.1970
 4332SOL    HW124215   8.570   2.737   0.083  0.2867  2.7418 -0.5446
 4332SOL    HW224216   8.702   2.733   0.179 -0.0733  1.0338 -0.0971
 4333SOL     OW24217   1.529   7.556   3.443  0.3096 -0.0055 -0.3695
 4333SOL    HW124218   1.559   7.565   3.538  0.2010  0.7898 -0.4018
 4333SOL    HW224219   1.457   7.622   3.425  1.1547  0.6810 -1.3354
 4334SOL     OW24220   0.127   6.626   2.984  0.3918 -0.1512 -0.5588
 4334SOL    HW124221   0.145   6.718   3.020 -1.5941 -0.2697  0.8296
 4334SOL    HW224222   0.075   6.634   2.899 -1.4233  0.0078  0.5365
 4335SOL     OW24223   0.486   2.523   2.704  0.2517  0.2292  0.0470
 4335SOL    HW124224   0.466   2.432   2.740  0.0644  0.4470  0.4978
 4335SOL    HW224225   0.565   2.518   2.642 -0.4418 -0.4313 -0.8075
 4336SOL     OW24226   7.304   2.644   5.852  0.4548 -0.1234  0.0504
 4336SOL    HW124227   7.316   2.633   5.950 -0.9254  0.4860  0.3023
 4336SOL    HW224228   7.223   2.593   5.823  0.3559  0.4089 -0.6171
 4337SOL     OW24229   1.773   8.604   6.670 -0.0166  0.2551 -0.1636
 4337SOL    HW124230   1.833   8.656   6.732  0.6099 -1.7457  0.9613
 4337SOL    HW224231   1.829   8.559   6.600 -0.0611 -2.3536  1.4264
 4338SOL     OW24232   1.760   8.776   0.411  0.0988  0.0439 -0.0739
 4338SOL    HW124233   1.663   8.785   0.434  0.0835  0.0285 -0.1332
 4338SOL    HW224234   1.780   8.681   0.389  0.6472 -0.4308  2.3464
 4339SOL     OW24235   3.160   2.065   4.061  0.3372 -0.0575  0.1592
 4339SOL    HW124236   3.213   2.140   4.020 -0.3022  0.0054 -0.5660
 4339SOL    HW224237   3.123   2.095   4.149 -0.5492  0.7527 -0.4737
 4340SOL     OW24238   8.375   0.244   2.653  0.4518  0.0370 -0.0588
 4340SOL    HW124239   8.292   0.215   2.607  1.4220  1.2363 -2.6958
 4340SOL    HW224240   8.442   0.169   2.653 -0.0898 -0.4564  0.7893
 4341SOL     OW24241   9.324   3.749   3.129 -0.4788  0.1292 -0.5458
 4341SOL    HW124242   9.335   3.687   3.051 -0.9579  0.1437 -0.6281
 4341SOL    HW224243   9.376   3.715   3.207 -1.2386 -0.6970 -0.4005
 4342SOL     OW24244   3.569   2.605   6.297  0.0825 -0.4337 -0.2917
 4342SOL    HW124245   3.590   2.510   6.273  0.4218 -0.1236 -1.2547
 4342SOL    HW224246   3.650   2.648   6.336 -0.1892 -0.6564  0.5197
 4343SOL     OW24247   0.969   0.005   0.995 -0.4283  0.1058  0.0837
 4343SOL    HW124248   0.993  -0.026   0.903  0.7760  2.8277 -0.5628
 4343SOL    HW224249   0.869   0.012   1.003 -0.5916 -1.2135 -0.6214
 4344SOL     OW24250   3.303   7.028   2.927 -0.2820 -0.4111 -0.3443
 4344SOL    HW124251   3.396   7.062   2.940 -0.3566  1.2103 -3.4154
 4344SOL    HW224252   3.307   6.938   2.884 -0.1302 -0.3496 -0.4611
 4345SOL     OW24253   7.910   3.047   5.667 -0.3402  0.4455  0.3915
 4345SOL    HW124254   7.840   2.976   5.669  0.2756 -0.1684  0.1006
 4345SOL    HW224255   7.990   3.015   5.616  0.5078  0.8175  1.4530
 4346SOL     OW24256   7.778   4.483   0.898  0.1627 -0.7323 -0.4932
 4346SOL    HW124257   7.859   4.433   0.928 -1.2952 -2.3938  0.7277
 4346SOL    HW224258   7.734   4.526   0.976 -0.0316  0.3594 -1.1869
 4347SOL     OW24259   8.295   8.305   0.045  0.1897 -0.0144 -0.0596
 4347SOL    HW124260   8.340   8.226   0.002 -0.3830  1.0119 -2.6247
 4347SOL    HW224261   8.208   8.276   0.085  0.3115 -0.8080 -0.3577
 4348SOL     OW24262   7.210   0.840   2.964 -1.2203 -0.2296 -0.1969
 4348SOL    HW124263   7.186   0.926   3.010  0.1738  0.3510 -0.5296
 4348SOL    HW224264   7.219   0.855   2.866  3.3518  0.3028  0.1843
 4349SOL     OW24265   1.310   4.663   3.556  0.1908  0.0146  0.0073
 4349SOL    HW124266   1.254   4.742   3.530 -0.8928 -0.3771  1.1222
 4349SOL    HW224267   1.251   4.590   3.592  1.5120  0.1560  2.6116
 4350SOL     OW24268   6.101   1.964   3.931 -0.3058 -0.7587  0.6959
 4350SOL    HW124269   6.086   2.047   3.985  0.5153 -0.0362 -0.1788
 4350SOL    HW224270   6.199   1.948   3.921 -0.4547 -0.8866 -0.6039
 4351SOL     OW24271   7.750   9.305   3.849  0.2036  0.1489  0.2394
 4351SOL    HW124272   7.693   9.295   3.930  0.8693  0.2925  0.7319
 4351SOL    HW224273   7.845   9.280   3.872  0.7052  1.7003 -0.0924
 4352SOL     OW24274   2.936   9.158   6.480  0.4054  0.2667 -0.0987
 4352SOL    HW124275   2.958   9.248   6.443 -0.8625  0.6309  0.0153
 4352SOL    HW224276   2.959   9.155   6.577 -0.0125  0.6335  0.0119
 4353SOL     OW24277   6.940   1.414   0.287  0.3461  0.0189  0.2364
 4353SOL    HW124278   6.896   1.493   0.245 -0.1495  0.4939  1.6215
 4353SOL    HW224279   7.040   1.426   0.284  0.3257 -0.1346 -1.1306
 4354SOL     OW24280   9.285   6.202   2.746  0.2525  0.4322  0.0148
 4354SOL    HW124281   9.197   6.206   2.699  0.9285 -0.3104 -1.3342
 4354SOL    HW224282   9.275   6.238   2.839 -1.4038  0.6162 -0.2266
 4355SOL     OW24283   7.736   1.121   1.716 -0.7475  0.3983 -0.1012
 4355SOL    HW124284   7.808   1.064   1.755  0.0565  1.1062 -0.5397
 4355SOL    HW224285   7.772   1.213   1.698 -2.5348  1.6260  2.3705
 4356SOL     OW24286   9.757   9.547   1.304  0.4537 -0.6851 -0.0684
 4356SOL    HW124287   9.733   9.510   1.214  0.7878 -0.8049 -0.1089
 4356SOL    HW224288   9.809   9.632   1.292 -0.1799 -0.2841  0.0219
 4357SOL     OW24289   9.798   3.050   0.080  0.0208  0.0182 -0.3168
 4357SOL    HW124290   9.780   2.955   0.056 -1.0899  0.3825 -0.9567
 4357SOL    HW224291   9.859   3.092   0.013 -2.5715  0.8531 -2.2232
 4358SOL     OW24292   5.227   7.951   3.506  0.2136  0.7979  0.1825
 4358SOL    HW124293   5.326   7.952   3.517  0.4653 -3.1269 -0.7256
 4358SOL    HW224294   5.203   7.984   3.415  0.8424  0.1519 -0.2223
 4359SOL     OW24295   3.696   4.866   5.265  0.8081  0.4310 -0.1525
 4359SOL    HW124296   3.729   4.814   5.187  0.6467  2.0230 -1.3053
 4359SOL    HW224297   3.749   4.950   5.274 -1.4343  1.9371 -0.6641
 4360SOL     OW24298   0.127   8.571   5.547 -0.3772  0.6371 -0.8783
 4360SOL    HW124299   0.192   8.590   5.621 -1.0085 -0.5176 -0.0070
 4360SOL    HW224300   0.075   8.654   5.527 -0.2839  0.9324  0.0599
 4361SOL     OW24301   1.485   7.003   2.885  0.6306 -0.3515  0.0350
 4361SOL    HW124302   1.393   7.005   2.924 -0.3783 -0.5743 -2.2102
 4361SOL    HW224303   1.522   7.096   2.881  1.3230 -0.4838  2.7462
 4362SOL     OW24304   0.222   4.963   3.471  0.5553 -0.3285 -0.0410
 4362SOL    HW124305   0.213   4.921   3.561 -0.8061 -1.5947 -0.7407
 4362SOL    HW224306   0.135   4.954   3.422  0.9268  1.3715 -1.0486
 4363SOL     OW24307   4.559   0.329   5.509 -0.0192  0.4497  0.1191
 4363SOL    HW124308   4.657   0.323   5.528 -0.2616  2.4340  2.2945
 4363SOL    HW224309   4.542   0.406   5.448 -0.3166  0.6575  0.4675
 4364SOL     OW24310   7.794   7.393   4.790  0.7351  0.0327 -0.0971
 4364SOL    HW124311   7.836   7.303   4.779 -3.2981 -1.6581 -2.8002
 4364SOL    HW224312   7.841   7.460   4.733  3.4438 -0.3749  1.5564
 4365SOL     OW24313   4.967   3.717   1.840  0.2742  0.1294 -0.5580
 4365SOL    HW124314   4.963   3.799   1.896 -0.5139 -0.4301  0.2336
 4365SOL    HW224315   4.892   3.656   1.865  0.1730 -0.3382 -1.9168
 4366SOL     OW24316   9.070   2.329   1.043 -0.2501  0.5406 -0.2494
 4366SOL    HW124317   9.127   2.320   0.962 -0.6541 -1.0604 -0.3791
 4366SOL    HW224318   9.033   2.240   1.068 -2.3017  1.4625  0.1213
 4367SOL     OW24319   8.755   1.304   0.868 -0.2449  0.3539 -0.1636
 4367SOL    HW124320   8.850   1.334   0.869  0.0585 -0.6277  1.2765
 4367SOL    HW224321   8.695   1.379   0.896  0.2617  0.4140  0.7438
 4368SOL     OW24322   6.045   8.023   4.209 -0.3057 -0.3031 -0.4392
 4368SOL    HW124323   5.965   8.080   4.228  0.0561  0.8345 -2.2354
 4368SOL    HW224324   6.033   7.934   4.253 -1.6256  0.5619  1.0082
 4369SOL     OW24325   0.375   2.939   1.259  1.1224  0.3553 -0.3729
 4369SOL    HW124326   0.327   2.859   1.223  0.4317  0.2054  0.8634
 4369SOL    HW224327   0.383   2.931   1.358  0.5818  2.0568 -0.1785
 4370SOL     OW24328   8.057   4.396   5.739  0.4669 -0.1817 -0.0588
 4370SOL    HW124329   8.019   4.472   5.687  1.3855  1.0256  1.0164
 4370SOL    HW224330   7.983   4.347   5.784 -0.2576 -0.7214 -1.7677
 4371SOL     OW24331   0.852   2.022   4.783 -0.0129  0.1411 -0.1786
 4371SOL    HW124332   0.787   2.029   4.708 -1.6672  1.2957  1.2994
 4371SOL    HW224333   0.812   1.969   4.857  0.6006  1.0865  0.8652
 4372SOL     OW24334   3.554   8.987   1.512  0.4819 -0.3600  0.6233
 4372SOL    HW124335   3.502   8.930   1.449 -1.1043  1.8855 -0.1601
 4372SOL    HW224336   3.495   9.014   1.588  1.7545 -1.2383  1.9573
 4373SOL     OW24337   4.132   4.874   5.176  0.5265 -0.3937  0.9020
 4373SOL    HW124338   4.117   4.964   5.218 -1.3446 -0.7310  1.0249
 4373SOL    HW224339   4.213   4.877   5.119 -0.6939  2.0049 -0.7870
 4374SOL     OW24340   4.493   9.900   5.687  0.2755 -0.2067  0.4057
 4374SOL    HW124341   4.453   9.991   5.672  1.2484  0.0462 -0.6561
 4374SOL    HW224342   4.442   9.854   5.760 -0.5908  0.9608  0.5630
 4375SOL     OW24343   8.456   8.911   3.478 -0.6187 -0.0193  0.1407
 4375SOL    HW124344   8.454   8.842   3.551  0.4915  0.9577  1.1197
 4375SOL    HW224345   8.363   8.937   3.454 -1.0022 -0.6708  0.9125
 4376SOL     OW24346   0.940   6.932   6.059  0.2743 -0.6287  0.1710
 4376SOL    HW124347   0.896   6.963   5.975 -0.3310 -0.6416  0.4806
 4376SOL    HW224348   1.032   6.971   6.066 -1.0858  2.4467  1.3965
 4377SOL     OW24349   3.194   0.374   6.707 -0.7064 -0.0156 -0.2769
 4377SOL    HW124350   3.180   0.284   6.750  0.4807  1.2922  2.9779
 4377SOL    HW224351   3.281   0.374   6.658 -2.3341 -1.7002 -3.3755
 4378SOL     OW24352   3.942   0.831   2.292 -0.1188  0.2366 -0.7534
 4378SOL    HW124353   3.887   0.907   2.327 -2.9782 -2.7070  1.4547
 4378SOL    HW224354   4.034   0.835   2.332 -1.1407  0.9274  1.5929
 4379SOL     OW24355   1.532   2.763   2.516  0.2661 -0.1879 -0.0982
 4379SOL    HW124356   1.607   2.819   2.552 -0.3676 -0.1883  1.2544
 4379SOL    HW224357   1.570   2.690   2.459  1.1861  0.7778 -0.7333
 4380SOL     OW24358   8.321   0.392   1.855 -0.6287 -0.4532 -0.4532
 4380SOL    HW124359   8.270   0.363   1.936 -1.7283  2.0492 -0.1994
 4380SOL    HW224360   8.417   0.405   1.878 -0.5639 -1.6274 -0.0352
 4381SOL     OW24361   4.716   6.472   2.535 -0.3546  0.3213 -0.4506
 4381SOL    HW124362   4.762   6.552   2.497 -1.0543 -0.2089 -2.4633
 4381SOL    HW224363   4.619   6.473   2.510 -0.5834 -0.6562  0.3364
 4382SOL     OW24364   4.750   8.309   2.316 -0.7268 -0.0441  0.2227
 4382SOL    HW124365   4.668   8.265   2.354 -0.5141 -0.9494 -0.3445
 4382SOL    HW224366   4.727   8.354   2.230 -0.6481 -0.2510  0.0921
 4383SOL     OW24367   8.588   7.514   4.845  0.0052 -0.0573 -0.0891
 4383SOL    HW124368   8.528   7.578   4.798 -0.4481  0.4110  1.1333
 4383SOL    HW224369   8.542   7.426   4.856 -1.0101  0.7358  2.1377
 4384SOL     OW24370   3.908   8.588   4.051 -0.3314 -0.1375  0.0015
 4384SOL    HW124371   3.923   8.679   4.091  1.0819 -1.6884  3.2093
 4384SOL    HW224372   3.832   8.543   4.098 -0.3664 -1.0074 -0.8818
 4385SOL     OW24373   4.146   5.151   5.263  0.3583  0.5865  0.0656
 4385SOL    HW124374   4.122   5.202   5.346 -0.5704  0.9006 -0.3791
 4385SOL    HW224375   4.123   5.206   5.183 -1.5743 -0.9164 -0.4474
 4386SOL     OW24376   5.046   0.551   5.372 -0.1397  0.0106 -0.4643
 4386SOL    HW124377   5.125   0.523   5.317 -0.3803 -1.5646 -0.0296
 4386SOL    HW224378   5.077   0.610   5.447  0.6842 -0.8607 -0.1052
 4387SOL     OW24379   3.660   1.831   5.071 -0.0498  0.3419  0.0424
 4387SOL    HW124380   3.709   1.757   5.119 -0.1434  0.1707 -0.1254
 4387SOL    HW224381   3.695   1.838   4.977  0.3308  0.8636  0.2208
 4388SOL     OW24382   7.898   6.078   6.320 -0.1444 -0.0070  0.0268
 4388SOL    HW124383   7.809   6.100   6.359 -0.0775  1.2720 -0.5053
 4388SOL    HW224384   7.966   6.144   6.353  0.7272 -1.3105  0.8694
 4389SOL     OW24385   6.931   1.073   4.862  0.2250  0.1253 -0.0177
 4389SOL    HW124386   6.935   0.974   4.852 -0.8169 -0.1855  2.2243
 4389SOL    HW224387   6.977   1.100   4.947 -0.3257  1.4655 -0.1212
 4390SOL     OW24388   2.160   3.424   2.834 -0.4782 -0.1068  0.0424
 4390SOL    HW124389   2.098   3.458   2.905 -0.6540 -1.1489  0.3975
 4390SOL    HW224390   2.142   3.471   2.748 -0.5783  0.8376  0.5799
 4391SOL     OW24391   9.100   5.696   0.276  0.2012 -0.0511  0.1762
 4391SOL    HW124392   9.193   5.676   0.307  0.4220 -0.2643 -0.6153
 4391SOL    HW224393   9.094   5.682   0.177 -0.4153  0.9203  0.0702
 4392SOL     OW24394   2.497   6.266   4.510 -0.3558 -0.1371 -0.0488
 4392SOL    HW124395   2.547   6.227   4.432  0.4633 -0.6549  0.7142
 4392SOL    HW224396   2.506   6.366   4.509 -1.8745 -0.0091 -1.6265
 4393SOL     OW24397   4.039   2.876   5.194  0.4643  0.8802  0.4958
 4393SOL    HW124398   4.037   2.911   5.100  2.2413 -2.0605 -0.7187
 4393SOL    HW224399   4.104   2.930   5.247  0.7205  1.5000 -0.4205
 4394SOL     OW24400   2.781   1.546   3.346 -0.3398 -0.3972  0.2757
 4394SOL    HW124401   2.820   1.610   3.413 -1.2361 -0.1159  0.5332
 4394SOL    HW224402   2.789   1.586   3.255 -1.4563  0.3601  0.5058
 4395SOL     OW24403   1.655   3.096   5.362  0.0231  0.0942  0.3999
 4395SOL    HW124404   1.746   3.071   5.394  0.6461  2.5179  0.6460
 4395SOL    HW224405   1.663   3.162   5.287 -1.5227 -0.8504 -0.6332
 4396SOL     OW24406   5.550   8.632   2.120  0.2675  0.0149  0.0872
 4396SOL    HW124407   5.549   8.559   2.052  1.7461  0.4702 -0.4483
 4396SOL    HW224408   5.642   8.638   2.160 -0.4238  0.1715  1.6608
 4397SOL     OW24409   2.408   3.518   2.475 -0.1252  0.6546  0.6621
 4397SOL    HW124410   2.387   3.457   2.551 -3.4063  2.3363  1.1797
 4397SOL    HW224411   2.404   3.466   2.389  1.3446 -0.7530  1.4200
 4398SOL     OW24412   1.252   9.175   0.175 -0.5441 -0.3918 -0.0423
 4398SOL    HW124413   1.236   9.166   0.273  0.2077 -0.8924  0.0357
 4398SOL    HW224414   1.210   9.099   0.127  1.2116 -1.4894  0.1260
 4399SOL     OW24415   1.271   0.534   6.134  0.7055 -0.3808 -0.4778
 4399SOL    HW124416   1.322   0.509   6.051 -0.3922 -2.8702 -0.4354
 4399SOL    HW224417   1.247   0.631   6.129  2.7636  0.1040 -1.9223
 4400SOL     OW24418   2.446   8.099   4.736 -0.8895 -0.2431  0.1016
 4400SOL    HW124419   2.400   8.034   4.675 -1.0618 -1.0883  1.0963
 4400SOL    HW224420   2.488   8.048   4.812 -0.1559  0.7272  0.3508
 4401SOL     OW24421   8.183   9.207   0.013  0.0513  0.2511  0.1186
 4401SOL    HW124422   8.181   9.174  -0.082 -0.0327  0.5009  0.0322
 4401SOL    HW224423   8.256   9.161   0.063 -0.3601 -0.4033  0.1225
 4402SOL     OW24424   8.153   0.255   1.420  0.4722 -0.4018 -0.1188
 4402SOL    HW124425   8.123   0.294   1.333 -2.1967  3.1889  2.2750
 4402SOL    HW224426   8.208   0.322   1.469  4.2008 -3.3367 -0.0505
 4403SOL     OW24427   9.956   0.505   5.045 -0.2898  0.1502  0.4522
 4403SOL    HW124428   9.982   0.500   5.142 -0.7707  1.0821  0.6363
 4403SOL    HW224429   9.896   0.428   5.023 -0.4647  0.1231  0.9950
 4404SOL     OW24430   0.743   1.528   5.687 -0.1234  0.0941 -0.1736
 4404SOL    HW124431   0.683   1.591   5.735  0.9887  0.1318  1.2059
 4404SOL    HW224432   0.803   1.579   5.625  0.3492  0.3320  0.4781
 4405SOL     OW24433   2.790   5.628   3.525 -0.1636  0.3463  0.3580
 4405SOL    HW124434   2.753   5.621   3.433  2.2614  0.1519 -0.6483
 4405SOL    HW224435   2.890   5.621   3.521 -0.1465 -1.6660  3.1973
 4406SOL     OW24436   9.285   2.520   4.851  0.9397  0.2639 -0.1996
 4406SOL    HW124437   9.245   2.599   4.897 -0.1048  0.5127 -1.5070
 4406SOL    HW224438   9.291   2.443   4.915 -3.7779 -0.5042 -0.5048
 4407SOL     OW24439   9.651   6.437   1.118  0.1676  0.3905  0.5858
 4407SOL    HW124440   9.740   6.474   1.144  0.2952  1.5494 -1.3366
 4407SOL    HW224441   9.651   6.420   1.019 -1.3736 -0.6654  0.7599
 4408SOL     OW24442   8.280   7.692   6.116  0.1608  0.4334 -0.5836
 4408SOL    HW124443   8.379   7.677   6.112  0.3203  1.5967 -1.4259
 4408SOL    HW224444   8.236   7.646   6.039 -0.0551 -0.8159  0.2865
 4409SOL     OW24445   1.455   9.143   0.878 -0.0498 -0.1308  0.4278
 4409SOL    HW124446   1.441   9.080   0.801 -0.0439 -1.6520  1.6408
 4409SOL    HW224447   1.382   9.129   0.945 -1.3485  2.7680 -0.2966
 4410SOL     OW24448   0.876   4.232   5.158 -0.4124  0.4598 -0.2543
 4410SOL    HW124449   0.907   4.327   5.153 -2.2359  0.9661 -2.3763
 4410SOL    HW224450   0.870   4.205   5.254  0.9741  2.1829  0.3565
 4411SOL     OW24451   7.648   5.444   0.626 -0.2767 -0.6737  0.6184
 4411SOL    HW124452   7.643   5.347   0.604 -1.4662 -0.2441 -1.1751
 4411SOL    HW224453   7.557   5.479   0.647 -0.5714  0.8712 -2.7400
 4412SOL     OW24454   2.067   7.509   4.809 -0.1272  0.5192  0.2145
 4412SOL    HW124455   2.072   7.463   4.721  0.2097  1.8507 -0.4685
 4412SOL    HW224456   1.973   7.538   4.827 -0.0601  0.9107 -0.0570
 4413SOL     OW24457   2.153   3.194   4.417  0.1969  0.1593 -0.2309
 4413SOL    HW124458   2.117   3.157   4.502  0.1092  1.1517  0.1760
 4413SOL    HW224459   2.120   3.139   4.340  1.2179 -1.4432  0.4443
 4414SOL     OW24460   8.646   0.719   5.358 -0.2289  0.5241  0.7594
 4414SOL    HW124461   8.613   0.754   5.270  0.8928 -2.9226 -1.1170
 4414SOL    HW224462   8.671   0.796   5.416 -1.3703  2.9195 -1.7575
 4415SOL     OW24463   8.247   2.695   4.160  0.0328 -0.2000  0.0756
 4415SOL    HW124464   8.206   2.718   4.249  1.1336 -0.0961  0.5641
 4415SOL    HW224465   8.280   2.601   4.162 -0.7348 -0.4920 -0.5336
 4416SOL     OW24466   6.384   9.516   1.846 -0.0566  0.3359 -0.0581
 4416SOL    HW124467   6.448   9.449   1.808 -0.1110  0.7423 -0.8885
 4416SOL    HW224468   6.391   9.516   1.945  1.4010  0.5450 -0.1499
 4417SOL     OW24469   4.604   8.388   4.260 -1.0102 -0.5349  0.2341
 4417SOL    HW124470   4.659   8.399   4.343 -2.3896 -0.0377  1.0997
 4417SOL    HW224471   4.639   8.311   4.207  0.5771 -0.1611  0.7142
 4418SOL     OW24472   8.203   9.222   2.026  0.5515 -0.3557  0.3065
 4418SOL    HW124473   8.115   9.183   2.000  0.4400 -0.9638  1.5519
 4418SOL    HW224474   8.210   9.316   1.994 -1.9358  0.8497  3.1259
 4419SOL     OW24475   0.800   8.758   4.074 -0.4531  0.5754 -0.0821
 4419SOL    HW124476   0.721   8.697   4.065  0.8956 -1.3141  0.6212
 4419SOL    HW224477   0.785   8.822   4.150 -0.8344 -0.5233  0.7753
 4420SOL     OW24478   3.393   0.882   1.350 -0.4163 -0.1854  0.1463
 4420SOL    HW124479   3.304   0.898   1.394 -0.3897 -1.4256  0.6705
 4420SOL    HW224480   3.458   0.951   1.381 -0.7394 -0.2916  1.0723
 4421SOL     OW24481   2.116   0.152   4.031 -0.4948 -0.3294  0.5953
 4421SOL    HW124482   2.137   0.059   4.000 -0.2287 -0.3790  0.9192
 4421SOL    HW224483   2.164   0.218   3.974  0.2433 -0.4307  1.0986
 4422SOL     OW24484   9.341   0.224   0.710 -0.1982 -0.3030  0.2467
 4422SOL    HW124485   9.356   0.125   0.720 -0.6339 -0.2854  1.1670
 4422SOL    HW224486   9.245   0.240   0.687  0.3333 -0.2068 -2.0198
 4423SOL     OW24487   9.902   3.008   5.560 -0.2360 -0.1973 -0.4173
 4423SOL    HW124488   9.992   3.050   5.561 -0.0722 -0.5643  0.4975
 4423SOL    HW224489   9.836   3.071   5.520  0.0414  0.8896  0.8041
 4424SOL     OW24490   1.748   7.654   1.444 -0.0793 -0.2869  0.2749
 4424SOL    HW124491   1.795   7.730   1.489 -1.0197 -0.0719  0.9087
 4424SOL    HW224492   1.813   7.579   1.428  0.1875 -0.5134  2.3445
 4425SOL     OW24493   1.815   1.556   3.216  0.0511  0.3595  0.5507
 4425SOL    HW124494   1.828   1.472   3.267 -1.2099 -0.1186  0.0863
 4425SOL    HW224495   1.825   1.635   3.277  1.3035 -0.1127  0.9652
 4426SOL     OW24496   4.311   8.566   3.993  0.4340  0.4614  0.3010
 4426SOL    HW124497   4.381   8.518   3.941 -0.5945  0.0827 -0.7629
 4426SOL    HW224498   4.350   8.602   4.078  1.8289  0.0097 -0.1481
 4427SOL     OW24499   3.104   1.653   4.006  0.3522  0.1392 -0.0143
 4427SOL    HW124500   3.159   1.649   3.923 -1.0689  1.1147 -1.0270
 4427SOL    HW224501   3.030   1.587   4.000  0.7500 -0.3898  0.8587
 4428SOL     OW24502   8.238   6.577   4.265 -0.0722  0.1824  0.5041
 4428SOL    HW124503   8.334   6.558   4.245  0.0404 -0.7832  1.8766
 4428SOL    HW224504   8.211   6.664   4.223  1.3188  0.3203 -0.1093
 4429SOL     OW24505   6.128   1.676   5.822 -0.2069  0.0385 -0.2758
 4429SOL    HW124506   6.113   1.742   5.749 -0.5352  0.2018 -0.0642
 4429SOL    HW224507   6.207   1.703   5.877  0.7528 -0.7158 -1.2826
 4430SOL     OW24508   9.844   1.917   4.779  1.0475 -0.9325 -0.3546
 4430SOL    HW124509   9.898   1.907   4.696 -0.1416 -1.9613 -1.0235
 4430SOL    HW224510   9.893   1.975   4.844  1.4217  0.9672 -2.2689
 4431SOL     OW24511   4.629   1.974   4.756 -0.0057  0.0312  0.1574
 4431SOL    HW124512   4.578   2.044   4.707 -1.6400 -1.6073 -0.5624
 4431SOL    HW224513   4.709   1.947   4.702  1.1350  1.9418  0.8531
 4432SOL     OW24514   0.800   1.924   5.214 -0.0422 -0.3010  0.0481
 4432SOL    HW124515   0.725   1.931   5.280 -0.1422  1.0318 -0.1913
 4432SOL    HW224516   0.882   1.891   5.260 -0.7166 -1.5707  0.3572
 4433SOL     OW24517   1.448   3.772   1.962 -0.5492 -0.2563 -0.5951
 4433SOL    HW124518   1.394   3.763   1.878 -0.7648  0.6022 -0.5550
 4433SOL    HW224519   1.392   3.745   2.041 -0.9595  0.7490 -0.5418
 4434SOL     OW24520   4.494   8.752   2.364 -0.2081 -0.2082  0.2374
 4434SOL    HW124521   4.534   8.766   2.454 -0.4306 -2.0287  0.6300
 4434SOL    HW224522   4.567   8.755   2.295  0.1478 -0.1654  0.6120
 4435SOL     OW24523   8.258   8.009   2.076 -0.4486 -0.0500  0.6809
 4435SOL    HW124524   8.257   7.986   2.174 -1.8292  0.1779  0.7310
 4435SOL    HW224525   8.231   7.929   2.023  0.5794 -0.2567  0.4551
 4436SOL     OW24526   3.347   0.475   1.001  0.2224  0.0718  0.2772
 4436SOL    HW124527   3.304   0.445   0.916 -0.8994 -0.8279  1.1442
 4436SOL    HW224528   3.388   0.565   0.988  0.2426 -0.1569 -1.2711
 4437SOL     OW24529   8.066   6.862   4.611 -0.0502  0.5709 -0.1731
 4437SOL    HW124530   8.029   6.857   4.704 -1.7578  0.5466 -0.8374
 4437SOL    HW224531   8.012   6.804   4.550 -0.1663  2.1091 -1.5745
 4438SOL     OW24532   8.017   8.857   5.323  0.3258 -0.2623  0.2388
 4438SOL    HW124533   8.017   8.952   5.292 -1.3220 -0.5382 -0.7078
 4438SOL    HW224534   8.018   8.854   5.423 -1.4724  0.7958  0.3130
 4439SOL     OW24535   8.975   7.672   3.531  0.5686  0.1889 -0.5635
 4439SOL    HW124536   8.986   7.757   3.479  0.2493 -0.0183 -0.9693
 4439SOL    HW224537   9.041   7.604   3.499 -0.2906 -0.2672 -1.3769
 4440SOL     OW24538   4.821   2.062   3.531 -0.4571  0.2926 -0.1405
 4440SOL    HW124539   4.904   2.116   3.545 -0.6689  1.1079 -1.8916
 4440SOL    HW224540   4.845   1.965   3.524  0.1142  0.3208  1.2919
 4441SOL     OW24541   1.072   7.694   4.232 -0.9003  0.4735 -0.3764
 4441SOL    HW124542   1.054   7.667   4.137 -1.4555 -0.6282  0.0340
 4441SOL    HW224543   1.000   7.755   4.263 -0.5691  1.0579 -0.7517
 4442SOL     OW24544   7.741   0.984   4.623  0.1610 -0.2033 -0.6372
 4442SOL    HW124545   7.678   0.966   4.547  0.4232  0.1435 -0.9367
 4442SOL    HW224546   7.835   0.977   4.591  0.2712  0.0328 -0.3667
 4443SOL     OW24547   2.842   0.975   0.559 -0.1179  0.1333  0.2069
 4443SOL    HW124548   2.908   0.900   0.558 -0.8474 -0.5296 -1.7367
 4443SOL    HW224549   2.791   0.975   0.473 -1.5379  1.6220  1.0208
 4444SOL     OW24550   0.791   8.612   2.207  0.0294 -0.0201 -0.1524
 4444SOL    HW124551   0.876   8.570   2.173  0.3347  0.3791  0.1091
 4444SOL    HW224552   0.715   8.587   2.147  0.7438  1.5222 -1.7483
 4445SOL     OW24553   1.895   4.684   2.268 -0.1077 -0.3608 -0.0073
 4445SOL    HW124554   1.943   4.740   2.336 -0.0972  2.1216 -2.0042
 4445SOL    HW224555   1.800   4.715   2.261 -0.3737 -1.2661 -0.3936
 4446SOL     OW24556   8.134   5.919   6.071  0.2002 -0.0903 -0.0240
 4446SOL    HW124557   8.034   5.911   6.066  0.1834 -0.6414  1.1724
 4446SOL    HW224558   8.163   5.996   6.014 -0.9850  0.6363  0.3230
 4447SOL     OW24559   8.858   0.293   4.101  0.2684 -0.0427 -0.7673
 4447SOL    HW124560   8.943   0.297   4.048  1.3668  0.9426  1.0347
 4447SOL    HW224561   8.839   0.198   4.126  1.0026 -0.2296 -0.8989
 4448SOL     OW24562   0.343   7.274   6.208  0.1449  0.4775 -0.1389
 4448SOL    HW124563   0.318   7.361   6.250 -0.3997  0.2218  0.0742
 4448SOL    HW224564   0.399   7.220   6.271  0.0192  0.4424 -0.0562
 4449SOL     OW24565   2.839   9.615   0.973 -0.0944  0.3371 -0.3258
 4449SOL    HW124566   2.935   9.637   0.958  0.2182 -0.0510  1.0932
 4449SOL    HW224567   2.808   9.550   0.903  0.5303  0.8383 -1.0770
 4450SOL     OW24568   2.776   8.680   6.455  0.2633 -0.3862  0.1825
 4450SOL    HW124569   2.702   8.743   6.433  0.7542 -0.5807 -2.1351
 4450SOL    HW224570   2.776   8.605   6.389  1.4269 -1.3345  1.2397
 4451SOL     OW24571   5.838   0.681   1.517  0.4615  0.2363 -0.1475
 4451SOL    HW124572   5.752   0.728   1.495 -0.3867 -1.0614  0.3156
 4451SOL    HW224573   5.915   0.735   1.485 -0.5737  0.8827 -1.5876
 4452SOL     OW24574   3.250   5.617   5.499 -0.2753 -0.5050  0.4248
 4452SOL    HW124575   3.277   5.521   5.495  0.7468 -0.2487  0.8709
 4452SOL    HW224576   3.151   5.624   5.500 -0.4045 -1.4367 -2.4178
 4453SOL     OW24577   8.177   0.521   5.489  0.2526  0.4266 -0.0055
 4453SOL    HW124578   8.139   0.506   5.580 -1.0350 -0.0246 -0.5838
 4453SOL    HW224579   8.265   0.475   5.481 -0.2427 -0.6461  0.6031
 4454SOL     OW24580   4.396   7.720   2.924  0.5233 -0.4323  0.3674
 4454SOL    HW124581   4.465   7.751   2.859 -0.2506 -0.0824 -0.2905
 4454SOL    HW224582   4.356   7.800   2.971  2.0322 -0.7520  2.2714
 4455SOL     OW24583   8.609   2.869   4.583 -0.3016 -0.2020  0.0623
 4455SOL    HW124584   8.564   2.815   4.512  0.9248  0.5932 -1.3320
 4455SOL    HW224585   8.567   2.959   4.589  0.8178  0.3987 -0.9632
 4456SOL     OW24586   0.621   1.078   6.111  0.3116  0.0196 -0.8799
 4456SOL    HW124587   0.620   1.069   6.211 -0.7071  0.3427 -0.8587
 4456SOL    HW224588   0.714   1.061   6.078  0.4132 -1.3056  0.0091
 4457SOL     OW24589   5.238   0.562   0.870  0.4652  0.1527  0.0201
 4457SOL    HW124590   5.186   0.539   0.788 -0.4488  1.6882  0.1400
 4457SOL    HW224591   5.296   0.642   0.851  2.1318 -1.0003  0.1451
 4458SOL     OW24592   4.277   9.359   5.391 -0.0161  0.0452 -0.3816
 4458SOL    HW124593   4.232   9.313   5.467  0.7370 -1.3042 -0.7305
 4458SOL    HW224594   4.356   9.305   5.362  0.6585  1.3769 -1.0583
 4459SOL     OW24595   5.362   8.251   1.701  0.2470  0.6478 -0.0222
 4459SOL    HW124596   5.333   8.168   1.652 -1.4933  1.3102 -0.1429
 4459SOL    HW224597   5.407   8.225   1.787 -0.1133 -0.4195 -0.1463
 4460SOL     OW24598   6.447   5.653   5.995  0.5672 -0.4738  0.4428
 4460SOL    HW124599   6.454   5.717   5.919  1.0582  1.6011  2.1750
 4460SOL    HW224600   6.378   5.584   5.975 -0.3676  0.9130 -1.2578
 4461SOL     OW24601   9.755   0.659   6.371 -0.0993  0.0539 -0.6059
 4461SOL    HW124602   9.773   0.680   6.466  3.1834 -1.3261 -0.8847
 4461SOL    HW224603   9.656   0.664   6.354 -0.4993  2.9761  2.1687
 4462SOL     OW24604   7.102   3.945   2.052 -0.0790  0.1637 -0.8737
 4462SOL    HW124605   7.165   3.994   2.113 -0.8946  1.8040 -1.3265
 4462SOL    HW224606   7.096   3.849   2.081  3.8953 -0.4541 -1.8458
 4463SOL     OW24607   8.684   5.421   2.284 -0.5919 -0.3633  0.4594
 4463SOL    HW124608   8.759   5.487   2.277 -1.7140  0.9234  0.2593
 4463SOL    HW224609   8.703   5.343   2.225 -0.4032  0.9372 -1.2316
 4464SOL     OW24610   3.203   2.339   5.542 -0.0660  0.1177 -0.0067
 4464SOL    HW124611   3.104   2.328   5.527  0.2649  0.1600 -2.4107
 4464SOL    HW224612   3.249   2.254   5.517  0.4874 -0.0323  1.4832
 4465SOL     OW24613   0.689   0.739   1.425  0.6517  0.7000  0.4235
 4465SOL    HW124614   0.610   0.677   1.427  0.3193  1.1302  1.0368
 4465SOL    HW224615   0.676   0.806   1.352  2.2252 -1.4927 -1.9271
 4466SOL     OW24616   1.573   2.652   6.370 -0.0248  0.1621  0.3841
 4466SOL    HW124617   1.507   2.722   6.395 -1.0997 -0.3116 -1.0607
 4466SOL    HW224618   1.645   2.693   6.313 -1.0590 -0.0445 -1.0870
 4467SOL     OW24619   8.417   3.194   6.475 -0.1959 -0.1651 -0.8543
 4467SOL    HW124620   8.490   3.253   6.509 -1.2477  0.1067  1.0494
 4467SOL    HW224621   8.409   3.114   6.534 -1.8075  0.1110 -0.6554
 4468SOL     OW24622   1.043   1.223   3.646 -0.8358  0.1319 -0.0231
 4468SOL    HW124623   1.028   1.195   3.551  0.9799 -0.9761 -0.0118
 4468SOL    HW224624   1.138   1.205   3.671 -0.5967  2.8745  1.1879
 4469SOL     OW24625   3.538   0.201   6.341 -0.1985 -0.3884  0.0502
 4469SOL    HW124626   3.519   0.125   6.404  0.6340 -0.1014  0.6486
 4469SOL    HW224627   3.470   0.273   6.355 -0.7681 -0.8576 -0.2605
 4470SOL     OW24628   7.631   0.774   3.682 -0.1520 -0.4540  0.3911
 4470SOL    HW124629   7.659   0.698   3.623  0.1246 -1.1081  1.3494
 4470SOL    HW224630   7.619   0.740   3.776  1.0174  0.9033  1.0396
 4471SOL     OW24631   8.260   9.634   2.895 -0.0078  0.2960 -0.3498
 4471SOL    HW124632   8.253   9.697   2.818 -0.6081 -0.8551 -1.2543
 4471SOL    HW224633   8.326   9.669   2.961 -1.0048  2.3229 -0.4044
 4472SOL     OW24634   2.118   3.178   0.632 -0.2440 -0.6333 -0.7613
 4472SOL    HW124635   2.204   3.150   0.675 -0.0284 -0.4441 -1.0711
 4472SOL    HW224636   2.043   3.165   0.697  0.3034  1.2724  0.3022
 4473SOL     OW24637   2.390   5.584   4.462  0.2433  0.4464  0.4476
 4473SOL    HW124638   2.387   5.488   4.489 -0.0045  0.5986  0.9693
 4473SOL    HW224639   2.484   5.617   4.467  0.1286  0.6361  1.7324
 4474SOL     OW24640   6.319   9.615   2.846  0.3544 -0.7359  0.0140
 4474SOL    HW124641   6.301   9.700   2.798  2.0262 -0.1281  0.4450
 4474SOL    HW224642   6.416   9.607   2.867  0.1830 -2.6031  0.2685
 4475SOL     OW24643   3.708   0.873   5.211 -0.3300 -0.4852  0.6879
 4475SOL    HW124644   3.772   0.895   5.285 -0.4833 -0.8097  0.9165
 4475SOL    HW224645   3.627   0.932   5.219  0.2949  0.4784 -0.0736
 4476SOL     OW24646   0.550   5.965   5.969  0.3633  0.4348  0.5982
 4476SOL    HW124647   0.585   5.881   6.010 -0.2451 -0.2704 -0.2813
 4476SOL    HW224648   0.450   5.967   5.979 -0.1964 -1.2568 -3.4052
 4477SOL     OW24649   4.227   2.295   4.161  0.5493 -0.4008  0.6221
 4477SOL    HW124650   4.317   2.252   4.154  0.5714 -0.2453 -0.1122
 4477SOL    HW224651   4.237   2.394   4.149  0.1945 -0.4622 -0.2481
 4478SOL     OW24652   0.830   4.728   0.269  0.2760 -0.1280 -0.8664
 4478SOL    HW124653   0.918   4.699   0.231  0.7268 -1.0684  0.8278
 4478SOL    HW224654   0.802   4.814   0.227  1.9535  0.1207 -1.5160
 4479SOL     OW24655   4.216   4.331   2.054 -0.3330  0.3269 -0.3201
 4479SOL    HW124656   4.232   4.428   2.038  1.0807  0.0471 -0.6239
 4479SOL    HW224657   4.120   4.318   2.081 -1.5304  1.3916 -3.7264
 4480SOL     OW24658   9.646   5.319   1.934 -0.2170 -0.3000 -0.0796
 4480SOL    HW124659   9.568   5.358   1.885  0.9124  2.9014  0.5509
 4480SOL    HW224660   9.731   5.357   1.898  0.6886  1.4236  3.6691
 4481SOL     OW24661   7.931   4.446   0.618 -0.0540 -0.0238  0.2836
 4481SOL    HW124662   7.994   4.369   0.621 -0.9625 -0.7959 -0.3349
 4481SOL    HW224663   7.941   4.500   0.702  1.5652 -0.0187  0.0987
 4482SOL     OW24664   9.724   9.726   0.283  0.0710 -0.5641 -0.1933
 4482SOL    HW124665   9.723   9.656   0.355  2.2041 -0.8482 -0.4250
 4482SOL    HW224666   9.812   9.725   0.236 -0.7298  0.6986 -1.7722
 4483SOL     OW24667   8.957   6.231   3.927 -0.0708  0.2175  1.0426
 4483SOL    HW124668   8.863   6.242   3.959  0.0563  0.7139  1.2521
 4483SOL    HW224669   8.987   6.137   3.941 -1.2537 -0.5032 -0.9420
 4484SOL     OW24670   1.912   7.170   4.946  0.1427 -0.1218  0.1127
 4484SOL    HW124671   1.841   7.104   4.922 -0.3366  0.5914 -0.4608
 4484SOL    HW224672   2.000   7.139   4.910 -0.0159 -0.6391  0.1765
 4485SOL     OW24673   7.126   7.771   3.788  0.2590 -0.5995 -0.1417
 4485SOL    HW124674   7.088   7.823   3.864  1.2347 -1.3003  0.8313
 4485SOL    HW224675   7.158   7.682   3.820  4.5362  0.6974 -0.5067
 4486SOL     OW24676   6.312   7.912   3.100  0.0779  0.5990  0.2513
 4486SOL    HW124677   6.287   7.977   3.172 -3.2502 -2.2778  1.8354
 4486SOL    HW224678   6.344   7.827   3.143  4.0128  0.9216 -1.7739
 4487SOL     OW24679   8.883   6.186   1.987  0.0506 -0.1079 -0.4223
 4487SOL    HW124680   8.823   6.255   2.026 -0.3681  0.0563 -1.3470
 4487SOL    HW224681   8.836   6.098   1.984 -0.4383  0.1966 -1.8895
 4488SOL     OW24682   4.617   8.606   3.685  0.2992 -0.0272 -0.0549
 4488SOL    HW124683   4.654   8.602   3.592  3.1108  2.0532  0.9013
 4488SOL    HW224684   4.614   8.514   3.724  0.9147 -0.6750 -1.5000
 4489SOL     OW24685   2.374   1.250   5.427  0.4327 -0.1401  0.3687
 4489SOL    HW124686   2.372   1.202   5.515  1.3654  0.6033  0.8047
 4489SOL    HW224687   2.469   1.268   5.402  0.1228  0.6200 -0.2615
 4490SOL     OW24688   1.679   8.821   2.146  0.1844 -0.4083 -0.2054
 4490SOL    HW124689   1.753   8.858   2.089  0.5038  0.5067  0.7833
 4490SOL    HW224690   1.671   8.876   2.229 -0.9755 -1.0992  0.1419
 4491SOL     OW24691   9.064   3.609   1.276  0.4806  0.0297 -0.2305
 4491SOL    HW124692   9.096   3.683   1.334 -0.2352  0.6215 -0.5784
 4491SOL    HW224693   9.026   3.536   1.332 -1.5582  1.2391  0.0014
 4492SOL     OW24694   0.088   9.183   1.405 -0.3728 -0.7228  0.4416
 4492SOL    HW124695   0.129   9.241   1.476  1.0613 -0.7248 -0.3655
 4492SOL    HW224696   0.085   9.234   1.319 -2.9385 -0.3983  0.6937
 4493SOL     OW24697   2.758   0.076   3.964  0.5504 -0.1632 -0.1094
 4493SOL    HW124698   2.845   0.053   3.921  0.8762  0.6237  0.1171
 4493SOL    HW224699   2.741   0.174   3.952 -0.8924 -0.5377 -1.2303
 4494SOL     OW24700   2.412   6.632   5.517 -0.4662  0.1341  0.2479
 4494SOL    HW124701   2.426   6.563   5.588 -0.5604 -0.1824 -0.0390
 4494SOL    HW224702   2.437   6.594   5.428  2.6161  1.5105  0.4617
 4495SOL     OW24703   0.539   2.852   5.713  0.0195  0.4296 -0.1501
 4495SOL    HW124704   0.443   2.830   5.699  0.3280 -1.1930  0.1858
 4495SOL    HW224705   0.554   2.878   5.809  0.4691 -2.5351  0.6442
 4496SOL     OW24706   5.557   2.047   2.729  0.2577 -0.2198  0.0109
 4496SOL    HW124707   5.476   2.081   2.777 -0.5289 -1.3802 -0.4695
 4496SOL    HW224708   5.574   2.102   2.647 -0.0750 -0.0080  0.0870
 4497SOL     OW24709   9.845   1.072   5.249 -0.0701  0.3544  0.0330
 4497SOL    HW124710   9.797   1.057   5.335  0.9437  1.6194  0.8489
 4497SOL    HW224711   9.814   1.157   5.207 -0.9735 -0.5478 -1.1565
 4498SOL     OW24712   7.829   5.287   0.761 -0.0320  0.1322 -0.4577
 4498SOL    HW124713   7.800   5.261   0.853  0.9435 -0.2160 -0.2488
 4498SOL    HW224714   7.782   5.371   0.734  0.3108  0.7022  0.6938
 4499SOL     OW24715   9.197   2.414   1.510 -0.5224  0.0020  0.2979
 4499SOL    HW124716   9.111   2.465   1.519  0.2467  2.1363 -3.2483
 4499SOL    HW224717   9.203   2.376   1.417  1.6015 -1.5744  1.0452
 4500SOL     OW24718   2.831   8.890   6.049 -0.2531 -0.1474 -0.3256
 4500SOL    HW124719   2.881   8.893   6.135 -2.0799 -1.7125  0.8250
 4500SOL    HW224720   2.778   8.974   6.037  0.0926  0.1200  0.0116
 4501SOL     OW24721   0.439   7.257   2.063  0.0801  0.0487 -0.0968
 4501SOL    HW124722   0.361   7.258   2.125  0.8675  0.8102  0.8968
 4501SOL    HW224723   0.477   7.165   2.060  0.3109  0.0959  0.9261
 4502SOL     OW24724   3.433   3.006   6.335 -0.7030  0.7233 -0.4360
 4502SOL    HW124725   3.463   3.062   6.258 -0.3500  1.3163  0.1267
 4502SOL    HW224726   3.458   3.052   6.421 -0.2861 -0.3599  0.0245
 4503SOL     OW24727   2.895   9.820   1.463 -0.0484 -0.5833 -0.2768
 4503SOL    HW124728   2.969   9.784   1.406 -1.6101 -1.7621 -1.6370
 4503SOL    HW224729   2.815   9.839   1.406 -1.0618 -0.0893  1.2605
 4504SOL     OW24730   8.304   9.722   0.737 -0.3506  0.7024 -0.2836
 4504SOL    HW124731   8.324   9.813   0.772  0.0493  0.9569 -1.1462
 4504SOL    HW224732   8.390   9.675   0.716 -0.5875  1.1176 -2.3167
 4505SOL     OW24733   2.702   6.721   0.389 -0.7365  0.3292 -0.1344
 4505SOL    HW124734   2.687   6.622   0.388 -1.0747  0.3771  0.1548
 4505SOL    HW224735   2.800   6.739   0.381 -0.6287 -0.0441  0.2772
 4506SOL     OW24736   4.866   0.067   2.629  0.1676  0.3582  0.2838
 4506SOL    HW124737   4.940   0.002   2.646 -0.2664 -0.4257 -0.7904
 4506SOL    HW224738   4.866   0.094   2.533 -1.6218 -0.5010  0.0194
 4507SOL     OW24739   9.092   1.257   6.079 -0.1702  0.6290  0.0211
 4507SOL    HW124740   9.122   1.286   5.989  1.4079 -0.9304  0.0260
 4507SOL    HW224741   9.165   1.271   6.146  0.6000 -3.0441  0.0528
 4508SOL     OW24742   9.826   2.488   3.894 -0.0917 -0.9617 -0.0118
 4508SOL    HW124743   9.845   2.389   3.897  0.3542 -0.8563  0.9142
 4508SOL    HW224744   9.892   2.536   3.951 -1.8779 -0.3812  1.6146
 4509SOL     OW24745   8.840   2.254   3.891 -0.3873 -0.1259 -0.2093
 4509SOL    HW124746   8.890   2.234   3.807  0.3529  1.2479 -0.1060
 4509SOL    HW224747   8.901   2.241   3.969 -0.4736  0.5857 -0.0196
 4510SOL     OW24748   4.790   5.304   1.411  0.2413 -0.0106  0.1859
 4510SOL    HW124749   4.852   5.342   1.342  0.3446 -1.0752 -0.3138
 4510SOL    HW224750   4.748   5.221   1.375 -0.4078 -0.0616  1.0642
 4511SOL     OW24751   2.612   1.731   1.230  0.1660 -0.1473  0.3098
 4511SOL    HW124752   2.701   1.701   1.264  0.2278 -0.9006 -0.4838
 4511SOL    HW224753   2.606   1.711   1.132 -0.9169 -0.2067  0.3809
 4512SOL     OW24754   9.163   8.228   0.512  0.0260  0.0824  0.3672
 4512SOL    HW124755   9.079   8.281   0.520  0.6731  1.2714 -0.4840
 4512SOL    HW224756   9.235   8.272   0.566  0.2432 -0.6289  0.6626
 4513SOL     OW24757   5.951   8.939   3.520  0.1741  0.0485  0.3030
 4513SOL    HW124758   5.937   8.854   3.469  0.3985  0.3401 -0.2444
 4513SOL    HW224759   5.905   8.933   3.609 -1.8816  0.3119 -0.7409
 4514SOL     OW24760   0.014   7.656   5.175 -0.1182  0.1469 -0.3321
 4514SOL    HW124761   0.058   7.591   5.113 -0.1898 -0.6386  0.4395
 4514SOL    HW224762   0.077   7.679   5.249 -0.9282 -0.8542  0.6877
 4515SOL     OW24763   1.813   0.981   1.179 -0.1631  0.1778  0.2718
 4515SOL    HW124764   1.853   0.942   1.096  1.8109  0.7348  0.9521
 4515SOL    HW224765   1.714   0.991   1.166  0.2863  1.4215 -2.4849
 4516SOL     OW24766   1.559   3.151   4.887 -0.3298  0.7080 -0.4937
 4516SOL    HW124767   1.561   3.131   4.789 -0.9019 -0.0667 -0.3556
 4516SOL    HW224768   1.614   3.084   4.936 -0.0318  1.1031 -0.2880
 4517SOL     OW24769   4.626   2.765   3.175 -0.4872 -0.5677  0.3106
 4517SOL    HW124770   4.610   2.863   3.181 -0.6866 -0.4728 -1.3812
 4517SOL    HW224771   4.689   2.736   3.246  1.7184  1.2688 -0.8570
 4518SOL     OW24772   7.405   9.942   1.541 -0.5788 -0.6162  0.0870
 4518SOL    HW124773   7.418   9.851   1.502 -0.8778 -1.2468  1.4297
 4518SOL    HW224774   7.365   9.934   1.633  1.0012  0.7878  0.9275
 4519SOL     OW24775   9.444   7.184   4.289  0.0078  0.1628  0.3347
 4519SOL    HW124776   9.518   7.239   4.328  0.7809  0.0445 -0.9344
 4519SOL    HW224777   9.402   7.234   4.212  0.2728 -0.7330 -0.3965
 4520SOL     OW24778   0.259   1.281   5.473  0.5619 -0.1607  0.2672
 4520SOL    HW124779   0.165   1.269   5.505  1.0014  0.2040  1.7554
 4520SOL    HW224780   0.292   1.196   5.432 -0.0512 -0.6421  0.7607
 4521SOL     OW24781   9.868   7.118   4.899 -0.0587 -0.1578  0.3028
 4521SOL    HW124782   9.796   7.067   4.946 -1.9481  1.3060 -0.9279
 4521SOL    HW224783   9.925   7.165   4.967 -1.2732 -0.0202  1.2458
 4522SOL     OW24784   7.805   0.064   5.285  0.5744 -0.4121  0.0357
 4522SOL    HW124785   7.856  -0.019   5.263  1.7833 -0.0367  1.4102
 4522SOL    HW224786   7.848   0.143   5.240 -0.8504 -0.5694 -1.6630
 4523SOL     OW24787   8.938   3.020   3.015 -0.1741 -0.1206  0.0199
 4523SOL    HW124788   8.962   2.995   2.921  0.4328 -0.3685  0.2393
 4523SOL    HW224789   8.910   3.115   3.017 -0.1566 -0.1021 -0.4091
 4524SOL     OW24790   0.183   8.558   6.273 -0.5655 -0.3002  0.0168
 4524SOL    HW124791   0.086   8.583   6.264 -0.1817  0.5790 -1.8603
 4524SOL    HW224792   0.220   8.534   6.184  0.9380 -0.7216  0.7332
 4525SOL     OW24793   6.045   2.183   2.641 -0.0766  0.2637  0.0554
 4525SOL    HW124794   5.989   2.104   2.614  0.1088 -0.1730  0.9346
 4525SOL    HW224795   6.016   2.216   2.731 -0.1000  1.1534 -0.2729
 4526SOL     OW24796   6.000   1.671   1.441 -0.0595  0.0417 -0.2668
 4526SOL    HW124797   6.060   1.723   1.503 -1.0785  0.0330  0.7326
 4526SOL    HW224798   6.053   1.599   1.396  0.5487 -0.3326  1.0455
 4527SOL     OW24799   3.835   2.281   0.655  0.0693 -0.0471  0.4501
 4527SOL    HW124800   3.748   2.303   0.610  1.5452  1.2981 -1.8648
 4527SOL    HW224801   3.886   2.216   0.598  0.9469 -0.1991  1.3955
 4528SOL     OW24802   2.246   9.059   2.361  0.6752 -0.4084 -0.0537
 4528SOL    HW124803   2.246   8.960   2.375  1.4461 -0.1689  1.8243
 4528SOL    HW224804   2.312   9.102   2.423  1.0210  1.1991 -1.4989
 4529SOL     OW24805   5.956   7.675   3.254  0.2885 -0.2996  0.3843
 4529SOL    HW124806   5.911   7.726   3.327  1.1172 -0.3324  0.9300
 4529SOL    HW224807   5.897   7.601   3.224 -0.9756  1.0427 -0.5006
 4530SOL     OW24808   0.377   9.236   5.640  0.5790 -0.5058  0.3228
 4530SOL    HW124809   0.335   9.299   5.575  2.6530  0.1208 -0.4498
 4530SOL    HW224810   0.352   9.263   5.733  0.1814  0.5186 -0.0744
 4531SOL     OW24811   2.520   8.360   5.750  0.4850  0.7609 -0.0022
 4531SOL    HW124812   2.529   8.260   5.760  0.1638  0.6299 -1.0075
 4531SOL    HW224813   2.482   8.398   5.835 -0.5522 -0.1310 -0.0420
 4532SOL     OW24814   9.360   1.112   3.101 -0.5692  0.5209  0.5824
 4532SOL    HW124815   9.386   1.063   3.185 -1.4279 -0.4363  0.2958
 4532SOL    HW224816   9.442   1.150   3.059  0.1101 -0.5799  0.8677
 4533SOL     OW24817   8.084   2.722   0.042 -0.1577  0.1902  0.2314
 4533SOL    HW124818   8.149   2.664   0.091  0.1727  0.7408  0.4528
 4533SOL    HW224819   8.072   2.688  -0.051  1.6730  1.0191 -0.3270
 4534SOL     OW24820   1.541   6.928   4.325  0.0451  0.5703 -0.0830
 4534SOL    HW124821   1.480   6.986   4.378 -0.3915 -0.0104  0.0548
 4534SOL    HW224822   1.487   6.861   4.274  0.5985 -0.3235  0.4911
 4535SOL     OW24823   5.154   0.087   2.882  0.4643 -0.7164  0.2325
 4535SOL    HW124824   5.211   0.140   2.945 -0.5845  1.6764 -0.7811
 4535SOL    HW224825   5.192   0.092   2.790 -0.6094 -0.2869 -0.1876
 4536SOL     OW24826   9.143   8.167   4.822 -0.4391 -0.2539 -0.1711
 4536SOL    HW124827   9.235   8.160   4.861 -1.8464  0.2947  3.3493
 4536SOL    HW224828   9.112   8.262   4.825 -1.1008 -0.4144 -1.4701
 4537SOL     OW24829   5.187   6.808   2.579  0.0002 -0.0900  0.5617
 4537SOL    HW124830   5.195   6.708   2.586 -0.9634 -0.2780 -0.7432
 4537SOL    HW224831   5.107   6.838   2.631 -0.0425 -0.0639  0.4801
 4538SOL     OW24832   9.576   6.985   5.759  0.5165 -0.1259  0.5671
 4538SOL    HW124833   9.546   7.073   5.722  2.3997  0.3965  0.1924
 4538SOL    HW224834   9.508   6.915   5.740  0.2324  0.6986 -1.5437
 4539SOL     OW24835   4.360   8.320   2.111 -0.0864  0.6207 -0.3590
 4539SOL    HW124836   4.355   8.307   2.012 -0.1488  1.1145 -0.4220
 4539SOL    HW224837   4.267   8.321   2.149 -0.1381  1.9113 -0.4936
 4540SOL     OW24838   6.538   4.639   0.215  0.0853 -0.2382  0.3856
 4540SOL    HW124839   6.449   4.683   0.231  1.1257  2.4050 -0.7197
 4540SOL    HW224840   6.526   4.562   0.153 -1.6047 -0.6446  1.1833
 4541SOL     OW24841   3.048   4.875   1.576  0.7727  0.2823  0.5276
 4541SOL    HW124842   3.124   4.830   1.623  0.4247  0.9221  1.7012
 4541SOL    HW224843   3.034   4.966   1.614 -0.7516  0.0726  0.4823
 4542SOL     OW24844   0.359   3.806   2.042 -0.1672  0.2107  0.0905
 4542SOL    HW124845   0.406   3.726   2.078  0.3766  0.8181  0.7684
 4542SOL    HW224846   0.331   3.865   2.118 -1.9025 -0.0675 -0.3108
 4543SOL     OW24847   3.501   2.513   3.948  0.0810  0.0516  0.2746
 4543SOL    HW124848   3.435   2.533   4.020 -0.0953  0.0840  0.1024
 4543SOL    HW224849   3.578   2.462   3.987  0.3600  0.7486  0.6446
 4544SOL     OW24850   1.985   9.635   3.049 -0.3506 -0.3744 -0.1479
 4544SOL    HW124851   1.940   9.549   3.027  0.6492 -1.4146  1.7559
 4544SOL    HW224852   1.924   9.711   3.027 -1.2951 -1.5525 -1.7179
 4545SOL     OW24853   2.011   0.585   3.145 -0.1084  0.2414  0.0983
 4545SOL    HW124854   1.929   0.642   3.147  0.1494  0.6240 -0.1979
 4545SOL    HW224855   1.991   0.500   3.097 -0.4674  0.1168  0.4591
 4546SOL     OW24856   2.778   0.194   6.660  0.4384  0.4994 -0.1746
 4546SOL    HW124857   2.759   0.107   6.614  1.7085 -0.2832  0.7707
 4546SOL    HW224858   2.695   0.250   6.661 -1.0972 -1.7443  1.4510
 4547SOL     OW24859   7.828   7.323   3.288  0.1040  0.0404 -0.1601
 4547SOL    HW124860   7.784   7.397   3.237 -0.1732 -1.3044 -1.9444
 4547SOL    HW224861   7.762   7.281   3.350  0.1675  1.0538  0.6009
 4548SOL     OW24862   8.982   8.957   1.592  0.1923  0.5695 -0.0577
 4548SOL    HW124863   8.931   9.042   1.578  0.0341  0.5445  0.3630
 4548SOL    HW224864   9.034   8.964   1.678  0.5315  0.4168 -0.2517
 4549SOL     OW24865   4.285   2.497   3.099 -0.0593 -0.4568 -0.3820
 4549SOL    HW124866   4.267   2.440   3.019  0.8079 -1.5081  0.1548
 4549SOL    HW224867   4.381   2.489   3.125 -0.3707 -0.2973  0.8862
 4550SOL     OW24868   1.173   7.065   6.045 -0.1044 -0.8066 -0.0775
 4550SOL    HW124869   1.261   7.089   6.004 -0.0537  0.6821  0.8517
 4550SOL    HW224870   1.187   7.039   6.141 -0.7035 -0.1796  0.1874
 4551SOL     OW24871   0.077   6.280   6.677  0.1046  0.2280 -0.6553
 4551SOL    HW124872   0.003   6.213   6.686 -0.7651  1.1619 -0.7881
 4551SOL    HW224873   0.080   6.338   6.758  1.0078 -0.1013 -0.4368
 4552SOL     OW24874   3.183   2.840   0.811  0.1946  0.2493  0.4016
 4552SOL    HW124875   3.140   2.915   0.862 -1.1645  0.4733 -1.0520
 4552SOL    HW224876   3.141   2.832   0.721  3.0896  0.3291 -1.0015
 4553SOL     OW24877   3.579   5.867   0.801  0.0125  0.1241 -0.3045
 4553SOL    HW124878   3.626   5.862   0.890  1.0748 -1.4086 -0.9262
 4553SOL    HW224879   3.624   5.934   0.743 -0.2632  0.6344  0.0676
 4554SOL     OW24880   0.473   0.445   2.257  0.1292  0.2960  0.1400
 4554SOL    HW124881   0.572   0.431   2.247  0.3945  2.0290  0.1539
 4554SOL    HW224882   0.434   0.369   2.310  1.1879 -1.1849 -1.1421
 4555SOL     OW24883   5.566   8.814   5.112  0.1391  0.2484 -0.0624
 4555SOL    HW124884   5.603   8.760   5.188 -0.2913  1.8363  1.3058
 4555SOL    HW224885   5.618   8.898   5.102 -0.5181  0.5716 -0.7877
 4556SOL     OW24886   3.135   9.933   6.755 -0.4129  0.2886 -0.6877
 4556SOL    HW124887   3.099   9.919   6.662 -1.4486  0.2676 -0.2966
 4556SOL    HW224888   3.114  10.026   6.785  2.1022  1.1185 -1.3964
 4557SOL     OW24889   1.606   9.742   5.837 -0.0852  0.2315 -0.8121
 4557SOL    HW124890   1.565   9.766   5.925  0.5666  1.2491 -0.7718
 4557SOL    HW224891   1.537   9.701   5.777  0.1805 -3.5353  1.3170
 4558SOL     OW24892   0.930   5.595   3.946 -0.0256 -0.2291  0.5951
 4558SOL    HW124893   0.949   5.602   4.043 -0.6614 -0.6953  0.7563
 4558SOL    HW224894   0.839   5.631   3.927  1.0206  2.1194 -0.1914
 4559SOL     OW24895   8.410   3.810   1.499 -0.5451  0.4527  0.5185
 4559SOL    HW124896   8.371   3.857   1.421 -1.8877 -1.8482 -0.2528
 4559SOL    HW224897   8.349   3.736   1.527  0.8095  0.0703  2.5760
 4560SOL     OW24898   2.135   2.525   0.684  0.0187  0.4329  0.1122
 4560SOL    HW124899   2.089   2.513   0.596  1.0216  2.7157 -0.7414
 4560SOL    HW224900   2.160   2.435   0.720 -2.5709 -0.6755 -0.7453
 4561SOL     OW24901   9.385   9.183   0.942 -0.5188  0.1912 -0.0448
 4561SOL    HW124902   9.338   9.250   1.000  1.3287  1.7679 -0.3445
 4561SOL    HW224903   9.389   9.218   0.848 -0.9503 -1.0712 -0.5445
 4562SOL     OW24904   3.422   1.969   5.125  0.0387 -0.9401  0.2068
 4562SOL    HW124905   3.506   1.930   5.088  1.3560  0.0438  2.1045
 4562SOL    HW224906   3.392   1.915   5.203 -1.3464 -1.5250 -0.7024
 4563SOL     OW24907   2.175   5.083   1.538 -0.5753 -0.2308  0.2129
 4563SOL    HW124908   2.177   5.148   1.462 -3.3665 -0.0692  0.2392
 4563SOL    HW224909   2.268   5.072   1.574  0.3517  1.7961 -1.4219
 4564SOL     OW24910   2.914   9.442   1.431 -0.1370 -0.2212 -0.0600
 4564SOL    HW124911   2.822   9.444   1.391 -0.4489  1.8775  0.6696
 4564SOL    HW224912   2.910   9.401   1.522 -0.1377 -1.1847 -0.4851
 4565SOL     OW24913   9.007   6.015   6.424 -0.2911  0.0658  0.1723
 4565SOL    HW124914   9.094   6.064   6.420  0.2849 -1.0393 -2.2250
 4565SOL    HW224915   9.025   5.916   6.423 -1.5479 -0.1851  1.1053
 4566SOL     OW24916   4.120   9.159   3.010  0.2807 -0.0821 -0.0284
 4566SOL    HW124917   4.082   9.095   2.943 -1.1087  2.4957 -1.7772
 4566SOL    HW224918   4.045   9.206   3.056  1.3006  0.5580  0.9858
 4567SOL     OW24919   4.034   8.152   1.932  0.1690  0.4765  0.2028
 4567SOL    HW124920   4.134   8.152   1.939  0.1394  2.3539  1.0667
 4567SOL    HW224921   4.007   8.189   1.844  0.2244  0.1124  0.0302
 4568SOL     OW24922   8.494   7.630   2.901 -0.2096  0.8673 -0.4165
 4568SOL    HW124923   8.496   7.588   2.992 -0.8955 -1.8450 -1.6257
 4568SOL    HW224924   8.408   7.680   2.890  0.0081  1.4797  0.5132
 4569SOL     OW24925   2.864   9.679   6.252  1.1952  0.2385 -0.3769
 4569SOL    HW124926   2.902   9.712   6.165  1.2436  0.3147 -0.3276
 4569SOL    HW224927   2.853   9.580   6.249  0.9549  0.2708 -0.5636
 4570SOL     OW24928   8.091   6.247   1.276  0.2978 -0.3005  0.1669
 4570SOL    HW124929   8.117   6.182   1.204  0.4390 -1.0227  0.8613
 4570SOL    HW224930   8.170   6.268   1.333  0.4321  1.0666 -0.4942
 4571SOL     OW24931   4.327   0.801   4.380  0.6216  0.1755  0.3895
 4571SOL    HW124932   4.322   0.827   4.283 -1.4121 -0.4384  0.3151
 4571SOL    HW224933   4.340   0.883   4.436 -0.4021  0.7856 -0.2476
 4572SOL     OW24934   3.102   7.821   1.623  0.0418  0.0989 -0.2913
 4572SOL    HW124935   3.103   7.768   1.708 -0.4522 -1.4932 -1.2490
 4572SOL    HW224936   3.195   7.840   1.594  0.3054 -2.3521 -1.1764
 4573SOL     OW24937   2.918   9.614   6.512  0.2344  0.0340 -0.1108
 4573SOL    HW124938   2.976   9.537   6.484  0.7767  0.9873 -1.6614
 4573SOL    HW224939   2.884   9.661   6.431 -1.2879  0.5504  0.8210
 4574SOL     OW24940   5.091   4.591   0.083 -0.0599 -0.0007  0.2898
 4574SOL    HW124941   5.051   4.679   0.105  1.1448  0.9133 -1.0844
 4574SOL    HW224942   5.024   4.519   0.098 -1.4379  1.2623  0.2601
 4575SOL     OW24943   3.007   4.575   1.094  0.3604 -0.0781  0.2041
 4575SOL    HW124944   2.996   4.585   0.995  0.5946  0.0538  0.1919
 4575SOL    HW224945   2.982   4.661   1.139  1.1162  0.1506  0.1939
 4576SOL     OW24946   1.297   1.187   4.151  0.1196 -0.1522 -0.5687
 4576SOL    HW124947   1.231   1.209   4.079 -0.2835 -0.1423 -0.2008
 4576SOL    HW224948   1.362   1.262   4.161  0.0979 -0.0987 -0.8373
 4577SOL     OW24949   3.784   9.751   2.055  0.5342  0.1352 -0.3140
 4577SOL    HW124950   3.827   9.702   1.979 -1.4276 -0.7182 -0.9136
 4577SOL    HW224951   3.767   9.846   2.028 -0.5144 -0.2673 -1.1143
 4578SOL     OW24952   3.282   3.488   3.900  0.7907  0.2055 -0.2547
 4578SOL    HW124953   3.266   3.495   3.999 -2.4366  2.2124 -0.8544
 4578SOL    HW224954   3.298   3.579   3.862  0.9013 -0.4290 -1.7576
 4579SOL     OW24955   7.732   1.295   5.793 -0.6795 -0.6935 -0.5014
 4579SOL    HW124956   7.705   1.378   5.841 -0.2943 -0.4092 -0.7780
 4579SOL    HW224957   7.789   1.318   5.715 -2.1547 -1.0848 -1.7159
 4580SOL     OW24958   4.460   9.282   4.802  0.3801  0.5139 -0.5452
 4580SOL    HW124959   4.547   9.286   4.850 -0.8210 -0.1409  1.7646
 4580SOL    HW224960   4.427   9.375   4.787  0.6194  0.7357  0.2463
 4581SOL     OW24961   2.106   9.780   3.864  0.2444  0.3871 -0.3541
 4581SOL    HW124962   2.086   9.695   3.912  0.3302  0.2783 -0.5116
 4581SOL    HW224963   2.182   9.826   3.910 -0.1442  0.6405  0.0497
 4582SOL     OW24964   7.686   0.221   5.530 -0.3186 -0.3575  0.9674
 4582SOL    HW124965   7.629   0.279   5.472  0.3667 -0.2332  0.4001
 4582SOL    HW224966   7.768   0.193   5.478 -0.9109 -2.2944  1.0241
 4583SOL     OW24967   1.037   4.846   6.475  0.5446 -0.5649 -0.1204
 4583SOL    HW124968   1.107   4.851   6.547  0.6100 -2.2440 -0.0358
 4583SOL    HW224969   0.984   4.931   6.473  2.0699  0.4133  0.3478
 4584SOL     OW24970   2.111   3.033   5.026 -0.2474  0.3210  0.0453
 4584SOL    HW124971   2.087   3.089   5.106 -0.6497 -0.3989  0.4320
 4584SOL    HW224972   2.201   2.991   5.042  0.0141  0.7842 -0.2064
 4585SOL     OW24973   8.000   7.684   2.239  0.3115  0.0288 -0.2472
 4585SOL    HW124974   7.929   7.750   2.212  0.3208  0.5935  1.1005
 4585SOL    HW224975   8.078   7.733   2.277  0.9235 -0.6793 -0.5718
 4586SOL     OW24976   7.386   0.857   2.708  0.0608  0.1609  0.1762
 4586SOL    HW124977   7.431   0.943   2.685  1.3930 -0.5319  0.1390
 4586SOL    HW224978   7.387   0.797   2.629  1.0999 -0.7154  0.8352
 4587SOL     OW24979   5.149   9.329   5.259 -0.3488 -0.4626  0.0322
 4587SOL    HW124980   5.144   9.349   5.161  0.4403  2.0331  0.4599
 4587SOL    HW224981   5.058   9.336   5.299 -0.6309 -1.2203 -0.4736
 4588SOL     OW24982   4.279   6.528   2.218  0.0792 -0.0474 -0.0494
 4588SOL    HW124983   4.183   6.501   2.209 -0.0932  1.1034 -1.9044
 4588SOL    HW224984   4.284   6.615   2.266  0.0682  0.7629 -1.5030
 4589SOL     OW24985   1.484   3.035   1.273 -0.2811  0.2255  0.0352
 4589SOL    HW124986   1.412   3.015   1.207  0.1150 -3.1050  0.5143
 4589SOL    HW224987   1.573   3.036   1.227 -0.2015 -0.0926  0.1812
 4590SOL     OW24988   8.272   4.402   6.423  0.1902  0.5074  0.2028
 4590SOL    HW124989   8.244   4.491   6.386  0.7886  0.6344  0.0596
 4590SOL    HW224990   8.245   4.329   6.359  0.2810  0.6361  0.0197
 4591SOL     OW24991   3.679   8.860   4.746 -0.2761  0.6338 -0.0704
 4591SOL    HW124992   3.591   8.889   4.708 -1.0116 -0.0216  1.0822
 4591SOL    HW224993   3.720   8.792   4.686 -1.6912 -0.8114  0.5410
 4592SOL     OW24994   1.439   1.380   5.157 -0.8353 -0.1499 -0.1908
 4592SOL    HW124995   1.494   1.433   5.222  2.4343  0.5130 -3.3862
 4592SOL    HW224996   1.374   1.441   5.112  0.5701  0.5002 -1.3728
 4593SOL     OW24997   3.860   9.542   5.873 -0.0343  0.8699  0.3436
 4593SOL    HW124998   3.828   9.449   5.892  1.9818  0.7137  3.2615
 4593SOL    HW224999   3.781   9.602   5.859 -1.3791 -1.0098 -0.3063
 4594SOL     OW25000   4.251   8.941   5.709  0.2970  0.6612  0.0240
 4594SOL    HW125001   4.345   8.931   5.743 -0.2042 -1.4115  0.8824
 4594SOL    HW225002   4.194   8.870   5.748 -1.2945  0.9068 -1.7709
 4595SOL     OW25003   4.653   7.073   2.904  0.3341  0.1516 -0.0317
 4595SOL    HW125004   4.621   6.997   2.961  1.2553 -0.7478 -0.6896
 4595SOL    HW225005   4.748   7.056   2.877 -0.2895  0.2588 -2.3492
 4596SOL     OW25006   8.505   8.635   0.306 -0.2117  0.7503  0.2273
 4596SOL    HW125007   8.570   8.682   0.245 -0.6865  2.5191  1.0366
 4596SOL    HW225008   8.427   8.603   0.253  0.8543 -0.5305 -0.5988
 4597SOL     OW25009   6.131   9.356   3.932 -0.2168 -0.1261  0.3125
 4597SOL    HW125010   6.042   9.352   3.978 -0.6911  1.0683 -0.4867
 4597SOL    HW225011   6.128   9.299   3.850 -0.9854  1.6333 -0.9242
 4598SOL     OW25012   6.869   1.786   6.172  0.4295 -0.4119  0.0422
 4598SOL    HW125013   6.871   1.816   6.077 -0.0292  2.1385  0.8005
 4598SOL    HW225014   6.775   1.761   6.197  0.6717 -1.7822 -0.3516
 4599SOL     OW25015   0.309   0.553   6.483 -0.3257  0.0926  0.3381
 4599SOL    HW125016   0.403   0.524   6.460  0.2734  0.9907  1.6037
 4599SOL    HW225017   0.277   0.619   6.415  0.0849  0.0287  0.0796
 4600SOL     OW25018   0.688   0.695   6.536  0.3482 -0.0607  0.2041
 4600SOL    HW125019   0.644   0.651   6.614  0.6784  0.8718  0.9273
 4600SOL    HW225020   0.772   0.740   6.566 -0.6155  2.1388 -0.2590
 4601SOL     OW25021   4.559   2.351   5.597  0.3335 -0.0977 -1.2093
 4601SOL    HW125022   4.514   2.383   5.681  0.0681  0.5529 -1.5873
 4601SOL    HW225023   4.628   2.283   5.619  0.2710  0.0782 -0.4597
 4602SOL     OW25024   0.552   5.767   4.318  0.0489  0.1760 -0.3273
 4602SOL    HW125025   0.506   5.700   4.377 -1.6935  1.6718  0.0524
 4602SOL    HW225026   0.552   5.856   4.362 -0.8803  1.2170 -2.3688
 4603SOL     OW25027   8.340   8.578   0.112 -0.6585 -0.2605  0.2739
 4603SOL    HW125028   8.347   8.479   0.101  0.6455 -0.2409  0.8585
 4603SOL    HW225029   8.335   8.621   0.022  0.1366 -0.7701 -0.0201
 4604SOL     OW25030   0.267   9.333   0.435  0.2404  0.1497 -0.4933
 4604SOL    HW125031   0.343   9.289   0.387 -0.1414  0.2053 -1.1624
 4604SOL    HW225032   0.265   9.430   0.413  1.5255  0.6799  1.5609
 4605SOL     OW25033   0.238   2.317   2.608  0.0205  0.5636 -0.0256
 4605SOL    HW125034   0.143   2.306   2.637 -0.0580  0.1619 -0.4331
 4605SOL    HW225035   0.242   2.322   2.508  0.4917 -0.0610 -0.0402
 4606SOL     OW25036   4.520   8.891   5.733 -0.0939  0.6950  0.1955
 4606SOL    HW125037   4.516   8.826   5.657 -1.1665  3.4924 -2.2459
 4606SOL    HW225038   4.597   8.953   5.720 -0.6815  1.6138  1.0129
 4607SOL     OW25039   7.596   1.173   4.055 -0.0330 -0.3700  0.3864
 4607SOL    HW125040   7.537   1.190   4.134  0.7609  1.6230  0.5702
 4607SOL    HW225041   7.691   1.165   4.085  0.2538  0.2444 -0.3459
 4608SOL     OW25042   6.236   9.818   2.690 -0.0466 -0.3901  0.4799
 4608SOL    HW125043   6.263   9.820   2.594 -0.1883 -2.2623  0.3828
 4608SOL    HW225044   6.178   9.897   2.710  0.3470  0.2449 -0.8593
 4609SOL     OW25045   9.436   7.158   0.584  0.5110 -0.2216  0.1409
 4609SOL    HW125046   9.496   7.078   0.576 -0.8590 -1.3120  0.6638
 4609SOL    HW225047   9.463   7.227   0.516  1.5185 -1.2412 -0.5107
 4610SOL     OW25048   3.009   8.217   2.452  0.3220  0.1168  0.0697
 4610SOL    HW125049   2.939   8.276   2.412 -1.7874 -1.9736  0.5667
 4610SOL    HW225050   3.100   8.250   2.425 -0.8175  2.9193 -0.5238
 4611SOL     OW25051   7.588   0.878   6.029 -0.1317 -0.4339 -0.1757
 4611SOL    HW125052   7.649   0.945   5.986  1.5545 -0.6237  1.8437
 4611SOL    HW225053   7.537   0.829   5.958  0.8273  0.8935 -1.8186
 4612SOL     OW25054   1.283   8.220   0.972 -0.0369 -0.5395  0.3012
 4612SOL    HW125055   1.237   8.171   0.897  0.0035 -2.1254  1.2811
 4612SOL    HW225056   1.376   8.242   0.945 -0.0257 -1.0943 -0.1245
 4613SOL     OW25057   3.220   5.521   4.993  0.5555 -0.3949  0.0735
 4613SOL    HW125058   3.157   5.444   5.008 -0.0045  0.0198 -0.1184
 4613SOL    HW225059   3.230   5.537   4.895  2.8258 -1.9666  0.0156
 4614SOL     OW25060   3.680   4.681   1.517 -0.1340 -0.0396  0.2613
 4614SOL    HW125061   3.708   4.776   1.511 -1.2813  0.4468  2.2259
 4614SOL    HW225062   3.584   4.673   1.490 -0.9922 -0.0980  3.1593
 4615SOL     OW25063   1.518   6.174   1.700  0.3734  0.5222  0.1134
 4615SOL    HW125064   1.531   6.151   1.796 -1.7084  1.0788  0.5607
 4615SOL    HW225065   1.504   6.273   1.691 -2.1414  0.1507 -0.4128
 4616SOL     OW25066   8.811   0.606   3.159  0.0084 -0.5347 -0.2062
 4616SOL    HW125067   8.867   0.672   3.209  0.9231 -0.3952 -1.4120
 4616SOL    HW225068   8.834   0.514   3.188  0.2671 -0.4334 -0.0917
 4617SOL     OW25069   4.142   2.874   3.969 -0.1001 -0.2442  0.0348
 4617SOL    HW125070   4.078   2.898   4.041 -0.7973 -0.0098 -0.6627
 4617SOL    HW225071   4.131   2.777   3.946  0.6410 -0.5090  0.7559
 4618SOL     OW25072   2.441   9.770   1.857  0.3074 -0.4124 -0.0834
 4618SOL    HW125073   2.467   9.677   1.834  0.5759  0.2743 -2.7539
 4618SOL    HW225074   2.398   9.814   1.778  1.7013  2.2564  0.5606
 4619SOL     OW25075   9.728   5.961   0.228  0.0160 -0.1767  0.2955
 4619SOL    HW125076   9.682   5.879   0.194  0.1371 -0.4410  0.7724
 4619SOL    HW225077   9.681   6.042   0.192 -0.9566 -0.4409  0.9472
 4620SOL     OW25078   4.162   1.754   6.283  0.1995 -0.3745  0.2151
 4620SOL    HW125079   4.125   1.785   6.196  0.4187 -0.2694  0.1579
 4620SOL    HW225080   4.149   1.826   6.352 -3.2100 -1.8328  1.1780
 4621SOL     OW25081   3.180   3.324   1.513  0.2317 -0.3974 -0.4899
 4621SOL    HW125082   3.103   3.273   1.475 -0.9116  2.1895 -1.8141
 4621SOL    HW225083   3.236   3.360   1.438  0.9302  0.3952  0.3994
 4622SOL     OW25084   9.588   7.577   5.874  0.4839 -0.1703 -0.4983
 4622SOL    HW125085   9.676   7.623   5.873  0.3743  0.1484  2.1525
 4622SOL    HW225086   9.515   7.644   5.883  0.1338 -0.6317  0.1447
 4623SOL     OW25087   4.232   8.431   2.956 -1.2574  0.0008 -0.1548
 4623SOL    HW125088   4.153   8.468   2.906 -1.8877  0.8477  1.4313
 4623SOL    HW225089   4.281   8.506   3.001  0.1095 -0.5963 -0.6237
 4624SOL     OW25090   2.725   7.806   0.154  0.2285  0.0143  0.2889
 4624SOL    HW125091   2.674   7.811   0.068  1.0779 -1.3693 -0.3216
 4624SOL    HW225092   2.798   7.875   0.154  1.1810 -0.9666 -0.7674
 4625SOL     OW25093   5.960   9.407   4.939 -0.0340  0.2671  0.6088
 4625SOL    HW125094   6.005   9.344   5.003  0.3783 -1.3694 -1.2316
 4625SOL    HW225095   5.868   9.373   4.919 -0.2916  0.9662  0.6091
 4626SOL     OW25096   7.670   5.227   6.537  0.1125 -0.3691 -0.4935
 4626SOL    HW125097   7.716   5.292   6.597 -0.7042  2.2975 -2.6281
 4626SOL    HW225098   7.596   5.183   6.587 -0.2609  1.4634  0.6400
 4627SOL     OW25099   2.198   2.974   1.753 -0.4818 -0.1541  0.2513
 4627SOL    HW125100   2.242   2.885   1.763 -0.0348 -0.0384 -0.6238
 4627SOL    HW225101   2.147   2.996   1.836 -1.0087 -1.4464  0.2654
 4628SOL     OW25102   1.451   2.566   2.121  0.8038  0.3718 -0.1569
 4628SOL    HW125103   1.387   2.516   2.061 -0.4202  3.0903 -1.2265
 4628SOL    HW225104   1.534   2.587   2.070  1.2397 -0.3883  0.2337
 4629SOL     OW25105   3.630   3.625   6.005  0.0460 -0.6458  0.2919
 4629SOL    HW125106   3.709   3.606   6.063  0.0566 -3.0743 -0.4744
 4629SOL    HW225107   3.550   3.577   6.041 -0.6273  0.1951 -0.0664
 4630SOL     OW25108   3.912   9.762   2.296  0.6758  0.3056 -0.0927
 4630SOL    HW125109   3.863   9.724   2.218  1.9931  0.3599 -0.9467
 4630SOL    HW225110   3.929   9.859   2.280 -0.6279  0.7508  1.0645
 4631SOL     OW25111   0.294   3.248   2.725 -0.4597  0.2352  0.3341
 4631SOL    HW125112   0.274   3.197   2.809 -0.6626 -2.7140 -1.4316
 4631SOL    HW225113   0.371   3.204   2.678 -1.5945  0.7132 -1.9938
 4632SOL     OW25114   3.383   4.240   2.957 -0.3852 -0.5101 -0.1809
 4632SOL    HW125115   3.461   4.302   2.947  0.9385 -1.5239  3.1694
 4632SOL    HW225116   3.347   4.216   2.866  2.1569  1.2600 -1.7071
 4633SOL     OW25117   0.732   0.067   4.779 -0.1006 -0.3607 -0.1989
 4633SOL    HW125118   0.753   0.013   4.698  1.0446  0.7694 -0.6656
 4633SOL    HW225119   0.738   0.164   4.758 -1.3538 -0.0388  0.8410
 4634SOL     OW25120   7.566   5.253   5.622 -0.3801 -0.6234  0.0269
 4634SOL    HW125121   7.642   5.309   5.654 -2.0254  2.3394 -1.0629
 4634SOL    HW225122   7.571   5.243   5.523 -0.0881 -2.4845  0.2063
 4635SOL     OW25123   9.761   8.947   3.424  0.4778  0.4899 -0.1528
 4635SOL    HW125124   9.759   8.926   3.522  0.1129  1.5988  0.0928
 4635SOL    HW225125   9.829   8.890   3.379  1.4647  0.7626  0.9578
 4636SOL     OW25126   2.237   7.694   0.914  0.0691  0.2185  1.2173
 4636SOL    HW125127   2.296   7.767   0.948 -0.0381  0.6842  0.4264
 4636SOL    HW225128   2.155   7.688   0.971 -0.2406  1.1739  0.8860
 4637SOL     OW25129   1.931   8.043   5.052  0.1827  0.2778 -0.1520
 4637SOL    HW125130   1.994   8.005   5.120  0.3487  0.4768 -0.1948
 4637SOL    HW225131   1.980   8.108   4.993 -0.0505  0.3986 -0.2142
 4638SOL     OW25132   3.312   9.294   4.945  0.4350  0.4070 -0.1734
 4638SOL    HW125133   3.373   9.217   4.965  0.3824  0.7600  1.3441
 4638SOL    HW225134   3.345   9.341   4.862  1.8648  0.2194  0.2753
 4639SOL     OW25135   6.876   1.774   4.936  0.7216 -0.2135 -0.2340
 4639SOL    HW125136   6.880   1.870   4.907 -0.0948 -0.0194  0.2760
 4639SOL    HW225137   6.914   1.765   5.028  0.6420 -0.3518 -0.2141
 4640SOL     OW25138   7.829   4.295   1.774  0.0022  0.4393  0.1016
 4640SOL    HW125139   7.822   4.245   1.861  0.1719 -0.9189 -0.6410
 4640SOL    HW225140   7.785   4.384   1.783 -0.7573 -0.0419  1.3214
 4641SOL     OW25141   9.814   2.522   6.418 -0.1170  0.6115  0.2482
 4641SOL    HW125142   9.754   2.540   6.340  0.4553 -1.3543 -0.6582
 4641SOL    HW225143   9.873   2.444   6.398  2.4140  2.1909  1.3338
 4642SOL     OW25144   8.718   1.272   6.283 -0.6293 -0.2784 -0.3499
 4642SOL    HW125145   8.718   1.214   6.365  1.8604  0.1256 -0.0001
 4642SOL    HW225146   8.644   1.339   6.290  0.1120  0.3737  2.0813
 4643SOL     OW25147   5.534   7.791   3.884 -0.5141  0.0884 -0.0252
 4643SOL    HW125148   5.493   7.882   3.881 -2.1498 -0.6362 -0.1769
 4643SOL    HW225149   5.631   7.797   3.860 -1.0724  1.5163 -2.0532
 4644SOL     OW25150   4.512   0.640   1.735 -0.1995 -0.3641 -0.2315
 4644SOL    HW125151   4.593   0.671   1.783 -0.5914  0.0096  0.1967
 4644SOL    HW225152   4.533   0.557   1.683  0.5396 -0.0529 -0.4157
 4645SOL     OW25153   2.084   5.683   5.534  0.1597 -0.4972  0.3700
 4645SOL    HW125154   2.151   5.711   5.465 -0.3679  2.2746  0.9428
 4645SOL    HW225155   2.118   5.705   5.625 -0.7070 -0.8509  0.7886
 4646SOL     OW25156   7.343   3.126   4.148 -0.3083 -0.0419  0.4949
 4646SOL    HW125157   7.386   3.179   4.075  1.2601 -3.0286 -0.8509
 4646SOL    HW225158   7.368   3.164   4.237  3.8549 -0.7085 -0.3142
 4647SOL     OW25159   9.892   1.380   5.760 -0.6018  0.1549  0.9736
 4647SOL    HW125160   9.916   1.477   5.760 -0.1795  0.0528  1.3654
 4647SOL    HW225161   9.934   1.335   5.681 -0.2981  0.1705  1.1263
 4648SOL     OW25162   2.517   7.126   4.603  0.2151  0.0156  0.0667
 4648SOL    HW125163   2.535   7.059   4.675 -2.2648  1.0459  1.7015
 4648SOL    HW225164   2.420   7.150   4.603  0.8859  2.8955 -1.1442
 4649SOL     OW25165   1.482   3.890   3.995  0.0550  0.3188 -0.0057
 4649SOL    HW125166   1.438   3.912   3.907 -0.5658  1.1101  0.4944
 4649SOL    HW225167   1.557   3.825   3.979 -1.9751 -1.8964 -0.7265
 4650SOL     OW25168   0.018   7.953   5.902  0.0474 -0.6096 -0.2384
 4650SOL    HW125169   0.089   7.986   5.840  0.1706  1.2784  0.8785
 4650SOL    HW225170   0.056   7.882   5.961  0.4053 -1.1417 -1.0927
 4651SOL     OW25171   8.748   7.941   2.425 -1.0499  0.5490 -0.1897
 4651SOL    HW125172   8.664   7.887   2.429 -1.4330  1.0783 -1.0785
 4651SOL    HW225173   8.827   7.879   2.426 -1.4991 -0.0398 -1.4879
 4652SOL     OW25174   7.235   2.220   0.689 -0.0395  0.1446  0.4056
 4652SOL    HW125175   7.295   2.148   0.652 -0.2247  0.8640 -1.3412
 4652SOL    HW225176   7.255   2.232   0.787  0.0585 -2.1945  0.7164
 4653SOL     OW25177   1.380   5.256   5.830  0.3001 -0.0489  0.4382
 4653SOL    HW125178   1.432   5.304   5.759  0.3461  0.2280  0.6580
 4653SOL    HW225179   1.379   5.311   5.913 -0.3531 -0.0448  0.4355
 4654SOL     OW25180   7.712   2.356   3.226  0.3806 -0.0161 -0.3203
 4654SOL    HW125181   7.740   2.331   3.319 -1.4601  0.5143  0.3927
 4654SOL    HW225182   7.772   2.310   3.160  0.8511 -1.4978  1.1013
 4655SOL     OW25183   0.678   4.313   0.848  0.1665 -0.3824 -0.5451
 4655SOL    HW125184   0.640   4.303   0.940  0.5061 -1.4291 -0.5202
 4655SOL    HW225185   0.624   4.381   0.798 -0.5630 -0.4497  0.1282
 4656SOL     OW25186   9.567   5.879   5.403 -0.5469 -0.2738  0.0941
 4656SOL    HW125187   9.658   5.837   5.409 -1.0680 -2.0845 -3.3344
 4656SOL    HW225188   9.564   5.942   5.325 -2.3371 -0.5559 -0.0928
 4657SOL     OW25189   9.115   9.921   3.813 -0.1047  0.7644  0.6052
 4657SOL    HW125190   9.158   9.858   3.878  1.6511  0.5614 -0.7261
 4657SOL    HW225191   9.173  10.001   3.800 -0.4435  0.8180 -0.6869
 4658SOL     OW25192   9.058   3.148   5.106  0.4384  0.0521 -0.0144
 4658SOL    HW125193   9.015   3.086   5.040 -0.6431  0.0706  0.6565
 4658SOL    HW225194   9.064   3.240   5.066 -2.0718  0.5364  0.6299
 4659SOL     OW25195   2.716   2.834   6.145  0.2524 -0.2141 -0.6594
 4659SOL    HW125196   2.743   2.753   6.093  0.1607  0.4362 -1.7317
 4659SOL    HW225197   2.659   2.893   6.088 -2.2582 -0.8778  1.0976
 4660SOL     OW25198   2.685   6.391   1.682  0.2977 -0.0149 -0.5139
 4660SOL    HW125199   2.757   6.335   1.724 -1.9807 -2.8167 -0.1784
 4660SOL    HW225200   2.667   6.358   1.589 -1.2096  0.0386 -0.2501
 4661SOL     OW25201   2.117   9.755   5.021 -0.2543  0.2177 -0.2457
 4661SOL    HW125202   2.054   9.689   5.061 -0.0936  0.1474 -0.1077
 4661SOL    HW225203   2.197   9.707   4.985  0.6778  0.5039  1.4183
 4662SOL     OW25204   1.591   8.522   5.408  0.3119  0.4224 -1.0967
 4662SOL    HW125205   1.665   8.488   5.466  0.5746  0.9496 -1.1201
 4662SOL    HW225206   1.614   8.613   5.375 -1.3152  1.5059  0.6592
 4663SOL     OW25207   1.769   6.091   5.957 -0.3123  0.0731 -0.2707
 4663SOL    HW125208   1.721   6.166   5.910 -1.6109  0.1356  1.1356
 4663SOL    HW225209   1.705   6.044   6.018  0.7686 -1.5186 -0.3469
 4664SOL     OW25210   6.524   0.124   1.496 -0.3887  0.0901 -0.1463
 4664SOL    HW125211   6.547   0.211   1.541 -0.4161  0.2352 -0.4147
 4664SOL    HW225212   6.574   0.117   1.410 -1.5798  0.5383 -0.8759
 4665SOL     OW25213   3.574   5.543   5.188 -0.0131  0.3071 -0.2320
 4665SOL    HW125214   3.530   5.613   5.132  2.0849  1.3490 -0.6514
 4665SOL    HW225215   3.583   5.576   5.282  0.3467  0.3371 -0.2741
 4666SOL     OW25216   0.803   0.953   4.661 -0.0321 -0.4033 -0.8587
 4666SOL    HW125217   0.862   0.943   4.581 -2.0835 -4.1311 -2.0623
 4666SOL    HW225218   0.829   0.885   4.730 -1.0231 -0.1264 -0.2000
 4667SOL     OW25219   1.464   4.800   4.373 -0.5410 -0.2600 -0.4205
 4667SOL    HW125220   1.552   4.787   4.417 -0.5200 -1.1834 -0.7082
 4667SOL    HW225221   1.470   4.876   4.308 -0.1918  0.2106  0.1610
 4668SOL     OW25222   3.814   5.373   0.719 -0.7809  0.4229  0.4694
 4668SOL    HW125223   3.798   5.309   0.794 -2.8486  0.5282  0.1367
 4668SOL    HW225224   3.739   5.439   0.715  0.8617  2.3308  0.2347
 4669SOL     OW25225   9.485   9.543   2.652  0.3570 -0.6903 -0.2170
 4669SOL    HW125226   9.526   9.537   2.743  1.2275  2.3545 -0.3733
 4669SOL    HW225227   9.438   9.457   2.631  0.9849 -1.7856  2.6834
 4670SOL     OW25228   8.975   6.490   3.660 -0.2464 -0.6663 -0.1297
 4670SOL    HW125229   8.883   6.494   3.701 -0.2530  0.9705 -0.2488
 4670SOL    HW225230   9.037   6.443   3.722 -0.4915  0.8875  1.3421
 4671SOL     OW25231   2.433   8.564   1.728 -0.0599  0.1297  0.2035
 4671SOL    HW125232   2.447   8.466   1.715 -0.8049 -0.1757  1.6546
 4671SOL    HW225233   2.504   8.615   1.679  1.0819 -1.1651  0.4933
 4672SOL     OW25234   8.620   9.921   2.564 -0.4674 -0.0817  0.1370
 4672SOL    HW125235   8.602   9.822   2.569  0.3207 -0.2258  0.1788
 4672SOL    HW225236   8.707   9.941   2.609 -1.1913  0.7931  1.1792
 4673SOL     OW25237   4.962   2.128   5.013  0.0941  0.2226 -0.3594
 4673SOL    HW125238   4.948   2.034   5.044 -0.2014  0.8704  1.5746
 4673SOL    HW225239   4.918   2.141   4.924 -2.7214 -0.6151  0.8365
 4674SOL     OW25240   9.755   8.537   1.820 -0.4675  0.1597 -0.1823
 4674SOL    HW125241   9.838   8.491   1.850  0.0937  0.7607 -0.8217
 4674SOL    HW225242   9.741   8.523   1.722  1.0117  3.3407 -0.9033
 4675SOL     OW25243   3.607   6.306   1.283  1.0922 -0.0423 -0.6609
 4675SOL    HW125244   3.636   6.320   1.189  0.7761 -0.9790 -0.8984
 4675SOL    HW225245   3.680   6.335   1.345  0.6906  2.0883 -1.1483
 4676SOL     OW25246   8.280   1.620   4.402  0.0423 -0.1138 -0.5841
 4676SOL    HW125247   8.234   1.693   4.351 -0.5494  0.5627  0.9064
 4676SOL    HW225248   8.218   1.543   4.414 -0.2086  0.2041  0.1472
 4677SOL     OW25249   6.494   0.410   5.532  0.1562 -0.4346  0.0093
 4677SOL    HW125250   6.442   0.325   5.536  0.7866 -0.9882 -2.4553
 4677SOL    HW225251   6.591   0.390   5.545  0.1078  0.1681  1.3349
 4678SOL     OW25252   9.583   8.248   4.524 -0.3724  0.4735 -0.4678
 4678SOL    HW125253   9.549   8.247   4.618  0.5068  0.9042 -0.1371
 4678SOL    HW225254   9.629   8.336   4.507  0.7984 -0.1988 -0.8152
 4679SOL     OW25255   2.618   8.225   3.076  0.2883  0.5650  0.4631
 4679SOL    HW125256   2.583   8.318   3.068  1.2619  1.1263  2.4094
 4679SOL    HW225257   2.578   8.168   3.004 -0.9092  2.2906 -0.2752
 4680SOL     OW25258   5.278   5.564   2.033  0.4706  0.1854 -0.5445
 4680SOL    HW125259   5.281   5.474   1.988  1.0881 -0.4397  0.6999
 4680SOL    HW225260   5.217   5.559   2.113 -0.9814  1.4050 -1.5566
 4681SOL     OW25261   3.763   2.591   1.169 -0.2120  0.1232 -0.0259
 4681SOL    HW125262   3.747   2.542   1.084 -2.3971 -0.3950  0.6368
 4681SOL    HW225263   3.724   2.683   1.163 -1.7160 -0.4266  0.8930
 4682SOL     OW25264   1.496   6.285   0.141 -1.0164 -0.3289 -0.2241
 4682SOL    HW125265   1.402   6.314   0.122 -0.3744  2.5179  0.6719
 4682SOL    HW225266   1.500   6.246   0.233 -1.5167 -1.4745 -0.6797
 4683SOL     OW25267   0.661   3.218   5.669 -0.4925 -0.2632  0.4886
 4683SOL    HW125268   0.738   3.187   5.725 -0.8756 -0.3605  0.9670
 4683SOL    HW225269   0.666   3.175   5.579  1.7676  2.0961 -0.6122
 4684SOL     OW25270   4.170   3.256   6.177  0.0221  0.6997  0.2782
 4684SOL    HW125271   4.159   3.163   6.142 -1.0568  0.5926  0.9044
 4684SOL    HW225272   4.183   3.319   6.100 -1.9264  0.4022 -0.3187
 4685SOL     OW25273   7.308   8.216   3.351 -0.3086  0.2905  0.0036
 4685SOL    HW125274   7.321   8.184   3.445 -1.0943 -2.5676 -0.8070
 4685SOL    HW225275   7.358   8.156   3.289 -4.2457 -1.2807 -1.8338
 4686SOL     OW25276   3.479   0.805   6.033  0.4100 -0.4858 -0.3259
 4686SOL    HW125277   3.516   0.769   6.118 -1.0096 -0.7263  0.2027
 4686SOL    HW225278   3.426   0.734   5.986 -3.0201  1.0200  1.0679
 4687SOL     OW25279   2.370   4.083   3.099 -0.1208 -0.1020 -0.2183
 4687SOL    HW125280   2.432   4.112   3.171 -0.3189 -0.1672 -0.0228
 4687SOL    HW225281   2.277   4.076   3.135 -0.0100 -1.3697 -0.1660
 4688SOL     OW25282   9.096   1.317   1.660 -0.3275  0.4804  0.0027
 4688SOL    HW125283   9.129   1.225   1.638 -0.4143  0.8643 -1.8393
 4688SOL    HW225284   9.002   1.312   1.693 -0.1129 -0.1421  0.5331
 4689SOL     OW25285   4.296   5.157   2.801  0.2809  0.1589  0.1840
 4689SOL    HW125286   4.336   5.097   2.871 -0.6374 -2.0423 -1.1120
 4689SOL    HW225287   4.359   5.162   2.723  0.1736  0.5460  0.1251
 4690SOL     OW25288   2.678   9.442   2.508  0.1951 -0.2421  0.1488
 4690SOL    HW125289   2.618   9.460   2.586  1.2834 -0.1828  0.9921
 4690SOL    HW225290   2.773   9.445   2.539  0.5994 -1.2026 -0.9944
 4691SOL     OW25291   2.225   2.877   0.349  0.5783 -0.2615 -0.0656
 4691SOL    HW125292   2.263   2.929   0.273  0.9764 -0.4077  0.0337
 4691SOL    HW225293   2.166   2.936   0.403  2.0611  0.4431  0.8064
 4692SOL     OW25294   0.679   0.446   6.392 -0.0668  0.2700  0.0467
 4692SOL    HW125295   0.700   0.358   6.435 -1.5481 -0.7497 -1.2444
 4692SOL    HW225296   0.711   0.521   6.450  3.1328 -1.1421  0.1761
 4693SOL     OW25297   9.802   9.700   3.096  0.4025  0.3697 -0.4049
 4693SOL    HW125298   9.841   9.614   3.128  0.0550  0.3092 -0.1417
 4693SOL    HW225299   9.788   9.761   3.173 -2.3571 -0.5484 -0.1094
 4694SOL     OW25300   3.515   6.303   0.476  0.6007  0.0622  0.3167
 4694SOL    HW125301   3.482   6.256   0.394  1.1408 -1.3146  0.8730
 4694SOL    HW225302   3.598   6.354   0.454 -0.6440  1.7683 -0.5710
 4695SOL     OW25303   9.965   5.778   1.067  0.5056 -0.0533  0.9358
 4695SOL    HW125304  10.004   5.733   0.986 -0.1998 -0.1226  0.6343
 4695SOL    HW225305   9.871   5.804   1.048  0.7365  1.0524  1.3107
 4696SOL     OW25306   2.727   6.291   5.592 -0.4478 -0.2564  0.1229
 4696SOL    HW125307   2.786   6.299   5.511 -1.5116 -0.1545 -0.6484
 4696SOL    HW225308   2.731   6.197   5.627  0.2793 -0.2138  0.1622
 4697SOL     OW25309   1.326   3.331   5.201 -0.2115 -0.0777  0.1972
 4697SOL    HW125310   1.346   3.322   5.103 -0.4997 -0.0284  0.1324
 4697SOL    HW225311   1.242   3.281   5.222  0.0054 -0.3272  0.4754
 4698SOL     OW25312   8.428   5.558   1.438  0.1247  0.6096  0.0400
 4698SOL    HW125313   8.522   5.531   1.458  0.4775  1.5146 -0.4107
 4698SOL    HW225314   8.379   5.480   1.399 -0.0130 -0.6041  2.5084
 4699SOL     OW25315   9.034   5.420   1.489 -0.0571 -0.2748  0.4111
 4699SOL    HW125316   8.944   5.377   1.501  1.4441 -3.3690  1.1698
 4699SOL    HW225317   9.063   5.462   1.574  0.2892 -1.5090  0.9189
 4700SOL     OW25318   5.903   9.501   3.389  0.0552  0.4978  0.1621
 4700SOL    HW125319   5.822   9.558   3.378 -0.2120  0.4414  1.7467
 4700SOL    HW225320   5.877   9.405   3.374 -0.1322  0.5011  0.4489
 4701SOL     OW25321   8.510   5.419   0.993 -0.0358 -0.2546 -0.4397
 4701SOL    HW125322   8.487   5.457   0.903 -0.0755 -1.0971 -0.7883
 4701SOL    HW225323   8.571   5.341   0.981  1.7719  1.0097  0.4039
 4702SOL     OW25324   1.403   4.366   0.359 -0.2439  0.0237  0.3505
 4702SOL    HW125325   1.309   4.332   0.351 -0.1176 -0.3374  0.3759
 4702SOL    HW225326   1.467   4.290   0.346  0.0225 -0.2612  3.0464
 4703SOL     OW25327   1.662   4.302   1.518  0.0888 -0.1873 -0.4093
 4703SOL    HW125328   1.649   4.375   1.451  1.9174  0.8755  0.3596
 4703SOL    HW225329   1.577   4.288   1.569 -0.1214  1.8277 -0.1639
 4704SOL     OW25330   2.385   3.975   0.366 -0.4583  0.1606  0.2525
 4704SOL    HW125331   2.340   3.886   0.357 -0.4370  0.0072  1.4929
 4704SOL    HW225332   2.481   3.962   0.391 -0.1483  0.5131 -0.7520
 4705SOL     OW25333   3.481   8.710   0.199 -0.3598  0.2306 -0.8604
 4705SOL    HW125334   3.406   8.675   0.255  1.6417 -1.8975  0.6208
 4705SOL    HW225335   3.500   8.646   0.124 -0.0829  0.8001 -1.2798
 4706SOL     OW25336   8.732   4.784   1.586  0.0750 -0.0787 -0.2093
 4706SOL    HW125337   8.714   4.834   1.502 -0.9211 -0.3172 -0.1416
 4706SOL    HW225338   8.649   4.736   1.615  0.5771 -0.4786  0.5829
 4707SOL     OW25339   6.063   0.823   4.213  0.2126  0.1786  0.6620
 4707SOL    HW125340   5.999   0.898   4.227 -2.0622 -1.4110 -0.6988
 4707SOL    HW225341   6.012   0.736   4.213  2.6298 -1.2871  1.2501
 4708SOL     OW25342   0.818   7.379   2.121  0.0550  0.0952  0.6130
 4708SOL    HW125343   0.913   7.354   2.101 -0.2917 -0.4154 -0.3869
 4708SOL    HW225344   0.796   7.352   2.215  0.3611 -1.3659  0.2755
 4709SOL     OW25345   1.144   2.220   0.351  0.0500  0.0818  0.6919
 4709SOL    HW125346   1.198   2.278   0.413  0.6452  0.2074  0.0650
 4709SOL    HW225347   1.120   2.273   0.269 -0.4835 -0.1752  0.6797
 4710SOL     OW25348   0.375   1.312   5.172  0.6253  0.2317 -0.6288
 4710SOL    HW125349   0.381   1.213   5.162 -2.0985 -0.1085  0.7581
 4710SOL    HW225350   0.322   1.350   5.095  0.1472  0.3900 -0.2256
 4711SOL     OW25351   0.993   0.113   4.382 -0.2627  0.3238  0.2220
 4711SOL    HW125352   0.956   0.198   4.418  0.9295  0.8317  0.2730
 4711SOL    HW225353   1.042   0.131   4.297  1.1521 -0.0737  0.9255
 4712SOL     OW25354   2.762   7.672   6.359 -0.0330 -0.0258 -0.2879
 4712SOL    HW125355   2.814   7.751   6.328 -1.7892  1.2298 -0.0778
 4712SOL    HW225356   2.666   7.683   6.336 -1.0027 -0.1377  3.4482
 4713SOL     OW25357   1.711   7.376   1.847  0.4423  0.2430 -0.1922
 4713SOL    HW125358   1.719   7.434   1.928  0.4017  0.1638 -0.1316
 4713SOL    HW225359   1.686   7.284   1.874  1.0991  0.0446 -0.2381
 4714SOL     OW25360   0.335   0.391   3.602  0.6966  0.2455  0.1072
 4714SOL    HW125361   0.288   0.316   3.649  0.5995 -0.0030 -0.3859
 4714SOL    HW225362   0.300   0.400   3.509  1.4368  0.2306 -0.1791
 4715SOL     OW25363   3.377   6.177   1.310 -0.0828 -0.0139 -0.2056
 4715SOL    HW125364   3.324   6.180   1.225 -0.4228  2.4659  0.0465
 4715SOL    HW225365   3.457   6.236   1.301  0.2616 -0.3072  0.9500
 4716SOL     OW25366   4.742   1.099   6.191 -0.1430  0.4037 -0.1257
 4716SOL    HW125367   4.767   1.090   6.094 -0.3293 -0.4150 -0.0967
 4716SOL    HW225368   4.650   1.139   6.198 -0.2312  0.2297 -0.2892
 4717SOL     OW25369   6.673   8.388   1.916  0.3854 -0.1600 -0.4594
 4717SOL    HW125370   6.737   8.322   1.878 -0.5024 -1.4747  0.2925
 4717SOL    HW225371   6.718   8.441   1.988  0.4372 -1.5416  0.5311
 4718SOL     OW25372   9.991   8.782   0.843 -0.8326  0.5104 -0.2848
 4718SOL    HW125373   9.955   8.752   0.932 -1.3182  0.0752 -0.6286
 4718SOL    HW225374  10.028   8.875   0.853 -1.0929  0.5554  0.3221
 4719SOL     OW25375   0.478   4.717   4.394 -0.8633 -0.5791 -0.2428
 4719SOL    HW125376   0.552   4.651   4.401 -1.3849 -0.8671  4.3191
 4719SOL    HW225377   0.391   4.669   4.382 -0.7157 -0.4321 -1.9556
 4720SOL     OW25378   7.068   0.925   1.925  0.4532 -0.1275  0.0507
 4720SOL    HW125379   6.989   0.958   1.977  0.6931  0.1625  0.2344
 4720SOL    HW225380   7.151   0.934   1.981  0.1411 -3.7741  1.2312
 4721SOL     OW25381   6.177   7.490   5.087 -0.0307  0.6332 -0.3925
 4721SOL    HW125382   6.184   7.573   5.143  2.7168 -0.8026  1.5293
 4721SOL    HW225383   6.111   7.427   5.128  0.1435  0.6127 -0.1425
 4722SOL     OW25384   2.075   0.787   6.042  0.3762 -0.0981  1.3014
 4722SOL    HW125385   2.157   0.802   6.097  0.6713 -2.6301  1.6342
 4722SOL    HW225386   2.102   0.770   5.947  0.1406  0.4711  1.1332
 4723SOL     OW25387   3.950   2.161   5.153 -0.3147 -0.3309 -0.3991
 4723SOL    HW125388   3.945   2.187   5.250  0.5744 -0.2692 -0.3624
 4723SOL    HW225389   3.934   2.241   5.096  0.7587 -0.0238 -0.2894
 4724SOL     OW25390   5.766   0.849   4.261  0.2235  0.1277 -0.0814
 4724SOL    HW125391   5.793   0.945   4.253 -0.8973  0.5541  0.9854
 4724SOL    HW225392   5.689   0.842   4.324  0.3034 -1.4838 -0.1478
 4725SOL     OW25393   2.640   0.946   3.354 -0.2133  0.3239  0.1551
 4725SOL    HW125394   2.710   1.016   3.339  0.1342 -0.1524 -0.4716
 4725SOL    HW225395   2.616   0.903   3.266  2.2697 -2.9069  0.9266
 4726SOL     OW25396   5.043   9.873   2.640  0.1078 -0.5496 -0.0150
 4726SOL    HW125397   4.983   9.802   2.603 -0.2524 -1.0862  1.5822
 4726SOL    HW225398   5.139   9.846   2.627 -0.0115 -0.6422 -0.7202
 4727SOL     OW25399   5.963   1.079   4.219 -0.1482 -0.0474  0.5474
 4727SOL    HW125400   5.894   1.148   4.195 -0.3749 -0.6254 -0.5295
 4727SOL    HW225401   5.981   1.082   4.317 -1.4909  0.3232  0.7952
 4728SOL     OW25402   0.004   7.316   5.713  0.2121  0.7126 -0.1163
 4728SOL    HW125403  -0.059   7.358   5.779 -0.1384 -3.2047  2.2236
 4728SOL    HW225404  -0.022   7.342   5.620 -2.5620  2.1315  1.0064
 4729SOL     OW25405   7.844   0.380   0.078 -0.1631  0.4348  0.0253
 4729SOL    HW125406   7.870   0.338  -0.009  0.4552  2.4566 -0.7934
 4729SOL    HW225407   7.914   0.360   0.146  0.4676  0.6762 -0.5401
 4730SOL     OW25408   7.622   8.933   3.992  0.6786 -0.1272  0.2309
 4730SOL    HW125409   7.697   8.896   3.938 -0.2867  0.1452 -1.3618
 4730SOL    HW225410   7.536   8.919   3.943 -0.0302  1.7173  0.8809
 4731SOL     OW25411   0.718   0.040   0.291  0.1220 -0.1199 -0.1283
 4731SOL    HW125412   0.666  -0.037   0.328  0.7485 -0.6726 -0.4062
 4731SOL    HW225413   0.801   0.007   0.246  0.3702  0.7100 -0.2934
 4732SOL     OW25414   8.462   7.953   3.946 -0.1447  0.0684  0.3123
 4732SOL    HW125415   8.381   7.897   3.928 -0.1657 -0.5365  2.2397
 4732SOL    HW225416   8.471   8.022   3.874 -1.5200 -0.8198 -0.7347
 4733SOL     OW25417   3.866   3.269   0.688  0.0726  0.1399  0.0654
 4733SOL    HW125418   3.959   3.300   0.711  0.6548 -1.8423  0.4621
 4733SOL    HW225419   3.801   3.342   0.706  1.4358  1.1813  0.8244
 4734SOL     OW25420   1.620   0.991   2.225  0.4037 -0.1106  0.6266
 4734SOL    HW125421   1.670   0.992   2.138  0.1616  2.9825  0.4427
 4734SOL    HW225422   1.684   0.980   2.301  1.2298  2.2817  0.3077
 4735SOL     OW25423   2.291   0.877   3.837  0.0035 -0.1652  0.1996
 4735SOL    HW125424   2.322   0.965   3.872 -0.1297 -0.2423  0.5157
 4735SOL    HW225425   2.199   0.887   3.799  0.0146 -0.1531  0.1757
 4736SOL     OW25426   1.258   7.189   2.559  0.2506 -0.4271 -0.7243
 4736SOL    HW125427   1.177   7.198   2.617  0.9704  0.1614  0.1943
 4736SOL    HW225428   1.263   7.096   2.522 -0.1303 -0.8396  0.2701
 4737SOL     OW25429   8.438   4.693   5.101  0.0205 -0.9786  0.8813
 4737SOL    HW125430   8.364   4.758   5.086  0.3814 -0.8939 -0.5289
 4737SOL    HW225431   8.408   4.602   5.072  0.0123 -1.1955  1.5488
 4738SOL     OW25432   1.799   1.653   1.449 -0.1814  0.2081  0.2215
 4738SOL    HW125433   1.782   1.745   1.413  1.9937  0.5025 -0.0675
 4738SOL    HW225434   1.811   1.589   1.374 -0.6908 -0.1317  0.4263
 4739SOL     OW25435   4.120   4.128   2.747  1.3772  0.1725 -0.3508
 4739SOL    HW125436   4.141   4.173   2.833  1.5854 -1.4934  0.4821
 4739SOL    HW225437   4.205   4.097   2.704  1.4103  2.2591 -1.8878
 4740SOL     OW25438   0.926   1.845   0.283 -0.3640  0.5239  0.6646
 4740SOL    HW125439   0.893   1.937   0.261  0.1348  0.5830  0.1451
 4740SOL    HW225440   0.879   1.811   0.365 -0.9073  1.0436  0.5751
 4741SOL     OW25441   2.280   9.111   5.844  0.0860 -0.1189 -0.0688
 4741SOL    HW125442   2.193   9.159   5.846 -0.3422 -0.8798 -0.1994
 4741SOL    HW225443   2.306   9.085   5.937 -0.3385 -0.7935 -0.1346
 4742SOL     OW25444   0.555   5.333   3.400 -0.3080 -0.6078 -0.1440
 4742SOL    HW125445   0.490   5.296   3.335 -0.1037  0.4150 -0.9371
 4742SOL    HW225446   0.600   5.258   3.448 -0.6588 -1.3593 -0.9791
 4743SOL     OW25447   3.336   3.998   5.995 -0.1363  0.6127 -0.2503
 4743SOL    HW125448   3.329   4.054   6.077  0.8966  1.3904 -0.6861
 4743SOL    HW225449   3.425   3.953   5.993 -0.4980 -0.1057 -0.5073
 4744SOL     OW25450   9.455   2.660   2.180 -0.1639  0.5095 -0.0635
 4744SOL    HW125451   9.498   2.672   2.090 -0.4393 -0.1417 -0.2782
 4744SOL    HW225452   9.385   2.731   2.193 -3.5862 -2.3087 -2.3883
 4745SOL     OW25453   1.139   9.424   6.456  0.1283 -0.0420  0.2429
 4745SOL    HW125454   1.141   9.513   6.411 -0.1776 -0.1526  0.0120
 4745SOL    HW225455   1.085   9.430   6.540 -2.2425 -0.6859 -1.1972
 4746SOL     OW25456   0.846   4.563   3.485 -0.5829  0.7170 -0.1172
 4746SOL    HW125457   0.832   4.473   3.443  0.0463  0.7582 -0.4153
 4746SOL    HW225458   0.886   4.625   3.418 -1.2299  1.2910  0.0174
 4747SOL     OW25459   8.474   9.996   1.345  0.8179 -0.4503  0.5854
 4747SOL    HW125460   8.537   9.962   1.276 -0.1855  1.2569 -1.2578
 4747SOL    HW225461   8.394   9.936   1.350  0.9222 -0.6123  0.2961
 4748SOL     OW25462   2.711   9.989   3.538  0.4453  0.2430  0.6567
 4748SOL    HW125463   2.703  10.036   3.450 -1.0873  0.6657  1.0088
 4748SOL    HW225464   2.632   9.930   3.552  0.7167  0.1189  1.7304
 4749SOL     OW25465   7.778   1.717   5.874  0.1856 -0.2480  0.2411
 4749SOL    HW125466   7.831   1.720   5.789  1.1163 -1.6569  0.7585
 4749SOL    HW225467   7.799   1.797   5.929  0.1602  0.2762 -0.4919
 4750SOL     OW25468   3.128   7.500   2.169  0.0712  0.0102  0.6831
 4750SOL    HW125469   3.206   7.469   2.114 -0.5360 -2.0534  0.9145
 4750SOL    HW225470   3.129   7.599   2.176  0.9327  0.2251 -1.9240
 4751SOL     OW25471   3.995   3.721   5.872  0.2324 -0.3064  0.0881
 4751SOL    HW125472   4.009   3.820   5.883 -2.0441  0.0902 -0.3931
 4751SOL    HW225473   3.924   3.705   5.804  0.9979 -2.3065 -0.2458
 4752SOL     OW25474   9.358   7.343   4.058  0.5429 -0.1956  0.1352
 4752SOL    HW125475   9.357   7.442   4.074 -0.5715 -0.4065  1.3932
 4752SOL    HW225476   9.398   7.325   3.968 -1.3069  1.5441 -1.0792
 4753SOL     OW25477   3.013   3.545   5.382  0.2849 -0.1604 -0.5821
 4753SOL    HW125478   2.936   3.606   5.397  0.0879 -0.3146 -0.9549
 4753SOL    HW225479   2.982   3.450   5.388  0.4531 -0.2234 -0.7003
 4754SOL     OW25480   4.510   1.129   3.745 -0.1313  0.0141 -0.1522
 4754SOL    HW125481   4.460   1.207   3.783 -0.3625 -1.3031  2.3707
 4754SOL    HW225482   4.463   1.096   3.663 -2.0455  0.3341  0.7833
 4755SOL     OW25483   2.739   8.507   3.275 -0.3283  0.6342  0.0725
 4755SOL    HW125484   2.643   8.506   3.247 -0.0214  0.8513 -1.0105
 4755SOL    HW225485   2.760   8.594   3.320 -0.7036  0.4696  0.5767
 4756SOL     OW25486   5.426   1.054   3.226  0.2136 -0.2620  0.2455
 4756SOL    HW125487   5.369   1.021   3.301 -0.2667 -1.2483 -0.5374
 4756SOL    HW225488   5.453   0.977   3.168 -0.2749  0.6166 -1.1670
 4757SOL     OW25489   9.883   2.544   0.383 -0.2233  0.0516 -0.9271
 4757SOL    HW125490   9.905   2.446   0.387  2.2879  0.4022 -3.7401
 4757SOL    HW225491   9.821   2.567   0.457  0.2063 -3.4026  0.6406
 4758SOL     OW25492   0.201   4.764   4.658 -0.3171  0.3683 -0.0111
 4758SOL    HW125493   0.112   4.740   4.618 -0.6261  2.0421 -0.3929
 4758SOL    HW225494   0.221   4.860   4.637  0.8770  0.4323  1.3767
 4759SOL     OW25495   9.061   4.626   4.780  0.4186 -0.3775  0.1420
 4759SOL    HW125496   9.155   4.597   4.760  0.5599 -0.3447  0.7585
 4759SOL    HW225497   9.004   4.612   4.698  1.1935  0.6343 -0.5857
 4760SOL     OW25498   0.010   7.922   1.398 -0.5710 -0.2845 -0.9974
 4760SOL    HW125499  -0.064   7.987   1.380 -0.2880 -0.0841 -1.4604
 4760SOL    HW225500   0.097   7.971   1.396 -0.3232 -0.7452 -1.7374
 4761SOL     OW25501   4.979   2.771   2.899  0.2213 -0.1621  0.5538
 4761SOL    HW125502   4.985   2.745   2.996  0.0236  0.9821  0.8805
 4761SOL    HW225503   4.887   2.806   2.880  0.1973 -0.5905 -0.1003
 4762SOL     OW25504   1.791   5.381   3.171 -0.7312 -0.0401 -0.2563
 4762SOL    HW125505   1.713   5.382   3.234 -0.7764  2.0796 -0.2991
 4762SOL    HW225506   1.757   5.384   3.077 -0.6195  2.4347 -0.2505
 4763SOL     OW25507   7.631   3.628   2.918  0.5739 -0.1054  0.1526
 4763SOL    HW125508   7.637   3.728   2.911 -0.6668 -0.0149  0.2602
 4763SOL    HW225509   7.718   3.592   2.950  1.4883  0.8178 -1.1981
 4764SOL     OW25510   0.157   1.561   3.623  0.1185 -0.0060 -0.0385
 4764SOL    HW125511   0.078   1.589   3.568  0.4096  0.1525 -0.3753
 4764SOL    HW225512   0.169   1.462   3.615  1.6183  0.3210 -2.2058
 4765SOL     OW25513   2.396   3.838   4.195 -0.2320 -0.0808  0.2526
 4765SOL    HW125514   2.452   3.847   4.112 -0.6036  0.3647  0.0493
 4765SOL    HW225515   2.381   3.928   4.235 -1.2604 -0.1344  0.0060
 4766SOL     OW25516   2.280   0.058   1.125 -0.4576 -0.3336  0.7181
 4766SOL    HW125517   2.327   0.129   1.177  3.8269 -0.6874 -2.3874
 4766SOL    HW225518   2.240   0.097   1.043 -1.6613 -0.8411  1.0544
 4767SOL     OW25519   9.584   9.582   5.283 -0.1733  0.2013  0.0624
 4767SOL    HW125520   9.591   9.641   5.202 -0.8508  1.1812  0.7050
 4767SOL    HW225521   9.490   9.582   5.316  0.0584 -0.3642  0.7326
 4768SOL     OW25522   2.899   1.090   3.311  0.5500 -0.1702 -0.1488
 4768SOL    HW125523   2.930   1.018   3.373 -0.6283 -0.5756 -0.0162
 4768SOL    HW225524   2.919   1.180   3.351  1.0626 -0.4229  0.1634
 4769SOL     OW25525   1.586   6.425   5.421  0.0436  0.1307  0.2450
 4769SOL    HW125526   1.600   6.417   5.322  0.4578 -1.3533  0.4073
 4769SOL    HW225527   1.638   6.502   5.456 -0.2285  0.7596 -0.7184
 4770SOL     OW25528   0.099   1.627   4.671 -0.0051 -0.6231  0.2998
 4770SOL    HW125529   0.055   1.716   4.686 -2.3686 -1.5573 -0.8138
 4770SOL    HW225530   0.153   1.630   4.588 -2.2053 -0.9384 -1.1892
 4771SOL     OW25531   5.146   8.745   2.042  0.3091 -0.3802  0.3196
 4771SOL    HW125532   5.098   8.709   1.962  0.3327  1.3688 -0.4920
 4771SOL    HW225533   5.083   8.798   2.099  0.6100 -0.4815  0.7523
 4772SOL     OW25534   7.641   4.334   6.619  0.0470  0.1129 -0.7004
 4772SOL    HW125535   7.717   4.398   6.603  1.7851 -2.7404 -4.7796
 4772SOL    HW225536   7.673   4.258   6.674 -0.3926 -0.1066 -0.7513
 4773SOL     OW25537   4.132   1.447   5.006  0.2939 -0.3012  0.7745
 4773SOL    HW125538   4.182   1.465   5.090  0.6273 -1.5075  0.8439
 4773SOL    HW225539   4.175   1.370   4.957 -1.7545 -1.6607  1.0643
 4774SOL     OW25540   6.545   9.829   2.097  0.1443 -0.0361  0.2911
 4774SOL    HW125541   6.602   9.796   2.172 -0.9914 -0.8035  0.8262
 4774SOL    HW225542   6.533   9.928   2.104  1.4730  0.1395  0.1256
 4775SOL     OW25543   1.048   9.306   1.055  0.0433  0.1267 -0.0747
 4775SOL    HW125544   0.971   9.281   1.114  1.2483 -1.8807  0.7117
 4775SOL    HW225545   1.086   9.393   1.085  0.9143 -1.0616  2.4641
 4776SOL     OW25546   4.561   4.033   6.456 -0.2373  0.4416  0.0252
 4776SOL    HW125547   4.578   4.041   6.554  0.9287  0.5970 -0.1844
 4776SOL    HW225548   4.552   3.936   6.433 -0.6303  0.4106  0.3078
 4777SOL     OW25549   0.292   8.929   3.118  0.1774  0.2097 -0.2286
 4777SOL    HW125550   0.306   9.000   3.050  1.3183 -0.7876 -1.0672
 4777SOL    HW225551   0.327   8.961   3.206 -1.4385  1.5574 -0.0464
 4778SOL     OW25552   9.414   0.253   4.444  0.4409 -0.1630 -0.1063
 4778SOL    HW125553   9.331   0.298   4.411  0.6036 -0.4993 -1.0056
 4778SOL    HW225554   9.487   0.321   4.453  0.3370 -0.0319 -0.2492
 4779SOL     OW25555   2.008   0.940   5.305  0.0974  0.2668  0.6440
 4779SOL    HW125556   2.093   0.983   5.273  0.0841 -0.1308  0.0614
 4779SOL    HW225557   1.931   0.976   5.253  0.2304 -1.4005 -0.7870
 4780SOL     OW25558   7.873   7.954   6.733  0.1542 -0.7764  0.1580
 4780SOL    HW125559   7.867   7.894   6.653  0.3071  1.1423 -1.3132
 4780SOL    HW225560   7.798   7.933   6.796 -0.5390 -1.6431 -0.9409
 4781SOL     OW25561   7.190   1.548   4.984  0.2076 -0.0985  0.4435
 4781SOL    HW125562   7.276   1.551   5.034  0.2410 -0.3593  0.4017
 4781SOL    HW225563   7.208   1.537   4.886  0.0871 -2.0335  0.6225
 4782SOL     OW25564   0.105   6.538   0.601  0.1549  0.0546  0.2297
 4782SOL    HW125565   0.198   6.567   0.626 -1.1095  3.7204  0.9505
 4782SOL    HW225566   0.073   6.591   0.523 -2.3038  0.6724  1.6136
 4783SOL     OW25567   4.888   9.250   1.825 -0.0082  0.8402  0.2460
 4783SOL    HW125568   4.870   9.151   1.826 -0.7855  0.9764 -0.0647
 4783SOL    HW225569   4.935   9.275   1.909 -1.8364  0.5625  1.3911
 4784SOL     OW25570   0.686   9.194   6.658  0.3050  0.0690  0.6499
 4784SOL    HW125571   0.780   9.213   6.631 -0.2209 -0.4868 -1.6376
 4784SOL    HW225572   0.624   9.255   6.610 -0.7066 -1.3680  0.1181
 4785SOL     OW25573   2.527   5.934   4.509 -0.3966 -0.5675 -0.1193
 4785SOL    HW125574   2.579   6.003   4.558 -1.3637 -0.0014  0.1253
 4785SOL    HW225575   2.510   5.964   4.416 -0.1264 -0.8357 -0.2561
 4786SOL     OW25576   3.301   1.177   5.685 -0.0013 -0.6042 -0.7959
 4786SOL    HW125577   3.369   1.184   5.611  0.1952  0.3675 -0.5296
 4786SOL    HW225578   3.341   1.211   5.770 -0.2824 -1.5725 -0.2651
 4787SOL     OW25579   1.039   6.369   0.688 -0.1044 -0.0602 -0.2035
 4787SOL    HW125580   1.114   6.313   0.653  0.6545  0.7676  0.0647
 4787SOL    HW225581   1.010   6.334   0.778 -0.5393 -0.8194 -0.6314
 4788SOL     OW25582   9.186   2.479   5.326 -0.5047  0.1193 -0.3273
 4788SOL    HW125583   9.242   2.532   5.391 -0.6821  0.1113 -0.1668
 4788SOL    HW225584   9.100   2.527   5.310 -0.3870  0.2056 -0.6929
 4789SOL     OW25585   3.602   4.445   4.503 -0.0942 -0.2235  0.5212
 4789SOL    HW125586   3.582   4.390   4.584  1.5713  0.5907  1.5175
 4789SOL    HW225587   3.612   4.385   4.423  0.3815 -1.2323  1.3276
 4790SOL     OW25588   0.613   0.054   3.505  0.7422  1.1391  0.2637
 4790SOL    HW125589   0.515   0.043   3.521  0.8537 -0.7478 -0.1684
 4790SOL    HW225590   0.664   0.013   3.581  1.1857  0.5532 -0.3343
 4791SOL     OW25591   4.233   1.930   2.934  0.0045 -0.0868  0.4673
 4791SOL    HW125592   4.214   1.881   3.018 -0.1483  1.0655  1.1231
 4791SOL    HW225593   4.232   2.029   2.952  1.7710  0.1384 -0.4948
 4792SOL     OW25594   9.390   5.814   2.787  0.3884  0.2718 -0.0890
 4792SOL    HW125595   9.441   5.900   2.790  0.8209 -0.0279  2.1435
 4792SOL    HW225596   9.321   5.814   2.859  0.1110 -1.0898 -0.3434
 4793SOL     OW25597   1.148   5.693   2.770 -0.0968  0.2127  0.0114
 4793SOL    HW125598   1.055   5.675   2.736 -0.2091 -0.9070  0.8968
 4793SOL    HW225599   1.143   5.761   2.843 -0.1621  0.5053 -0.2611
 4794SOL     OW25600   8.648   2.710   5.997  0.0529  0.0235  0.2041
 4794SOL    HW125601   8.725   2.774   6.005  0.3910 -0.3993  0.3284
 4794SOL    HW225602   8.627   2.696   5.900 -0.0807  0.3980  0.1792
 4795SOL     OW25603   8.375   3.806   3.782  0.3487  0.0471  0.1458
 4795SOL    HW125604   8.385   3.709   3.759 -0.2435 -0.1195  0.5856
 4795SOL    HW225605   8.338   3.855   3.702  1.2390  0.0262 -0.2834
 4796SOL     OW25606   6.732   9.665   1.835  0.7818 -0.2697 -0.0334
 4796SOL    HW125607   6.657   9.723   1.804 -0.3436 -0.9174  1.3877
 4796SOL    HW225608   6.811   9.722   1.860  0.2130  0.5352 -0.0592
 4797SOL     OW25609   4.068   4.917   1.117 -0.2545 -0.1875  0.7083
 4797SOL    HW125610   4.052   4.901   1.020  1.2557 -2.1073  0.7530
 4797SOL    HW225611   4.121   5.001   1.129  1.0937 -0.8895 -0.2404
 4798SOL     OW25612   3.967   2.443   3.636 -0.1039  0.5313 -0.4531
 4798SOL    HW125613   4.035   2.515   3.645 -1.3578  1.6783  0.0759
 4798SOL    HW225614   3.896   2.473   3.572  0.2819 -0.9570 -1.5922
 4799SOL     OW25615   6.317   7.934   2.476  0.2823 -0.6819 -0.2812
 4799SOL    HW125616   6.400   7.929   2.532 -0.2475  0.2895  0.6058
 4799SOL    HW225617   6.338   7.978   2.388  0.4840  0.5245  0.3690
 4800SOL     OW25618   2.865   1.649   2.313  0.1399  0.5571  0.0170
 4800SOL    HW125619   2.922   1.655   2.394  1.8921 -0.8229 -1.0859
 4800SOL    HW225620   2.839   1.742   2.284 -0.9413  1.0451  2.3949
 4801SOL     OW25621   2.521   9.454   2.735 -0.2149 -0.2626  0.3475
 4801SOL    HW125622   2.462   9.382   2.698 -1.7418  0.2328  1.7951
 4801SOL    HW225623   2.477   9.543   2.721  0.2277  0.1176  1.3807
 4802SOL     OW25624   1.769   2.984   0.629  0.0113  0.2023 -0.3116
 4802SOL    HW125625   1.687   2.941   0.665 -0.2713 -0.1189 -1.3380
 4802SOL    HW225626   1.829   3.010   0.705 -1.0967  0.5693  0.4437
 4803SOL     OW25627   2.672   7.090   3.368  0.0635  0.5547  0.6598
 4803SOL    HW125628   2.641   7.167   3.312  0.1942  0.4100  0.3863
 4803SOL    HW225629   2.758   7.055   3.332 -0.8346 -0.7843 -0.2252
 4804SOL     OW25630   8.197   0.595   0.693  0.5456  0.0072 -0.2779
 4804SOL    HW125631   8.272   0.598   0.628  0.4258  1.6898 -0.3548
 4804SOL    HW225632   8.110   0.610   0.646  0.4236  0.8432  0.2006
 4805SOL     OW25633   9.038   1.598   5.453 -0.4054 -0.5456  0.1044
 4805SOL    HW125634   9.012   1.636   5.542  0.7114 -1.0051  0.6290
 4805SOL    HW225635   8.997   1.507   5.442 -0.4540 -0.5340  0.1951
 4806SOL     OW25636   3.344   8.181   5.003  0.0516 -0.3250  0.5502
 4806SOL    HW125637   3.247   8.197   5.018 -0.3016 -1.5489 -0.3485
 4806SOL    HW225638   3.387   8.263   4.965 -0.4436  0.5036  1.7685
 4807SOL     OW25639   8.243   5.731   5.138  0.1329  0.0304 -0.2150
 4807SOL    HW125640   8.240   5.757   5.234  1.3430  0.4680 -0.2847
 4807SOL    HW225641   8.193   5.798   5.083  4.0665  2.9281 -0.5105
 4808SOL     OW25642   9.601   8.517   4.393  0.3601 -0.3564 -0.3228
 4808SOL    HW125643   9.527   8.583   4.407 -1.6310 -2.3584 -1.1611
 4808SOL    HW225644   9.683   8.565   4.361 -0.5923  1.8789  0.4849
 4809SOL     OW25645   5.867   7.513   3.011  0.0856 -0.0986 -0.4846
 4809SOL    HW125646   5.805   7.469   3.077  0.6386  0.3898  0.3689
 4809SOL    HW225647   5.822   7.595   2.974  0.3501  0.4535  0.3981
 4810SOL     OW25648   2.880   2.186   4.800 -0.0211 -0.4696  0.7307
 4810SOL    HW125649   2.927   2.129   4.868 -0.2592 -0.3771  0.9728
 4810SOL    HW225650   2.945   2.251   4.761  0.6735 -2.0004 -0.7652
 4811SOL     OW25651   5.581   8.687   3.070 -0.1524  0.4837  0.4830
 4811SOL    HW125652   5.578   8.592   3.040 -0.9524  0.4838  0.5542
 4811SOL    HW225653   5.533   8.696   3.157 -0.0314  0.9401  0.5034
 4812SOL     OW25654   9.695   8.882   6.403  0.2372  0.1153 -0.3008
 4812SOL    HW125655   9.752   8.805   6.432  0.3310  0.2908 -0.0144
 4812SOL    HW225656   9.642   8.915   6.481 -2.7092 -2.1195 -1.2690
 4813SOL     OW25657   9.004   6.488   5.868  0.0134 -0.4137  0.7576
 4813SOL    HW125658   9.065   6.567   5.865 -0.2759 -0.1835  0.9614
 4813SOL    HW225659   8.952   6.483   5.783  0.3725 -0.6557  0.5503
 4814SOL     OW25660   3.031   4.718   3.834  0.1006 -0.0368 -0.2982
 4814SOL    HW125661   3.112   4.691   3.884 -0.9199 -0.7521  0.9968
 4814SOL    HW225662   3.036   4.816   3.812  0.9962  0.0673  0.3510
 4815SOL     OW25663   5.425   0.280   3.774  0.3290  0.3728 -0.3582
 4815SOL    HW125664   5.452   0.189   3.806  0.9452  0.8519  0.5169
 4815SOL    HW225665   5.506   0.338   3.769 -0.2041  1.1655  0.0658
 4816SOL     OW25666   1.409   2.407   5.096  0.3344 -0.2626 -0.3061
 4816SOL    HW125667   1.347   2.461   5.153  3.4679  2.5343  0.5963
 4816SOL    HW225668   1.444   2.330   5.149 -2.2636 -1.8764 -0.8280
 4817SOL     OW25669   9.415   7.645   0.435 -0.7525 -0.2890  0.3112
 4817SOL    HW125670   9.354   7.647   0.356  0.0675 -0.5515 -0.3326
 4817SOL    HW225671   9.423   7.552   0.470  0.5139 -0.5162 -0.5738
 4818SOL     OW25672   0.824   7.041   5.841 -0.4581 -0.0058 -0.3045
 4818SOL    HW125673   0.859   7.133   5.823 -1.9095  0.4706 -0.7878
 4818SOL    HW225674   0.787   7.002   5.757  0.5421 -1.2203 -0.1969
 4819SOL     OW25675   3.208   2.291   0.450 -0.1725 -0.0591 -0.4190
 4819SOL    HW125676   3.250   2.338   0.373 -0.0897  1.4526  0.5197
 4819SOL    HW225677   3.273   2.225   0.489 -0.5145 -1.4315 -2.1346
 4820SOL     OW25678   5.485   5.502   1.131  0.0003  0.1773  0.2535
 4820SOL    HW125679   5.544   5.522   1.210 -2.0474 -0.7238  2.0639
 4820SOL    HW225680   5.389   5.511   1.159 -0.7722 -1.7233 -1.7410
 4821SOL     OW25681   3.286   2.387   6.099  0.6438  0.0880  0.0222
 4821SOL    HW125682   3.268   2.485   6.111  1.5565  0.2139  0.3669
 4821SOL    HW225683   3.268   2.361   6.004 -1.0141  0.2809  0.2653
 4822SOL     OW25684   1.110   3.705   1.105 -0.4026 -0.3928  0.2826
 4822SOL    HW125685   1.017   3.730   1.075 -0.0660  0.4834 -0.0630
 4822SOL    HW225686   1.175   3.773   1.071  0.8045 -2.6782 -2.1937
 4823SOL     OW25687   4.352   1.926   0.889 -0.0651 -0.0442  0.3303
 4823SOL    HW125688   4.432   1.985   0.885 -0.8061  0.8549 -2.1864
 4823SOL    HW225689   4.284   1.965   0.952 -0.5210  1.7746 -1.2523
 4824SOL     OW25690   8.169   1.166   1.015  0.3122 -0.2640  0.2561
 4824SOL    HW125691   8.122   1.094   1.066  0.9032  0.4084  1.7737
 4824SOL    HW225692   8.186   1.244   1.075  1.1401  0.4933 -0.9392
 4825SOL     OW25693   2.157   2.649   3.921  0.4528 -0.1709 -0.1779
 4825SOL    HW125694   2.078   2.704   3.948  0.9993  1.8024 -2.3861
 4825SOL    HW225695   2.182   2.587   3.995 -2.0097  0.4854  1.2597
 4826SOL     OW25696   7.062   0.163   5.360  0.2367 -0.2441  0.0087
 4826SOL    HW125697   7.075   0.254   5.320  1.3043  0.0341  0.9694
 4826SOL    HW225698   7.025   0.172   5.452  0.2450 -0.7814  0.0663
 4827SOL     OW25699   2.311   4.753   0.372 -0.0622 -0.1585 -0.3069
 4827SOL    HW125700   2.268   4.668   0.403  0.2433 -0.0511  0.4232
 4827SOL    HW225701   2.344   4.804   0.451 -1.2488  1.1917 -0.6581
 4828SOL     OW25702   8.743   7.712   3.925 -0.3372  0.0633 -0.1732
 4828SOL    HW125703   8.672   7.728   3.993 -0.2515  0.2296 -0.1199
 4828SOL    HW225704   8.813   7.652   3.962 -1.0906 -1.1275 -0.6654
 4829SOL     OW25705   5.253   4.978   1.454 -0.3714  0.3588  0.4201
 4829SOL    HW125706   5.306   5.062   1.465 -0.0188  0.2781 -0.5829
 4829SOL    HW225707   5.269   4.918   1.532  3.4806 -0.9702 -1.2260
 4830SOL     OW25708   9.462   3.988   0.799 -0.0376 -1.0015  0.0093
 4830SOL    HW125709   9.452   4.066   0.861  1.0762 -1.3325  0.6235
 4830SOL    HW225710   9.471   4.022   0.705  0.9560 -0.3443  0.3259
 4831SOL     OW25711   4.921   8.215   2.690  0.2106 -0.1859  0.2308
 4831SOL    HW125712   4.821   8.207   2.686  0.1873 -0.5849  1.5081
 4831SOL    HW225713   4.950   8.219   2.786  1.5662 -1.8230 -0.0989
 4832SOL     OW25714   7.844   9.069   4.474  0.0199  0.0297  0.2189
 4832SOL    HW125715   7.790   9.028   4.548 -0.0286 -0.7544 -0.2449
 4832SOL    HW225716   7.822   9.023   4.388 -0.1828  1.1733 -0.3445
 4833SOL     OW25717   0.217   8.582   6.552  0.5330  0.2920 -0.2401
 4833SOL    HW125718   0.217   8.548   6.458  0.3341  0.5327 -0.3285
 4833SOL    HW225719   0.249   8.511   6.613  3.7109  1.1275 -0.8586
 4834SOL     OW25720   8.525   7.502   0.050 -0.1893 -0.0357 -0.2429
 4834SOL    HW125721   8.605   7.485   0.108 -0.8450  1.3768  1.1100
 4834SOL    HW225722   8.443   7.503   0.107 -0.8255  1.6384 -1.1614
 4835SOL     OW25723   5.389   9.301   3.566 -0.1079  0.1337 -0.0249
 4835SOL    HW125724   5.360   9.357   3.488 -1.2866 -0.3032  0.0883
 4835SOL    HW225725   5.489   9.303   3.573 -0.1196  2.1414 -0.0733
 4836SOL     OW25726   3.346   7.333   2.682  0.2266 -0.4316 -0.0835
 4836SOL    HW125727   3.414   7.273   2.641 -0.0476 -0.4069 -0.5808
 4836SOL    HW225728   3.360   7.427   2.649 -0.8390 -0.6466 -1.2035
 4837SOL     OW25729   8.862   9.164   5.112 -0.2428 -0.0427  0.3765
 4837SOL    HW125730   8.879   9.066   5.124 -0.1393  0.0910  1.4000
 4837SOL    HW225731   8.899   9.194   5.024 -0.2718 -0.9223  0.0577
 4838SOL     OW25732   6.785   1.375   1.856  0.7229 -0.1141  0.3070
 4838SOL    HW125733   6.806   1.399   1.761  0.7817  0.3442  0.4361
 4838SOL    HW225734   6.763   1.277   1.861  2.0278 -0.4348  0.0437
 4839SOL     OW25735   0.184   4.896   5.316 -0.1155 -0.3435  0.1331
 4839SOL    HW125736   0.229   4.814   5.282 -0.4758 -0.8669  0.9244
 4839SOL    HW225737   0.103   4.915   5.261  0.8091  0.3548 -1.0207
 4840SOL     OW25738   9.852   0.379   1.933  0.0726 -0.1259 -0.2847
 4840SOL    HW125739   9.869   0.358   1.837  0.0293 -2.5946  0.1983
 4840SOL    HW225740   9.753   0.388   1.949  0.1342  1.1374 -0.6337
 4841SOL     OW25741   9.159   0.847   2.267  0.4869 -0.5695  0.1733
 4841SOL    HW125742   9.180   0.789   2.189  0.7437  0.7092 -0.7204
 4841SOL    HW225743   9.209   0.933   2.260 -0.7729  0.2483  0.8600
 4842SOL     OW25744   2.191   7.021   0.868  0.4680  0.1882  0.4682
 4842SOL    HW125745   2.191   7.109   0.820 -0.4015 -0.6890 -1.1700
 4842SOL    HW225746   2.285   6.997   0.892  0.7628  1.3372  0.5143
 4843SOL     OW25747   0.750   0.159   2.067 -0.2980  0.1252 -0.0544
 4843SOL    HW125748   0.770   0.252   2.035 -0.6580  0.5637  0.9675
 4843SOL    HW225749   0.835   0.108   2.076 -0.2089 -0.0792 -1.9114
 4844SOL     OW25750   8.508   1.189   5.594  0.3207  0.3322 -0.2152
 4844SOL    HW125751   8.543   1.127   5.664  0.2711  0.4783 -0.0607
 4844SOL    HW225752   8.436   1.144   5.541 -0.5062  0.6418  0.6300
 4845SOL     OW25753   2.525   6.916   0.248  0.1913  0.0366 -0.4367
 4845SOL    HW125754   2.478   6.874   0.170 -0.3548 -1.7215  0.8116
 4845SOL    HW225755   2.593   6.852   0.285  0.7080  0.9972  0.3128
 4846SOL     OW25756   3.549   1.528   4.462 -0.4195  0.0462  0.1888
 4846SOL    HW125757   3.467   1.568   4.421 -0.3063 -2.5507 -2.7513
 4846SOL    HW225758   3.581   1.587   4.536 -2.2636  3.4839 -1.6234
 4847SOL     OW25759   6.398   5.317   0.746 -0.0169 -0.1114 -0.1628
 4847SOL    HW125760   6.473   5.374   0.715  0.2319  0.1588  0.9407
 4847SOL    HW225761   6.396   5.314   0.845  0.1202 -2.1975 -0.1824
 4848SOL     OW25762   8.271   3.149   3.350  0.2628  0.5615 -0.4470
 4848SOL    HW125763   8.217   3.230   3.328 -0.6913 -0.0591 -0.4147
 4848SOL    HW225764   8.275   3.137   3.450 -1.8847 -0.9246 -0.4885
 4849SOL     OW25765   0.203   2.315   0.944  0.0429 -0.4746 -0.8926
 4849SOL    HW125766   0.134   2.264   0.994  0.1007  0.1846 -0.1285
 4849SOL    HW225767   0.159   2.378   0.880 -0.0343 -1.0210 -1.3885
 4850SOL     OW25768   1.107   8.005   3.609 -0.2870 -0.1680 -0.3457
 4850SOL    HW125769   1.034   8.061   3.570 -1.0142  0.9791  2.5516
 4850SOL    HW225770   1.196   8.041   3.578 -0.8273  1.1388 -0.4002
 4851SOL     OW25771   2.093   9.868   1.337 -0.0406  0.1333  0.4627
 4851SOL    HW125772   2.121   9.891   1.244  2.9508  2.1253  1.7780
 4851SOL    HW225773   2.059   9.950   1.382 -0.7662 -0.6638  1.3774
 4852SOL     OW25774   2.415   1.991   2.601 -0.0805 -0.6127 -0.0878
 4852SOL    HW125775   2.401   1.972   2.698  1.0341  1.2532  0.4887
 4852SOL    HW225776   2.513   1.986   2.580 -0.2972 -0.8320 -1.0748
 4853SOL     OW25777   3.165   1.279   0.217  0.4471 -0.4121  0.1529
 4853SOL    HW125778   3.094   1.294   0.149  0.1037  0.6393  0.7148
 4853SOL    HW225779   3.246   1.333   0.194 -0.4535  1.6837  1.6961
 4854SOL     OW25780   7.911   3.742   2.925  0.1807  0.1776  0.0172
 4854SOL    HW125781   7.862   3.806   2.866  0.3904 -0.4669 -0.8705
 4854SOL    HW225782   8.001   3.723   2.886  0.0040 -0.8860  0.1098
 4855SOL     OW25783   8.777   6.438   6.012  0.1925  0.5397  0.2656
 4855SOL    HW125784   8.866   6.442   5.965 -0.3275 -2.2728 -1.0977
 4855SOL    HW225785   8.756   6.343   6.034 -2.3393  1.2074  0.8459
 4856SOL     OW25786   0.037   1.097   1.774 -0.0653 -0.0003  0.1747
 4856SOL    HW125787   0.135   1.092   1.797 -0.0207 -1.2020 -0.2563
 4856SOL    HW225788   0.021   1.175   1.714  0.7695 -0.2941 -0.4370
 4857SOL     OW25789   0.883   1.341   6.551 -0.3072 -0.0013 -0.3119
 4857SOL    HW125790   0.852   1.421   6.602 -1.6729  0.4388 -1.7545
 4857SOL    HW225791   0.982   1.330   6.561  0.2719  3.1391 -1.7618
 4858SOL     OW25792   4.393   9.568   5.669  0.0040  0.1617  0.1442
 4858SOL    HW125793   4.314   9.507   5.672  1.0787 -1.2410  0.3703
 4858SOL    HW225794   4.465   9.528   5.612  1.1677  0.6886  1.2150
 4859SOL     OW25795   8.554   7.709   6.165 -0.6660  0.3340 -0.3321
 4859SOL    HW125796   8.568   7.808   6.157 -0.6353  0.5275  1.9104
 4859SOL    HW225797   8.642   7.662   6.160 -0.3807  0.6493  1.4790
 4860SOL     OW25798   9.712   0.392   0.134 -0.2835  0.3220 -0.3644
 4860SOL    HW125799   9.628   0.387   0.187 -1.9546  0.2993 -2.9177
 4860SOL    HW225800   9.744   0.487   0.129 -0.5858  0.4387 -0.0394
 4861SOL     OW25801   9.621   5.917   0.519 -0.0842  0.2692 -0.0454
 4861SOL    HW125802   9.521   5.924   0.520 -0.4329 -3.3975 -1.2924
 4861SOL    HW225803   9.653   5.908   0.425  1.4393  1.2065  0.3655
 4862SOL     OW25804   9.863   1.444   4.504  0.2907 -0.4190  0.0779
 4862SOL    HW125805   9.824   1.380   4.438  0.9323 -1.7420  0.9455
 4862SOL    HW225806   9.948   1.406   4.541  1.4448  1.5871 -0.4218
 4863SOL     OW25807   9.863   7.241   2.063 -0.1817  0.0358 -0.3926
 4863SOL    HW125808   9.897   7.315   2.006 -0.0180 -0.1164 -0.4919
 4863SOL    HW225809   9.914   7.157   2.043 -0.6636 -0.2094 -0.5921
 4864SOL     OW25810   5.155   9.944   3.810  0.3381  0.3080  0.0031
 4864SOL    HW125811   5.078   9.936   3.746  0.4684  2.0949 -0.4105
 4864SOL    HW225812   5.149  10.032   3.858  1.0180 -0.4179  1.4360
 4865SOL     OW25813   3.279   1.018   4.563 -0.6233 -0.0795  0.2473
 4865SOL    HW125814   3.292   0.942   4.499  0.3480 -0.0288  0.3844
 4865SOL    HW225815   3.337   1.094   4.536 -1.9482  0.8014 -0.1700
 4866SOL     OW25816   7.454   8.198   4.889 -0.1834 -0.3908  0.6159
 4866SOL    HW125817   7.553   8.184   4.890 -0.1863 -0.5649 -0.5414
 4866SOL    HW225818   7.431   8.265   4.818 -0.8875 -0.2481  0.9766
 4867SOL     OW25819   7.912   3.682   1.964  0.5471 -0.2718 -0.0325
 4867SOL    HW125820   7.933   3.775   1.995 -0.9225  0.2866 -0.6444
 4867SOL    HW225821   7.926   3.618   2.039  0.6463  0.5733  0.6822
 4868SOL     OW25822   2.570   9.990   4.755 -0.2156 -0.4307 -0.0169
 4868SOL    HW125823   2.472  10.010   4.749  0.4026  3.0110  0.1892
 4868SOL    HW225824   2.609  10.038   4.833  1.3503 -3.1951  0.9571
 4869SOL     OW25825   8.997   6.521   2.211 -0.1169 -0.3620 -0.1882
 4869SOL    HW125826   9.078   6.497   2.159 -0.3013 -1.6276  0.0715
 4869SOL    HW225827   9.022   6.582   2.286  0.4064  0.1718 -0.7996
 4870SOL     OW25828   9.382   1.684   0.272 -0.0657 -0.4128  0.7005
 4870SOL    HW125829   9.380   1.633   0.185  1.1467  0.8246 -0.0641
 4870SOL    HW225830   9.311   1.648   0.333 -1.3233 -0.9107 -1.0189
 4871SOL     OW25831   3.534   3.373   0.189 -0.1830  0.1348 -0.2233
 4871SOL    HW125832   3.521   3.444   0.259  0.2927 -0.6561  0.6758
 4871SOL    HW225833   3.595   3.302   0.224 -1.1386 -1.0408 -0.8933
 4872SOL     OW25834   7.149   4.849   6.501  0.2826 -0.2271 -0.2029
 4872SOL    HW125835   7.090   4.920   6.462 -0.8739 -0.3732  1.2591
 4872SOL    HW225836   7.235   4.891   6.531 -0.5312  0.6241  0.9714
 4873SOL     OW25837   3.101   8.021   3.222 -0.8449 -0.2286  0.2765
 4873SOL    HW125838   3.111   7.972   3.135 -0.4850 -0.8307  0.6560
 4873SOL    HW225839   3.052   8.107   3.206  0.7095  0.4856 -0.8235
 4874SOL     OW25840   3.711   2.560   0.708  0.8407 -0.3760 -0.4653
 4874SOL    HW125841   3.624   2.543   0.661  0.3828 -0.7224  0.5028
 4874SOL    HW225842   3.786   2.539   0.646  0.2403  0.3343 -1.4574
 4875SOL     OW25843   6.257   7.390   4.060 -0.5074 -0.2826  0.1600
 4875SOL    HW125844   6.339   7.438   4.090  0.4730 -1.9755  0.2146
 4875SOL    HW225845   6.177   7.428   4.107  0.2986  0.9760  0.5414
 4876SOL     OW25846   0.594   6.954   5.657 -0.4406  0.1582  0.0245
 4876SOL    HW125847   0.503   6.927   5.627 -0.0501 -1.3283  0.1373
 4876SOL    HW225848   0.655   6.960   5.579  0.4178 -3.0881  0.3881
 4877SOL     OW25849   1.653   5.606   3.521  0.3325 -0.2410 -0.0273
 4877SOL    HW125850   1.670   5.528   3.581  0.0117 -1.0306 -0.9576
 4877SOL    HW225851   1.596   5.577   3.444  1.8604  0.4496 -1.4378
 4878SOL     OW25852   3.515   4.849   3.094  0.0967 -0.1264 -0.7796
 4878SOL    HW125853   3.562   4.897   3.020  0.6552 -0.7468 -0.8307
 4878SOL    HW225854   3.535   4.893   3.181 -0.3480  0.4469 -0.9666
 4879SOL     OW25855   0.336   2.885   0.959  0.0864  0.0621  0.3882
 4879SOL    HW125856   0.331   2.979   0.993 -0.5566 -0.2661  1.2311
 4879SOL    HW225857   0.332   2.822   1.037 -1.3602 -0.7094 -0.2866
 4880SOL     OW25858   9.414   3.202   4.415 -0.8339  0.4996  0.2285
 4880SOL    HW125859   9.396   3.110   4.449 -3.3184  0.6923 -0.4289
 4880SOL    HW225860   9.411   3.201   4.315 -3.1975  1.6948  0.2566
 4881SOL     OW25861   1.490   1.498   1.295  0.2407 -0.0046  0.5194
 4881SOL    HW125862   1.547   1.529   1.371  1.7035 -2.4013  0.4318
 4881SOL    HW225863   1.529   1.531   1.209  0.9839 -0.8705  0.5235
 4882SOL     OW25864   9.834   7.979   6.364 -0.4469  0.6481  0.2501
 4882SOL    HW125865   9.771   7.904   6.343 -0.0897  0.6262 -0.8036
 4882SOL    HW225866   9.916   7.942   6.408 -0.4642  0.4682  0.1345
 4883SOL     OW25867   2.458   6.849   5.685  0.1372  0.0741 -0.5479
 4883SOL    HW125868   2.402   6.860   5.767  0.4034  1.8789 -0.5749
 4883SOL    HW225869   2.420   6.776   5.627 -1.3978  0.3619  0.0725
 4884SOL     OW25870   8.407   2.208   2.072 -0.4448  0.0525  0.1645
 4884SOL    HW125871   8.398   2.225   1.974 -2.0863  2.2094  0.6564
 4884SOL    HW225872   8.483   2.263   2.108  0.3485 -0.9628  0.0729
 4885SOL     OW25873   3.508   0.449   1.869 -0.4703  0.5271 -0.1615
 4885SOL    HW125874   3.423   0.405   1.841 -0.8106  1.8283 -1.2674
 4885SOL    HW225875   3.585   0.390   1.848 -0.8410  0.8268 -2.5167
 4886SOL     OW25876   9.318   5.003   6.548  0.1597 -0.7226 -0.1501
 4886SOL    HW125877   9.371   5.050   6.477 -1.4217  2.4324  0.6642
 4886SOL    HW225878   9.380   4.971   6.620  1.4173 -1.0780 -1.3734
 4887SOL     OW25879   3.774   6.044   0.715  0.2676 -0.5244 -0.2266
 4887SOL    HW125880   3.845   6.080   0.655 -0.2901  1.2787  0.1551
 4887SOL    HW225881   3.815   5.995   0.792  1.0687  0.0137 -0.3134
 4888SOL     OW25882   9.815   4.068   1.127 -0.5688 -0.4872 -0.0068
 4888SOL    HW125883   9.758   3.986   1.139 -1.8715  0.3949 -0.1377
 4888SOL    HW225884   9.764   4.149   1.156  1.1466  0.1624  1.2620
 4889SOL     OW25885   9.696   8.870   5.473  0.2246 -0.8271  0.2314
 4889SOL    HW125886   9.631   8.795   5.462  0.8202 -1.0534 -1.8692
 4889SOL    HW225887   9.647   8.954   5.498 -0.4790 -1.7944  2.2630
 4890SOL     OW25888   2.351   0.444   0.463  0.1889 -0.5067  0.1087
 4890SOL    HW125889   2.289   0.374   0.497 -1.6566  1.8549  1.8145
 4890SOL    HW225890   2.310   0.489   0.383 -0.2283  0.9300  1.1197
 4891SOL     OW25891   3.437   0.869   3.561 -0.0207 -0.4171 -0.3444
 4891SOL    HW125892   3.426   0.915   3.650  1.1351 -0.6123 -0.0877
 4891SOL    HW225893   3.443   0.770   3.576 -0.6616 -0.5138 -0.7232
 4892SOL     OW25894   2.128   4.547   5.966  0.1344  0.2958 -0.0047
 4892SOL    HW125895   2.096   4.479   6.032 -1.4342  0.0422 -0.9836
 4892SOL    HW225896   2.180   4.502   5.894 -0.2924  0.2142 -0.2673
 4893SOL     OW25897   3.373   5.301   4.518  0.1315 -0.2721 -0.3762
 4893SOL    HW125898   3.443   5.236   4.487  0.9470  0.1574  0.5450
 4893SOL    HW225899   3.327   5.340   4.438  2.3685  0.9836 -1.1282
 4894SOL     OW25900   1.569   2.568   4.483  0.5501  0.2506 -0.2459
 4894SOL    HW125901   1.585   2.487   4.426 -1.4990 -0.4887  0.1839
 4894SOL    HW225902   1.569   2.542   4.579  0.3379  0.8436 -0.0828
 4895SOL     OW25903   5.881   1.965   2.563 -0.5436 -0.2917  1.1505
 4895SOL    HW125904   5.853   1.869   2.558  4.5849 -1.8923  0.6882
 4895SOL    HW225905   5.878   2.006   2.472 -0.3687 -0.7379  0.9464
 4896SOL     OW25906   0.932   1.792   6.659  0.7631 -0.5680 -0.2056
 4896SOL    HW125907   0.949   1.822   6.753  0.0116  0.1442 -0.2867
 4896SOL    HW225908   1.017   1.759   6.618  1.3802  0.4057  0.2741
 4897SOL     OW25909   2.610   5.059   1.452 -0.3570 -0.3676 -0.2644
 4897SOL    HW125910   2.554   5.062   1.535 -0.4402 -2.0367 -0.2302
 4897SOL    HW225911   2.593   4.973   1.404  0.1612  0.3148 -1.6943
 4898SOL     OW25912   3.785   0.737   3.572 -0.5499  0.4664 -0.4716
 4898SOL    HW125913   3.706   0.720   3.631  0.1969 -0.6123  0.2310
 4898SOL    HW225914   3.851   0.794   3.621 -0.6929  0.9906 -0.8918
 4899SOL     OW25915   3.964   4.620   5.304  0.1871  0.2519 -0.4454
 4899SOL    HW125916   3.953   4.701   5.362  1.2755 -0.1051  0.2749
 4899SOL    HW225917   4.047   4.628   5.250  1.0660 -0.9833  0.6608
 4900SOL     OW25918   8.799   0.546   2.634 -0.1212 -0.4356 -0.1103
 4900SOL    HW125919   8.852   0.514   2.713 -1.4644 -3.6990 -0.4453
 4900SOL    HW225920   8.862   0.579   2.563  1.1920  0.3520  1.3729
 4901SOL     OW25921   9.292   1.820   2.916  0.2437  0.4152 -0.4481
 4901SOL    HW125922   9.218   1.861   2.863  0.0275 -1.0425 -1.2939
 4901SOL    HW225923   9.339   1.751   2.861  2.2848  1.3786  0.0607
 4902SOL     OW25924   3.614   0.183   2.086 -0.1236 -0.1981  0.4718
 4902SOL    HW125925   3.712   0.201   2.098 -0.3522  0.3533  1.5849
 4902SOL    HW225926   3.596   0.159   1.991  0.9440  0.6956  0.0299
 4903SOL     OW25927   3.233   0.089   2.348 -0.2019  0.3871  0.3139
 4903SOL    HW125928   3.311   0.116   2.404 -0.1353  0.8471  0.0047
 4903SOL    HW225929   3.236   0.139   2.261 -1.7725  1.7045  0.9762
 4904SOL     OW25930   1.388   0.973   3.507  0.1098  0.0775 -0.0920
 4904SOL    HW125931   1.296   0.988   3.470 -0.0185  1.9182  0.9211
 4904SOL    HW225932   1.397   0.877   3.535 -2.0026  0.1935  1.0900
 4905SOL     OW25933   5.687   8.099   2.879 -0.3067  0.0151  0.1689
 4905SOL    HW125934   5.659   8.192   2.904  0.4434  0.1047  0.6880
 4905SOL    HW225935   5.637   8.033   2.935 -2.3224  0.0144 -1.5838
 4906SOL     OW25936   5.161   8.128   3.805  0.3496  0.4069 -0.3362
 4906SOL    HW125937   5.193   8.170   3.721  1.5166  0.2837  0.0426
 4906SOL    HW225938   5.227   8.060   3.836  1.4565  2.5910  2.3035
 4907SOL     OW25939   0.072   7.812   4.278 -0.1177  0.4587 -0.1553
 4907SOL    HW125940  -0.021   7.831   4.307 -0.7523  0.1352 -1.8898
 4907SOL    HW225941   0.071   7.749   4.200  1.4679  1.3500 -0.9444
 4908SOL     OW25942   2.266   6.395   3.493 -0.8403  0.3663  0.1045
 4908SOL    HW125943   2.206   6.326   3.453 -0.4748  0.4237 -0.5611
 4908SOL    HW225944   2.274   6.380   3.591  1.5453 -2.3212 -0.4524
 4909SOL     OW25945   7.882   2.004   2.642  0.0950  0.0517  0.9059
 4909SOL    HW125946   7.877   1.933   2.713 -0.0941  0.2543  1.0995
 4909SOL    HW225947   7.906   1.963   2.555 -2.4575 -0.6445  0.4764
 4910SOL     OW25948   2.542   2.377   4.976  0.2290  0.2488  0.2044
 4910SOL    HW125949   2.577   2.286   4.995  4.3906  1.6385 -0.3064
 4910SOL    HW225950   2.539   2.431   5.060  2.6766  1.2012 -0.2947
 4911SOL     OW25951   3.689   9.745   3.368 -0.3699  0.1472  0.6048
 4911SOL    HW125952   3.709   9.687   3.447 -0.5956 -0.9947 -0.1681
 4911SOL    HW225953   3.739   9.711   3.288 -2.3494 -0.4369 -0.4237
 4912SOL     OW25954   2.819   2.683   5.945 -0.1531 -0.6560 -0.0694
 4912SOL    HW125955   2.907   2.702   5.902  0.7143  0.4887  2.1528
 4912SOL    HW225956   2.753   2.658   5.874  1.8202 -1.0960 -1.8114
 4913SOL     OW25957   6.791   8.879   2.499 -0.1852  0.9434  1.2253
 4913SOL    HW125958   6.783   8.925   2.588  1.2903  0.3366  1.6916
 4913SOL    HW225959   6.709   8.824   2.482  0.1391 -0.0927  2.8967
 4914SOL     OW25960   0.665   1.707   0.717  0.5008 -0.1475 -0.5603
 4914SOL    HW125961   0.569   1.690   0.739  0.9358  0.3027  1.8291
 4914SOL    HW225962   0.684   1.805   0.727  1.4691 -0.3978  0.1442
 4915SOL     OW25963   9.256   9.060   3.547 -0.3119  0.5214  0.2806
 4915SOL    HW125964   9.315   9.067   3.466 -0.1061  0.5615  0.4322
 4915SOL    HW225965   9.193   8.984   3.535  0.0171  0.2449  0.2758
 4916SOL     OW25966   3.643   4.622   0.566 -0.5643  0.2476  0.5822
 4916SOL    HW125967   3.725   4.564   0.569 -1.0779 -0.3809  3.2063
 4916SOL    HW225968   3.644   4.686   0.642 -2.8538 -0.2291  1.0356
 4917SOL     OW25969   0.685   9.077   2.577  0.2902  0.7646  0.1706
 4917SOL    HW125970   0.701   9.047   2.483  0.3129  0.8067  0.1616
 4917SOL    HW225971   0.644   9.168   2.576 -1.0454  0.1873  0.1538
 4918SOL     OW25972   7.279   2.108   3.104 -0.4486 -0.4135 -0.0291
 4918SOL    HW125973   7.182   2.124   3.088 -0.8515  0.0471  2.5785
 4918SOL    HW225974   7.309   2.163   3.182  2.1593  0.2414 -1.4315
 4919SOL     OW25975   2.867   2.012   6.231  0.5719 -0.5361 -0.1613
 4919SOL    HW125976   2.842   1.951   6.307  0.8091  0.7735  0.9836
 4919SOL    HW225977   2.786   2.064   6.203  0.9164  0.3335  0.4454
 4920SOL     OW25978   7.179   2.245   5.152  0.7237 -0.4345 -0.2769
 4920SOL    HW125979   7.211   2.237   5.058  0.4920  0.7622 -0.4629
 4920SOL    HW225980   7.211   2.332   5.191 -0.6015 -0.1484  0.1937
 4921SOL     OW25981   4.341   1.902   3.859  0.0317 -0.3103  0.1178
 4921SOL    HW125982   4.350   1.851   3.945 -1.7235  0.3993  0.7645
 4921SOL    HW225983   4.333   1.838   3.783  0.3262 -0.9716  0.6376
 4922SOL     OW25984   9.068   8.292   6.544 -0.3153 -0.0091 -0.0197
 4922SOL    HW125985   9.069   8.355   6.621 -1.1554 -1.4164  1.1809
 4922SOL    HW225986   9.131   8.217   6.561 -1.0755 -0.7360 -0.3441
 4923SOL     OW25987   2.736   4.037   1.019  0.3010  0.1694  0.0359
 4923SOL    HW125988   2.682   3.989   1.088  0.7282 -1.2333 -0.5772
 4923SOL    HW225989   2.676   4.071   0.947  0.1059 -0.4072 -0.0768
 4924SOL     OW25990   1.686   1.931   3.993 -0.3382  0.3661 -0.5250
 4924SOL    HW125991   1.623   1.981   4.053  0.6189 -0.8377  1.5692
 4924SOL    HW225992   1.758   1.993   3.961 -0.6243  0.9364 -0.0705
 4925SOL     OW25993   4.628   5.356   2.813 -0.2359 -0.4504  0.0603
 4925SOL    HW125994   4.613   5.279   2.751 -1.7140 -0.7219  0.7473
 4925SOL    HW225995   4.617   5.442   2.763 -1.1925 -0.6687 -0.1113
 4926SOL     OW25996   3.723   7.738   3.082 -0.6280 -0.5382  0.3700
 4926SOL    HW125997   3.683   7.680   3.010 -1.2827  0.0906  0.2167
 4926SOL    HW225998   3.726   7.833   3.050  0.7747 -0.5369  0.4876
 4927SOL     OW25999   5.173   0.937   4.039 -0.1028  0.2450 -0.6918
 4927SOL    HW126000   5.087   0.890   4.020  0.0110  0.1333 -0.9372
 4927SOL    HW226001   5.174   0.969   4.134  0.3032 -1.2973 -0.1559
 4928SOL     OW26002   4.194   6.014   0.430  0.5948  0.5018 -0.0505
 4928SOL    HW126003   4.210   5.936   0.491 -2.7795  0.9963  1.6008
 4928SOL    HW226004   4.172   5.981   0.338  0.6926 -0.4374  0.2632
 4929SOL     OW26005   2.318   1.395   3.862  0.1406 -0.5069 -0.3094
 4929SOL    HW126006   2.321   1.314   3.804 -2.0207  0.1601 -1.3889
 4929SOL    HW226007   2.389   1.459   3.832 -0.2321 -0.6414 -1.4923
 4930SOL     OW26008   0.168   7.896   4.985 -0.5238  0.3203  0.2508
 4930SOL    HW126009   0.092   7.858   5.038 -0.9385  0.1552 -0.4612
 4930SOL    HW226010   0.226   7.949   5.046 -0.5639 -0.5061  1.0353
 4931SOL     OW26011   0.466   3.373   1.369  0.4295  0.0159  0.0777
 4931SOL    HW126012   0.500   3.427   1.292 -1.4833  0.8075 -0.2417
 4931SOL    HW226013   0.531   3.379   1.445  1.4269  0.7445 -0.8092
 4932SOL     OW26014   6.983   2.166   0.730 -0.1914 -0.4373 -0.3338
 4932SOL    HW126015   6.977   2.174   0.830  2.6526 -1.1282 -0.0630
 4932SOL    HW226016   7.075   2.191   0.700 -0.7915 -0.9680 -2.7249
 4933SOL     OW26017   7.517   0.414   3.090  0.1359  0.4298 -0.7392
 4933SOL    HW126018   7.431   0.405   3.040  0.2559 -1.6775 -0.6047
 4933SOL    HW226019   7.590   0.441   3.027 -0.1117 -0.3027 -1.3441
 4934SOL     OW26020   3.913   7.821   0.997  0.5456  0.1070 -0.4127
 4934SOL    HW126021   3.859   7.796   1.077  0.6984 -1.4510 -0.7945
 4934SOL    HW226022   4.010   7.810   1.018  0.4917 -3.4529 -1.8412
 4935SOL     OW26023   0.850   8.140   3.527 -0.2196 -0.0100  0.4218
 4935SOL    HW126024   0.849   8.157   3.625 -0.5110  0.9810  0.2519
 4935SOL    HW226025   0.774   8.079   3.503 -0.4221  0.1118  0.7511
 4936SOL     OW26026   7.283   2.077   5.330 -0.3105 -0.4446 -0.0663
 4936SOL    HW126027   7.376   2.085   5.366 -0.7698 -1.5125  1.4342
 4936SOL    HW226028   7.261   2.156   5.274  2.1892 -1.0960 -2.0281
 4937SOL     OW26029   8.767   7.178   4.998 -0.2142 -0.0190  0.4646
 4937SOL    HW126030   8.866   7.191   4.989 -0.2279  0.2231  0.6902
 4937SOL    HW226031   8.738   7.202   5.090 -0.6199  0.7365  0.1465
 4938SOL     OW26032   5.159   1.329   3.767  0.2105  0.3070 -0.0659
 4938SOL    HW126033   5.111   1.281   3.694 -2.4946  0.2080  1.7154
 4938SOL    HW226034   5.157   1.428   3.750 -1.0708  0.3419  0.2191
 4939SOL     OW26035   8.065   0.415   0.316 -0.1458  0.4096 -0.0563
 4939SOL    HW126036   8.125   0.403   0.395 -0.8982  1.5198  0.6928
 4939SOL    HW226037   8.106   0.480   0.252 -0.3059  0.7650  0.2029
 4940SOL     OW26038   8.097   9.592   5.376 -0.0950  0.2715 -0.0397
 4940SOL    HW126039   8.142   9.533   5.443  2.9063  0.8548 -1.4701
 4940SOL    HW226040   8.081   9.682   5.418  1.4103  0.5129  0.0480
 4941SOL     OW26041   9.805   3.604   5.463  0.0309 -0.0636  0.5255
 4941SOL    HW126042   9.816   3.597   5.562 -0.3614 -0.1327  0.5675
 4941SOL    HW226043   9.734   3.672   5.443  0.7219  0.5963  0.2660
 4942SOL     OW26044   1.548   7.752   5.082 -0.4785  0.2911  0.4288
 4942SOL    HW126045   1.527   7.665   5.038 -0.5861  0.2576  0.5453
 4942SOL    HW226046   1.531   7.827   5.017 -1.4930  0.3020  0.6945
 4943SOL     OW26047   2.165   0.684   0.029  0.2036 -0.4911  0.5078
 4943SOL    HW126048   2.219   0.660  -0.051  0.5428 -0.3645  0.6978
 4943SOL    HW226049   2.143   0.781   0.027  1.4724 -0.1778  1.3173
 4944SOL     OW26050   4.167   5.429   2.191  0.2417 -0.1099  0.0669
 4944SOL    HW126051   4.100   5.454   2.261 -2.5716 -2.6422 -1.5820
 4944SOL    HW226052   4.129   5.447   2.100  2.8250  0.7618 -0.8773
 4945SOL     OW26053   4.277   4.828   4.952  0.0483  0.8514 -0.1146
 4945SOL    HW126054   4.201   4.838   4.888  0.7719 -1.3682 -1.3530
 4945SOL    HW226055   4.364   4.838   4.902  0.6408 -2.2767  0.2136
 4946SOL     OW26056   4.478   9.857   3.883 -0.4971  0.0566 -0.1386
 4946SOL    HW126057   4.492   9.949   3.920 -0.5232 -0.0801  0.2109
 4946SOL    HW226058   4.426   9.863   3.797 -0.5642  0.3600 -0.0776
 4947SOL     OW26059   0.590   8.940   3.686 -0.2223 -0.9021  0.0070
 4947SOL    HW126060   0.640   8.967   3.768  1.0907 -2.0640 -0.3977
 4947SOL    HW226061   0.510   8.999   3.675  0.9769  0.9100  0.7328
 4948SOL     OW26062   0.537   6.878   1.080 -0.0004 -0.4559 -0.3000
 4948SOL    HW126063   0.617   6.913   1.031  1.7848  0.3629  3.0305
 4948SOL    HW226064   0.472   6.952   1.096 -0.3681 -0.6239 -0.9910
 4949SOL     OW26065   7.587   7.920   5.790  0.2932 -0.0696  0.0559
 4949SOL    HW126066   7.627   7.934   5.880  3.4738 -1.0006 -1.1335
 4949SOL    HW226067   7.502   7.869   5.798  1.1404 -1.1576  2.4661
 4950SOL     OW26068   1.533   0.997   1.144  0.0530  0.1304 -0.1364
 4950SOL    HW126069   1.511   1.065   1.213  0.9103  0.0951  0.1793
 4950SOL    HW226070   1.506   0.906   1.176 -0.7146  0.2700 -0.3856
 4951SOL     OW26071   4.063   0.688   0.933 -0.2604  0.0140 -0.0956
 4951SOL    HW126072   3.977   0.639   0.946 -0.6846  0.2782 -1.7358
 4951SOL    HW226073   4.091   0.681   0.837 -0.4969  3.2105 -0.4488
 4952SOL     OW26074   0.144   3.137   3.645 -0.1767  0.4019 -0.5501
 4952SOL    HW126075   0.089   3.156   3.727  0.2267  1.6262 -0.5526
 4952SOL    HW226076   0.158   3.039   3.637  1.0530  0.3432  1.7055
 4953SOL     OW26077   2.037   8.626   4.370  0.1624  0.4625 -0.3045
 4953SOL    HW126078   1.944   8.622   4.405 -0.2346 -0.5351 -1.4008
 4953SOL    HW226079   2.053   8.714   4.325 -0.4771  0.3925 -0.6799
 4954SOL     OW26080   0.581   1.689   5.318  0.6460  0.1434  0.4652
 4954SOL    HW126081   0.555   1.782   5.293  1.2984  0.1063 -0.3760
 4954SOL    HW226082   0.499   1.632   5.325  0.1584  1.0037  1.9683
 4955SOL     OW26083   9.000   5.805   2.146  0.0952  0.1569 -0.1216
 4955SOL    HW126084   8.926   5.803   2.079 -0.5140 -1.4689  0.5565
 4955SOL    HW226085   9.020   5.899   2.172 -2.6818  0.5343  0.7233
 4956SOL     OW26086   0.681   2.049   3.906 -0.2820  0.2591  0.2093
 4956SOL    HW126087   0.634   1.988   3.842 -0.7939  0.8807 -0.0145
 4956SOL    HW226088   0.646   2.142   3.895 -0.2008  0.4172  1.2265
 4957SOL     OW26089   8.959   0.053   5.160  0.7052 -0.4984 -0.5927
 4957SOL    HW126090   9.040  -0.005   5.157  0.3214 -1.0554 -0.3826
 4957SOL    HW226091   8.906   0.032   5.243  0.7967  0.4720 -0.2861
 4958SOL     OW26092   3.123   3.923   6.660 -0.4810 -0.1859  0.7036
 4958SOL    HW126093   3.067   4.003   6.640  0.1453  0.3269  0.9738
 4958SOL    HW226094   3.104   3.891   6.753 -2.7867 -2.0687 -0.3690
 4959SOL     OW26095   3.887   3.352   5.669  0.7514  0.1491  1.0768
 4959SOL    HW126096   3.877   3.398   5.581  0.9901 -0.8036  0.5428
 4959SOL    HW226097   3.804   3.364   5.723  0.5147  0.5368  0.6260
 4960SOL     OW26098   2.657   6.181   2.431  0.8483  0.0741 -0.0108
 4960SOL    HW126099   2.649   6.210   2.336  0.9193 -1.5844 -0.5319
 4960SOL    HW226100   2.708   6.250   2.483 -0.4062  1.6580 -0.8385
 4961SOL     OW26101   8.967   3.720   3.223  0.1016 -0.4951 -0.5518
 4961SOL    HW126102   9.022   3.694   3.144  0.1648 -0.6989 -0.4419
 4961SOL    HW226103   9.006   3.678   3.305 -0.3944 -0.8726 -0.5122
 4962SOL     OW26104   8.234   5.852   4.195 -0.5906  0.3844 -0.5072
 4962SOL    HW126105   8.210   5.763   4.233 -1.7710  1.1447  0.5719
 4962SOL    HW226106   8.316   5.887   4.240 -1.2778  0.7334  0.4737
 4963SOL     OW26107   2.700   8.568   5.066 -0.0356 -0.3971  0.1065
 4963SOL    HW126108   2.628   8.537   5.128 -0.8028  0.0711 -0.5472
 4963SOL    HW226109   2.659   8.609   4.985  0.9489  1.8873  0.7220
 4964SOL     OW26110   6.632   8.616   2.646 -0.2935 -0.2398 -0.6219
 4964SOL    HW126111   6.640   8.626   2.745  1.3275  1.6882 -0.9041
 4964SOL    HW226112   6.570   8.686   2.611 -0.2348 -0.4021 -1.0489
 4965SOL     OW26113   8.005   7.328   0.212  0.1388 -0.1855 -0.5176
 4965SOL    HW126114   7.975   7.262   0.143  1.3775 -0.7587 -0.5212
 4965SOL    HW226115   7.943   7.325   0.290  0.2197 -1.4087 -0.4921
 4966SOL     OW26116   3.473   5.922   3.092  0.1566  0.0932  0.2930
 4966SOL    HW126117   3.418   5.880   3.163 -1.5683  0.4139 -0.8173
 4966SOL    HW226118   3.426   5.912   3.004  2.2255 -0.2739 -0.8024
 4967SOL     OW26119   5.043   2.091   1.924 -0.2704  0.2310 -0.2106
 4967SOL    HW126120   5.142   2.080   1.914 -0.2729  0.7335 -0.8061
 4967SOL    HW226121   4.998   2.003   1.906 -0.0316  0.3298 -1.3663
 4968SOL     OW26122   8.948   1.161   6.503 -0.3756 -0.1510 -0.1337
 4968SOL    HW126123   8.942   1.223   6.580  2.6951 -0.7869  0.6542
 4968SOL    HW226124   9.027   1.184   6.447 -0.8291 -1.5837 -1.4055
 4969SOL     OW26125   3.306   6.607   0.081 -0.4741  0.5478 -0.5462
 4969SOL    HW126126   3.252   6.605  -0.004 -3.9618 -0.5267  1.5868
 4969SOL    HW226127   3.287   6.692   0.131 -0.2834  0.1196  0.2640
 4970SOL     OW26128   7.175   5.185   0.029  0.4860  0.0862 -0.2927
 4970SOL    HW126129   7.104   5.214  -0.036 -0.0102  1.0088  0.6436
 4970SOL    HW226130   7.264   5.216  -0.004  0.6003 -1.9155 -1.9652
 4971SOL     OW26131   7.427   3.399   0.833  0.5362  0.5439  0.3527
 4971SOL    HW126132   7.511   3.419   0.884  0.4312  1.7310  0.0721
 4971SOL    HW226133   7.432   3.442   0.743 -1.4902  2.9391  1.3025
 4972SOL     OW26134   5.459   1.793   0.398  0.5964  0.3434 -0.2569
 4972SOL    HW126135   5.387   1.829   0.339 -0.5952  0.0186  0.9516
 4972SOL    HW226136   5.516   1.729   0.347 -2.1734 -2.1675 -0.3733
 4973SOL     OW26137   2.062   3.722   0.978  0.0434  0.1811  0.1948
 4973SOL    HW126138   2.112   3.778   0.912  1.8245 -0.3829  1.0066
 4973SOL    HW226139   1.968   3.753   0.985  0.2862  1.3004 -1.3835
 4974SOL     OW26140   6.704   1.210   6.461 -0.2999  0.5379 -0.0371
 4974SOL    HW126141   6.632   1.278   6.446 -2.0150 -1.3885 -0.8277
 4974SOL    HW226142   6.705   1.145   6.385  2.4098  0.5957 -0.1140
 4975SOL     OW26143   3.714   9.304   5.363 -0.1880  0.0650 -0.3255
 4975SOL    HW126144   3.781   9.376   5.346 -0.6739  0.3910 -0.8396
 4975SOL    HW226145   3.754   9.216   5.338  0.4503  0.1328  0.4218
 4976SOL     OW26146   1.761   5.704   4.579  0.8071  0.0906 -0.1574
 4976SOL    HW126147   1.713   5.728   4.663 -0.4199 -0.4667 -0.6945
 4976SOL    HW226148   1.803   5.786   4.539  1.4601  0.3392  1.0277
 4977SOL     OW26149   1.316   8.939   6.201  0.0529 -0.2935 -0.5117
 4977SOL    HW126150   1.355   8.859   6.156 -0.7394 -0.1651 -1.4513
 4977SOL    HW226151   1.254   8.986   6.138  0.3800  0.9665  0.0844
 4978SOL     OW26152   3.647   3.115   2.348 -0.0166  0.5979  0.0814
 4978SOL    HW126153   3.598   3.037   2.388  2.5972  0.1536  2.5234
 4978SOL    HW226154   3.702   3.084   2.271  0.7870  0.0648  0.8626
 4979SOL     OW26155   9.715   3.434   2.681  0.3862 -0.4445 -0.6874
 4979SOL    HW126156   9.708   3.357   2.617 -0.5102 -1.3619  0.4890
 4979SOL    HW226157   9.642   3.427   2.749 -1.3502  2.8903 -2.0885
 4980SOL     OW26158   3.219   7.162   4.083 -0.1387  0.0062 -0.1209
 4980SOL    HW126159   3.191   7.239   4.026  3.0050  0.2362 -1.4361
 4980SOL    HW226160   3.314   7.174   4.111 -0.5545 -1.8635  2.2710
 4981SOL     OW26161   2.460   9.864   6.121 -0.2049 -0.1749 -0.1241
 4981SOL    HW126162   2.515   9.792   6.078  0.7498  0.4788 -0.0212
 4981SOL    HW226163   2.385   9.889   6.061  2.4313  2.3572 -2.5259
 4982SOL     OW26164   4.491   1.728   3.257 -0.3615 -0.0072  0.1226
 4982SOL    HW126165   4.505   1.658   3.188  0.6611  0.5437 -0.2484
 4982SOL    HW226166   4.422   1.698   3.323  0.8538 -1.8310  0.5968
 4983SOL     OW26167   9.505   8.770   3.706 -0.3331  0.1576 -0.1739
 4983SOL    HW126168   9.500   8.726   3.617 -0.3490  0.4368 -0.3117
 4983SOL    HW226169   9.584   8.734   3.756  0.0736  0.4808 -0.5663
 4984SOL     OW26170   9.367   9.994   4.932 -0.3791 -0.5301  0.0972
 4984SOL    HW126171   9.387  10.074   4.989 -0.6109  0.2211 -0.8621
 4984SOL    HW226172   9.373  10.019   4.835  2.7378 -2.4627 -0.2828
 4985SOL     OW26173   0.336   1.922   4.456  0.0326 -0.7242 -0.7214
 4985SOL    HW126174   0.311   1.825   4.455 -0.7546 -0.5389  0.1119
 4985SOL    HW226175   0.370   1.947   4.546 -1.3270  0.1491 -0.4311
 4986SOL     OW26176   8.716   0.216   6.592 -0.1377 -0.1457  0.8252
 4986SOL    HW126177   8.618   0.205   6.575 -0.0323  0.8678 -0.5093
 4986SOL    HW226178   8.767   0.159   6.528  0.2029  1.7297 -0.6147
 4987SOL     OW26179   4.347   3.437   2.864  0.3230 -0.2065 -0.0250
 4987SOL    HW126180   4.256   3.474   2.881  0.7845  1.6512 -1.3663
 4987SOL    HW226181   4.408   3.511   2.835  2.3146 -1.3761  0.9983
 4988SOL     OW26182   1.869   1.503   1.223  0.3476  0.0051  0.1667
 4988SOL    HW126183   1.834   1.410   1.208 -0.0878  0.1743  0.1408
 4988SOL    HW226184   1.844   1.561   1.145 -0.3396  0.4280  0.6989
 4989SOL     OW26185   4.333   4.491   3.907  0.0930  0.6791 -0.5939
 4989SOL    HW126186   4.300   4.401   3.934 -0.5764  0.5203 -1.9002
 4989SOL    HW226187   4.267   4.561   3.934  1.0760  0.8968  1.3096
 4990SOL     OW26188   2.790   7.292   3.629  0.2392 -0.4891  0.4594
 4990SOL    HW126189   2.882   7.321   3.602 -0.0142  1.0419  1.2033
 4990SOL    HW226190   2.723   7.358   3.595 -0.4852 -0.9557  0.9708
 4991SOL     OW26191   7.697   8.127   4.825  0.3275  0.1493  0.1838
 4991SOL    HW126192   7.790   8.109   4.857  0.3753 -0.8378 -0.4875
 4991SOL    HW226193   7.697   8.143   4.727 -0.0459  1.5032  0.3873
 4992SOL     OW26194   1.944   3.965   4.866  0.2117  0.0078 -0.6586
 4992SOL    HW126195   1.852   3.938   4.894  0.4124  0.7233  0.7369
 4992SOL    HW226196   1.979   3.899   4.799 -1.5919  0.1468 -1.7612
 4993SOL     OW26197   2.779   1.853   5.459  0.4152  0.2870 -0.1155
 4993SOL    HW126198   2.843   1.920   5.494  1.3364 -1.2987  1.2850
 4993SOL    HW226199   2.773   1.775   5.522  0.6511 -1.7304 -2.4818
 4994SOL     OW26200   8.681   8.649   3.341 -0.2289 -0.3733 -0.8700
 4994SOL    HW126201   8.680   8.693   3.251 -1.4573  0.2072 -0.5865
 4994SOL    HW226202   8.732   8.706   3.406  3.9000 -2.5534 -2.0220
 4995SOL     OW26203   1.937   9.117   2.972 -0.5578 -0.2561 -0.0001
 4995SOL    HW126204   1.965   9.199   3.022  0.3261 -0.4299 -0.2079
 4995SOL    HW226205   1.941   9.038   3.033 -3.1737  0.1193  0.7237
 4996SOL     OW26206   3.334   7.087   1.739  0.2976  0.3165 -0.0191
 4996SOL    HW126207   3.262   7.154   1.721  1.6199  1.2910 -1.8689
 4996SOL    HW226208   3.387   7.072   1.655  1.9706 -0.6935  1.1908
 4997SOL     OW26209   7.634   5.675   6.516 -0.9482 -0.7541  0.6007
 4997SOL    HW126210   7.680   5.750   6.468 -1.9041 -1.4833 -1.5364
 4997SOL    HW226211   7.698   5.630   6.578 -0.2177  1.4569  1.4651
 4998SOL     OW26212   5.110   2.051   0.431 -0.0188 -0.2092  0.3481
 4998SOL    HW126213   5.201   2.075   0.465 -0.3732  1.4335  0.1775
 4998SOL    HW226214   5.041   2.105   0.480 -0.9014 -1.3341  0.3686
 4999SOL     OW26215   3.815   9.946   4.628 -0.0446 -0.0354 -0.2660
 4999SOL    HW126216   3.730   9.908   4.593  0.3744 -0.8623 -0.4002
 4999SOL    HW226217   3.888   9.878   4.618  0.3570  0.2104  0.9986
 5000SOL     OW26218   0.653   4.610   5.602 -0.3860  0.5330  0.7181
 5000SOL    HW126219   0.565   4.657   5.613 -1.0902 -0.4618 -0.5048
 5000SOL    HW226220   0.690   4.629   5.511 -0.4623 -0.9261  0.3798
 5001SOL     OW26221   5.534   7.886   3.311 -0.4447  0.0507  0.4152
 5001SOL    HW126222   5.556   7.838   3.226 -0.2862  0.3501  0.2873
 5001SOL    HW226223   5.535   7.984   3.295 -1.0111  0.0894  0.6218
 5002SOL     OW26224   7.606   2.299   3.630 -0.1167 -0.3020 -0.2536
 5002SOL    HW126225   7.547   2.219   3.638 -0.7341  0.0418 -1.2215
 5002SOL    HW226226   7.557   2.371   3.581  0.2922  0.8039  0.9515
 5003SOL     OW26227   6.785   1.931   1.135  0.2991 -0.3889 -0.6379
 5003SOL    HW126228   6.760   1.916   1.039  0.8335  2.0805 -1.1887
 5003SOL    HW226229   6.874   1.976   1.140  0.5275 -0.9740  1.0523
 5004SOL     OW26230   2.183   6.836   4.940  0.2125  0.4224 -0.1256
 5004SOL    HW126231   2.160   6.780   4.860  0.6218  1.0117 -0.6628
 5004SOL    HW226232   2.271   6.805   4.978  0.3496  0.5831 -0.3126
 5005SOL     OW26233   6.344   8.654   4.814 -0.1692  0.1305 -0.0468
 5005SOL    HW126234   6.280   8.578   4.823 -0.1398  0.1607  0.3982
 5005SOL    HW226235   6.389   8.648   4.725 -0.4204 -0.1759 -0.1569
 5006SOL     OW26236   8.962   9.503   2.809 -0.3941 -0.0721 -0.2306
 5006SOL    HW126237   8.948   9.568   2.883 -0.2380 -0.7693  0.4251
 5006SOL    HW226238   8.930   9.542   2.723 -0.2947  0.8637  0.1541
 5007SOL     OW26239   5.354   0.878   2.751 -0.3449  0.0192  0.4035
 5007SOL    HW126240   5.376   0.806   2.685 -0.6278  1.1186 -0.9187
 5007SOL    HW226241   5.322   0.836   2.836  1.1297 -1.4433  0.2705
 5008SOL     OW26242   9.130   1.870   2.672  0.1174  0.1336 -0.0681
 5008SOL    HW126243   9.094   1.779   2.655 -0.7771  0.5484 -0.4033
 5008SOL    HW226244   9.057   1.938   2.663  0.1017  0.6021  3.0680
 5009SOL     OW26245   4.752   1.579   4.954  0.7376  0.4124  0.1526
 5009SOL    HW126246   4.838   1.629   4.964  1.0807 -0.2371  0.4450
 5009SOL    HW226247   4.698   1.622   4.881  0.8900  1.3981  0.6059
 5010SOL     OW26248   3.804   9.844   1.179  0.3857 -0.2140 -0.3511
 5010SOL    HW126249   3.744   9.835   1.099  0.2327 -1.1902 -0.1345
 5010SOL    HW226250   3.853   9.930   1.174 -0.1237  0.0368 -1.1638
 5011SOL     OW26251   4.096   3.506   2.878 -0.4520 -0.3555 -0.0513
 5011SOL    HW126252   4.072   3.534   2.785 -1.7769 -0.8797  0.1119
 5011SOL    HW226253   4.056   3.570   2.943  0.0924 -0.2421  0.1687
 5012SOL     OW26254   5.938   5.261   0.683 -0.1525 -0.1599 -0.3157
 5012SOL    HW126255   5.935   5.176   0.735 -1.6139  0.7586  1.1706
 5012SOL    HW226256   5.942   5.241   0.585 -0.0780 -1.9131  0.0355
 5013SOL     OW26257   0.482   7.421   1.071  0.5807 -0.6359 -0.1826
 5013SOL    HW126258   0.560   7.470   1.032 -1.5607  3.1823  0.0884
 5013SOL    HW226259   0.473   7.444   1.168 -0.1770 -1.9906  0.0766
 5014SOL     OW26260   6.599   1.080   5.364  0.5284 -0.1680 -0.1598
 5014SOL    HW126261   6.697   1.102   5.369  0.1018  1.7004  0.4316
 5014SOL    HW226262   6.578   1.042   5.274  1.7465 -0.2953 -0.3985
 5015SOL     OW26263   3.023   9.274   4.882  0.2861 -0.0258 -0.1131
 5015SOL    HW126264   2.997   9.365   4.915  1.0946 -0.5067  1.9260
 5015SOL    HW226265   3.119   9.274   4.855  0.6169 -0.5809  1.0512
 5016SOL     OW26266   9.899   1.355   3.528  0.4509 -0.7136 -1.0046
 5016SOL    HW126267   9.820   1.299   3.503  1.3056 -1.2693 -2.5386
 5016SOL    HW226268   9.904   1.435   3.468  0.2958  0.0319 -0.0306
 5017SOL     OW26269   7.954   7.979   4.573  0.2084 -0.5014  0.3706
 5017SOL    HW126270   7.999   7.952   4.488  0.2337  0.8580 -0.0613
 5017SOL    HW226271   8.014   8.041   4.624 -0.6158  0.2843  0.4140
 5018SOL     OW26272   2.032   5.786   4.407  0.1956  0.7766 -0.3228
 5018SOL    HW126273   2.048   5.850   4.482  3.2000 -1.1777  0.8209
 5018SOL    HW226274   2.116   5.778   4.352 -0.4527 -1.3827 -1.0357
 5019SOL     OW26275   1.896   8.784   5.080 -0.2506 -0.4857 -0.1962
 5019SOL    HW126276   1.811   8.814   5.036  0.6604  1.3410 -0.7728
 5019SOL    HW226277   1.895   8.812   5.176 -0.1065 -0.0285 -0.3248
 5020SOL     OW26278   3.602   3.768   3.827 -0.1266 -0.2348 -0.2524
 5020SOL    HW126279   3.677   3.731   3.772 -0.1881  1.2866 -1.4040
 5020SOL    HW226280   3.521   3.780   3.769 -0.7856 -0.3955  0.6217
 5021SOL     OW26281   9.809   4.843   4.720 -0.1174  0.1868 -0.5072
 5021SOL    HW126282   9.856   4.783   4.654  0.2627  1.3272 -1.3007
 5021SOL    HW226283   9.877   4.901   4.765 -0.6368  1.1229 -0.9101
 5022SOL     OW26284   0.416   3.945   2.288 -0.0785  0.1914 -0.0516
 5022SOL    HW126285   0.495   3.925   2.345  1.7351  0.1658 -2.5003
 5022SOL    HW226286   0.339   3.972   2.346  1.5495 -0.2721  2.3991
 5023SOL     OW26287   9.535   9.712   1.057  0.2600 -0.1595 -0.2977
 5023SOL    HW126288   9.582   9.626   1.072  2.4131  1.2080  1.0189
 5023SOL    HW226289   9.566   9.754   0.972  1.8629  0.9897  0.8264
 5024SOL     OW26290   3.972   5.507   6.026 -0.2723  0.0253  0.3162
 5024SOL    HW126291   3.875   5.504   6.002 -0.1485  0.0932 -0.2098
 5024SOL    HW226292   4.018   5.425   5.990 -0.2911 -0.4085  1.2696
 5025SOL     OW26293   9.112   7.148   2.824 -0.2300 -0.6958  0.0124
 5025SOL    HW126294   9.046   7.221   2.804  0.7854  0.0638 -0.6222
 5025SOL    HW226295   9.160   7.122   2.741  0.0938 -1.4160  0.4188
 5026SOL     OW26296   8.916   0.523   6.361 -0.0591  0.2832 -0.5354
 5026SOL    HW126297   8.832   0.514   6.415 -0.9393 -1.2890 -2.1230
 5026SOL    HW226298   8.909   0.604   6.303 -0.0807  0.6779  0.0122
 5027SOL     OW26299   0.378   0.986   2.346  0.5557 -0.6993  0.4612
 5027SOL    HW126300   0.288   0.946   2.327 -0.1845  0.5603  1.3293
 5027SOL    HW226301   0.407   0.959   2.437 -0.2907  1.3595  1.3559
 5028SOL     OW26302   8.233   7.353   2.729  0.4333 -0.2110 -0.6788
 5028SOL    HW126303   8.317   7.405   2.715  0.1952  0.4414  0.3515
 5028SOL    HW226304   8.209   7.352   2.826  0.2886 -2.0024 -0.7111
 5029SOL     OW26305   9.265   3.874   2.044 -0.0461 -0.0598  0.0937
 5029SOL    HW126306   9.347   3.845   1.995  0.0681  2.7181 -1.4587
 5029SOL    HW226307   9.184   3.851   1.990 -0.0442  0.9245 -0.3443
 5030SOL     OW26308   9.825   0.177   4.446  0.1658  0.2873  0.1719
 5030SOL    HW126309   9.871   0.102   4.493  0.9100  1.5498  1.4996
 5030SOL    HW226310   9.821   0.157   4.348  2.6155 -0.3481  0.1624
 5031SOL     OW26311   5.198   7.014   2.897  0.2329  0.3689 -0.0753
 5031SOL    HW126312   5.229   7.096   2.946 -0.8764  0.1036  1.0952
 5031SOL    HW226313   5.273   6.978   2.842  2.3743 -0.8785  3.5185
 5032SOL     OW26314   5.956   0.693   3.362 -0.5773  0.4071  0.5513
 5032SOL    HW126315   5.950   0.752   3.281  0.2614 -0.6948 -0.3269
 5032SOL    HW226316   5.882   0.716   3.425 -0.1750  2.5046  0.3007
 5033SOL     OW26317   2.459   2.321   0.282  0.0473 -0.0634  0.2756
 5033SOL    HW126318   2.367   2.291   0.256  0.3044 -0.2337 -0.4499
 5033SOL    HW226319   2.482   2.284   0.371  0.2042 -1.6856 -0.4251
 5034SOL     OW26320   3.113   4.007   4.587  0.5972  0.1825 -0.1029
 5034SOL    HW126321   3.164   3.963   4.661 -1.6689  0.0657  1.4399
 5034SOL    HW226322   3.038   3.947   4.557 -0.3266  1.4699 -0.4400
 5035SOL     OW26323   3.270   4.186   1.197 -0.1143  0.4768 -0.4819
 5035SOL    HW126324   3.368   4.200   1.207 -0.1598  0.7486 -0.4025
 5035SOL    HW226325   3.242   4.208   1.104 -0.0629  0.1777 -0.5680
 5036SOL     OW26326   8.869   7.285   4.246  0.5076 -0.3290  0.2142
 5036SOL    HW126327   8.844   7.218   4.315 -1.6759 -0.0453 -0.2455
 5036SOL    HW226328   8.797   7.355   4.240  1.6242  0.7500 -0.9275
 5037SOL     OW26329   3.400   7.737   2.883  0.1051 -0.0469  0.5971
 5037SOL    HW126330   3.340   7.725   2.804 -0.7569 -1.2725  1.4196
 5037SOL    HW226331   3.489   7.694   2.864  0.6503  1.5076 -0.5018
 5038SOL     OW26332   4.679   0.486   0.365 -0.1151  0.2969  0.6601
 5038SOL    HW126333   4.723   0.500   0.276 -0.2504  0.0557  0.5558
 5038SOL    HW226334   4.650   0.574   0.402  1.8051  0.6266  1.4222
 5039SOL     OW26335   3.612   7.787   1.086  0.0558 -0.0281  0.2650
 5039SOL    HW126336   3.572   7.833   1.007  1.2504  1.6187  0.6044
 5039SOL    HW226337   3.606   7.688   1.072 -0.4853  0.2283 -1.5166
 5040SOL     OW26338   2.682   9.336   5.400 -0.0477  0.1125  0.0293
 5040SOL    HW126339   2.732   9.289   5.328 -0.2644  0.4395 -0.3360
 5040SOL    HW226340   2.648   9.270   5.467 -1.3235 -0.3640 -1.0724
 5041SOL     OW26341   0.528   8.959   6.659 -0.1663 -0.4924  0.1648
 5041SOL    HW126342   0.580   8.884   6.700 -1.2913 -1.4753 -0.1623
 5041SOL    HW226343   0.581   9.044   6.665  1.6317 -1.5508 -0.5701
 5042SOL     OW26344   7.349   2.250   0.942  0.0603  0.3417 -0.5591
 5042SOL    HW126345   7.334   2.224   1.038  1.8729  0.1833 -0.3069
 5042SOL    HW226346   7.439   2.217   0.912 -0.9767 -0.6421 -2.6797
 5043SOL     OW26347   0.221   4.352   1.853  0.1043 -0.5144 -0.3710
 5043SOL    HW126348   0.181   4.277   1.905  0.2942 -0.6124 -0.3635
 5043SOL    HW226349   0.306   4.321   1.811  1.5293  0.4186  1.7328
 5044SOL     OW26350   6.575   2.490   4.328  0.0377  0.0572  0.4809
 5044SOL    HW126351   6.588   2.560   4.399 -1.4726  2.1828 -1.2484
 5044SOL    HW226352   6.604   2.527   4.240 -0.3439 -1.6967 -0.4014
 5045SOL     OW26353   9.993   0.989   3.528 -0.3618 -0.1972  0.3221
 5045SOL    HW126354   9.954   1.077   3.499 -0.9386 -0.0598  1.4802
 5045SOL    HW226355   9.920   0.923   3.542  0.1335 -1.1817 -1.4894
 5046SOL     OW26356   0.635   8.533   4.790 -0.1671 -0.1893  0.0496
 5046SOL    HW126357   0.722   8.536   4.741  0.3254 -1.3592  0.8376
 5046SOL    HW226358   0.582   8.615   4.768 -0.3274 -1.0671 -3.0916
 5047SOL     OW26359   9.853   0.207   2.161  0.3080 -0.4479 -0.1049
 5047SOL    HW126360   9.847   0.267   2.082 -0.6941  1.2550  1.2226
 5047SOL    HW226361   9.929   0.235   2.219  0.3706 -1.0129  0.0932
 5048SOL     OW26362   9.751   6.374   6.094  0.3865  0.5262  0.0371
 5048SOL    HW126363   9.659   6.400   6.124  1.0263  3.0069 -0.0245
 5048SOL    HW226364   9.761   6.275   6.101 -1.1902  0.5184  3.1878
 5049SOL     OW26365   8.405   7.108   6.625 -0.1297  0.4324  0.5349
 5049SOL    HW126366   8.458   7.192   6.636 -1.1613  1.1574  0.0297
 5049SOL    HW226367   8.380   7.097   6.529  1.0976 -1.1333  0.3718
 5050SOL     OW26368   6.390   7.611   4.157  0.3129 -0.4063 -0.2041
 5050SOL    HW126369   6.318   7.673   4.127  0.3054  0.0179  0.6907
 5050SOL    HW226370   6.424   7.639   4.247  1.3455 -0.8128 -0.4564
 5051SOL     OW26371   6.517   0.644   5.714  0.0497 -0.2238 -0.1458
 5051SOL    HW126372   6.595   0.595   5.754  0.7978  1.7277  0.8853
 5051SOL    HW226373   6.488   0.599   5.630  0.9245 -2.2111  0.5899
 5052SOL     OW26374   2.491   7.170   5.230  0.4516 -0.7459 -0.3978
 5052SOL    HW126375   2.511   7.259   5.273 -0.8564  0.1039 -1.5150
 5052SOL    HW226376   2.514   7.097   5.294 -1.5846  0.4923  1.8372
 5053SOL     OW26377   4.063   7.021   0.476 -0.2462  0.2650 -0.0012
 5053SOL    HW126378   4.062   6.998   0.573  0.2788  0.3861  0.0366
 5053SOL    HW226379   3.981   7.074   0.453  0.9924  2.6860  0.9927
 5054SOL     OW26380   8.116   9.471   5.785 -0.4693  0.2135  0.3959
 5054SOL    HW126381   8.117   9.557   5.838 -1.2562  0.1120  0.5804
 5054SOL    HW226382   8.028   9.426   5.796 -0.3682 -0.1900 -0.4106
 5055SOL     OW26383   2.863   1.076   0.989  0.3395  1.4233 -0.1712
 5055SOL    HW126384   2.941   1.050   1.046  1.3794  0.0809 -2.1503
 5055SOL    HW226385   2.895   1.133   0.913 -0.4664  0.3259 -1.3622
 5056SOL     OW26386   2.254   5.214   5.706 -0.3232 -0.2835 -0.1531
 5056SOL    HW126387   2.267   5.153   5.628 -0.9245  0.3789 -0.7830
 5056SOL    HW226388   2.200   5.293   5.677  0.2792  0.4489  0.6957
 5057SOL     OW26389   5.280   5.536   1.693 -0.1226 -0.3565  0.0083
 5057SOL    HW126390   5.260   5.452   1.743  0.7612  0.3986  1.6549
 5057SOL    HW226391   5.342   5.515   1.617  0.4596 -1.1062  0.6875
 5058SOL     OW26392   8.582   2.846   0.941  0.2739 -0.2048  0.2654
 5058SOL    HW126393   8.670   2.893   0.952  0.5646 -0.4811 -0.8576
 5058SOL    HW226394   8.586   2.786   0.861 -1.2540  0.5300 -0.3837
 5059SOL     OW26395   9.993   1.407   1.403  0.8685 -0.2769 -0.4241
 5059SOL    HW126396   9.975   1.502   1.379  2.0496  0.2204  0.6673
 5059SOL    HW226397  10.061   1.369   1.340  1.6596  0.1118  0.1872
 5060SOL     OW26398   8.725   9.357   4.393 -0.7917  0.7021  0.2286
 5060SOL    HW126399   8.724   9.278   4.455 -0.4753  0.0988 -0.5199
 5060SOL    HW226400   8.691   9.438   4.441  0.2704  0.4410  1.4490
 5061SOL     OW26401   1.989   5.492   2.464  0.7363 -0.0376  0.4323
 5061SOL    HW126402   2.029   5.402   2.450  1.2482  0.1695  0.5623
 5061SOL    HW226403   2.056   5.563   2.442 -0.3137  0.3354 -1.6968
 5062SOL     OW26404   9.347   1.709   1.431 -0.0930  0.3217 -0.6360
 5062SOL    HW126405   9.292   1.626   1.441  0.7184 -0.2531 -0.8926
 5062SOL    HW226406   9.435   1.685   1.391  0.3257  1.2471 -0.2632
 5063SOL     OW26407   9.104   1.064   0.346 -0.0579  0.0888 -0.9241
 5063SOL    HW126408   9.136   0.970   0.354  1.1460  0.7050  2.0515
 5063SOL    HW226409   9.016   1.074   0.393  1.5131  1.2000  1.8702
 5064SOL     OW26410   2.540   4.183   5.801 -0.0059 -0.1986 -0.3544
 5064SOL    HW126411   2.577   4.196   5.709 -1.3090  1.8501 -0.6235
 5064SOL    HW226412   2.445   4.151   5.795  0.4077 -1.6111  0.3062
 5065SOL     OW26413   6.970   1.303   2.329 -0.1957  0.1002  0.2702
 5065SOL    HW126414   6.872   1.307   2.351 -0.2716 -0.7257  0.1391
 5065SOL    HW226415   6.985   1.340   2.238 -0.4321 -0.0257  0.1784
 5066SOL     OW26416   0.237   3.829   0.506 -0.2313 -0.0185 -0.4448
 5066SOL    HW126417   0.337   3.828   0.500 -0.3154  0.8118 -2.4853
 5066SOL    HW226418   0.205   3.746   0.552  1.3449 -0.9346 -0.9689
 5067SOL     OW26419   0.220   0.526   5.779  0.1582 -0.0631 -0.3338
 5067SOL    HW126420   0.129   0.509   5.741  1.0523 -1.9102 -1.7552
 5067SOL    HW226421   0.267   0.438   5.792  0.6514  0.6331  3.2293
 5068SOL     OW26422   6.545   8.839   3.559  0.9055 -0.6699  0.4023
 5068SOL    HW126423   6.467   8.813   3.617  0.0060 -1.2630 -1.0394
 5068SOL    HW226424   6.512   8.861   3.468  2.1525  1.5448  0.4471
 5069SOL     OW26425   6.637   1.699   6.519  0.1353 -0.0214  0.0969
 5069SOL    HW126426   6.662   1.737   6.430  0.2917 -0.0583  0.1245
 5069SOL    HW226427   6.700   1.624   6.541 -0.0695 -0.1877  0.1173
 5070SOL     OW26428   0.497   9.721   3.085 -0.0118 -0.4836 -0.1030
 5070SOL    HW126429   0.594   9.705   3.104 -0.1130  0.3033  1.1789
 5070SOL    HW226430   0.462   9.648   3.027  1.7021 -0.0286 -1.7891
 5071SOL     OW26431   3.152   7.872   5.163 -0.0104 -0.4414  0.1841
 5071SOL    HW126432   3.212   7.927   5.222 -0.5679 -0.6578  0.9720
 5071SOL    HW226433   3.167   7.775   5.182  0.9733 -0.5748 -1.2056
 5072SOL     OW26434   7.596   3.936   4.840  0.3372  0.4114  0.3528
 5072SOL    HW126435   7.515   3.927   4.782  1.0916 -0.2064 -0.6193
 5072SOL    HW226436   7.591   4.022   4.891  0.0708  1.3563 -1.2529
 5073SOL     OW26437   9.863   9.804   5.826  0.1626 -0.2881  0.0968
 5073SOL    HW126438   9.839   9.734   5.892 -0.8632  1.1062  1.2433
 5073SOL    HW226439   9.788   9.815   5.761  0.2100 -0.0699  0.0799
 5074SOL     OW26440   9.573   0.916   1.054  0.2430 -0.2831  0.4544
 5074SOL    HW126441   9.521   0.967   1.123 -0.8086  0.2841 -0.7321
 5074SOL    HW226442   9.552   0.819   1.062 -0.8775 -0.0754  0.1068
 5075SOL     OW26443   1.642   7.054   3.424 -0.6926 -0.1507 -0.4165
 5075SOL    HW126444   1.723   7.088   3.473 -0.8455  0.2347 -0.4307
 5075SOL    HW226445   1.635   6.955   3.436  0.3351 -0.3304 -1.2307
 5076SOL     OW26446   9.118   3.002   3.519 -0.3018 -0.8909 -0.1761
 5076SOL    HW126447   9.129   3.051   3.605  0.2931  0.2277 -0.8739
 5076SOL    HW226448   9.205   2.961   3.492  0.0450  0.5501 -1.2969
 5077SOL     OW26449   8.140   1.217   1.565 -0.2294  0.0542  0.0294
 5077SOL    HW126450   8.134   1.187   1.469 -0.1020  0.1725 -0.0165
 5077SOL    HW226451   8.218   1.278   1.575  0.6081 -1.0806  0.5017
 5078SOL     OW26452   1.958   1.097   1.378  0.2731  0.2203 -0.8610
 5078SOL    HW126453   1.913   1.028   1.321 -0.1863  0.5418 -0.8899
 5078SOL    HW226454   2.042   1.127   1.333  0.1758  0.0986 -1.1263
 5079SOL     OW26455   0.626   9.259   5.292  0.2682 -0.0969  0.3941
 5079SOL    HW126456   0.555   9.286   5.227 -0.5033  0.8885  1.6270
 5079SOL    HW226457   0.629   9.324   5.367  1.8004 -0.6978  0.8760
 5080SOL     OW26458   7.846   4.273   4.833  0.3605 -0.1431  0.0236
 5080SOL    HW126459   7.796   4.325   4.902 -0.3622 -0.0934 -0.5351
 5080SOL    HW226460   7.895   4.198   4.877 -0.4756 -0.3940  0.5377
 5081SOL     OW26461   2.292   1.752   4.770 -0.3271 -0.4154  0.4148
 5081SOL    HW126462   2.214   1.692   4.749  0.1764 -0.3772 -1.7020
 5081SOL    HW226463   2.259   1.844   4.789 -0.7094 -0.0191 -2.0741
 5082SOL     OW26464   0.857   1.402   0.120 -0.6055  0.1160  0.3269
 5082SOL    HW126465   0.954   1.424   0.130 -0.9217  0.7883  2.2989
 5082SOL    HW226466   0.817   1.459   0.048  0.1765  0.7941  0.4250
 5083SOL     OW26467   7.835   1.076   4.098  0.0313  0.1190  0.2213
 5083SOL    HW126468   7.918   1.048   4.050 -1.1278 -0.4435 -1.5052
 5083SOL    HW226469   7.789   0.996   4.136 -0.7315  0.2229 -0.4814
 5084SOL     OW26470   0.994   4.142   4.868  0.7278 -0.1501 -0.2375
 5084SOL    HW126471   0.914   4.112   4.920 -0.7957  1.8404 -1.3512
 5084SOL    HW226472   0.986   4.112   4.773  1.8527 -0.8712 -0.1169
 5085SOL     OW26473   1.966   4.904   4.184  0.1965 -0.5299 -0.0192
 5085SOL    HW126474   1.940   4.899   4.280 -2.0982  0.7231 -0.5564
 5085SOL    HW226475   1.912   4.974   4.137  3.0786  0.7125 -1.6614
 5086SOL     OW26476   9.825   7.457   1.616 -0.3798  0.3761 -0.4651
 5086SOL    HW126477   9.843   7.396   1.693 -0.1719  0.4941 -0.4185
 5086SOL    HW226478   9.903   7.518   1.604 -1.1691  1.5627  0.3513
 5087SOL     OW26479   0.169   7.510   5.841 -0.3850 -0.3048 -0.0851
 5087SOL    HW126480   0.134   7.461   5.921 -0.1156 -1.2014 -0.5147
 5087SOL    HW226481   0.134   7.468   5.758  0.0102  0.1044 -0.4630
 5088SOL     OW26482   1.307   6.122   2.720  0.1528  0.4184 -0.2446
 5088SOL    HW126483   1.381   6.185   2.695  2.5980 -2.4730 -0.5883
 5088SOL    HW226484   1.269   6.082   2.637 -0.4276  0.3850  0.0370
 5089SOL     OW26485   0.275   0.084   4.731 -0.1199  0.0021  0.1043
 5089SOL    HW126486   0.188   0.129   4.750 -0.1586 -0.2483  0.5348
 5089SOL    HW226487   0.321   0.063   4.818  0.4600  0.3158 -0.1291
 5090SOL     OW26488   4.061   1.164   4.113  0.0775 -0.1278 -0.2085
 5090SOL    HW126489   4.088   1.176   4.209  0.5883 -2.6627  0.0061
 5090SOL    HW226490   3.983   1.223   4.092 -0.6198 -0.2154  2.0314
 5091SOL     OW26491   6.185   7.330   4.356 -0.1879  0.2363 -0.0068
 5091SOL    HW126492   6.150   7.409   4.306 -0.6540  0.7692  1.1569
 5091SOL    HW226493   6.181   7.249   4.296  2.4745  1.4900 -2.0042
 5092SOL     OW26494   4.698   7.421   1.522  0.6851 -0.9495  0.1386
 5092SOL    HW126495   4.610   7.377   1.506 -1.9216  2.5250  3.8367
 5092SOL    HW226496   4.724   7.410   1.618  1.2082  3.2128  0.5878
 5093SOL     OW26497   7.825   3.199   3.068 -0.7342 -0.0350 -0.4003
 5093SOL    HW126498   7.814   3.212   2.970  0.2683 -0.2558 -0.5553
 5093SOL    HW226499   7.798   3.281   3.117  2.5060  1.5671 -1.1404
 5094SOL     OW26500   1.864   0.236   3.333 -0.2776 -0.0567  0.2032
 5094SOL    HW126501   1.833   0.167   3.398  0.3587  2.5849  3.3987
 5094SOL    HW226502   1.963   0.230   3.322 -0.4166 -0.7128 -0.8690
 5095SOL     OW26503   2.966   3.614   6.347  0.0225 -0.9290 -0.2391
 5095SOL    HW126504   2.902   3.664   6.405  2.3231  1.0441  0.6875
 5095SOL    HW226505   2.956   3.644   6.252 -0.9747 -1.2489 -0.2427
 5096SOL     OW26506   8.874   6.563   5.588  0.1127  0.2091 -0.5163
 5096SOL    HW126507   8.788   6.513   5.597  0.1834  0.1695 -0.0033
 5096SOL    HW226508   8.856   6.659   5.571 -0.0449  0.3752  0.5428
 5097SOL     OW26509   7.378   2.490   5.057  0.0501 -0.4482 -0.0164
 5097SOL    HW126510   7.476   2.507   5.045 -0.4261  2.5145 -0.0867
 5097SOL    HW226511   7.349   2.418   4.993  2.0868 -1.1182 -0.2369
 5098SOL     OW26512   1.411   0.803   1.645  0.1049  0.6136 -0.0051
 5098SOL    HW126513   1.350   0.872   1.684 -0.4344 -0.2015  0.6142
 5098SOL    HW226514   1.472   0.769   1.716  1.8621  2.0034 -0.8014
 5099SOL     OW26515   3.618   2.466   1.959  0.1179  0.1604  0.1532
 5099SOL    HW126516   3.608   2.518   2.044 -0.8169 -1.7254  1.2288
 5099SOL    HW226517   3.668   2.382   1.978 -1.9143 -1.2778 -0.7437
 5100SOL     OW26518   3.954   2.062   0.930  0.8706 -0.1944  0.2276
 5100SOL    HW126519   3.979   1.975   0.887  1.3970  0.2674 -0.3924
 5100SOL    HW226520   3.888   2.110   0.873  1.7646  0.5370 -0.2056
 5101SOL     OW26521   0.176   1.775   5.018 -0.5853  0.4221  0.0542
 5101SOL    HW126522   0.251   1.710   5.004 -0.9385 -0.2967  1.3819
 5101SOL    HW226523   0.209   1.868   5.004 -0.0063 -0.0180 -1.6031
 5102SOL     OW26524   4.343   9.602   5.307 -0.3973 -0.1856 -0.5597
 5102SOL    HW126525   4.303   9.511   5.319 -0.4444 -0.0136  0.6176
 5102SOL    HW226526   4.337   9.653   5.393  0.7794  0.4712 -0.8543
 5103SOL     OW26527   0.580   9.142   4.052 -0.6685  0.3756  0.0325
 5103SOL    HW126528   0.569   9.080   4.129 -1.8580  0.9092  0.2978
 5103SOL    HW226529   0.659   9.114   3.997 -0.2286 -0.3984  1.0628
 5104SOL     OW26530   8.753   5.375   4.799 -0.5234 -0.2703  0.1601
 5104SOL    HW126531   8.794   5.287   4.774  0.9430 -0.2846  2.4496
 5104SOL    HW226532   8.799   5.411   4.880 -1.9226  2.0401 -0.0380
 5105SOL     OW26533   5.224   8.850   3.524  0.2538  0.0297 -0.3837
 5105SOL    HW126534   5.150   8.914   3.546  0.5320  0.3835 -0.4877
 5105SOL    HW226535   5.236   8.786   3.600 -0.9403 -0.7602 -0.8443
 5106SOL     OW26536   4.373   0.320   1.015  0.4209  0.2145  0.3259
 5106SOL    HW126537   4.458   0.365   0.989  0.0609 -0.9701 -3.1825
 5106SOL    HW226538   4.386   0.221   1.013 -1.2269  0.0100 -0.9876
 5107SOL     OW26539   9.796   3.584   5.735 -0.6380 -0.4767  0.5312
 5107SOL    HW126540   9.811   3.517   5.808  0.5973  0.8508  1.5363
 5107SOL    HW226541   9.730   3.653   5.765  2.2886  1.9289  1.7285
 5108SOL     OW26542   4.122   8.711   4.613 -0.1597 -0.4428 -0.5536
 5108SOL    HW126543   4.220   8.691   4.609  0.0893  0.2135  1.3621
 5108SOL    HW226544   4.076   8.642   4.670 -0.1600  1.3016  1.6493
 5109SOL     OW26545   8.583   8.108   1.418 -0.4092 -0.2026 -0.2547
 5109SOL    HW126546   8.518   8.043   1.379  0.5728 -1.3827  0.0347
 5109SOL    HW226547   8.652   8.132   1.350  0.4881 -1.1631  0.3097
 5110SOL     OW26548   2.159   8.975   5.156  0.6294 -0.4820 -0.2001
 5110SOL    HW126549   2.210   8.907   5.209  1.6977  1.2982  1.1176
 5110SOL    HW226550   2.107   9.034   5.219  0.4986  0.5340 -1.2404
 5111SOL     OW26551   0.114   5.663   0.201 -0.2333 -0.2625  0.0631
 5111SOL    HW126552   0.198   5.676   0.253 -0.0200  2.1738 -0.7997
 5111SOL    HW226553   0.036   5.688   0.258 -0.0505  1.6708 -0.4950
 5112SOL     OW26554   9.531   7.914   1.796  0.3686  0.1840  0.0235
 5112SOL    HW126555   9.454   7.904   1.858  0.3136  1.9598  0.2695
 5112SOL    HW226556   9.617   7.914   1.848  0.4628 -0.5195 -0.1254
 5113SOL     OW26557   4.364   6.838   2.525 -0.0862  0.2198  0.4509
 5113SOL    HW126558   4.407   6.919   2.564  0.4577  0.8032 -1.3124
 5113SOL    HW226559   4.266   6.854   2.515  0.2911  1.4194 -1.6569
 5114SOL     OW26560   4.319   8.292   4.162 -0.4578  0.6511 -0.5947
 5114SOL    HW126561   4.362   8.359   4.102 -0.5064  1.3555  0.1543
 5114SOL    HW226562   4.359   8.298   4.253  0.1556 -0.9354 -0.7365
 5115SOL     OW26563   7.711   0.526   4.767 -0.2552  0.3392 -0.0340
 5115SOL    HW126564   7.635   0.570   4.720  0.7264  2.1341 -0.0167
 5115SOL    HW226565   7.738   0.444   4.718 -2.5034 -0.6006  0.2437
 5116SOL     OW26566   8.160   2.852   0.327 -0.8484 -0.4072  0.4098
 5116SOL    HW126567   8.094   2.788   0.368 -0.7910  0.0368  1.2054
 5116SOL    HW226568   8.110   2.921   0.273 -1.2011  1.0337  2.5210
 5117SOL     OW26569   3.525   2.389   4.496 -0.9551  0.1796 -0.2031
 5117SOL    HW126570   3.460   2.461   4.519  0.6047  0.9030  2.1084
 5117SOL    HW226571   3.616   2.413   4.530 -0.2210 -2.4850 -0.1165
 5118SOL     OW26572   1.656   9.174   4.431 -0.2529 -0.4534 -0.2931
 5118SOL    HW126573   1.694   9.091   4.389  0.7845 -0.1191 -0.0294
 5118SOL    HW226574   1.576   9.204   4.378  0.9447 -0.1228 -1.9668
 5119SOL     OW26575   4.390   1.931   2.494 -0.5287 -0.6991 -0.6344
 5119SOL    HW126576   4.410   1.898   2.586 -1.3817  0.5875  0.0247
 5119SOL    HW226577   4.475   1.941   2.443  0.0272 -0.5122  0.3241
 5120SOL     OW26578   3.379   3.195   4.420 -0.1208 -0.1056 -0.5955
 5120SOL    HW126579   3.414   3.120   4.364  0.2010  0.5930 -1.3335
 5120SOL    HW226580   3.390   3.281   4.371  1.9239  0.7703  1.2927
 5121SOL     OW26581   3.469   3.624   2.679  0.2538 -0.0182  0.1670
 5121SOL    HW126582   3.533   3.558   2.640  2.0730  1.3399  0.7224
 5121SOL    HW226583   3.461   3.703   2.617 -0.8855 -0.1724  0.1122
 5122SOL     OW26584   0.469   0.139   1.515 -0.0244  0.4237  0.2681
 5122SOL    HW126585   0.439   0.055   1.469  0.1916  0.1792  0.5789
 5122SOL    HW226586   0.391   0.182   1.560 -0.0622  0.1901  0.4272
 5123SOL     OW26587   1.437   1.012   4.644  0.0805 -0.5030  0.3379
 5123SOL    HW126588   1.441   1.046   4.551  1.1060 -0.1059  0.5223
 5123SOL    HW226589   1.349   0.967   4.660  0.1330 -1.0849 -0.9950
 5124SOL     OW26590   9.069   5.599   6.745  0.2253  0.2922  0.3634
 5124SOL    HW126591   8.997   5.665   6.725 -0.3046 -1.0029 -2.1343
 5124SOL    HW226592   9.038   5.538   6.818  0.2027  1.9231  1.7554
 5125SOL     OW26593   2.279   8.613   2.874 -0.4930  0.5359 -0.0827
 5125SOL    HW126594   2.250   8.705   2.847  1.2349  1.2693  0.4714
 5125SOL    HW226595   2.267   8.602   2.973 -0.2201  0.3559 -0.0675
 5126SOL     OW26596   8.227   4.858   5.026 -0.6058  0.2878 -0.2141
 5126SOL    HW126597   8.269   4.939   4.985 -1.0757  1.6451  1.8902
 5126SOL    HW226598   8.127   4.867   5.021 -0.6575 -0.4022 -0.4213
 5127SOL     OW26599   3.499   8.565   6.103 -0.4386 -0.0553 -0.3124
 5127SOL    HW126600   3.560   8.637   6.136 -1.3090  1.7418 -2.4695
 5127SOL    HW226601   3.406   8.584   6.134 -0.4290 -1.0909  0.3729
 5128SOL     OW26602   7.525   0.582   4.349 -0.1320 -0.9144  0.3230
 5128SOL    HW126603   7.523   0.627   4.439  0.5182  1.1492 -0.6694
 5128SOL    HW226604   7.573   0.495   4.357  0.7419 -0.3199  1.8032
 5129SOL     OW26605   6.246   7.481   3.799 -0.0051 -0.4940  0.0074
 5129SOL    HW126606   6.344   7.481   3.778  0.4226  0.2885  1.8988
 5129SOL    HW226607   6.231   7.439   3.888 -1.1295  1.5134  0.8016
 5130SOL     OW26608   9.318   9.437   4.605 -0.5278  0.4350 -0.2374
 5130SOL    HW126609   9.279   9.495   4.677 -1.5348  0.4544 -0.7890
 5130SOL    HW226610   9.270   9.455   4.519 -0.5883 -0.9449 -0.4988
 5131SOL     OW26611   4.871   1.663   3.757 -0.1522  0.6378 -0.1701
 5131SOL    HW126612   4.952   1.605   3.745  0.0139  0.9116 -0.3738
 5131SOL    HW226613   4.854   1.677   3.855  0.6658  1.4429 -0.1340
 5132SOL     OW26614   7.909   9.216   1.982  0.1249  0.0389  0.2703
 5132SOL    HW126615   7.900   9.307   2.021 -0.9384 -1.2173  3.0542
 5132SOL    HW226616   7.877   9.217   1.887 -1.6189  2.1649  0.8402
 5133SOL     OW26617   8.032   3.588   6.331  0.2771  0.3609 -0.5377
 5133SOL    HW126618   8.102   3.527   6.368 -0.6394  0.0699  0.7816
 5133SOL    HW226619   7.946   3.539   6.323 -0.0778  1.0429 -0.9798
 5134SOL     OW26620   2.853   3.013   0.547  0.7203  0.2106 -0.2676
 5134SOL    HW126621   2.941   3.052   0.576  0.0389  1.4293  0.1800
 5134SOL    HW226622   2.838   2.926   0.594  0.8954  0.8347  0.9606
 5135SOL     OW26623   8.679   9.501   3.071 -0.5307 -0.2665  0.0822
 5135SOL    HW126624   8.701   9.566   2.999 -1.5168  1.4025  1.2493
 5135SOL    HW226625   8.763   9.473   3.118  0.0729 -1.0880 -1.4407
 5136SOL     OW26626   2.410   9.330   1.584 -0.4246  0.0005 -0.0638
 5136SOL    HW126627   2.425   9.429   1.589  0.0920 -0.0804  0.0207
 5136SOL    HW226628   2.417   9.291   1.675 -0.9153 -0.0758 -0.0579
 5137SOL     OW26629   4.083   1.958   3.891  0.2454  0.0377 -0.0607
 5137SOL    HW126630   4.084   1.921   3.984  0.3402 -2.3677 -0.9876
 5137SOL    HW226631   4.175   1.955   3.852  0.1726  0.8437 -0.3003
 5138SOL     OW26632   6.836   5.034   5.743 -0.4463 -0.2614  0.2155
 5138SOL    HW126633   6.757   4.973   5.754 -0.6915  0.0967  0.4317
 5138SOL    HW226634   6.850   5.086   5.827 -2.0454  2.1640 -0.9736
 5139SOL     OW26635   2.606   7.502   5.117  0.6385  0.1115  0.4252
 5139SOL    HW126636   2.629   7.423   5.060  1.1417  0.2352  0.4532
 5139SOL    HW226637   2.580   7.470   5.208 -0.9569 -0.1400 -0.0978
 5140SOL     OW26638   9.411   9.534   1.768  0.2633  0.1450  0.0601
 5140SOL    HW126639   9.377   9.476   1.842 -1.5963  0.2434 -0.6973
 5140SOL    HW226640   9.508   9.516   1.753 -0.2048 -2.5424  0.0714
 5141SOL     OW26641   7.913   9.480   6.110  0.3440  0.3254 -0.0383
 5141SOL    HW126642   7.905   9.548   6.183 -0.4842 -0.1196  0.2958
 5141SOL    HW226643   7.873   9.394   6.140 -0.7265  0.3587 -1.2911
 5142SOL     OW26644   2.727   1.338   5.091  0.3379  0.0030  0.2134
 5142SOL    HW126645   2.820   1.375   5.084  0.4746 -0.2194  0.7711
 5142SOL    HW226646   2.664   1.411   5.117 -0.0593  0.6761 -2.5555
 5143SOL     OW26647   0.308   1.442   0.438 -0.2353  0.9213 -0.3688
 5143SOL    HW126648   0.394   1.451   0.488 -0.1639 -1.8525  0.0859
 5143SOL    HW226649   0.322   1.472   0.343  1.0254  1.2200 -0.1003
 5144SOL     OW26650   1.574   5.206   2.622  0.1839  0.0900 -0.1943
 5144SOL    HW126651   1.628   5.247   2.548  0.7190 -0.8987 -0.3645
 5144SOL    HW226652   1.636   5.166   2.689 -0.3234 -0.1239  0.1445
 5145SOL     OW26653   8.622   3.613   4.656 -0.6749 -0.2415  0.1305
 5145SOL    HW126654   8.588   3.703   4.682  0.8691 -0.4605  3.1131
 5145SOL    HW226655   8.710   3.596   4.701 -0.0332 -2.5113 -1.8476
 5146SOL     OW26656   2.719   9.086   5.554 -0.1643 -0.4400  0.7721
 5146SOL    HW126657   2.731   9.005   5.611 -0.3032 -1.2932 -0.3759
 5146SOL    HW226658   2.723   9.059   5.457  1.1151  1.1200  0.3640
 5147SOL     OW26659   0.681   5.528   3.673 -0.4596 -0.7222 -0.3547
 5147SOL    HW126660   0.594   5.494   3.636  0.0385 -0.2820 -1.9688
 5147SOL    HW226661   0.750   5.456   3.666 -1.4491 -2.2472  3.9640
 5148SOL     OW26662   1.036   9.470   6.719 -0.2524 -0.1634  0.0559
 5148SOL    HW126663   1.065   9.464   6.815  2.6025 -0.6414 -0.7655
 5148SOL    HW226664   1.032   9.566   6.691 -0.9535 -0.0297  0.6195
 5149SOL     OW26665   1.509   7.237   5.724 -0.1937  0.0503  0.0975
 5149SOL    HW126666   1.554   7.324   5.706  0.7414 -0.9227 -2.4907
 5149SOL    HW226667   1.579   7.166   5.739 -0.9333 -0.5374  0.8377
 5150SOL     OW26668   9.135   4.032   0.741 -0.7126  0.5553 -0.3946
 5150SOL    HW126669   9.223   3.993   0.715 -1.2625 -1.1413  0.2617
 5150SOL    HW226670   9.061   3.969   0.718 -1.6106  1.1750  0.7122
 5151SOL     OW26671   4.367   1.934   4.135 -0.1626  0.1984 -0.6328
 5151SOL    HW126672   4.389   2.028   4.163  0.0533  0.0125 -0.1731
 5151SOL    HW226673   4.268   1.920   4.143  0.0256 -0.2020  1.1364
 5152SOL     OW26674   3.423   2.680   0.859  0.4675  0.6176  0.1494
 5152SOL    HW126675   3.336   2.727   0.873 -0.3075 -0.4985 -0.8885
 5152SOL    HW226676   3.420   2.627   0.774  1.9588  0.1140  0.3886
 5153SOL     OW26677   6.168   1.858   1.562  0.4415 -0.2466  1.0280
 5153SOL    HW126678   6.240   1.891   1.623  1.3769 -0.5685  0.1192
 5153SOL    HW226679   6.146   1.929   1.496  0.8709 -0.6189  0.4767
 5154SOL     OW26680   1.407   3.983   3.764  0.6824  0.0282 -0.0143
 5154SOL    HW126681   1.458   4.050   3.710 -2.6786  2.3577 -0.4388
 5154SOL    HW226682   1.346   3.932   3.704  0.2242 -0.5339  0.9297
 5155SOL     OW26683   1.899   5.023   1.110  0.4209 -0.1770  0.5210
 5155SOL    HW126684   1.853   4.939   1.138 -2.5312  1.1390 -0.2477
 5155SOL    HW226685   1.838   5.077   1.052  4.0611  0.1165 -3.2656
 5156SOL     OW26686   2.106   2.542   1.769 -0.1214  0.0752  0.3918
 5156SOL    HW126687   2.052   2.460   1.789  0.9384 -0.4466  1.1510
 5156SOL    HW226688   2.155   2.530   1.683  0.5736 -0.3711  0.8465
 5157SOL     OW26689   8.415   0.390   5.508  0.6216 -0.5389 -0.5481
 5157SOL    HW126690   8.509   0.425   5.513  0.0874  0.8181  0.4196
 5157SOL    HW226691   8.416   0.299   5.468  2.3838 -0.6470 -0.3352
 5158SOL     OW26692   1.818   8.496   5.010 -0.0150 -0.5038  0.0737
 5158SOL    HW126693   1.845   8.591   4.995 -0.0538 -0.2999  1.2798
 5158SOL    HW226694   1.899   8.442   5.035 -0.4815 -0.1507  2.4272
 5159SOL     OW26695   8.854   4.379   6.216  0.4311  0.5815  0.2033
 5159SOL    HW126696   8.903   4.464   6.233  2.4000 -0.9639  2.7446
 5159SOL    HW226697   8.777   4.372   6.280  0.9609 -0.0249  0.7919
 5160SOL     OW26698   0.129   7.085   6.060 -0.2391  0.4453 -0.4066
 5160SOL    HW126699   0.221   7.120   6.040 -0.0462  0.5669  0.6424
 5160SOL    HW226700   0.131   7.035   6.146 -1.1568  0.4357 -0.3884
 5161SOL     OW26701   3.972   9.252   6.554 -0.6313  0.5665  0.2588
 5161SOL    HW126702   3.892   9.306   6.578 -1.1817  0.0311 -0.3301
 5161SOL    HW226703   4.052   9.285   6.604 -0.6951  2.7289 -1.0033
 5162SOL     OW26704   6.390   0.987   6.565  0.0349 -0.6199  0.0822
 5162SOL    HW126705   6.345   1.056   6.508 -0.0060 -0.1914  0.6250
 5162SOL    HW226706   6.393   0.900   6.516  2.1867  0.3516 -1.5650
 5163SOL     OW26707   1.549   6.079   0.368 -0.0294 -0.3146 -0.0720
 5163SOL    HW126708   1.553   6.008   0.438 -0.4191 -0.5781 -0.3099
 5163SOL    HW226709   1.610   6.054   0.292  0.9876  0.3620  0.5263
 5164SOL     OW26710   8.414   7.769   6.406  0.3668  0.3549  0.4102
 5164SOL    HW126711   8.445   7.723   6.323 -0.1527 -0.1763  0.5094
 5164SOL    HW226712   8.316   7.787   6.399  0.1720 -0.3426  1.2148
 5165SOL     OW26713   3.944   0.396   4.825  0.0841 -0.4561  0.1744
 5165SOL    HW126714   4.011   0.368   4.893 -0.7779 -1.5778  0.5761
 5165SOL    HW226715   3.980   0.377   4.733  0.2446 -1.1991  0.3910
 5166SOL     OW26716   0.818   6.472   0.562  0.3017  0.8329  0.3540
 5166SOL    HW126717   0.773   6.406   0.501 -1.4312 -0.0886  2.5896
 5166SOL    HW226718   0.893   6.427   0.610  2.9948  2.0632 -2.4588
 5167SOL     OW26719   0.753   1.569   6.684  0.3104  0.1336  0.2062
 5167SOL    HW126720   0.669   1.596   6.732  0.6180 -1.6991  1.8478
 5167SOL    HW226721   0.804   1.651   6.659 -1.2004  1.2305  0.5902
 5168SOL     OW26722   2.672   7.597   1.446  0.2404 -0.8189 -0.2799
 5168SOL    HW126723   2.662   7.696   1.434 -0.9605 -1.0004 -0.8589
 5168SOL    HW226724   2.605   7.550   1.389  2.2587 -2.0410 -1.7272
 5169SOL     OW26725   8.140   4.332   4.899  0.2984  0.3085  0.5614
 5169SOL    HW126726   8.221   4.303   4.847  0.3945  0.3318  0.6971
 5169SOL    HW226727   8.063   4.343   4.836  0.9717  2.5232  0.0779
 5170SOL     OW26728   7.819   7.854   2.174 -0.4387 -0.2804  0.1788
 5170SOL    HW126729   7.744   7.805   2.219  1.0524 -1.5622  1.2990
 5170SOL    HW226730   7.807   7.849   2.075 -1.3796 -1.1625  0.3291
 5171SOL     OW26731   0.148   3.522   6.194  0.2275  0.5018 -0.0572
 5171SOL    HW126732   0.124   3.465   6.273 -3.0039  0.2908 -1.1274
 5171SOL    HW226733   0.103   3.487   6.112 -1.3934  4.2502 -0.8551
 5172SOL     OW26734   9.593   0.905   1.605  0.1967 -0.4501 -0.8823
 5172SOL    HW126735   9.583   1.002   1.583 -2.1565 -0.3726  0.3717
 5172SOL    HW226736   9.683   0.889   1.646 -0.2689  1.6226  1.0351
 5173SOL     OW26737   0.572   8.772   5.232  0.3071  0.0530  0.6611
 5173SOL    HW126738   0.637   8.724   5.291  0.8899  0.3787  0.2892
 5173SOL    HW226739   0.516   8.705   5.183 -0.0231 -0.2206  1.4036
 5174SOL     OW26740   9.831   4.750   5.934 -0.5691  0.0905  0.1212
 5174SOL    HW126741   9.819   4.680   5.864 -1.7269  0.5867 -0.1925
 5174SOL    HW226742   9.927   4.776   5.939 -0.1516 -1.3902  0.1232
 5175SOL     OW26743   9.951   6.193   1.821 -0.2208 -0.5587  0.2424
 5175SOL    HW126744   9.932   6.107   1.870  1.0441 -1.3694 -0.6514
 5175SOL    HW226745  10.001   6.173   1.737 -1.5939  0.9138 -0.9420
 5176SOL     OW26746   6.765   2.413   0.501 -0.7473  0.5821  0.6810
 5176SOL    HW126747   6.843   2.473   0.516 -0.3479  0.0996  0.5737
 5176SOL    HW226748   6.794   2.318   0.512 -1.1083  0.3558 -0.2864
 5177SOL     OW26749   6.315   0.929   1.586  0.2944 -0.5697 -0.1499
 5177SOL    HW126750   6.414   0.927   1.568  0.5579  1.2714  0.9707
 5177SOL    HW226751   6.293   0.866   1.660  0.9981  0.6686  1.1480
 5178SOL     OW26752   4.572   9.887   0.503  0.2191  0.2911  0.1487
 5178SOL    HW126753   4.620   9.936   0.575  0.2777 -0.3039  0.5180
 5178SOL    HW226754   4.580   9.938   0.417  1.2928  0.3215  0.2622
 5179SOL     OW26755   0.451   9.680   5.565 -0.2762  0.2975  0.0439
 5179SOL    HW126756   0.508   9.736   5.505 -1.0107  1.2551  0.2425
 5179SOL    HW226757   0.401   9.613   5.510  0.4005  0.0032 -0.2183
 5180SOL     OW26758   7.252   6.114   5.257  0.4496  0.5384 -0.2435
 5180SOL    HW126759   7.348   6.121   5.284  0.9013 -0.2705 -1.5893
 5180SOL    HW226760   7.195   6.116   5.339  1.6196  0.7224  0.5953
 5181SOL     OW26761   0.953   5.761   5.232  0.0975 -0.4084  0.4415
 5181SOL    HW126762   0.964   5.822   5.153  0.6917 -0.9808  0.0860
 5181SOL    HW226763   0.875   5.700   5.216  0.2103 -0.5161  0.3036
 5182SOL     OW26764   2.963   8.617   0.369  0.5385 -0.3588 -0.7866
 5182SOL    HW126765   2.959   8.524   0.331  3.3441 -0.5542 -0.6892
 5182SOL    HW226766   2.877   8.665   0.349 -0.7410 -2.7901 -1.2777
 5183SOL     OW26767   4.863   7.925   4.709 -0.4872 -0.2500 -0.7148
 5183SOL    HW126768   4.825   7.916   4.617 -0.5110 -1.9704 -0.5548
 5183SOL    HW226769   4.962   7.912   4.705 -0.4888 -0.3219 -0.5065
 5184SOL     OW26770   1.462   8.178   6.654  0.4405  0.2628  0.5721
 5184SOL    HW126771   1.420   8.117   6.722  0.3405 -0.2626  0.0435
 5184SOL    HW226772   1.544   8.219   6.693  0.4738 -0.1600  0.9601
 5185SOL     OW26773   4.471   5.750   1.190 -0.1634  0.5371 -0.2805
 5185SOL    HW126774   4.550   5.689   1.181 -0.2777  0.3431  0.0153
 5185SOL    HW226775   4.481   5.826   1.126  0.4642  0.7280  0.0348
 5186SOL     OW26776   3.428   6.385   2.598  0.1696  0.5046  0.4196
 5186SOL    HW126777   3.337   6.346   2.612  0.7973 -0.8857  0.7562
 5186SOL    HW226778   3.420   6.483   2.583 -1.4438  0.2954 -0.2518
 5187SOL     OW26779   2.697   9.591   0.246 -0.1735  0.0400  0.4141
 5187SOL    HW126780   2.758   9.564   0.171  1.5403  0.7537  1.5069
 5187SOL    HW226781   2.723   9.682   0.279 -0.6872 -0.3918  2.0588
 5188SOL     OW26782   3.457   4.880   0.173 -0.0411 -0.0015  0.2717
 5188SOL    HW126783   3.483   4.966   0.130 -2.5337  0.0668 -1.2560
 5188SOL    HW226784   3.437   4.813   0.101 -0.7889 -0.9963  1.3999
 5189SOL     OW26785   2.105   3.688   0.552  0.0311  0.4552  0.6552
 5189SOL    HW126786   2.065   3.701   0.643  2.1156 -3.5812  2.2797
 5189SOL    HW226787   2.039   3.641   0.494  0.7217 -2.1565  1.9270
 5190SOL     OW26788   0.776   6.473   6.565  0.4672  0.0390 -0.4220
 5190SOL    HW126789   0.744   6.518   6.648 -0.9108 -0.3998 -0.6889
 5190SOL    HW226790   0.717   6.394   6.546  1.6957 -0.7511 -0.9826
 5191SOL     OW26791   8.877   7.971   1.713  0.5629 -0.2171  0.2353
 5191SOL    HW126792   8.855   8.067   1.733  1.3598  0.5389 -2.3760
 5191SOL    HW226793   8.866   7.917   1.797 -2.3558  1.6831  1.1769
 5192SOL     OW26794   8.626   9.508   3.546 -0.1377 -0.1539 -0.0951
 5192SOL    HW126795   8.537   9.462   3.546 -0.0526 -0.3752  2.5004
 5192SOL    HW226796   8.629   9.574   3.620  1.5007  0.6109 -0.8278
 5193SOL     OW26797   3.679   4.098   2.792  0.1959 -0.2085 -0.2794
 5193SOL    HW126798   3.619   4.028   2.830  3.3696 -2.3397  0.9531
 5193SOL    HW226799   3.677   4.179   2.852 -0.3795 -0.7640  0.4639
 5194SOL     OW26800   8.906   3.339   0.382 -0.1034  0.0648  0.0600
 5194SOL    HW126801   8.875   3.281   0.457  0.6843  0.8155  0.9788
 5194SOL    HW226802   9.006   3.333   0.375 -0.1755 -0.0435 -0.9670
 5195SOL     OW26803   2.072   5.562   6.656 -0.6355  0.6816 -0.2965
 5195SOL    HW126804   2.046   5.521   6.569 -1.0422 -1.6283  0.8649
 5195SOL    HW226805   2.171   5.563   6.665 -0.6486 -3.2475  1.0667
 5196SOL     OW26806   3.028   7.477   2.732 -0.7969  0.1050  0.1875
 5196SOL    HW126807   3.036   7.453   2.635  0.4546 -0.8458  0.5159
 5196SOL    HW226808   3.097   7.428   2.785  0.1977  2.5369  1.2362
 5197SOL     OW26809   2.555   7.948   4.271 -0.5754  0.7763  0.2717
 5197SOL    HW126810   2.587   7.858   4.301 -1.2466  0.5120  0.1883
 5197SOL    HW226811   2.634   8.007   4.254 -0.1438  0.3275  0.7011
 5198SOL     OW26812   0.086   0.729   5.911  0.0432  0.1898  0.8943
 5198SOL    HW126813  -0.008   0.713   5.882 -0.0950 -0.0781  1.4859
 5198SOL    HW226814   0.143   0.651   5.886  0.2910  0.7249 -0.2445
 5199SOL     OW26815   0.193   5.719   1.314  0.2141  0.2948  0.0004
 5199SOL    HW126816   0.250   5.753   1.239  1.5075 -0.3900  0.6604
 5199SOL    HW226817   0.235   5.638   1.354 -1.2393 -0.2303  0.5005
 5200SOL     OW26818   1.603   9.766   0.193 -0.7681  0.1328 -0.5976
 5200SOL    HW126819   1.552   9.799   0.114 -0.6224 -0.1392 -0.8077
 5200SOL    HW226820   1.549   9.695   0.240 -0.0780 -1.0185 -1.5174
 5201SOL     OW26821   7.718   2.158   1.601  0.2264  0.2149  0.2353
 5201SOL    HW126822   7.671   2.187   1.518  0.8917  1.6040  0.3216
 5201SOL    HW226823   7.768   2.073   1.584  3.4688  2.4413 -1.9149
 5202SOL     OW26824   8.120   0.972   5.561 -0.4591  0.4240 -0.5519
 5202SOL    HW126825   8.029   0.935   5.544 -0.0536 -0.6557 -0.4099
 5202SOL    HW226826   8.112   1.064   5.601 -1.4656  0.6722 -1.2990
 5203SOL     OW26827   8.958   9.221   2.445  0.2473  0.1535  0.8031
 5203SOL    HW126828   8.941   9.224   2.544  0.7045  1.2894  0.8492
 5203SOL    HW226829   9.029   9.287   2.421  0.7473 -0.7299 -0.1697
 5204SOL     OW26830   1.078   1.643   1.732 -0.2052  0.3925 -0.3419
 5204SOL    HW126831   1.168   1.653   1.774 -0.3273 -1.3496  0.3759
 5204SOL    HW226832   1.020   1.586   1.790 -2.2923  2.7463 -0.0479
 5205SOL     OW26833   7.041   8.394   4.110 -0.1025 -0.1764 -0.2865
 5205SOL    HW126834   7.002   8.329   4.045 -2.1887  0.9553 -0.2279
 5205SOL    HW226835   6.968   8.431   4.167  1.3952  0.4375  1.2815
 5206SOL     OW26836   0.194   3.268   4.478  0.6886 -0.0720 -0.0113
 5206SOL    HW126837   0.280   3.318   4.468  1.4635 -1.2607  0.5302
 5206SOL    HW226838   0.192   3.192   4.414 -0.5881  0.7659 -0.9963
 5207SOL     OW26839   7.933   1.360   6.476 -0.2166  0.3154 -0.0378
 5207SOL    HW126840   8.016   1.371   6.421 -0.6433 -1.5357 -1.0851
 5207SOL    HW226841   7.863   1.313   6.423 -0.8603 -0.9282  1.8475
 5208SOL     OW26842   2.640   0.990   1.423  0.6428  0.3694 -0.1546
 5208SOL    HW126843   2.703   1.063   1.451  1.4284 -0.6059  0.6681
 5208SOL    HW226844   2.692   0.908   1.398 -0.3311 -1.2242  2.7936
 5209SOL     OW26845   8.107   9.946   0.278 -0.5171  0.2599 -0.2767
 5209SOL    HW126846   8.040  10.003   0.325 -1.1837 -1.6526  1.1870
 5209SOL    HW226847   8.155   9.889   0.345  1.3579  0.3489 -1.5000
 5210SOL     OW26848   8.282   8.371   4.173  0.3749  0.2318 -0.9027
 5210SOL    HW126849   8.289   8.469   4.191 -2.1697  0.3211 -0.1588
 5210SOL    HW226850   8.363   8.325   4.209  1.1773  1.9389 -0.4524
 5211SOL     OW26851   1.858   9.768   0.147  0.3177  0.2481  0.2569
 5211SOL    HW126852   1.883   9.672   0.159  0.4770  0.3843  1.0802
 5211SOL    HW226853   1.759   9.777   0.149  0.3001  0.0911  0.1122
 5212SOL     OW26854   7.738   9.448   5.621  0.2276  0.1070 -0.4235
 5212SOL    HW126855   7.775   9.503   5.546  0.8340 -1.4152 -1.2759
 5212SOL    HW226856   7.691   9.507   5.687  0.0371  1.5073 -1.7994
 5213SOL     OW26857   9.157   2.688   3.653 -0.1477 -0.3399 -0.1064
 5213SOL    HW126858   9.132   2.722   3.743 -1.7144  0.3647 -0.7803
 5213SOL    HW226859   9.086   2.625   3.620  1.3649 -2.1229 -0.0407
 5214SOL     OW26860   0.316   8.078   5.142 -0.3187  0.2014  0.2844
 5214SOL    HW126861   0.360   8.166   5.125 -1.9728  1.0896  0.4153
 5214SOL    HW226862   0.297   8.069   5.240  1.1894 -0.9734  0.4837
 5215SOL     OW26863   9.942   9.322   2.352  0.2381  0.0302  0.2167
 5215SOL    HW126864   9.953   9.288   2.446 -0.4273 -0.3018  0.1721
 5215SOL    HW226865   9.921   9.419   2.354  4.0981  0.9745  0.2995
 5216SOL     OW26866   7.561   3.686   3.225 -0.1669  0.4885 -0.1555
 5216SOL    HW126867   7.492   3.662   3.294  0.1451 -1.4097 -0.4813
 5216SOL    HW226868   7.536   3.645   3.138  0.9587  0.4822 -0.4704
 5217SOL     OW26869   8.496   1.980   1.027 -0.4309  0.0898  0.1854
 5217SOL    HW126870   8.405   1.982   0.987 -1.0989 -0.9702  1.6101
 5217SOL    HW226871   8.491   2.009   1.123  0.8764  0.9757  0.0042
 5218SOL     OW26872   1.415   8.993   4.829  0.2742 -0.2812  0.4777
 5218SOL    HW126873   1.491   9.049   4.795 -1.6420  2.0424 -0.0918
 5218SOL    HW226874   1.414   8.996   4.929  1.9399 -1.7616  0.5769
 5219SOL     OW26875   7.514   7.839   3.883 -0.2841 -0.4884  0.2240
 5219SOL    HW126876   7.572   7.906   3.930 -0.8567  1.0467 -1.1778
 5219SOL    HW226877   7.449   7.799   3.947  1.1977 -0.9709  1.4495
 5220SOL     OW26878   8.452   5.300   2.582 -0.3555  0.0462 -0.3839
 5220SOL    HW126879   8.486   5.355   2.505  0.3972  0.4821  0.2558
 5220SOL    HW226880   8.383   5.352   2.632  1.1778  0.8645  0.8996
 5221SOL     OW26881   7.489   1.817   5.672  0.4240 -0.0076 -0.2217
 5221SOL    HW126882   7.567   1.879   5.671 -0.5165  1.2033 -2.9282
 5221SOL    HW226883   7.407   1.867   5.700 -0.3150 -0.0098 -2.2956
 5222SOL     OW26884   1.118   2.722   6.131  0.4359  0.2164  0.0261
 5222SOL    HW126885   1.186   2.667   6.181  0.5337  0.5170  0.2255
 5222SOL    HW226886   1.140   2.819   6.142 -0.0960  0.3203  0.1904
 5223SOL     OW26887   8.742   4.443   5.157 -0.3234 -0.3463  0.2067
 5223SOL    HW126888   8.825   4.484   5.196 -0.7738  0.3582  0.4280
 5223SOL    HW226889   8.715   4.364   5.212  0.3385 -0.7366 -0.0121
 5224SOL     OW26890   1.403   1.118   0.903 -0.6313  0.0087  0.2891
 5224SOL    HW126891   1.414   1.038   0.844 -0.4374 -0.1531  0.5423
 5224SOL    HW226892   1.471   1.115   0.976  1.2367  1.8855 -1.3289
 5225SOL     OW26893   4.840   2.926   2.136  0.1768  0.1091 -1.2093
 5225SOL    HW126894   4.924   2.875   2.116  1.1933  1.1754  0.1989
 5225SOL    HW226895   4.805   2.899   2.226 -1.2714 -0.6838 -1.9978
 5226SOL     OW26896   3.502   7.960   5.082 -0.5950 -0.3670  0.0608
 5226SOL    HW126897   3.436   7.890   5.109 -2.1786  0.5013 -1.4973
 5226SOL    HW226898   3.454   8.035   5.036  1.4596  0.3973 -0.8682
 5227SOL     OW26899   3.586   7.017   3.349  0.3245  0.1345  0.2609
 5227SOL    HW126900   3.577   7.019   3.449  0.1056 -0.0096  0.2426
 5227SOL    HW226901   3.613   6.926   3.319 -3.8749 -1.0484 -0.1819
 5228SOL     OW26902   7.428   9.682   1.089  0.5331 -0.2044  0.5184
 5228SOL    HW126903   7.378   9.639   1.014  0.9042  0.5804 -0.1896
 5228SOL    HW226904   7.368   9.690   1.169 -0.2455  0.0365 -0.0767
 5229SOL     OW26905   0.551   6.682   3.848  0.1395 -0.3951  0.1261
 5229SOL    HW126906   0.506   6.660   3.761 -1.5681  0.2737  0.8135
 5229SOL    HW226907   0.649   6.691   3.833 -0.1813  0.1823 -1.8416
 5230SOL     OW26908   8.772   1.924   4.434  0.4300 -0.6195 -0.0059
 5230SOL    HW126909   8.691   1.946   4.489  1.7454  2.1277  0.8923
 5230SOL    HW226910   8.761   1.962   4.342 -0.0751 -1.8357 -0.4559
 5231SOL     OW26911   9.285   2.582   0.676 -0.0152 -0.2084  0.0529
 5231SOL    HW126912   9.359   2.515   0.679  0.6042  0.5079  0.9850
 5231SOL    HW226913   9.315   2.663   0.627 -0.9832 -0.8576 -1.6442
 5232SOL     OW26914   3.491   8.591   2.154 -0.1533 -0.5786  0.7230
 5232SOL    HW126915   3.456   8.632   2.239 -4.3948 -1.7039 -0.3433
 5232SOL    HW226916   3.521   8.498   2.172  0.8801 -0.1238  1.3791
 5233SOL     OW26917   8.772   4.794   6.115  0.2183 -0.7754 -0.0023
 5233SOL    HW126918   8.715   4.872   6.088  0.1084 -1.2525 -1.1582
 5233SOL    HW226919   8.715   4.724   6.157  0.0140 -1.0740 -0.7749
 5234SOL     OW26920   4.675   0.371   6.685  0.5218 -0.0469  0.1092
 5234SOL    HW126921   4.756   0.327   6.647  0.3983  0.5924 -0.9261
 5234SOL    HW226922   4.609   0.301   6.713  0.9600 -0.5421 -0.0916
 5235SOL     OW26923   9.197   9.898   5.150  0.5173 -0.0472 -0.2859
 5235SOL    HW126924   9.262   9.928   5.079  0.7185 -1.2923 -0.6470
 5235SOL    HW226925   9.246   9.880   5.235  0.1309  2.4452  0.4902
 5236SOL     OW26926   7.144   5.714   0.179 -0.6193 -0.8461 -0.4295
 5236SOL    HW126927   7.223   5.736   0.236 -0.4328 -1.1834 -0.5550
 5236SOL    HW226928   7.134   5.614   0.174 -2.1287 -0.7996  1.0980
 5237SOL     OW26929   6.982   6.327   4.739 -0.1067  0.8761  0.0025
 5237SOL    HW126930   7.079   6.309   4.722 -0.0564  0.1457  0.9647
 5237SOL    HW226931   6.935   6.342   4.652  0.7839  0.7856 -0.5043
 5238SOL     OW26932   1.054   2.515   0.653 -0.0770 -0.2452 -0.3563
 5238SOL    HW126933   1.005   2.599   0.628 -0.2362 -0.3177 -0.2925
 5238SOL    HW226934   1.016   2.480   0.739  1.3534  0.7477  0.7124
 5239SOL     OW26935   2.216   3.894   0.816  0.3112  0.4263  0.3919
 5239SOL    HW126936   2.128   3.920   0.777  0.7910  3.6775  1.3461
 5239SOL    HW226937   2.289   3.909   0.749  0.4825  0.7604  0.6465
 5240SOL     OW26938   9.987   4.099   2.297 -0.4815 -0.5410  0.0354
 5240SOL    HW126939   9.949   4.181   2.340 -0.2361 -0.4540  0.0853
 5240SOL    HW226940   9.948   4.018   2.341 -0.5387 -0.4521  0.1483
 5241SOL     OW26941   9.158   9.738   6.746 -0.0050  0.3274 -0.1182
 5241SOL    HW126942   9.119   9.646   6.754 -0.8922  0.7317  0.3505
 5241SOL    HW226943   9.146   9.771   6.652 -2.4166  1.1285  0.4221
 5242SOL     OW26944   1.518   3.507   1.295 -0.7447  0.4118 -0.1362
 5242SOL    HW126945   1.442   3.534   1.236  0.6600  0.5631 -1.9208
 5242SOL    HW226946   1.589   3.578   1.293  0.2650 -0.5721  0.0062
 5243SOL     OW26947   6.830   9.654   2.483  0.6809 -0.1890  0.5041
 5243SOL    HW126948   6.756   9.653   2.550  0.0495 -1.6621 -0.1872
 5243SOL    HW226949   6.798   9.697   2.398  0.0680 -2.3072 -0.3705
 5244SOL     OW26950   9.335   7.795   3.672 -0.1334  0.2648  0.3011
 5244SOL    HW126951   9.412   7.856   3.693  0.1834  0.1394 -0.4847
 5244SOL    HW226952   9.336   7.718   3.736  0.9205 -0.2047 -0.2685
 5245SOL     OW26953   0.444   4.643   4.728 -0.3001 -0.1059 -0.2605
 5245SOL    HW126954   0.354   4.684   4.713  0.1288  0.4571 -1.3637
 5245SOL    HW226955   0.511   4.716   4.744  0.2293 -0.4350 -0.9449
 5246SOL     OW26956   1.645   0.714   0.614 -0.4084 -0.1024  0.0775
 5246SOL    HW126957   1.618   0.796   0.665  0.4098  0.0811  0.2273
 5246SOL    HW226958   1.694   0.652   0.676  0.8333  0.2434 -0.5400
 5247SOL     OW26959   2.176   1.112   6.272  0.3223 -0.0374 -1.1492
 5247SOL    HW126960   2.110   1.129   6.198  0.2128  0.2248 -0.9912
 5247SOL    HW226961   2.127   1.096   6.357  0.4786  0.9017 -0.8728
 5248SOL     OW26962   8.740   2.200   4.692  0.1594  0.7547 -0.2889
 5248SOL    HW126963   8.651   2.175   4.654  0.8627 -2.1033 -0.1820
 5248SOL    HW226964   8.810   2.193   4.622  1.1513 -2.6577  0.9107
 5249SOL     OW26965   8.893   3.461   5.362  0.5001 -0.1668  0.6573
 5249SOL    HW126966   8.844   3.464   5.449 -0.5107 -1.6052  0.1460
 5249SOL    HW226967   8.828   3.447   5.287  1.2391  2.1360 -0.4577
 5250SOL     OW26968   2.778   0.025   3.045  0.5758 -0.5879  0.2001
 5250SOL    HW126969   2.807  -0.007   3.135  0.9644  1.5509  0.8399
 5250SOL    HW226970   2.704  -0.034   3.011  1.6852 -2.5399  1.0703
 5251SOL     OW26971   4.371   6.156   1.163  0.2582  0.0220 -0.0969
 5251SOL    HW126972   4.385   6.061   1.138  0.4177 -0.1271  0.5456
 5251SOL    HW226973   4.308   6.199   1.098 -2.2181 -1.3369  1.3377
 5252SOL     OW26974   9.388   4.354   5.874  0.2485  0.3574 -0.0429
 5252SOL    HW126975   9.346   4.444   5.880 -0.4646  0.0016  0.3637
 5252SOL    HW226976   9.415   4.323   5.965  0.6006  0.2118 -0.1966
 5253SOL     OW26977   0.213   8.385   3.265 -0.3055 -0.2796  0.0226
 5253SOL    HW126978   0.208   8.285   3.253 -0.2060 -0.3460  0.5133
 5253SOL    HW226979   0.295   8.407   3.317 -1.0998 -0.0540  1.1836
 5254SOL     OW26980   2.208   3.897   6.713 -0.5425  0.0752  0.2983
 5254SOL    HW126981   2.192   3.993   6.734 -3.0773 -0.2444 -0.0569
 5254SOL    HW226982   2.162   3.839   6.780 -1.1315 -0.9053 -0.9297
 5255SOL     OW26983   1.340   6.733   6.718 -0.4915 -0.0365  0.1212
 5255SOL    HW126984   1.405   6.731   6.794 -0.9186 -2.0614  0.4601
 5255SOL    HW226985   1.386   6.708   6.633 -0.4918  0.0859  0.0841
 5256SOL     OW26986   0.562   8.493   2.916 -0.4693  0.1071 -0.2429
 5256SOL    HW126987   0.510   8.503   2.831  1.1407  0.1125 -1.2504
 5256SOL    HW226988   0.601   8.580   2.942  0.1231 -0.1695 -0.2055
 5257SOL     OW26989   6.362   8.119   5.223 -0.6083  0.2167 -0.1073
 5257SOL    HW126990   6.341   8.197   5.163 -0.8416 -0.8917 -1.4941
 5257SOL    HW226991   6.455   8.087   5.204 -0.3167  0.4765  0.8378
 5258SOL     OW26992   6.301   9.145   4.486  0.4448  0.1016  0.1192
 5258SOL    HW126993   6.282   9.161   4.389 -0.2009  0.9867  0.3818
 5258SOL    HW226994   6.336   9.229   4.528 -0.7954  0.1966  1.0084
 5259SOL     OW26995   2.141   2.552   5.424 -0.3687  0.8110  0.2070
 5259SOL    HW126996   2.209   2.588   5.361  0.5647  0.7331  1.1521
 5259SOL    HW226997   2.187   2.507   5.501 -1.4859  0.4021  0.6518
 5260SOL     OW26998   0.209   8.077   2.321  0.5435  0.2052 -0.1274
 5260SOL    HW126999   0.187   8.014   2.396  0.5612  1.0717  0.6160
 5260SOL    HW227000   0.218   8.170   2.357  0.3603  0.6617 -1.2403
 5261SOL     OW27001   7.465   7.212   2.259  0.2488  0.2035  0.3020
 5261SOL    HW127002   7.529   7.289   2.253 -1.2113  1.4836  0.7881
 5261SOL    HW227003   7.422   7.212   2.349 -1.6558  0.3794 -0.5832
 5262SOL     OW27004   3.068   9.320   6.739 -0.0036 -0.5608  0.2590
 5262SOL    HW127005   3.113   9.378   6.807  0.2116 -0.2630 -0.1313
 5262SOL    HW227006   3.137   9.286   6.675 -0.3177 -0.2059 -0.2656
 5263SOL     OW27007   4.609   0.520   4.749 -0.2604 -0.1473  0.1455
 5263SOL    HW127008   4.600   0.451   4.821  1.2937  0.2774  0.7772
 5263SOL    HW227009   4.519   0.544   4.714 -0.7746 -3.7673 -1.3057
 5264SOL     OW27010   6.232   1.540   0.741 -0.1005 -0.6252 -0.3166
 5264SOL    HW127011   6.317   1.522   0.691  1.2407  0.3125  1.5470
 5264SOL    HW227012   6.246   1.518   0.837 -2.1235 -0.8655 -0.0732
 5265SOL     OW27013   8.368   0.837   3.551 -0.2585  0.1232  0.8010
 5265SOL    HW127014   8.433   0.851   3.625 -1.2859  2.2123  1.3491
 5265SOL    HW227015   8.410   0.865   3.464 -0.2107  0.8729  1.0632
 5266SOL     OW27016   7.716   3.195   5.282 -0.8483  0.0446 -0.2904
 5266SOL    HW127017   7.735   3.097   5.293  1.6370  0.3288 -1.6703
 5266SOL    HW227018   7.618   3.208   5.270 -1.1631 -2.3647 -0.7211
 5267SOL     OW27019   3.227   8.929   1.206 -0.5618  0.1226  0.1368
 5267SOL    HW127020   3.242   8.913   1.108 -1.6431 -1.2070  0.1694
 5267SOL    HW227021   3.151   8.992   1.219 -2.1709 -1.7517  0.1284
 5268SOL     OW27022   3.351   3.638   5.167 -0.0251  0.0100 -0.0003
 5268SOL    HW127023   3.378   3.557   5.220  1.9428 -0.9196 -2.3562
 5268SOL    HW227024   3.360   3.719   5.225  0.1007 -1.1983  1.7228
 5269SOL     OW27025   3.843   5.524   2.955  0.3618  0.0304  0.0939
 5269SOL    HW127026   3.843   5.622   2.977  0.5350  0.1204 -0.2985
 5269SOL    HW227027   3.916   5.505   2.889  0.8806 -0.5159  0.8268
 5270SOL     OW27028   0.290   4.458   2.763  0.2803  0.2135 -0.4594
 5270SOL    HW127029   0.308   4.539   2.707  0.8600  0.1930 -0.3052
 5270SOL    HW227030   0.347   4.461   2.846  0.4575 -0.4527 -0.5535
 5271SOL     OW27031   0.260   0.906   2.032 -0.3398 -0.0803 -0.0998
 5271SOL    HW127032   0.303   0.973   1.972 -1.3186  0.6978  0.0531
 5271SOL    HW227033   0.325   0.834   2.054  1.7448  2.3917  2.2119
 5272SOL     OW27034   2.113   3.911   2.294  0.3390 -0.3017  0.1448
 5272SOL    HW127035   2.087   3.987   2.235  0.6529 -0.9094 -0.7788
 5272SOL    HW227036   2.213   3.903   2.297  0.3399 -0.0596  1.0372
 5273SOL     OW27037   0.361   3.945   0.242 -0.6750  0.1044  0.5901
 5273SOL    HW127038   0.307   3.873   0.197  1.8854 -0.3606 -1.8804
 5273SOL    HW227039   0.420   3.905   0.311 -0.4647  0.0561  0.3823
 5274SOL     OW27040   5.247   8.621   3.124 -0.3091 -0.1361 -0.5556
 5274SOL    HW127041   5.238   8.536   3.072 -1.5868  1.0505 -2.2870
 5274SOL    HW227042   5.206   8.696   3.073  0.7692  1.5279  0.9927
 5275SOL     OW27043   0.305   3.133   1.078 -0.1997 -0.4348 -0.6097
 5275SOL    HW127044   0.354   3.220   1.078 -2.0565  0.6448  0.2677
 5275SOL    HW227045   0.349   3.070   1.142  0.1810  0.4394  0.0007
 5276SOL     OW27046   5.829   8.816   2.019 -0.0021 -0.2457 -0.4227
 5276SOL    HW127047   5.849   8.720   1.999  1.7836 -0.0317  0.2850
 5276SOL    HW227048   5.740   8.840   1.979 -1.4919 -2.7696  1.2384
 5277SOL     OW27049   1.137   6.400   6.107  0.4854  0.3733  0.1963
 5277SOL    HW127050   1.057   6.438   6.153  0.4108  0.5021 -0.0380
 5277SOL    HW227051   1.219   6.451   6.134  0.1573  1.8475 -1.4420
 5278SOL     OW27052   3.473   8.883   6.307 -0.5930  0.1663 -0.4840
 5278SOL    HW127053   3.562   8.909   6.269 -0.3222  0.3512  0.2731
 5278SOL    HW227054   3.487   8.830   6.391 -1.1650 -1.1254 -1.1776
 5279SOL     OW27055   7.388   0.183   6.509  0.1958  0.0779  0.2367
 5279SOL    HW127056   7.301   0.168   6.557  0.0460 -0.1583 -0.1044
 5279SOL    HW227057   7.373   0.178   6.410  0.4162  1.0496  0.1531
 5280SOL     OW27058   0.379   5.845   2.574  0.1714 -0.4875 -0.4177
 5280SOL    HW127059   0.280   5.836   2.566 -0.0762  1.3030  0.3219
 5280SOL    HW227060   0.405   5.835   2.670  0.7657 -1.3912 -0.6659
 5281SOL     OW27061   3.204   9.015   3.779 -0.2141 -0.1948 -0.3176
 5281SOL    HW127062   3.179   9.077   3.854 -0.8961  0.7615 -1.3174
 5281SOL    HW227063   3.120   8.980   3.736  0.1707  0.1020 -1.3169
 5282SOL     OW27064   2.792   8.944   5.101  0.2117  0.4281 -0.3290
 5282SOL    HW127065   2.812   8.850   5.129  0.8329  0.4631 -0.6302
 5282SOL    HW227066   2.861   8.974   5.035  0.1492  1.1746 -0.0575
 5283SOL     OW27067   9.208   6.782   3.070 -0.0016 -0.6750 -0.0450
 5283SOL    HW127068   9.125   6.839   3.075 -0.2957 -0.8879 -2.2622
 5283SOL    HW227069   9.281   6.827   3.121 -1.5835 -0.7169  2.3863
 5284SOL     OW27070   4.245   3.225   0.056  0.3212 -0.0433 -0.5663
 5284SOL    HW127071   4.343   3.206   0.065 -0.0747 -1.4033  1.2851
 5284SOL    HW227072   4.196   3.138   0.048 -0.8567  0.5639  0.0392
 5285SOL     OW27073   3.321   5.371   6.472  0.0503 -0.1940 -0.0728
 5285SOL    HW127074   3.280   5.423   6.397  1.4079  0.2483 -0.5258
 5285SOL    HW227075   3.341   5.278   6.441  1.4477  0.2562 -0.5535
 5286SOL     OW27076   0.268   9.983   3.082  0.4289  0.1324  0.7818
 5286SOL    HW127077   0.322  10.052   3.130  0.1935  0.5838  0.3986
 5286SOL    HW227078   0.315   9.955   2.998  1.1987 -1.2025  1.6443
 5287SOL     OW27079   8.253   5.538   2.515 -0.2200 -0.3205  0.1247
 5287SOL    HW127080   8.162   5.513   2.484 -0.1806 -0.5258  0.1697
 5287SOL    HW227081   8.319   5.519   2.442 -0.1622 -0.5557  0.2353
 5288SOL     OW27082   0.824   0.067   6.275 -0.4541  0.6720  0.0597
 5288SOL    HW127083   0.871   0.145   6.233 -1.1530  0.5778 -0.9217
 5288SOL    HW227084   0.792   0.006   6.203  0.5643 -0.8093  0.8442
 5289SOL     OW27085   3.891   7.617   3.432 -0.4135 -0.5608 -1.0029
 5289SOL    HW127086   3.898   7.518   3.441 -0.2192 -0.6417 -1.9561
 5289SOL    HW227087   3.923   7.644   3.341 -2.2217  0.1802 -1.4283
 5290SOL     OW27088   0.427   0.888   3.595 -0.2644 -0.0601  0.1185
 5290SOL    HW127089   0.376   0.828   3.657  1.1602 -0.4512  0.9385
 5290SOL    HW227090   0.451   0.973   3.642 -0.9074  0.4947 -0.5423
 5291SOL     OW27091   7.512   0.224   0.864  0.7281 -0.1210  0.3597
 5291SOL    HW127092   7.532   0.320   0.847  0.1263 -0.2141 -0.9662
 5291SOL    HW227093   7.593   0.169   0.846  0.7358  0.0232 -0.0545
 5292SOL     OW27094   1.562   5.635   1.124  0.2019  0.1010  0.1405
 5292SOL    HW127095   1.594   5.730   1.119 -0.0687  0.1294 -1.0148
 5292SOL    HW227096   1.605   5.590   1.202  0.8290  0.9813  0.3113
 5293SOL     OW27097   1.939   3.894   6.063  0.4277  0.1260  0.3550
 5293SOL    HW127098   1.964   3.966   5.998  0.8862 -1.2602 -1.0469
 5293SOL    HW227099   2.011   3.885   6.132  2.3635 -1.7225 -1.8366
 5294SOL     OW27100   2.074   9.511   6.708  0.2042 -0.3654 -0.4487
 5294SOL    HW127101   2.161   9.469   6.733  0.4178  0.7897  0.8158
 5294SOL    HW227102   2.027   9.542   6.790 -0.7970  0.1738 -1.2165
 5295SOL     OW27103   0.847   6.398   5.484  0.3584  1.0262 -0.3275
 5295SOL    HW127104   0.851   6.298   5.490  0.9896  1.0596 -0.1359
 5295SOL    HW227105   0.760   6.425   5.444 -0.6523  0.4854  1.4418
 5296SOL     OW27106   2.019   3.229   5.743 -0.5546  0.7920 -0.3428
 5296SOL    HW127107   1.977   3.163   5.805 -1.1077  0.7889 -0.7171
 5296SOL    HW227108   2.072   3.296   5.795 -0.9137  0.7157  0.1168
 5297SOL     OW27109   7.880   0.694   2.704 -0.7344 -0.2599 -0.1247
 5297SOL    HW127110   7.909   0.787   2.682  3.1080 -1.5229 -0.6677
 5297SOL    HW227111   7.920   0.666   2.791 -3.1170 -0.9014  0.7978
 5298SOL     OW27112   7.126   2.806   1.730  0.1492  0.3263 -0.6942
 5298SOL    HW127113   7.146   2.779   1.636  1.4272  1.1154 -0.6543
 5298SOL    HW227114   7.063   2.740   1.771  1.2073 -1.1631 -1.4281
 5299SOL     OW27115   0.008   6.828   5.683  0.6022  0.4710  0.4705
 5299SOL    HW127116   0.011   6.914   5.734  1.8405  0.2526  0.7974
 5299SOL    HW227117   0.092   6.776   5.702  0.2486 -0.4174 -0.3933
 5300SOL     OW27118   0.969   7.431   1.570  0.0145 -0.2106  0.5068
 5300SOL    HW127119   0.938   7.415   1.664 -0.3279  0.5010  0.5156
 5300SOL    HW227120   0.899   7.484   1.521  1.0141  0.9959  0.3801
 5301SOL     OW27121   7.623   9.676   6.618  0.3548  0.3167  0.4875
 5301SOL    HW127122   7.700   9.720   6.573  0.9525  0.6937  1.8481
 5301SOL    HW227123   7.637   9.577   6.617 -0.7608  0.1373 -2.1525
 5302SOL     OW27124   1.773   4.428   5.217 -0.5643  0.2006 -0.0081
 5302SOL    HW127125   1.740   4.346   5.171  0.2508 -0.0042 -0.2317
 5302SOL    HW227126   1.705   4.459   5.283 -0.8481 -0.6884  0.1182
 5303SOL     OW27127   7.343   3.905   4.227  0.0958 -0.2217 -0.6978
 5303SOL    HW127128   7.247   3.877   4.233  0.0757 -0.4330 -1.9381
 5303SOL    HW227129   7.379   3.917   4.319 -0.9553 -0.6973 -0.2070
 5304SOL     OW27130   4.067   2.761   4.513  0.1100 -0.2214  0.3967
 5304SOL    HW127131   4.007   2.738   4.590  0.8180 -0.1619  0.9736
 5304SOL    HW227132   4.069   2.685   4.448 -0.3233 -0.3595  0.5469
 5305SOL     OW27133   2.966   1.783   2.537  0.2666  0.0450  0.2487
 5305SOL    HW127134   2.920   1.797   2.625 -0.6593 -3.7063  0.4388
 5305SOL    HW227135   3.064   1.797   2.548 -0.1562  2.6238  1.1234
 5306SOL     OW27136   3.744   4.886   3.437 -0.1156  0.0188  0.0218
 5306SOL    HW127137   3.772   4.981   3.424 -1.0091  0.4796  1.3436
 5306SOL    HW227138   3.653   4.873   3.397  0.4857 -0.5747 -1.1641
 5307SOL     OW27139   8.417   4.876   6.577 -0.4590 -0.4501  0.2457
 5307SOL    HW127140   8.486   4.945   6.556 -0.6954 -0.3560 -0.2085
 5307SOL    HW227141   8.449   4.820   6.654  0.1653 -0.4720 -0.0289
 5308SOL     OW27142   8.858   3.411   1.782  0.0974 -0.4582 -0.2692
 5308SOL    HW127143   8.884   3.315   1.792  0.2694 -0.0944  3.4769
 5308SOL    HW227144   8.780   3.431   1.841  0.1479  1.7334 -0.9040
 5309SOL     OW27145   6.903   2.027   4.071  0.1369  0.2160  0.0319
 5309SOL    HW127146   6.823   2.087   4.077  0.2094  0.5734 -2.0161
 5309SOL    HW227147   6.986   2.083   4.067  0.2804 -0.0380 -0.7012
 5310SOL     OW27148   4.715   5.004   4.116  0.6429 -0.0208 -0.7949
 5310SOL    HW127149   4.643   5.016   4.185  0.5708 -1.6363 -0.5660
 5310SOL    HW227150   4.803   5.030   4.155  0.4987 -0.2411 -0.3213
 5311SOL     OW27151   7.301   0.441   2.919  0.4825  0.0903  0.3836
 5311SOL    HW127152   7.317   0.443   2.820  3.1881 -0.8091  0.7675
 5311SOL    HW227153   7.216   0.490   2.939  0.6406  1.5731 -2.2352
 5312SOL     OW27154   7.780   3.878   0.441 -0.6087  0.1392  0.3163
 5312SOL    HW127155   7.760   3.954   0.503 -0.8211  1.1770 -0.9982
 5312SOL    HW227156   7.878   3.859   0.443 -0.1170  2.2966 -1.3969
 5313SOL     OW27157   7.718   1.429   1.900 -0.0011 -0.5841 -0.2585
 5313SOL    HW127158   7.722   1.519   1.856  0.6890 -0.1425  0.6940
 5313SOL    HW227159   7.627   1.390   1.888 -1.4092  1.7631  2.2999
 5314SOL     OW27160   1.810   1.174   6.301  0.4077  0.0723  0.2721
 5314SOL    HW127161   1.728   1.146   6.350 -0.7911 -0.1074 -1.7768
 5314SOL    HW227162   1.802   1.270   6.274  0.3121 -0.3007 -1.0350
 5315SOL     OW27163   9.218   3.237   4.856  0.0395  0.5664 -0.0875
 5315SOL    HW127164   9.183   3.309   4.796 -0.8069  1.6132  1.6205
 5315SOL    HW227165   9.301   3.269   4.902 -0.5797  0.6448  1.0055
 5316SOL     OW27166   3.289   8.512   6.474  0.5312  0.4438  0.1321
 5316SOL    HW127167   3.215   8.497   6.540 -0.0011  0.9359 -0.3526
 5316SOL    HW227168   3.366   8.556   6.520 -0.9355  3.4574 -0.1841
 5317SOL     OW27169   7.224   7.663   4.296  0.5805 -0.4111  0.0844
 5317SOL    HW127170   7.218   7.631   4.391 -1.6031 -0.6101 -0.1022
 5317SOL    HW227171   7.224   7.763   4.295 -0.0446 -0.4027  0.2784
 5318SOL     OW27172   7.704   0.527   1.050  0.6355 -0.5359  0.2190
 5318SOL    HW127173   7.618   0.477   1.059 -0.2494  0.7421 -0.9026
 5318SOL    HW227174   7.767   0.499   1.123 -1.2143 -0.5121  1.8824
 5319SOL     OW27175   8.713   6.113   3.421  0.2435 -0.0160 -0.2874
 5319SOL    HW127176   8.638   6.063   3.378  1.3146 -1.0416 -0.9857
 5319SOL    HW227177   8.699   6.114   3.520 -0.1339 -1.1646 -0.3145
 5320SOL     OW27178   3.517   3.116   6.549  0.1652  0.0409 -0.6794
 5320SOL    HW127179   3.553   3.061   6.624 -2.3033  1.2254  1.4342
 5320SOL    HW227180   3.501   3.210   6.580 -2.6655  0.0990 -2.1385
 5321SOL     OW27181   8.361   6.658   3.056 -0.0375 -0.4719 -0.3978
 5321SOL    HW127182   8.415   6.742   3.058  0.7434 -0.9873  1.0454
 5321SOL    HW227183   8.265   6.679   3.072  0.2050  0.1068  0.3270
 5322SOL     OW27184   1.577   9.265   4.046  0.3116 -0.6098 -0.6594
 5322SOL    HW127185   1.543   9.239   4.136  0.2783 -0.4461 -0.6244
 5322SOL    HW227186   1.618   9.356   4.050 -0.0848 -0.4172 -0.9038
 5323SOL     OW27187   8.494   8.645   2.301 -0.1509 -0.0376  0.2730
 5323SOL    HW127188   8.460   8.600   2.218  1.7185 -0.5475 -0.2556
 5323SOL    HW227189   8.507   8.576   2.372  2.1057 -0.2689 -0.3298
 5324SOL     OW27190   7.026   9.598   5.110  0.2276 -0.2039  0.0929
 5324SOL    HW127191   6.998   9.513   5.065 -2.2766  1.1085 -0.9164
 5324SOL    HW227192   7.065   9.660   5.043  0.4797  0.0883  0.5090
 5325SOL     OW27193   6.764   8.002   5.163 -0.2930  0.1988  0.3541
 5325SOL    HW127194   6.700   8.034   5.093  0.1944  0.9160  0.2231
 5325SOL    HW227195   6.765   7.902   5.164 -0.1206  0.1787 -0.8418
 5326SOL     OW27196   1.081   5.635   0.943  0.0636 -0.6119  0.2247
 5326SOL    HW127197   1.097   5.705   0.873  0.3794 -1.3113 -0.4110
 5326SOL    HW227198   1.085   5.677   1.034  0.1280  0.2152 -0.1560
 5327SOL     OW27199   1.725   8.160   1.864  0.1483  0.0558  0.1638
 5327SOL    HW127200   1.721   8.231   1.794  0.1875  0.3457  0.4519
 5327SOL    HW227201   1.633   8.143   1.900  0.0599 -0.4200 -0.2802
 5328SOL     OW27202   0.012   6.981   3.965  0.3138  0.2043 -0.3213
 5328SOL    HW127203   0.008   7.042   3.886  1.2275 -0.2096 -0.6904
 5328SOL    HW227204  -0.055   6.908   3.953  1.3715 -0.6158 -1.3629
 5329SOL     OW27205   9.223   5.893   3.687  0.0358 -0.5149  0.1376
 5329SOL    HW127206   9.238   5.860   3.594  3.2266 -0.0182  0.4341
 5329SOL    HW227207   9.212   5.815   3.748 -1.0308 -0.8601 -0.4793
 5330SOL     OW27208   2.584   2.233   0.876  0.8118  0.3920 -0.2011
 5330SOL    HW127209   2.553   2.309   0.933  0.0231 -0.0875  0.0107
 5330SOL    HW227210   2.682   2.243   0.858  1.2322  0.1263  1.8769
 5331SOL     OW27211   4.433   3.710   6.435 -0.4049 -0.0226 -0.2879
 5331SOL    HW127212   4.524   3.672   6.422  0.2939  0.8119  1.8732
 5331SOL    HW227213   4.395   3.676   6.521 -1.6307  0.5622 -0.5923
 5332SOL     OW27214   1.177   2.098   1.823  0.9155 -0.6562 -0.0711
 5332SOL    HW127215   1.210   2.132   1.735  0.8892 -0.4498 -0.0015
 5332SOL    HW227216   1.092   2.047   1.809  1.1864 -1.0693 -0.2315
 5333SOL     OW27217   8.094   1.944   3.934 -0.1259 -0.3986  0.2860
 5333SOL    HW127218   8.098   1.992   4.022 -0.4854  2.0064 -0.9598
 5333SOL    HW227219   8.015   1.977   3.882  1.8262  0.4732 -2.2031
 5334SOL     OW27220   0.919   1.502   5.944  0.2563 -0.0363 -0.3402
 5334SOL    HW127221   0.869   1.463   5.866 -0.5065 -0.3205  0.2850
 5334SOL    HW227222   0.939   1.430   6.010  2.8154 -0.2271 -1.2447
 5335SOL     OW27223   4.095   3.471   5.342 -0.4838  0.1052 -0.1014
 5335SOL    HW127224   4.172   3.451   5.403  0.1334 -0.9001 -1.1740
 5335SOL    HW227225   4.053   3.385   5.312 -0.4347  0.5597 -1.5051
 5336SOL     OW27226   3.238   5.137   2.878  0.0565 -0.3225  0.1326
 5336SOL    HW127227   3.237   5.094   2.968  1.0661  1.8753  1.2449
 5336SOL    HW227228   3.144   5.155   2.848 -0.2617  0.3335  1.4729
 5337SOL     OW27229   1.707   9.422   3.392 -0.5202 -0.0531  0.0740
 5337SOL    HW127230   1.617   9.381   3.408 -0.1632 -1.2823 -0.9441
 5337SOL    HW227231   1.711   9.513   3.434 -2.4095  0.2350 -0.3408
 5338SOL     OW27232   7.858   9.491   5.367 -0.1540 -0.0608  0.4135
 5338SOL    HW127233   7.941   9.544   5.352  0.2873 -0.4948  1.3229
 5338SOL    HW227234   7.799   9.499   5.286  0.5509  0.6296 -0.0425
 5339SOL     OW27235   0.288   1.017   5.756 -0.0569 -0.2176  0.0221
 5339SOL    HW127236   0.286   1.100   5.701  0.1625 -0.4070 -0.2757
 5339SOL    HW227237   0.217   1.021   5.826  0.2567  0.4276  0.3134
 5340SOL     OW27238   2.939   0.248   2.943  0.1966 -0.0553  0.4439
 5340SOL    HW127239   3.006   0.295   3.000 -1.4241  1.1057  1.4227
 5340SOL    HW227240   2.860   0.222   2.998 -1.0812  0.4486 -1.0995
 5341SOL     OW27241   0.732   7.671   0.534 -0.0851  0.2250 -0.6111
 5341SOL    HW127242   0.675   7.641   0.611 -0.2107  1.5477 -0.1759
 5341SOL    HW227243   0.820   7.703   0.569 -0.0707  0.6468 -1.0416
 5342SOL     OW27244   7.965   9.723   3.484 -0.4972  0.0015 -0.1098
 5342SOL    HW127245   8.008   9.632   3.487 -2.3834 -0.9000  0.4551
 5342SOL    HW227246   7.869   9.714   3.458 -1.2070  1.6317  1.7706
 5343SOL     OW27247   6.568   0.399   2.845  0.2848  0.0178 -0.0339
 5343SOL    HW127248   6.479   0.422   2.806  0.0153  0.0090  0.5792
 5343SOL    HW227249   6.562   0.398   2.944  0.7539 -0.8512 -0.0107
 5344SOL     OW27250   9.783   1.245   1.387 -0.0693  0.0104  0.4882
 5344SOL    HW127251   9.791   1.145   1.379 -1.9549  0.0012 -1.5372
 5344SOL    HW227252   9.875   1.284   1.399  0.6602 -1.9729  1.6457
 5345SOL     OW27253   0.076   6.484   1.904 -0.2022 -0.5523 -0.0311
 5345SOL    HW127254   0.044   6.389   1.912 -0.2634 -0.5041  0.3036
 5345SOL    HW227255   0.125   6.509   1.987  1.3181 -0.8558 -0.8247
 5346SOL     OW27256   2.119   9.623   3.492 -0.0787  0.8781  0.3892
 5346SOL    HW127257   2.158   9.704   3.535  1.9810 -0.0410  0.2902
 5346SOL    HW227258   2.104   9.553   3.562  1.6211  0.0240 -0.0784
 5347SOL     OW27259   8.847   8.768   1.880  0.9404 -0.3243  0.1510
 5347SOL    HW127260   8.769   8.744   1.939  0.8354  2.5156  1.2500
 5347SOL    HW227261   8.853   8.867   1.872  3.9642 -0.5226 -0.6141
 5348SOL     OW27262   1.861   4.442   6.709 -0.3838  0.1150  0.0820
 5348SOL    HW127263   1.899   4.518   6.656 -1.1612  0.1883 -0.3777
 5348SOL    HW227264   1.851   4.470   6.804 -2.6947  1.3550 -0.4873
 5349SOL     OW27265   7.137   2.449   4.392  0.2500 -0.2385 -0.3594
 5349SOL    HW127266   7.124   2.457   4.293 -0.6837 -1.0558 -0.3085
 5349SOL    HW227267   7.049   2.430   4.436  0.4094  1.5944  0.7932
 5350SOL     OW27268   1.451   3.218   1.720  0.3743  0.2507 -0.5058
 5350SOL    HW127269   1.528   3.243   1.661  1.0991  0.2193  0.3948
 5350SOL    HW227270   1.474   3.133   1.769 -0.6389 -0.2868 -0.9592
 5351SOL     OW27271   4.501   9.795   1.525 -0.5325 -0.1003  0.0077
 5351SOL    HW127272   4.589   9.751   1.506  0.2288  1.5602 -0.4174
 5351SOL    HW227273   4.435   9.726   1.553  1.1980 -1.2375  1.3906
 5352SOL     OW27274   5.124   7.721   3.974 -0.1219 -0.1871  0.5004
 5352SOL    HW127275   5.194   7.651   3.988 -1.6738 -1.5331  1.5682
 5352SOL    HW227276   5.117   7.742   3.877 -1.4784 -3.4362 -0.1552
 5353SOL     OW27277   3.378   5.488   3.501 -0.0839 -0.2478  0.3142
 5353SOL    HW127278   3.304   5.434   3.541  0.5268 -0.8175  0.6822
 5353SOL    HW227279   3.381   5.473   3.402 -0.9009  0.3205  0.1984
 5354SOL     OW27280   1.873   9.676   6.213 -0.2219  0.4509 -0.7489
 5354SOL    HW127281   1.826   9.765   6.216  0.3944  0.7922 -1.0048
 5354SOL    HW227282   1.815   9.606   6.254 -1.1440  0.7855 -1.4608
 5355SOL     OW27283   4.639   7.916   4.050 -0.2738  0.3551  0.1544
 5355SOL    HW127284   4.560   7.900   4.110 -0.0612  2.0084  0.9094
 5355SOL    HW227285   4.681   8.004   4.073  0.3863  0.5791 -1.8107
 5356SOL     OW27286   1.806   8.231   5.290  0.1297  0.8192 -0.1718
 5356SOL    HW127287   1.737   8.275   5.347 -0.7529 -0.1802 -0.4529
 5356SOL    HW227288   1.774   8.140   5.263  1.8089  0.1186  0.1695
 5357SOL     OW27289   2.916   3.816   1.038  0.4792  0.2970 -0.0724
 5357SOL    HW127290   2.881   3.909   1.049 -0.1205  0.0268  0.3552
 5357SOL    HW227291   2.924   3.772   1.128 -1.2795 -0.7849 -0.4080
 5358SOL     OW27292   8.022   1.674   2.183  0.1069 -0.0703 -0.1260
 5358SOL    HW127293   7.933   1.682   2.227 -0.0224 -1.1299 -0.2023
 5358SOL    HW227294   8.012   1.640   2.090  0.6469 -0.9578  0.1310
 5359SOL     OW27295   1.553   1.670   2.315  0.1085 -0.6775 -0.1042
 5359SOL    HW127296   1.458   1.686   2.343  0.3147 -0.8426  0.7178
 5359SOL    HW227297   1.604   1.757   2.319  0.0559 -0.6370 -0.3007
 5360SOL     OW27298   4.755   9.885   1.915  0.3578 -0.5184  0.3243
 5360SOL    HW127299   4.825   9.853   1.978  2.5661  1.2440 -1.1622
 5360SOL    HW227300   4.781   9.861   1.821 -0.3534  1.3613 -0.3709
 5361SOL     OW27301   3.251   8.497   6.194 -0.4453 -0.9292 -0.3857
 5361SOL    HW127302   3.172   8.554   6.171 -0.1763  0.2648  1.5053
 5361SOL    HW227303   3.261   8.493   6.293  1.2211 -1.9694 -0.5830
 5362SOL     OW27304   9.804   0.456   6.205 -0.7029 -0.4743 -0.1062
 5362SOL    HW127305   9.803   0.534   6.267  0.1052 -0.7146  0.2177
 5362SOL    HW227306   9.840   0.376   6.253  1.0642 -0.3707 -1.2141
 5363SOL     OW27307   3.766   7.902   1.273 -0.6532 -0.2584 -0.1395
 5363SOL    HW127308   3.701   7.882   1.200 -1.0069  1.0821 -0.1969
 5363SOL    HW227309   3.784   7.818   1.325 -0.7710 -1.1164 -1.4500
 5364SOL     OW27310   1.890   4.189   1.463  0.5951  0.3603 -0.0993
 5364SOL    HW127311   1.940   4.198   1.549  0.6376 -0.0867 -0.0787
 5364SOL    HW227312   1.796   4.221   1.476  0.2864 -0.7121  0.4032
 5365SOL     OW27313   3.154   7.127   0.291 -0.2899 -0.4677 -0.3387
 5365SOL    HW127314   3.243   7.171   0.281 -0.1197 -0.4954  1.0318
 5365SOL    HW227315   3.088   7.170   0.228  0.3343  0.4860 -0.3425
 5366SOL     OW27316   1.215   5.183   0.156  0.5505  0.0667 -0.1121
 5366SOL    HW127317   1.136   5.130   0.186 -0.1026  1.1820  0.2040
 5366SOL    HW227318   1.249   5.239   0.231  0.4548  1.0087 -0.7534
 5367SOL     OW27319   0.966   6.394   2.144  0.6299 -0.4512 -0.2189
 5367SOL    HW127320   0.967   6.470   2.079 -1.0164 -0.7421 -0.6020
 5367SOL    HW227321   0.926   6.425   2.230  0.3041 -0.7946 -0.2472
 5368SOL     OW27322   4.520   1.027   4.688  0.1437 -0.4256  0.7250
 5368SOL    HW127323   4.428   1.035   4.647  1.5710 -0.4281 -2.6778
 5368SOL    HW227324   4.538   0.931   4.709  0.0589 -0.6929 -0.3690
 5369SOL     OW27325   4.603   5.143   1.708  0.0286 -0.4206 -0.1951
 5369SOL    HW127326   4.542   5.204   1.657 -0.1751 -0.0915  0.4374
 5369SOL    HW227327   4.552   5.064   1.742  0.2826 -0.9221 -0.9730
 5370SOL     OW27328   7.346   4.917   0.880 -0.8491 -0.0060  0.1304
 5370SOL    HW127329   7.263   4.927   0.825 -0.7108 -0.1579 -0.1069
 5370SOL    HW227330   7.378   4.823   0.875 -1.1735 -0.1701  0.9618
 5371SOL     OW27331   8.083   6.668   5.276  0.4281  0.7913 -0.2947
 5371SOL    HW127332   7.996   6.718   5.270  0.6436  1.2425  0.2587
 5371SOL    HW227333   8.081   6.590   5.213 -0.7267  0.2819  0.3430
 5372SOL     OW27334   6.928   7.107   3.687  0.7254 -0.6522 -0.3953
 5372SOL    HW127335   6.934   7.207   3.692 -0.0270 -0.5979 -0.5868
 5372SOL    HW227336   6.996   7.067   3.748 -0.6097 -0.0333  1.5385
 5373SOL     OW27337   2.995   4.957   2.521 -0.2968  0.3116  0.2582
 5373SOL    HW127338   3.004   5.017   2.441  0.7006 -2.6589 -1.9511
 5373SOL    HW227339   3.084   4.951   2.567 -0.8292  1.8822  1.5369
 5374SOL     OW27340   6.307   9.714   1.403  0.0706  0.0787  0.3055
 5374SOL    HW127341   6.257   9.800   1.397 -0.8536 -0.4331  0.6553
 5374SOL    HW227342   6.376   9.721   1.475 -0.1619  0.4397  0.4948
 5375SOL     OW27343   3.407   4.097   5.053  0.1479 -0.1015  0.7635
 5375SOL    HW127344   3.337   4.092   4.981  0.2686  1.3673  0.5209
 5375SOL    HW227345   3.498   4.083   5.012 -0.0385 -2.7278  1.1929
 5376SOL     OW27346   7.666   8.072   0.969 -0.2946 -0.4237 -0.1897
 5376SOL    HW127347   7.640   8.027   1.055 -0.4791 -0.0680 -0.0593
 5376SOL    HW227348   7.718   8.008   0.913 -0.6280 -0.8329 -0.0395
 5377SOL     OW27349   8.147   1.915   0.750 -0.6938  0.3760 -0.5330
 5377SOL    HW127350   8.217   1.847   0.774 -0.8765  0.5666  0.5864
 5377SOL    HW227351   8.177   1.966   0.669  0.1208 -0.0489 -0.5109
 5378SOL     OW27352   7.707   2.872   1.328 -0.5577  0.2643  0.0930
 5378SOL    HW127353   7.670   2.792   1.281 -1.2870 -0.0444  1.1694
 5378SOL    HW227354   7.634   2.916   1.381  0.2572  0.5962  0.9452
 5379SOL     OW27355   2.647   0.162   1.557  0.5292 -0.0572  0.3470
 5379SOL    HW127356   2.610   0.253   1.576  1.2043  0.3784 -0.3337
 5379SOL    HW227357   2.696   0.128   1.637  1.0947  0.6044  0.2922
 5380SOL     OW27358   2.534   7.395   0.691 -0.4029 -0.2459  0.7474
 5380SOL    HW127359   2.600   7.468   0.708 -0.7526  0.2743 -0.1239
 5380SOL    HW227360   2.580   7.318   0.647 -0.1576 -0.3025  1.1076
 5381SOL     OW27361   1.703   7.499   5.109  0.1753  0.2464 -0.1726
 5381SOL    HW127362   1.786   7.457   5.071 -0.6397 -1.3841 -0.1791
 5381SOL    HW227363   1.638   7.427   5.135 -1.6844  1.5512 -1.1545
 5382SOL     OW27364   7.950   3.198   2.587 -0.0211 -0.2508 -0.3488
 5382SOL    HW127365   7.967   3.171   2.492 -0.3279 -0.8066 -0.2418
 5382SOL    HW227366   8.017   3.154   2.647 -0.6045 -0.8830 -0.1592
 5383SOL     OW27367   8.136   9.519   0.377 -0.1083  0.2577 -0.9817
 5383SOL    HW127368   8.134   9.464   0.461 -1.4418  0.0728 -1.1113
 5383SOL    HW227369   8.152   9.459   0.299 -2.7120 -0.1586 -1.2453
 5384SOL     OW27370   7.544   7.733   3.626  0.1975 -0.6088 -0.1262
 5384SOL    HW127371   7.501   7.739   3.716 -1.0512 -0.1138 -0.7458
 5384SOL    HW227372   7.624   7.673   3.631 -0.4753 -1.4148  1.0828
 5385SOL     OW27373   9.425   3.170   4.132  0.5707  0.0746 -0.7785
 5385SOL    HW127374   9.445   3.232   4.056  1.3056  0.4641 -0.2714
 5385SOL    HW227375   9.455   3.078   4.108  1.4575  0.3312 -0.6929
 5386SOL     OW27376   3.860   0.300   6.739 -0.2575  1.1257  0.1708
 5386SOL    HW127377   3.818   0.209   6.739 -1.2250  1.5589 -1.6972
 5386SOL    HW227378   3.925   0.306   6.815 -0.2785 -1.0711  0.3964
 5387SOL     OW27379   2.420   3.087   0.956 -0.0555  0.2068 -0.1873
 5387SOL    HW127380   2.456   2.995   0.967  1.3998  1.1283  3.5990
 5387SOL    HW227381   2.336   3.097   1.009  0.1894  1.2547  0.0113
 5388SOL     OW27382   7.655   0.039   6.485 -0.3748 -0.4326  0.2005
 5388SOL    HW127383   7.559   0.053   6.507 -0.8655 -0.8172 -1.6011
 5388SOL    HW227384   7.712   0.086   6.552 -1.8421  2.3908 -0.4824
 5389SOL     OW27385   5.146   4.891   0.798  0.7523  0.5625  0.3486
 5389SOL    HW127386   5.146   4.972   0.857 -0.4007 -0.0459  1.2155
 5389SOL    HW227387   5.239   4.872   0.767  1.3516  0.9685  1.8667
 5390SOL     OW27388   0.751   7.263   5.146 -0.0145  0.1218  0.2259
 5390SOL    HW127389   0.702   7.341   5.106  0.7273 -0.0046 -0.9562
 5390SOL    HW227390   0.801   7.215   5.074  0.4116 -0.8035  1.1312
 5391SOL     OW27391   2.073   9.906   0.118 -0.3083  0.1002  0.1772
 5391SOL    HW127392   2.143   9.838   0.094 -0.6684 -0.4017  0.5448
 5391SOL    HW227393   1.984   9.861   0.127 -1.0477  1.0230 -2.1440
 5392SOL     OW27394   8.777   8.412   4.958 -0.2089 -0.2798  0.4264
 5392SOL    HW127395   8.719   8.492   4.970 -0.3896 -0.1155 -1.3604
 5392SOL    HW227396   8.742   8.356   4.883 -1.7729 -3.6017  3.5221
 5393SOL     OW27397   2.130   8.073   2.783 -0.1101 -0.2973 -0.0714
 5393SOL    HW127398   2.139   8.169   2.756  2.0674 -0.3088  0.4975
 5393SOL    HW227399   2.168   8.061   2.875 -0.1675 -1.7489 -0.2335
 5394SOL     OW27400   1.367   3.819   5.794  0.0400 -0.0989  0.0431
 5394SOL    HW127401   1.430   3.897   5.790  0.4672 -0.4427 -0.1188
 5394SOL    HW227402   1.338   3.796   5.701 -0.6762  0.3372  0.1607
 5395SOL     OW27403   5.644   4.914   0.897 -0.2937  0.2433 -0.2100
 5395SOL    HW127404   5.680   4.969   0.972  1.4267 -1.0841 -0.0310
 5395SOL    HW227405   5.699   4.928   0.815 -1.2599  0.5368 -0.8255
 5396SOL     OW27406   1.654   9.943   5.626  0.4502 -0.1321 -0.4813
 5396SOL    HW127407   1.744   9.978   5.601  0.8555 -0.9370 -0.1672
 5396SOL    HW227408   1.664   9.872   5.696 -0.1759 -2.2047 -2.4282
 5397SOL     OW27409   3.480   1.196   0.928  0.0019  0.3459 -0.3107
 5397SOL    HW127410   3.519   1.272   0.875  0.8265  0.4994  0.5025
 5397SOL    HW227411   3.382   1.211   0.941 -0.5544 -0.5234 -3.2119
 5398SOL     OW27412   5.002   2.069   4.371 -0.3093 -0.1123  0.0209
 5398SOL    HW127413   4.967   2.139   4.309  0.1544 -0.7058 -0.9190
 5398SOL    HW227414   5.066   2.010   4.322  1.0274  0.1764  1.3939
 5399SOL     OW27415   2.628   1.612   4.178  0.3510 -0.4515  0.4046
 5399SOL    HW127416   2.602   1.541   4.113  0.6767  1.8288 -2.3120
 5399SOL    HW227417   2.551   1.631   4.239 -0.6462 -1.2646 -0.5819
 5400SOL     OW27418   2.525   2.923   1.631 -0.0920  0.0315 -0.0002
 5400SOL    HW127419   2.486   2.835   1.603 -0.5515  0.1941  0.1281
 5400SOL    HW227420   2.509   2.937   1.728  2.0470 -0.8163  0.4850
 5401SOL     OW27421   4.690   0.774   2.892 -0.0642 -0.0163  0.2376
 5401SOL    HW127422   4.741   0.761   2.977  0.4346  1.3195  0.1591
 5401SOL    HW227423   4.603   0.725   2.897 -0.1300  0.2282  1.5818
 5402SOL     OW27424   7.437   2.339   2.490  0.0250 -0.5427  0.2467
 5402SOL    HW127425   7.397   2.378   2.407 -1.2475 -0.4674  0.8835
 5402SOL    HW227426   7.536   2.354   2.489 -0.2395  1.3468 -0.2577
 5403SOL     OW27427   5.727   1.619   2.053 -0.7316 -0.0729 -0.0497
 5403SOL    HW127428   5.825   1.631   2.036 -0.7318  0.9746  0.6282
 5403SOL    HW227429   5.677   1.632   1.968 -0.4419  1.4590  0.0066
 5404SOL     OW27430   8.001   2.470   4.467 -0.4430  0.4647 -0.4518
 5404SOL    HW127431   7.905   2.476   4.438  0.1204  1.5803 -2.1981
 5404SOL    HW227432   8.053   2.419   4.399  0.5181  1.3197 -0.3735
 5405SOL     OW27433   7.950   4.900   5.013 -0.1743 -0.2866  0.3829
 5405SOL    HW127434   7.911   4.811   4.988 -1.6300  0.3505  0.3557
 5405SOL    HW227435   7.987   4.944   4.931 -0.6869 -0.2679  0.1619
 5406SOL     OW27436   4.126   2.883   1.789  0.1479 -0.3006 -0.0805
 5406SOL    HW127437   4.131   2.981   1.812 -0.0548 -0.4880  0.7607
 5406SOL    HW227438   4.032   2.852   1.798  0.4738 -0.9540  1.2590
 5407SOL     OW27439   9.315   3.460   3.345 -0.0647 -0.3924  0.2858
 5407SOL    HW127440   9.287   3.392   3.278 -0.4567 -0.9935  1.0639
 5407SOL    HW227441   9.238   3.519   3.368 -0.2258 -0.9192  1.0857
 5408SOL     OW27442   1.861   2.286   2.892  0.4919  0.7779 -0.1903
 5408SOL    HW127443   1.892   2.298   2.798 -2.3331 -2.2542 -1.6189
 5408SOL    HW227444   1.782   2.345   2.909  1.3052  1.6877  0.4491
 5409SOL     OW27445   3.871   3.351   4.783  0.3845  0.0735 -0.0498
 5409SOL    HW127446   3.952   3.385   4.831 -0.8826  0.8427  1.5898
 5409SOL    HW227447   3.853   3.410   4.704  2.9822 -1.7068 -2.0728
 5410SOL     OW27448   5.401   0.407   4.028 -0.2311 -0.1776 -0.2630
 5410SOL    HW127449   5.436   0.337   4.091  2.4109  0.1306 -1.3413
 5410SOL    HW227450   5.361   0.362   3.948  1.3230 -0.4836 -0.8840
 5411SOL     OW27451   1.537   5.856   0.522  0.7576 -0.0500 -0.1373
 5411SOL    HW127452   1.550   5.772   0.470  0.6439  0.7478 -1.4864
 5411SOL    HW227453   1.587   5.850   0.608  2.2760 -0.7515 -1.0493
 5412SOL     OW27454   7.853   4.671   4.942  0.3790  0.0763  0.0081
 5412SOL    HW127455   7.900   4.650   4.856 -0.2737  0.6822 -0.5033
 5412SOL    HW227456   7.791   4.596   4.965 -0.4635  0.5135 -0.7743
 5413SOL     OW27457   3.193   8.137   5.650 -0.0429 -0.1809 -0.2672
 5413SOL    HW127458   3.124   8.121   5.578 -0.8436  1.9735 -0.0105
 5413SOL    HW227459   3.279   8.166   5.608 -0.5874  1.3309 -0.3540
 5414SOL     OW27460   9.892   8.083   2.375 -0.1493  0.5249  0.2603
 5414SOL    HW127461   9.923   8.121   2.288  1.5173 -1.6257 -0.1050
 5414SOL    HW227462   9.926   8.141   2.450 -0.2087  1.4602 -0.4238
 5415SOL     OW27463   0.326   9.293   4.516  0.9276  0.1652 -0.2527
 5415SOL    HW127464   0.286   9.243   4.439 -1.0639  0.5467  0.4952
 5415SOL    HW227465   0.315   9.391   4.501 -0.7148  0.2196  1.1205
 5416SOL     OW27466   8.875   2.562   1.433 -0.1863 -0.0459  0.8425
 5416SOL    HW127467   8.933   2.641   1.453 -0.0498 -0.3133  1.5396
 5416SOL    HW227468   8.866   2.506   1.516  0.6108 -1.3458  0.0753
 5417SOL     OW27469   8.281   5.295   5.053  0.4849 -0.0272  0.2027
 5417SOL    HW127470   8.190   5.315   5.018  1.5880  0.8527 -2.2368
 5417SOL    HW227471   8.276   5.278   5.151 -2.5141 -1.4752 -0.1741
 5418SOL     OW27472   3.800   5.859   6.567 -0.1231 -0.5346  0.1183
 5418SOL    HW127473   3.794   5.930   6.637  0.7421  0.2834 -0.6171
 5418SOL    HW227474   3.725   5.795   6.578 -0.0533 -0.3665  1.7437
 5419SOL     OW27475   3.732   3.027   4.345 -0.2800 -0.4420  0.0762
 5419SOL    HW127476   3.726   3.051   4.442  3.4901 -0.5741  0.4375
 5419SOL    HW227477   3.714   3.108   4.289  1.1219  0.5527  1.0184
 5420SOL     OW27478   1.149   6.522   3.262 -0.2442  0.9212 -0.1930
 5420SOL    HW127479   1.096   6.445   3.227  0.1039  0.4111  0.4153
 5420SOL    HW227480   1.246   6.509   3.241 -0.4966  2.5643 -2.6341
 5421SOL     OW27481   7.010   4.425   0.851 -0.2290 -0.9897  0.3211
 5421SOL    HW127482   7.061   4.357   0.798  0.6575  0.5227 -0.7783
 5421SOL    HW227483   7.068   4.457   0.926  0.3795  0.5707 -0.8004
 5422SOL     OW27484   7.899   5.046   6.504 -0.2001 -0.1796  0.2248
 5422SOL    HW127485   7.819   5.103   6.522 -0.4555 -0.5866  0.3864
 5422SOL    HW227486   7.871   4.962   6.457  0.4790  0.9225 -2.2124
 5423SOL     OW27487   7.103   1.923   1.005  0.4822 -0.1624  0.1794
 5423SOL    HW127488   7.115   1.837   1.054  0.0197 -0.3334 -0.0092
 5423SOL    HW227489   7.102   1.906   0.907 -2.2114 -0.2826  0.1976
 5424SOL     OW27490   0.326   0.035   3.494 -0.0198  0.1019  0.1533
 5424SOL    HW127491   0.303  -0.058   3.524  0.6319 -0.1264 -0.0298
 5424SOL    HW227492   0.259   0.100   3.529  0.6218 -0.1822  1.9505
 5425SOL     OW27493   8.950   9.623   3.917 -0.0120 -0.0597  0.6349
 5425SOL    HW127494   8.983   9.528   3.914  1.7420  0.4747  1.9351
 5425SOL    HW227495   8.964   9.666   3.828 -0.0326 -0.7611  0.2868
 5426SOL     OW27496   9.586   3.085   3.087  0.0075 -0.4174  0.4041
 5426SOL    HW127497   9.546   3.067   2.998 -0.2625 -0.4494  0.5331
 5426SOL    HW227498   9.523   3.056   3.159 -0.0339  0.1724  0.6059
 5427SOL     OW27499   9.365   4.353   0.184  0.1650 -0.0289  0.1132
 5427SOL    HW127500   9.270   4.378   0.166  1.0243  2.2642 -1.4623
 5427SOL    HW227501   9.417   4.356   0.098  1.5380 -1.8392  0.8536
 5428SOL     OW27502   7.781   1.964   5.527  0.1635  0.0247  0.4048
 5428SOL    HW127503   7.744   2.005   5.610  0.5915 -1.6198  1.4442
 5428SOL    HW227504   7.849   2.024   5.486 -3.0966  2.8083 -1.1574
 5429SOL     OW27505   1.574   2.117   6.649  0.1302  0.0948 -0.3444
 5429SOL    HW127506   1.528   2.088   6.565 -1.4184  1.7927 -0.1084
 5429SOL    HW227507   1.609   2.210   6.637 -0.3348  0.4519  0.9831
 5430SOL     OW27508   6.069   9.775   4.452 -0.1814 -0.8063 -0.0056
 5430SOL    HW127509   5.985   9.753   4.500 -1.7208 -1.0732 -2.7537
 5430SOL    HW227510   6.074   9.874   4.437 -0.6929 -0.9351 -1.0559
 5431SOL     OW27511   0.954   3.295   1.121  0.9338  0.6390  0.7417
 5431SOL    HW127512   1.032   3.339   1.166  2.1108 -0.6146 -0.0412
 5431SOL    HW227513   0.981   3.204   1.089 -1.3119 -0.4550  1.8678
 5432SOL     OW27514   2.703   9.679   3.309 -0.0160 -0.4177 -0.0788
 5432SOL    HW127515   2.639   9.670   3.385  0.2281  0.5044  0.2374
 5432SOL    HW227516   2.774   9.608   3.316  0.3558  0.0469  0.8906
 5433SOL     OW27517   7.137   6.297   5.104 -0.2857  0.3670  0.7669
 5433SOL    HW127518   7.193   6.236   5.160  0.8673  0.3683 -0.3745
 5433SOL    HW227519   7.074   6.243   5.047 -0.6484  0.3246  1.2032
 5434SOL     OW27520   3.435   8.870   4.022  0.1303 -0.4135 -0.1025
 5434SOL    HW127521   3.400   8.869   3.928  1.7253  0.6044 -0.7339
 5434SOL    HW227522   3.422   8.961   4.061  0.6282 -0.4756  0.2074
 5435SOL     OW27523   7.080   3.771   0.932  0.1525  0.0238 -0.0744
 5435SOL    HW127524   7.020   3.717   0.991  0.1784  0.2076  0.1220
 5435SOL    HW227525   7.042   3.774   0.839 -0.0520 -0.0031  0.0077
 5436SOL     OW27526   2.349   1.848   2.879  0.3865  0.4946 -0.3297
 5436SOL    HW127527   2.421   1.779   2.887 -0.0441  0.0192 -0.5484
 5436SOL    HW227528   2.308   1.865   2.969  0.4453  0.4207 -0.2893
 5437SOL     OW27529   3.116   7.922   6.706 -0.0977  0.1665  0.1293
 5437SOL    HW127530   3.164   7.954   6.624  0.7461 -0.5556  0.3335
 5437SOL    HW227531   3.146   7.975   6.785 -0.4778  0.4745  0.0643
 5438SOL     OW27532   1.612   8.370   0.005  0.2171 -0.1234  0.2839
 5438SOL    HW127533   1.572   8.454  -0.031 -0.3433 -0.2636  0.5731
 5438SOL    HW227534   1.711   8.371  -0.009 -0.1268 -0.7270 -2.3748
 5439SOL     OW27535   3.076   4.797   6.370 -0.2619  0.3509 -0.4944
 5439SOL    HW127536   3.006   4.863   6.393 -0.5042  0.5946 -1.8982
 5439SOL    HW227537   3.128   4.829   6.291 -1.3676 -1.8187 -2.1459
 5440SOL     OW27538   9.496   9.323   5.198 -0.0404 -0.5226  0.0646
 5440SOL    HW127539   9.560   9.392   5.233  1.5199 -2.2451  0.6986
 5440SOL    HW227540   9.439   9.290   5.274 -0.8462  0.1054 -0.2554
 5441SOL     OW27541   2.285   4.402   5.761 -0.2801 -0.6776  0.0310
 5441SOL    HW127542   2.280   4.394   5.662 -1.5352 -1.2089  0.1356
 5441SOL    HW227543   2.272   4.312   5.803 -1.9353 -0.1101  0.7563
 5442SOL     OW27544   2.935   2.601   4.615 -0.1723 -0.7543 -0.3791
 5442SOL    HW127545   2.941   2.701   4.615 -1.5514 -0.6722 -0.9111
 5442SOL    HW227546   2.848   2.572   4.654 -0.5357 -1.7028 -1.8517
 5443SOL     OW27547   4.619   9.389   1.007 -0.0905  0.3653  0.1552
 5443SOL    HW127548   4.655   9.477   1.037  0.7650  0.0592  0.0522
 5443SOL    HW227549   4.641   9.319   1.076  1.2787 -0.2084 -0.8225
 5444SOL     OW27550   1.366   8.054   3.582 -0.0968 -0.0801 -0.6108
 5444SOL    HW127551   1.404   8.013   3.499  0.5388  1.8523 -1.3023
 5444SOL    HW227552   1.416   8.020   3.661  0.1089 -0.9947 -1.1227
 5445SOL     OW27553   6.410   1.490   2.646  1.5293 -0.2439  0.0589
 5445SOL    HW127554   6.385   1.557   2.577  0.8926 -0.1007  0.4264
 5445SOL    HW227555   6.409   1.533   2.736  2.1591 -0.4809  0.1855
 5446SOL     OW27556   8.788   0.472   6.650  0.1329 -0.2576  0.3403
 5446SOL    HW127557   8.886   0.489   6.649 -0.2824  2.4438  0.7913
 5446SOL    HW227558   8.770   0.378   6.621  2.7274 -0.2772 -1.4050
 5447SOL     OW27559   9.337   4.250   4.010  0.7186 -0.2790 -0.6485
 5447SOL    HW127560   9.266   4.273   3.943  1.8586  1.8700 -1.1618
 5447SOL    HW227561   9.300   4.184   4.076 -1.3100 -0.2581 -1.7047
 5448SOL     OW27562   3.859   8.841   2.920  0.4656 -0.4605 -0.4290
 5448SOL    HW127563   3.799   8.906   2.967 -0.0304 -0.7764 -0.6271
 5448SOL    HW227564   3.951   8.880   2.913  0.6091 -0.4913  1.0102
 5449SOL     OW27565   2.017   8.943   0.845  0.0660  0.1276  0.1773
 5449SOL    HW127566   1.962   8.976   0.921 -1.2442  0.8861 -1.0659
 5449SOL    HW227567   2.045   9.021   0.788  0.5852 -0.4888 -0.4204
 5450SOL     OW27568   9.177   8.081   1.747  0.6021  0.1929 -0.5592
 5450SOL    HW127569   9.182   8.170   1.791  2.6833 -0.7174  1.1431
 5450SOL    HW227570   9.119   8.020   1.801  1.7711 -0.4063  0.0618
 5451SOL     OW27571   3.074   2.342   3.829 -0.6448 -0.0568 -0.3777
 5451SOL    HW127572   2.991   2.290   3.848  0.4357 -1.4573  0.5794
 5451SOL    HW227573   3.082   2.417   3.895 -1.9861  1.1393 -1.5069
 5452SOL     OW27574   2.834   0.645   6.718  0.1469 -0.3170  0.5696
 5452SOL    HW127575   2.847   0.644   6.818  0.1783 -0.0651  0.5676
 5452SOL    HW227576   2.923   0.646   6.673  0.1325  1.5500  0.5544
 5453SOL     OW27577   1.851   9.209   3.337 -0.1528  0.3076  0.1043
 5453SOL    HW127578   1.822   9.301   3.313  0.1489  0.4950  0.4535
 5453SOL    HW227579   1.779   9.163   3.390 -0.7433 -0.0419 -0.9803
 5454SOL     OW27580   7.738   2.238   2.608 -0.2202 -0.3502 -0.0783
 5454SOL    HW127581   7.799   2.161   2.625 -0.3464 -0.4795 -0.2097
 5454SOL    HW227582   7.786   2.323   2.627 -0.9267 -0.5333  2.7316
 5455SOL     OW27583   8.106   7.120   6.493 -0.3119  0.4906 -0.0256
 5455SOL    HW127584   8.150   7.100   6.580  0.7125  0.3944 -0.5542
 5455SOL    HW227585   8.173   7.109   6.419 -1.5794 -1.0107 -0.9786
 5456SOL     OW27586   6.507   8.901   4.033 -0.3122 -0.0464  0.5795
 5456SOL    HW127587   6.455   8.834   3.979 -0.6290 -0.1284  0.9844
 5456SOL    HW227588   6.556   8.963   3.971 -0.3652 -0.3825  0.2005
 5457SOL     OW27589   1.990   3.310   3.372  0.1586 -0.0185 -0.1713
 5457SOL    HW127590   1.963   3.368   3.296 -0.9488 -0.3847 -0.0582
 5457SOL    HW227591   1.977   3.359   3.458  0.0312 -0.1328 -0.1264
 5458SOL     OW27592   2.904   4.090   6.585  0.2663  0.1912 -0.1816
 5458SOL    HW127593   2.882   4.031   6.507 -1.3211 -0.6528  0.8753
 5458SOL    HW227594   2.838   4.074   6.658  1.6093  1.1323  1.2622
 5459SOL     OW27595   5.288   8.667   3.706  0.4993 -1.1958 -0.6590
 5459SOL    HW127596   5.380   8.693   3.736  0.1953  0.6735 -1.3055
 5459SOL    HW227597   5.276   8.569   3.720  1.6009 -1.0164  2.0450
 5460SOL     OW27598   2.222   9.671   2.020 -0.1170  0.4591  0.5054
 5460SOL    HW127599   2.269   9.728   1.953  0.4745 -1.3787 -0.6894
 5460SOL    HW227600   2.287   9.643   2.091 -0.0474  0.0816  0.2940
 5461SOL     OW27601   1.705   8.065   0.677 -0.4272  0.4563  0.0907
 5461SOL    HW127602   1.802   8.051   0.661 -0.1273  0.5978  1.7578
 5461SOL    HW227603   1.654   8.042   0.594  1.2028  2.5576 -1.5420
 5462SOL     OW27604   0.704   5.973   3.778 -0.0709 -0.0861  0.3717
 5462SOL    HW127605   0.622   5.927   3.810  0.0083 -0.6885 -0.2760
 5462SOL    HW227606   0.767   5.986   3.855 -1.7130  2.4511  1.3438
 5463SOL     OW27607   1.104   2.636   2.351  0.5005  0.2556 -0.5756
 5463SOL    HW127608   1.020   2.634   2.298 -0.1167  0.4726  0.3784
 5463SOL    HW227609   1.169   2.699   2.308  0.5721 -0.6901 -1.8791
 5464SOL     OW27610   4.799   5.965   1.045  0.6547  1.3509  0.1022
 5464SOL    HW127611   4.838   5.901   1.112  0.0368  0.4434 -0.3904
 5464SOL    HW227612   4.813   5.928   0.952 -1.9623  0.6450 -0.0663
 5465SOL     OW27613   2.849   9.619   2.112  0.5523  0.5947 -0.4229
 5465SOL    HW127614   2.767   9.653   2.157  1.4536  0.1435  1.5822
 5465SOL    HW227615   2.926   9.679   2.133  1.5425 -1.0767  0.8019
 5466SOL     OW27616   5.022   4.154   1.803 -0.1471  0.2263 -0.0001
 5466SOL    HW127617   5.099   4.216   1.820 -1.8649  1.9724  1.6510
 5466SOL    HW227618   4.958   4.196   1.739 -0.6366 -0.4258  0.0510
 5467SOL     OW27619   9.010   7.882   3.338 -0.4867 -0.2615 -0.0495
 5467SOL    HW127620   8.997   7.972   3.380  0.2241 -0.1859  0.0185
 5467SOL    HW227621   9.101   7.877   3.297 -0.1396 -1.2934  0.8056
 5468SOL     OW27622   1.161   0.750   1.144  0.4198  0.1321 -0.4443
 5468SOL    HW127623   1.236   0.766   1.079  0.2409  1.3470 -0.3603
 5468SOL    HW227624   1.093   0.691   1.102  1.6768 -1.4264 -0.3306
 5469SOL     OW27625   4.121   1.805   5.995 -0.1948 -0.5816  0.3248
 5469SOL    HW127626   4.088   1.898   5.982  1.5158  0.0086  0.0764
 5469SOL    HW227627   4.124   1.757   5.907  0.8110 -0.2086  0.1460
 5470SOL     OW27628   4.103   1.363   1.901 -0.7054  0.0160  0.7472
 5470SOL    HW127629   4.007   1.351   1.924 -0.2308 -0.7484  2.4560
 5470SOL    HW227630   4.131   1.291   1.837 -0.8983 -0.6977  1.4566
 5471SOL     OW27631   6.793   3.937   0.591 -0.8575  0.2110 -0.6113
 5471SOL    HW127632   6.849   3.998   0.534 -0.8271 -0.7310 -1.6084
 5471SOL    HW227633   6.713   3.986   0.624  0.3120  1.4489  0.4610
 5472SOL     OW27634   5.487   0.715   2.533 -0.7721 -0.2013  0.1182
 5472SOL    HW127635   5.540   0.637   2.501  0.4856  0.8956 -0.5521
 5472SOL    HW227636   5.474   0.780   2.458 -1.4811  0.4049  0.7574
 5473SOL     OW27637   9.176   2.965   4.154 -0.8473 -0.1040 -0.3326
 5473SOL    HW127638   9.159   2.994   4.249 -0.2066  0.0847 -0.2678
 5473SOL    HW227639   9.274   2.954   4.141 -1.0828 -2.3188 -0.3471
 5474SOL     OW27640   4.746   3.295   0.659 -0.3838 -0.2961 -0.2211
 5474SOL    HW127641   4.706   3.282   0.568 -2.0531 -1.8488  0.7079
 5474SOL    HW227642   4.839   3.260   0.659 -0.5890 -0.8700 -1.1517
 5475SOL     OW27643   9.650   1.546   3.493 -0.3570  0.3549 -0.3106
 5475SOL    HW127644   9.666   1.521   3.398 -2.4167  2.7126 -1.3585
 5475SOL    HW227645   9.563   1.507   3.524 -0.2535  0.5368  0.2267
 5476SOL     OW27646   1.495   7.343   1.387  0.1381  0.1607  0.0938
 5476SOL    HW127647   1.461   7.436   1.400  0.3191  0.2667 -0.1746
 5476SOL    HW227648   1.451   7.303   1.307 -0.5713 -0.2911  0.7142
 5477SOL     OW27649   0.904   3.395   5.966  0.6714 -0.2141 -0.1101
 5477SOL    HW127650   0.971   3.397   6.040  0.0803 -1.5190  0.4683
 5477SOL    HW227651   0.904   3.483   5.919  1.5081  0.4002  1.0232
 5478SOL     OW27652   0.876   6.554   5.265 -0.8977  0.8448  0.2376
 5478SOL    HW127653   0.786   6.589   5.239 -1.4838  1.1285  2.5743
 5478SOL    HW227654   0.868   6.500   5.348  0.7944 -0.7990 -0.6439
 5479SOL     OW27655   6.828   9.033   3.406  0.5935  0.0883 -0.3286
 5479SOL    HW127656   6.803   9.126   3.378 -1.1164  0.4513  2.1824
 5479SOL    HW227657   6.927   9.024   3.407  0.8871  2.6512  1.5688
 5480SOL     OW27658   4.912   8.555   2.306 -0.5056 -0.4308 -0.0141
 5480SOL    HW127659   4.971   8.480   2.336 -0.3423 -0.1003  0.5090
 5480SOL    HW227660   4.817   8.524   2.306 -0.5054 -0.4609  0.8011
 5481SOL     OW27661   3.896   4.501   2.987  0.5771  0.1036 -0.0838
 5481SOL    HW127662   3.929   4.410   3.014 -1.4581 -0.4942  0.5205
 5481SOL    HW227663   3.924   4.569   3.054  0.7048 -0.3570  0.3311
 5482SOL     OW27664   0.551   9.775   4.738  0.1222 -0.2965  0.1261
 5482SOL    HW127665   0.591   9.765   4.646 -1.0329  0.8154 -0.5112
 5482SOL    HW227666   0.572   9.694   4.792  1.6177 -0.5580 -0.8144
 5483SOL     OW27667   7.630   0.223   0.505 -0.0230 -0.0402 -0.3092
 5483SOL    HW127668   7.618   0.192   0.599  1.4590 -0.7429 -0.3397
 5483SOL    HW227669   7.548   0.203   0.453 -0.2772 -1.0476  0.4605
 5484SOL     OW27670   4.436   6.375   1.592 -0.0642  0.5924  0.4923
 5484SOL    HW127671   4.396   6.465   1.607 -0.3252  0.2119  2.1443
 5484SOL    HW227672   4.389   6.308   1.650 -0.9549 -0.8946 -1.8546
 5485SOL     OW27673   2.130   4.678   3.734  0.3695 -0.1621  0.3151
 5485SOL    HW127674   2.128   4.579   3.744 -1.4495 -0.2704 -0.9559
 5485SOL    HW227675   2.083   4.720   3.811  0.5242 -0.3189  0.4952
 5486SOL     OW27676   1.686   6.458   1.052  0.1767  0.0062 -0.3728
 5486SOL    HW127677   1.606   6.440   0.995  0.0343  2.5994 -1.0952
 5486SOL    HW227678   1.656   6.498   1.139  0.5858 -0.5784  0.0350
 5487SOL     OW27679   4.943   7.572   1.564 -0.0599 -0.5009  0.2048
 5487SOL    HW127680   4.993   7.486   1.579  1.1921  0.5251  2.2274
 5487SOL    HW227681   4.864   7.555   1.505  1.7043 -2.4998 -1.6857
 5488SOL     OW27682   2.830   6.276   6.710  0.5501 -0.1490  0.2211
 5488SOL    HW127683   2.915   6.306   6.667  0.5535  0.2619  0.5121
 5488SOL    HW227684   2.773   6.229   6.642  0.4038  0.7985 -0.3172
 5489SOL     OW27685   3.320   8.205   4.081 -0.0500  0.3523  0.1158
 5489SOL    HW127686   3.314   8.292   4.032  0.2707  0.1710 -0.2519
 5489SOL    HW227687   3.251   8.142   4.045 -1.3625  0.9753  1.4731
 5490SOL     OW27688   1.277   2.285   6.308  0.4810 -0.6260 -0.0716
 5490SOL    HW127689   1.350   2.217   6.317 -0.1486 -0.9964  3.0199
 5490SOL    HW227690   1.201   2.247   6.256  0.9006 -1.6428  0.0456
 5491SOL     OW27691   9.350   8.478   3.064  0.2087  0.2801  0.1093
 5491SOL    HW127692   9.375   8.388   3.027  1.4469 -0.5079  2.6741
 5491SOL    HW227693   9.272   8.467   3.126 -1.6876  1.5205 -2.0225
 5492SOL     OW27694   3.387   6.007   2.540 -0.3217  0.7904 -0.3122
 5492SOL    HW127695   3.483   6.025   2.560 -0.1995 -0.5935  0.4383
 5492SOL    HW227696   3.375   5.910   2.517 -1.8353  0.4965  1.5919
 5493SOL     OW27697   3.608   5.243   6.611 -0.3225  0.1168 -0.3014
 5493SOL    HW127698   3.614   5.288   6.522  0.2696 -0.8008 -0.7370
 5493SOL    HW227699   3.694   5.195   6.629 -1.3655 -1.8443 -0.4096
 5494SOL     OW27700   9.636   4.475   4.288  0.4436 -0.0015 -0.3895
 5494SOL    HW127701   9.656   4.379   4.266  1.2393  0.1013 -0.1261
 5494SOL    HW227702   9.584   4.516   4.213 -0.9742 -0.9804  0.0361
 5495SOL     OW27703   0.903   1.026   0.913  0.1211  0.0155  0.2318
 5495SOL    HW127704   0.984   1.073   0.948 -0.5334  0.2471  1.4696
 5495SOL    HW227705   0.915   0.927   0.924  1.2922 -0.1343 -1.9318
 5496SOL     OW27706   1.938   7.541   6.579 -0.3147  0.1729  0.3363
 5496SOL    HW127707   1.878   7.621   6.578 -1.6064 -0.7770 -0.4451
 5496SOL    HW227708   1.886   7.460   6.606  0.4645 -0.7759 -0.9355
 5497SOL     OW27709   9.060   0.180   6.277 -0.7728  0.5012 -0.3548
 5497SOL    HW127710   9.046   0.263   6.224  0.6825 -0.6599 -2.6604
 5497SOL    HW227711   9.149   0.183   6.322  0.9082 -1.2389 -3.3645
 5498SOL     OW27712   9.977   9.796   0.500 -0.0395  0.0633  0.5771
 5498SOL    HW127713   9.952   9.703   0.470  0.8736  0.8078 -2.7602
 5498SOL    HW227714  10.073   9.798   0.527  0.1729  0.1785 -0.1595
 5499SOL     OW27715   1.242   7.272   0.263  0.2049  0.2408 -0.2414
 5499SOL    HW127716   1.318   7.337   0.264  1.0728 -0.7624 -0.2539
 5499SOL    HW227717   1.225   7.240   0.357  1.9566 -1.9980 -0.6405
 5500SOL     OW27718   0.879   4.625   2.440  0.2944 -0.1048 -0.3617
 5500SOL    HW127719   0.791   4.584   2.463 -0.7960  0.9905 -2.4147
 5500SOL    HW227720   0.872   4.725   2.446  0.8407  0.0749 -2.2805
 5501SOL     OW27721   3.353   0.764   0.785  0.4810  0.2947  0.2977
 5501SOL    HW127722   3.410   0.730   0.859  1.7874  2.2317  0.2187
 5501SOL    HW227723   3.272   0.706   0.776  1.7162 -1.6450  1.3479
 5502SOL     OW27724   1.630   2.400   6.316 -0.1535 -0.0751 -0.4990
 5502SOL    HW127725   1.613   2.494   6.344 -0.1526  0.0531 -0.9277
 5502SOL    HW227726   1.648   2.344   6.397  0.9197  0.5107 -0.3271
 5503SOL     OW27727   0.765   5.003   1.068 -0.4366 -0.7625  0.0313
 5503SOL    HW127728   0.838   4.935   1.073 -0.0732 -0.3859 -0.1593
 5503SOL    HW227729   0.747   5.039   1.160 -0.5169 -0.9981  0.1076
 5504SOL     OW27730   5.869   1.479   3.352 -0.0072 -0.3325 -0.2198
 5504SOL    HW127731   5.782   1.528   3.342  0.2245 -0.0578 -0.9199
 5504SOL    HW227732   5.873   1.406   3.283  0.4483 -0.1469 -0.3893
 5505SOL     OW27733   3.154   6.477   5.450 -0.3880 -0.0276 -0.1280
 5505SOL    HW127734   3.109   6.567   5.454 -0.0942  0.1098  0.0576
 5505SOL    HW227735   3.104   6.418   5.386 -1.8711 -0.4436  1.3954
 5506SOL     OW27736   4.489   4.638   1.852 -0.2127  0.4784 -0.0539
 5506SOL    HW127737   4.396   4.606   1.836  0.0007  0.0534 -0.4581
 5506SOL    HW227738   4.513   4.625   1.948 -0.2424 -0.2737 -0.1486
 5507SOL     OW27739   3.383   2.554   5.495 -0.1389  0.5373  0.2669
 5507SOL    HW127740   3.332   2.606   5.426  0.2371  0.6602  0.0834
 5507SOL    HW227741   3.322   2.487   5.537  0.1726 -1.0744 -1.7391
 5508SOL     OW27742   5.798   0.748   6.097  0.0694 -0.2059 -0.7675
 5508SOL    HW127743   5.706   0.709   6.098  0.8137 -2.0310 -1.9483
 5508SOL    HW227744   5.796   0.838   6.054 -1.2105 -0.0900 -0.4818
 5509SOL     OW27745   0.717   5.029   1.337  0.2226  0.6159  0.7004
 5509SOL    HW127746   0.795   5.050   1.397  1.2708 -0.7452 -0.1328
 5509SOL    HW227747   0.663   4.955   1.379  0.5567  0.1494  0.3170
 5510SOL     OW27748   6.096   5.525   0.478 -0.5041  0.0536  0.2023
 5510SOL    HW127749   6.016   5.550   0.425 -0.9026 -0.0520  0.7523
 5510SOL    HW227750   6.142   5.608   0.511 -0.4333  0.1106 -0.0427
 5511SOL     OW27751   9.827   7.015   6.406  0.3437 -0.3186 -0.7428
 5511SOL    HW127752   9.836   6.934   6.464 -2.4249 -0.9542 -1.1114
 5511SOL    HW227753   9.794   6.988   6.316  1.4274  1.0157 -1.5509
 5512SOL     OW27754   0.162   3.735   0.135  0.2041 -0.6018 -0.6325
 5512SOL    HW127755   0.112   3.797   0.196  1.1750  0.0956 -0.5503
 5512SOL    HW227756   0.124   3.741   0.043 -0.2088 -0.4655 -0.4536
 5513SOL     OW27757   9.612   4.846   3.478  0.1691 -0.3893 -0.2636
 5513SOL    HW127758   9.651   4.786   3.408 -0.2163 -0.0978 -0.7344
 5513SOL    HW227759   9.637   4.813   3.569  1.1487 -0.4473 -0.5516
 5514SOL     OW27760   9.930   7.053   5.851  0.7026 -0.0042  0.0007
 5514SOL    HW127761  10.011   7.091   5.896  0.6807 -0.6750  0.5989
 5514SOL    HW227762   9.851   7.111   5.870  1.2344  1.2277 -1.4275
 5515SOL     OW27763   0.061   9.137   3.297  0.0843  0.6025 -0.0051
 5515SOL    HW127764   0.156   9.140   3.267  0.2750  1.6371  0.6574
 5515SOL    HW227765   0.004   9.188   3.232  0.5899  3.3907  1.6132
 5516SOL     OW27766   4.581   0.125   1.131 -0.1346  0.0834  0.2187
 5516SOL    HW127767   4.633   0.072   1.064 -0.6748  0.5480 -0.5813
 5516SOL    HW227768   4.540   0.064   1.198  0.0830 -0.4210 -0.1052
 5517SOL     OW27769   6.844   9.908   0.856 -0.2634 -0.2611  0.0912
 5517SOL    HW127770   6.868   9.939   0.764  1.7946  1.6072  1.2192
 5517SOL    HW227771   6.899   9.827   0.879 -2.2211 -1.9554 -1.0472
 5518SOL     OW27772   2.548   9.050   5.026  0.1660 -1.0204  0.4199
 5518SOL    HW127773   2.638   9.017   5.053  0.5323  0.4506  1.0869
 5518SOL    HW227774   2.549   9.074   4.929  1.3762  1.6716  1.0361
 5519SOL     OW27775   0.795   8.025   0.323  0.0725  0.9371 -0.1035
 5519SOL    HW127776   0.770   7.982   0.236 -0.5453  1.0000  0.0389
 5519SOL    HW227777   0.717   8.021   0.385 -0.0363  2.4002 -0.1354
 5520SOL     OW27778   7.604   3.749   3.937 -0.2481 -0.5743 -0.0735
 5520SOL    HW127779   7.561   3.838   3.926  1.0526 -0.1427 -1.8632
 5520SOL    HW227780   7.575   3.709   4.024 -1.8883  0.9902  0.1391
 5521SOL     OW27781   9.756   6.067   4.783  0.2569 -0.7543  0.5858
 5521SOL    HW127782   9.798   5.987   4.739  2.1578  1.0436 -0.9825
 5521SOL    HW227783   9.677   6.097   4.731 -0.6600 -1.8036  1.3628
 5522SOL     OW27784   2.939   5.326   2.624  0.3634  0.1171  0.8207
 5522SOL    HW127785   2.969   5.231   2.632 -2.5814 -0.9771 -0.7937
 5522SOL    HW227786   3.010   5.379   2.578  1.2728 -1.6656  0.1089
 5523SOL     OW27787   6.295   2.421   3.802  0.0485  0.8810  0.0578
 5523SOL    HW127788   6.372   2.461   3.851  0.4702  0.4083 -0.2125
 5523SOL    HW227789   6.241   2.493   3.760  1.1937  1.1211 -1.0056
 5524SOL     OW27790   6.647   1.847   0.345 -0.6086  0.2872  0.0352
 5524SOL    HW127791   6.608   1.775   0.402  2.2219  0.2740  2.0129
 5524SOL    HW227792   6.606   1.935   0.369 -0.5559  0.0518  0.9890
 5525SOL     OW27793   1.052   6.766   3.947 -0.4950 -0.7957  0.5230
 5525SOL    HW127794   1.074   6.670   3.962  1.1501 -0.6939 -1.0560
 5525SOL    HW227795   1.087   6.821   4.023 -0.1128 -1.2735  0.6918
 5526SOL     OW27796   4.065   4.874   1.394 -0.1691 -0.2698 -0.1441
 5526SOL    HW127797   4.058   4.904   1.299  0.3120  0.9747  0.2067
 5526SOL    HW227798   4.052   4.775   1.398 -1.3909 -0.1852 -1.3674
 5527SOL     OW27799   8.803   3.826   0.490 -0.3645  0.1290 -0.3463
 5527SOL    HW127800   8.798   3.745   0.432 -0.8854 -0.7185  0.8526
 5527SOL    HW227801   8.753   3.901   0.448 -0.1847 -0.2827 -1.2952
 5528SOL     OW27802   9.085   2.556   3.997 -0.3760  0.3901 -0.0563
 5528SOL    HW127803   9.144   2.572   4.076 -0.8818  0.2659  0.3532
 5528SOL    HW227804   9.105   2.467   3.957 -0.3062  0.3398  0.0925
 5529SOL     OW27805   2.060   7.845   1.921  0.2042  0.1269 -0.0260
 5529SOL    HW127806   1.993   7.800   1.981 -0.3629 -0.8898 -1.4040
 5529SOL    HW227807   2.150   7.843   1.964 -0.2814 -0.1878  0.9955
 5530SOL     OW27808   9.271   8.940   4.500 -0.5434  0.0042  0.0375
 5530SOL    HW127809   9.252   8.957   4.403  1.9634  0.8736 -0.3682
 5530SOL    HW227810   9.315   9.021   4.539 -2.4282  0.0357  2.1860
 5531SOL     OW27811   2.372   1.551   3.106 -0.5179 -0.2383 -0.3911
 5531SOL    HW127812   2.416   1.515   3.189 -0.1295  0.2225 -0.3928
 5531SOL    HW227813   2.439   1.603   3.053 -1.6607  2.6200  0.8524
 5532SOL     OW27814   3.867   3.317   6.107 -0.7066  0.0952 -0.0222
 5532SOL    HW127815   3.792   3.303   6.171 -1.5861 -0.1605 -1.0797
 5532SOL    HW227816   3.879   3.415   6.090 -0.5292  0.1567  0.4692
 5533SOL     OW27817   2.915   8.214   1.598  0.0168 -0.7169  0.1290
 5533SOL    HW127818   2.833   8.261   1.566  0.1138 -1.1498 -0.7648
 5533SOL    HW227819   2.957   8.267   1.671 -1.4573 -0.8466  1.1032
 5534SOL     OW27820   6.856   1.533   6.297  0.4604 -0.2461 -0.1062
 5534SOL    HW127821   6.890   1.615   6.251  0.1069 -0.7282 -1.2468
 5534SOL    HW227822   6.805   1.477   6.232 -0.6261 -0.6157  1.0403
 5535SOL     OW27823   9.148   5.249   2.793 -0.0856  0.5309 -0.6466
 5535SOL    HW127824   9.139   5.229   2.891  1.0160  0.3037 -0.5930
 5535SOL    HW227825   9.089   5.327   2.770 -1.0535  0.0046  0.0104
 5536SOL     OW27826   8.720   8.027   5.752  1.0606 -0.0692 -0.5933
 5536SOL    HW127827   8.709   7.996   5.658  1.6618  0.1906 -0.7542
 5536SOL    HW227828   8.810   8.069   5.763  1.8016 -1.9050  0.5916
 5537SOL     OW27829   9.800   5.834   4.656 -0.1416 -0.5337  0.1692
 5537SOL    HW127830   9.837   5.800   4.569 -2.0826  0.2120 -0.9741
 5537SOL    HW227831   9.735   5.768   4.692 -0.9019  0.1222 -0.0049
 5538SOL     OW27832   9.355   3.403   6.128  0.2511  0.3835 -0.0308
 5538SOL    HW127833   9.408   3.325   6.160 -0.7900 -0.5494 -0.5322
 5538SOL    HW227834   9.374   3.483   6.186  2.2103  0.0902 -0.2377
 5539SOL     OW27835   7.579   6.428   6.046 -0.1156  0.6251  0.1451
 5539SOL    HW127836   7.501   6.367   6.055  0.3237  0.2480  1.6293
 5539SOL    HW227837   7.593   6.476   6.133  0.8506  1.2282 -0.3404
 5540SOL     OW27838   2.538   2.183   2.784  0.1051 -0.2141  0.0159
 5540SOL    HW127839   2.457   2.188   2.726 -0.7331  0.1282  1.2023
 5540SOL    HW227840   2.614   2.228   2.738 -0.7742  0.8181 -0.4496
 5541SOL     OW27841   3.672   3.107   5.908  0.0268  0.0247 -0.1145
 5541SOL    HW127842   3.739   3.076   5.840 -0.2036  1.3118 -0.9458
 5541SOL    HW227843   3.642   3.029   5.963  0.0178 -1.0823 -1.6510
 5542SOL     OW27844   0.530   3.127   5.127 -0.3640 -0.2911  0.1633
 5542SOL    HW127845   0.493   3.143   5.218 -0.8396 -0.5554  0.0217
 5542SOL    HW227846   0.469   3.168   5.058 -0.2045 -0.4128 -0.0519
 5543SOL     OW27847   1.878   4.826   1.770 -0.0479 -0.1399  0.9708
 5543SOL    HW127848   1.858   4.802   1.675 -0.4914  3.5867  0.0414
 5543SOL    HW227849   1.814   4.780   1.831  0.1781 -2.4927 -0.5077
 5544SOL     OW27850   8.820   9.875   1.356 -0.1231 -0.2701 -0.3954
 5544SOL    HW127851   8.869   9.940   1.413 -0.9723 -0.6344  0.7703
 5544SOL    HW227852   8.840   9.782   1.386  0.5082 -0.5328 -1.5825
 5545SOL     OW27853   0.972   9.650   5.745 -0.3154 -1.0050 -0.4635
 5545SOL    HW127854   1.071   9.642   5.737  0.1699  3.6350 -0.0941
 5545SOL    HW227855   0.945   9.630   5.839  0.6502  0.6528  0.1837
 5546SOL     OW27856   0.012   4.039   5.265  0.5849  0.0050  0.1180
 5546SOL    HW127857  -0.043   3.971   5.216 -0.3666  0.8937 -0.0618
 5546SOL    HW227858   0.107   4.031   5.237  0.2838 -0.4462 -0.8006
 5547SOL     OW27859   3.884   2.648   2.054 -0.0987 -0.0600 -0.2230
 5547SOL    HW127860   3.884   2.654   1.954 -0.0417  2.5873 -0.1124
 5547SOL    HW227861   3.978   2.650   2.087 -0.1100 -1.1438 -0.1144
 5548SOL     OW27862   0.744   6.551   3.036 -0.1170 -0.2797 -0.1920
 5548SOL    HW127863   0.833   6.593   3.019 -0.2285  1.2298  2.7484
 5548SOL    HW227864   0.681   6.577   2.962  1.6822 -0.9459 -2.0263
 5549SOL     OW27865   1.482   6.280   0.917  0.2934 -0.1773 -0.2747
 5549SOL    HW127866   1.401   6.326   0.954  1.6394  0.8159  1.5090
 5549SOL    HW227867   1.526   6.341   0.851  0.2470 -0.2547 -0.3777
 5550SOL     OW27868   7.510   1.940   3.891 -0.3826 -0.0226 -0.5436
 5550SOL    HW127869   7.520   1.968   3.986 -1.6120  1.1378 -0.7455
 5550SOL    HW227870   7.487   1.842   3.887 -1.1508  0.1155  0.3977
 5551SOL     OW27871   2.441   5.075   1.686  0.3049  0.2139  0.2030
 5551SOL    HW127872   2.427   5.173   1.706 -2.2105 -0.2123  0.6646
 5551SOL    HW227873   2.470   5.029   1.770  1.7482  0.5794 -0.0727
 5552SOL     OW27874   4.254   0.034   1.246  0.8990  0.1782  0.2506
 5552SOL    HW127875   4.340   0.033   1.297  2.1573  2.5343 -1.6853
 5552SOL    HW227876   4.271   0.004   1.152 -0.1753  1.7101 -0.4451
 5553SOL     OW27877   4.531   4.810   2.762  0.2030  0.2352 -0.0066
 5553SOL    HW127878   4.553   4.716   2.733 -1.9101  0.2078 -1.6175
 5553SOL    HW227879   4.548   4.873   2.686 -1.9166  0.6543 -0.1650
 5554SOL     OW27880   4.120   9.326   4.970 -0.2406 -0.0476  0.4778
 5554SOL    HW127881   4.151   9.238   5.006 -0.4333  1.1756  3.7357
 5554SOL    HW227882   4.198   9.378   4.936 -0.1460 -1.5143 -1.6477
 5555SOL     OW27883   1.280   1.139   3.726 -0.0080  0.0467  0.4289
 5555SOL    HW127884   1.226   1.068   3.773 -1.1902  0.1149 -0.7995
 5555SOL    HW227885   1.335   1.097   3.654 -0.2219  0.2837  0.1239
 5556SOL     OW27886   9.100   9.053   1.856 -0.6887  0.0134  0.6818
 5556SOL    HW127887   9.158   8.999   1.917 -0.5117 -0.7063 -0.1213
 5556SOL    HW227888   9.008   9.057   1.893 -0.3315  0.4690  1.5413
 5557SOL     OW27889   1.291   2.407   5.781  0.3125 -0.2719  0.3280
 5557SOL    HW127890   1.341   2.487   5.814 -2.1587  0.8752  1.4347
 5557SOL    HW227891   1.284   2.339   5.855 -0.7789  0.0981  0.5783
 5558SOL     OW27892   0.105   2.837   0.851  0.4654  0.9053  0.6938
 5558SOL    HW127893   0.193   2.854   0.894  1.3914 -1.6717 -0.0823
 5558SOL    HW227894   0.031   2.857   0.916  1.7824 -1.2236  2.9297
 5559SOL     OW27895   5.609   0.562   5.381  0.4106  0.1694 -0.2426
 5559SOL    HW127896   5.655   0.633   5.434  2.1324 -2.2258  1.6069
 5559SOL    HW227897   5.665   0.538   5.302  0.4628 -0.0410 -0.1418
 5560SOL     OW27898   1.933   5.420   6.448  0.1167  0.4930 -0.6891
 5560SOL    HW127899   1.854   5.385   6.498  0.3519  1.2314  0.2062
 5560SOL    HW227900   1.966   5.350   6.385  0.5697 -0.9089  1.0696
 5561SOL     OW27901   1.112   1.437   0.144 -0.2026  0.3003 -0.4289
 5561SOL    HW127902   1.176   1.470   0.214  0.8525 -0.2026 -1.1522
 5561SOL    HW227903   1.153   1.361   0.094 -1.1512  0.3302 -1.2681
 5562SOL     OW27904   4.846   9.729   4.876  0.2719  0.2641  0.0857
 5562SOL    HW127905   4.910   9.710   4.801 -0.6073 -2.9615  0.0792
 5562SOL    HW227906   4.763   9.772   4.839  0.3554 -0.1670 -0.6111
 5563SOL     OW27907   5.703   6.054   1.269 -0.0847 -0.6094  1.0727
 5563SOL    HW127908   5.686   5.984   1.199  0.5811  0.1501  0.1428
 5563SOL    HW227909   5.722   6.010   1.356  0.6738 -1.5891  0.4185
 5564SOL     OW27910   6.185   9.651   4.853  0.0233 -0.2852  0.2864
 5564SOL    HW127911   6.143   9.590   4.786 -2.1454  1.8809 -0.3921
 5564SOL    HW227912   6.190   9.605   4.942 -2.9462 -0.9647  0.1569
 5565SOL     OW27913   9.107   0.592   0.748  0.1899 -0.6906 -0.5304
 5565SOL    HW127914   9.079   0.686   0.726  0.9899 -0.7748 -2.0018
 5565SOL    HW227915   9.146   0.550   0.666  1.4702 -1.7141  0.5976
 5566SOL     OW27916   9.192   7.509   6.010 -0.4040  0.5452 -0.0355
 5566SOL    HW127917   9.241   7.509   6.097  0.0980  0.4947 -0.3107
 5566SOL    HW227918   9.254   7.477   5.938 -1.0047 -0.0094 -0.3053
 5567SOL     OW27919   3.818   5.677   0.455  0.2772  0.4697 -0.1293
 5567SOL    HW127920   3.822   5.588   0.410  0.8832  0.9811 -1.1081
 5567SOL    HW227921   3.788   5.666   0.550  3.2489 -1.1002  0.6839
 5568SOL     OW27922   3.944   3.190   3.951 -0.6836  0.3842  0.1886
 5568SOL    HW127923   3.909   3.096   3.958 -0.9986  0.4604 -0.3979
 5568SOL    HW227924   3.867   3.254   3.949 -0.4876  0.5941 -0.4311
 5569SOL     OW27925   0.138   4.152   5.992  0.5055 -0.0413 -0.4447
 5569SOL    HW127926   0.154   4.228   5.929  0.9114  2.0778  2.1224
 5569SOL    HW227927   0.058   4.100   5.962  1.2787  0.3143 -3.2297
 5570SOL     OW27928   9.798   1.736   3.234 -0.3620  0.0957 -0.0639
 5570SOL    HW127929   9.825   1.684   3.153  0.5833  1.6902 -0.7886
 5570SOL    HW227930   9.703   1.766   3.223 -1.3657 -2.5549  0.9481
 5571SOL     OW27931   0.941   9.966   2.023 -0.1697  0.0720 -0.4186
 5571SOL    HW127932   0.857   9.961   1.969 -1.1779  0.6085  1.0731
 5571SOL    HW227933   1.015  10.003   1.966 -0.6341 -1.5094 -2.0770
 5572SOL     OW27934   3.924   3.943   2.797 -0.4716 -0.1383  0.3826
 5572SOL    HW127935   4.008   3.996   2.788 -0.4626  0.1037  1.7389
 5572SOL    HW227936   3.846   3.999   2.768 -0.2983  0.0907  0.3593
 5573SOL     OW27937   7.331   0.100   3.643 -0.5478 -0.1829  0.4117
 5573SOL    HW127938   7.389   0.037   3.695 -0.3057  0.5306  1.0184
 5573SOL    HW227939   7.254   0.129   3.700 -1.7361 -1.4224 -0.5146
 5574SOL     OW27940   9.373   0.751   0.206 -0.3358 -0.4467 -0.4325
 5574SOL    HW127941   9.340   0.780   0.296  0.3123  1.5535 -0.8033
 5574SOL    HW227942   9.466   0.786   0.192 -1.5904  1.9978 -3.1064
 5575SOL     OW27943   6.692   0.158   5.132  0.0741  0.2582  0.1362
 5575SOL    HW127944   6.641   0.155   5.047 -0.3808 -0.2615  0.4305
 5575SOL    HW227945   6.635   0.127   5.208  1.0398 -1.0305  0.3612
 5576SOL     OW27946   6.767   6.113   5.135  0.1248  0.0166 -0.0143
 5576SOL    HW127947   6.835   6.115   5.063 -0.5670 -1.2012 -0.7223
 5576SOL    HW227948   6.782   6.034   5.194  0.6958  1.0108  1.1967
 5577SOL     OW27949   7.865   7.239   2.161  0.6819  0.1946 -0.6180
 5577SOL    HW127950   7.925   7.311   2.196 -0.2340  1.5769 -1.8639
 5577SOL    HW227951   7.772   7.253   2.195  0.6442 -0.8239 -0.2759
 5578SOL     OW27952   4.521   3.198   5.644  0.5510  0.1935 -0.8416
 5578SOL    HW127953   4.495   3.265   5.713  1.1428  1.0485 -1.4346
 5578SOL    HW227954   4.585   3.133   5.683  0.2703  0.2027 -0.3646
 5579SOL     OW27955   4.566   3.938   0.213 -0.1056  0.5429 -0.4657
 5579SOL    HW127956   4.479   3.889   0.217  0.8017 -1.1568 -1.2387
 5579SOL    HW227957   4.565   4.011   0.282 -2.1552  0.6027 -0.5046
 5580SOL     OW27958   7.985   5.260   1.242  0.4251  0.2858 -0.3240
 5580SOL    HW127959   8.062   5.195   1.240  0.5362  0.3251  1.8788
 5580SOL    HW227960   8.016   5.348   1.206  2.0862  0.9549  2.6024
 5581SOL     OW27961   9.831   5.684   1.293 -0.2362 -0.0084  0.1533
 5581SOL    HW127962   9.897   5.729   1.233 -0.4718 -0.1916 -0.2471
 5581SOL    HW227963   9.745   5.734   1.291 -0.2836 -0.0878  0.2436
 5582SOL     OW27964   8.670   7.070   0.068 -0.1762  0.4390 -0.0138
 5582SOL    HW127965   8.732   6.998   0.037 -1.0830  0.4115 -1.8474
 5582SOL    HW227966   8.631   7.117  -0.012 -0.9909  1.7513  1.1370
 5583SOL     OW27967   7.342   9.077   2.653 -0.0734  0.2280  0.0765
 5583SOL    HW127968   7.364   9.051   2.559 -0.8850 -1.4527  0.3390
 5583SOL    HW227969   7.290   9.003   2.697  0.0876  1.0982  1.7629
 5584SOL     OW27970   8.179   4.033   4.750  0.2672  0.1200 -1.1488
 5584SOL    HW127971   8.273   4.029   4.784  0.2157  0.5994 -0.9535
 5584SOL    HW227972   8.116   4.030   4.827  0.0447 -2.7403 -1.3667
 5585SOL     OW27973   0.988   2.039   2.806  0.0491 -0.6559 -0.2040
 5585SOL    HW127974   1.030   1.952   2.830  0.8101  0.0146  0.9779
 5585SOL    HW227975   1.050   2.090   2.745  0.4156 -0.2096  0.5219
 5586SOL     OW27976   1.092   4.899   4.115 -0.3521  0.1115  0.3816
 5586SOL    HW127977   1.016   4.869   4.057 -0.0648 -0.1218  0.1276
 5586SOL    HW227978   1.178   4.891   4.065 -0.4394  2.9038 -0.2777
 5587SOL     OW27979   2.288   0.646   5.668  0.5326 -0.3451  0.2681
 5587SOL    HW127980   2.193   0.676   5.659  0.3696 -1.0964 -0.7262
 5587SOL    HW227981   2.292   0.546   5.658  1.4154 -0.3207  0.3342
 5588SOL     OW27982   2.216   1.603   4.327 -0.1682  0.3735 -0.1783
 5588SOL    HW127983   2.248   1.513   4.297  0.0058  0.4614 -0.2570
 5588SOL    HW227984   2.272   1.634   4.404 -1.4418 -0.4295  1.0937
 5589SOL     OW27985   0.442   9.985   4.931  0.1551 -0.1799  0.0222
 5589SOL    HW127986   0.519   9.929   4.903  0.2105 -0.0263 -0.1343
 5589SOL    HW227987   0.475  10.076   4.958 -0.0793  0.2128 -1.0066
 5590SOL     OW27988   3.128   4.585   5.906 -0.0095  0.0290 -0.1530
 5590SOL    HW127989   3.060   4.554   5.840  0.0759 -1.6622  0.5332
 5590SOL    HW227990   3.139   4.516   5.977  0.6706  1.3625  1.0560
 5591SOL     OW27991   1.370   8.336   2.527  0.6722 -0.3424 -0.3120
 5591SOL    HW127992   1.432   8.414   2.539 -0.6868  0.3958  2.3197
 5591SOL    HW227993   1.279   8.370   2.504 -1.1151 -0.7194  5.4215
 5592SOL     OW27994   9.783   5.166   6.468  0.1559  0.2690  0.4171
 5592SOL    HW127995   9.826   5.130   6.550  1.3356 -1.3303 -0.8763
 5592SOL    HW227996   9.851   5.174   6.395 -1.1014  0.6039 -0.7438
 5593SOL     OW27997   1.318   6.443   5.446 -0.0826  0.3763 -0.5425
 5593SOL    HW127998   1.415   6.432   5.428  0.7608  3.5466  1.7026
 5593SOL    HW227999   1.286   6.528   5.403 -1.2538  0.6964  0.9450
 5594SOL     OW28000   8.191   6.744   5.743 -0.7297  0.2901  0.6987
 5594SOL    HW128001   8.276   6.766   5.791 -1.3909 -0.3576  2.2053
 5594SOL    HW228002   8.206   6.665   5.684  0.1025  1.1076 -0.1985
 5595SOL     OW28003   0.553   5.833   6.512 -0.7596  0.3765  0.3294
 5595SOL    HW128004   0.538   5.925   6.547 -0.8943  0.2280  0.6616
 5595SOL    HW228005   0.499   5.768   6.565 -1.5001  0.2344 -0.5874
 5596SOL     OW28006   4.161   2.283   2.578  0.4273 -0.2961  0.3618
 5596SOL    HW128007   4.112   2.366   2.553  1.8751  0.6775  0.6731
 5596SOL    HW228008   4.111   2.235   2.649 -0.3980  0.3313  0.2161
 5597SOL     OW28009   2.626   5.711   6.248 -0.6153 -0.3352  0.7643
 5597SOL    HW128010   2.620   5.620   6.207 -0.2396  0.4022 -0.9776
 5597SOL    HW228011   2.535   5.752   6.250 -0.8080 -0.7949  1.6813
 5598SOL     OW28012   7.187   2.094   3.825  0.2604 -0.1900 -0.0503
 5598SOL    HW128013   7.218   2.025   3.891 -2.3736 -1.0747  0.3156
 5598SOL    HW228014   7.231   2.077   3.737  1.1285 -1.1433  0.5526
 5599SOL     OW28015   1.474   3.640   3.041 -0.0097 -0.0764  0.6491
 5599SOL    HW128016   1.471   3.678   2.949  0.2160  0.8727  1.0220
 5599SOL    HW228017   1.451   3.543   3.039  1.9767 -0.5436 -0.6554
 5600SOL     OW28018   3.480   2.311   5.835  0.2018 -0.3863  0.4411
 5600SOL    HW128019   3.534   2.348   5.760 -1.4154 -1.8324 -1.5230
 5600SOL    HW228020   3.539   2.292   5.913  2.9787 -3.8384 -2.3046
 5601SOL     OW28021   7.456   5.360   6.109 -0.2965 -0.0423 -0.3347
 5601SOL    HW128022   7.512   5.284   6.077  0.1789 -0.4129  1.3066
 5601SOL    HW228023   7.508   5.414   6.175 -0.6919  1.6200 -1.3619
 5602SOL     OW28024   9.182   6.038   4.931  0.3093 -0.1113 -0.5344
 5602SOL    HW128025   9.148   5.944   4.926 -2.7635  0.9637 -0.7316
 5602SOL    HW228026   9.252   6.052   4.861  0.9874 -2.2777 -0.3480
 5603SOL     OW28027   5.010   8.709   2.919  0.4152 -0.0068 -0.0810
 5603SOL    HW128028   4.947   8.743   2.989  1.2132  2.4203 -0.5110
 5603SOL    HW228029   4.958   8.660   2.849 -0.7878  0.4342  0.4808
 5604SOL     OW28030   3.904   8.465   5.760  0.3129 -0.3345 -0.1857
 5604SOL    HW128031   3.843   8.542   5.779 -0.1971 -1.3193  2.2448
 5604SOL    HW228032   3.986   8.472   5.817  0.6522 -1.1570 -0.5634
 5605SOL     OW28033   1.080   4.406   6.718  0.6520  0.7965 -0.4302
 5605SOL    HW128034   1.011   4.335   6.735  2.5092 -0.9495 -0.0000
 5605SOL    HW228035   1.099   4.455   6.802 -0.5009  1.6932 -0.6859
 5606SOL     OW28036   0.633   7.493   5.017  0.1252  0.2493 -0.0853
 5606SOL    HW128037   0.626   7.469   4.920 -1.0206  1.0086 -0.2035
 5606SOL    HW228038   0.549   7.538   5.046  2.1206  4.1348  0.1036
 5607SOL     OW28039   4.736   2.870   2.404  0.5797  0.0252  0.2068
 5607SOL    HW128040   4.800   2.818   2.460  0.3990  1.0810  1.4135
 5607SOL    HW228041   4.685   2.933   2.462  1.9941  2.7809 -1.4760
 5608SOL     OW28042   3.869   6.792   3.352  0.7662  0.6119 -0.6354
 5608SOL    HW128043   3.884   6.781   3.450  1.6263 -1.2703 -0.9621
 5608SOL    HW228044   3.932   6.861   3.316  0.8928  0.8335  0.0087
 5609SOL     OW28045   4.269   0.759   1.836  0.8470 -0.1549 -0.0924
 5609SOL    HW128046   4.315   0.841   1.871  1.4158 -0.2824 -0.5515
 5609SOL    HW228047   4.331   0.709   1.776 -0.0046 -0.1558 -0.9659
 5610SOL     OW28048   4.299   1.623   4.765 -0.3236 -0.2322 -0.1654
 5610SOL    HW128049   4.217   1.634   4.709  0.8392  0.1251 -1.8413
 5610SOL    HW228050   4.329   1.528   4.763 -0.1475 -0.1726 -0.3294
 5611SOL     OW28051   9.709   7.377   5.729 -0.4364  0.0934 -0.0346
 5611SOL    HW128052   9.747   7.430   5.653 -1.8359 -0.3578 -1.0835
 5611SOL    HW228053   9.651   7.436   5.785  1.1694  0.5976  1.1148
 5612SOL     OW28054   9.083   7.150   1.762  0.1883 -0.0089  0.2332
 5612SOL    HW128055   9.053   7.143   1.857  0.9927 -0.4817  0.4585
 5612SOL    HW228056   9.025   7.093   1.704  0.7522 -1.0482  0.6862
 5613SOL     OW28057   1.296   0.936   6.284 -0.0973  0.6210 -0.4302
 5613SOL    HW128058   1.381   0.960   6.237 -0.6047  1.4139 -0.9681
 5613SOL    HW228059   1.220   0.941   6.219 -0.8017  1.6576  0.4419
 5614SOL     OW28060   2.943   3.050   2.364  0.4401  0.0691  0.0710
 5614SOL    HW128061   2.874   3.123   2.368  0.2673 -0.0379 -0.8086
 5614SOL    HW228062   2.955   3.022   2.269 -0.2349 -1.7736  0.5258
 5615SOL     OW28063   2.357   0.202   2.527  0.2797 -0.2923  0.4728
 5615SOL    HW128064   2.282   0.157   2.575  1.3663 -1.5229  1.0603
 5615SOL    HW228065   2.326   0.230   2.436 -0.8572 -0.8953  0.6605
 5616SOL     OW28066   7.003   8.780   4.366  0.6069 -0.1124 -0.5079
 5616SOL    HW128067   6.933   8.816   4.305  1.4321  0.2190 -1.2803
 5616SOL    HW228068   7.026   8.848   4.435  0.2278 -0.1903 -0.3066
 5617SOL     OW28069   2.955   9.525   4.815 -0.4601 -0.2183 -0.1248
 5617SOL    HW128070   2.878   9.572   4.772 -0.7175  0.4371  1.0262
 5617SOL    HW228071   3.041   9.565   4.781 -0.6239 -1.0114 -1.4723
 5618SOL     OW28072   9.405   1.040   1.334  0.0690 -0.2992  0.2187
 5618SOL    HW128073   9.371   0.966   1.392 -2.7593 -0.0970 -1.1027
 5618SOL    HW228074   9.329   1.100   1.309  1.5525  0.6330 -2.1913
 5619SOL     OW28075   1.895   5.167   1.382 -0.3188  0.2716  0.2165
 5619SOL    HW128076   1.992   5.184   1.403 -0.3625  2.5384 -1.2269
 5619SOL    HW228077   1.888   5.095   1.313  0.2136 -1.3124  1.7747
 5620SOL     OW28078   4.646   4.904   2.208  0.1093  0.6683 -0.4450
 5620SOL    HW128079   4.677   4.921   2.114  0.8641 -1.0095 -0.5104
 5620SOL    HW228080   4.722   4.870   2.263 -1.0989 -1.5175 -0.0708
 5621SOL     OW28081   8.481   4.440   0.788  0.0164 -0.2629  0.3533
 5621SOL    HW128082   8.454   4.350   0.753 -1.3295  0.3444 -0.1939
 5621SOL    HW228083   8.555   4.429   0.853 -0.5630 -1.8461  0.7705
 5622SOL     OW28084   2.583   8.675   1.504 -0.4032  0.4586 -0.3257
 5622SOL    HW128085   2.596   8.717   1.414  0.6044 -1.1532 -0.9535
 5622SOL    HW228086   2.549   8.581   1.492 -4.1019  1.5515  1.0882
 5623SOL     OW28087   1.977   2.281   0.579  0.0416  0.6376 -0.3078
 5623SOL    HW128088   1.925   2.357   0.540 -2.1252 -0.7575 -0.2130
 5623SOL    HW228089   1.978   2.288   0.679 -1.0963 -0.0138 -0.2360
 5624SOL     OW28090   3.894   5.850   0.915 -0.0399  0.4795 -0.1915
 5624SOL    HW128091   3.829   5.842   0.991  1.8550 -1.7140  1.2791
 5624SOL    HW228092   3.984   5.873   0.951  0.4326  1.4740 -2.0026
 5625SOL     OW28093   1.296   7.672   3.532  0.4755  0.3222  0.5409
 5625SOL    HW128094   1.284   7.721   3.618  1.1272  0.5924  0.4808
 5625SOL    HW228095   1.235   7.592   3.530 -0.3590  0.9499  0.7710
 5626SOL     OW28096   2.509   2.966   4.235 -0.5479  0.3470 -0.1115
 5626SOL    HW128097   2.481   3.003   4.147  0.1446  1.1455 -0.0018
 5626SOL    HW228098   2.463   3.017   4.308 -0.6553  0.0837  0.0034
 5627SOL     OW28099   0.740   1.290   5.814  0.4825  0.1717  0.0880
 5627SOL    HW128100   0.654   1.239   5.801  1.9273 -2.2525 -0.2516
 5627SOL    HW228101   0.747   1.361   5.744 -0.8406 -0.1909 -0.4265
 5628SOL     OW28102   1.513   4.740   2.046 -0.2274 -0.2159  0.1137
 5628SOL    HW128103   1.544   4.662   1.992  1.3200 -0.0849  0.7621
 5628SOL    HW228104   1.592   4.799   2.066 -1.7544  2.7573 -2.3262
 5629SOL     OW28105   8.284   3.898   4.116  0.0498  0.3682 -0.0087
 5629SOL    HW128106   8.330   3.810   4.106  1.9242  1.0093  2.4820
 5629SOL    HW228107   8.195   3.895   4.069  0.2378 -2.6905 -0.2562
 5630SOL     OW28108   5.282   9.514   4.323 -0.6239  0.4996  0.4437
 5630SOL    HW128109   5.250   9.472   4.407  0.7777  0.2903  0.8881
 5630SOL    HW228110   5.270   9.450   4.247  2.2652 -1.1073  1.2454
 5631SOL     OW28111   8.712   3.607   0.896  0.3726  0.5963 -0.0947
 5631SOL    HW128112   8.735   3.517   0.860 -0.4982  0.6951 -0.9495
 5631SOL    HW228113   8.718   3.607   0.996  1.4797 -0.0813 -0.1549
 5632SOL     OW28114   9.506   0.005   5.539  0.3897  0.2372 -0.2675
 5632SOL    HW128115   9.533   0.089   5.492 -0.0847  0.4539 -0.1492
 5632SOL    HW228116   9.448   0.027   5.617 -2.6285 -0.4148 -2.2789
 5633SOL     OW28117   8.271   5.933   3.001 -0.4444  0.0446  0.2198
 5633SOL    HW128118   8.249   5.897   2.910 -0.1833 -2.5118  1.1153
 5633SOL    HW228119   8.338   6.006   2.993  0.7584 -1.2290 -1.5384
 5634SOL     OW28120   1.450   4.996   4.187 -0.0029 -0.4624 -0.0039
 5634SOL    HW128121   1.415   4.967   4.098  2.6558 -1.4998 -0.7767
 5634SOL    HW228122   1.374   5.013   4.249 -1.9180  0.5188 -2.5368
 5635SOL     OW28123   2.973   2.033   2.910 -0.1227  0.5516  0.6703
 5635SOL    HW128124   2.881   1.996   2.921 -0.0959  0.4901  0.6836
 5635SOL    HW228125   2.981   2.118   2.963  0.7806 -1.0530  3.2201
 5636SOL     OW28126   4.331   6.339   1.862  0.1830 -0.6322 -0.0108
 5636SOL    HW128127   4.386   6.423   1.863 -2.3199  1.0626  1.9935
 5636SOL    HW228128   4.335   6.296   1.953 -1.7946 -0.4562  0.1773
 5637SOL     OW28129   9.208   1.246   5.515 -0.0978  0.4352  0.3126
 5637SOL    HW128130   9.260   1.192   5.449 -1.6598  1.0472 -1.4391
 5637SOL    HW228131   9.171   1.185   5.586 -2.3687 -0.9758 -1.9807
 5638SOL     OW28132   9.327   9.465   3.668 -0.2643  0.6967 -0.1749
 5638SOL    HW128133   9.405   9.417   3.628 -1.5955 -2.8759  1.2975
 5638SOL    HW228134   9.257   9.479   3.599  0.3800  1.0906 -0.7568
 5639SOL     OW28135   7.677   3.826   0.107 -0.1372  0.3525 -0.2944
 5639SOL    HW128136   7.753   3.830   0.171  0.4153 -0.4182 -0.8867
 5639SOL    HW228137   7.593   3.801   0.156  0.4706 -1.1967 -0.0164
 5640SOL     OW28138   9.029   8.283   2.364  0.3070  0.6042 -0.2174
 5640SOL    HW128139   9.121   8.306   2.397 -0.6576  3.1206  0.8503
 5640SOL    HW228140   8.993   8.358   2.310 -1.6996  0.2551  0.6014
 5641SOL     OW28141   4.250   0.605   6.234  0.5835 -1.4329  0.3026
 5641SOL    HW128142   4.317   0.566   6.171  0.8372  0.6631 -0.7493
 5641SOL    HW228143   4.181   0.657   6.183  0.0178 -0.8336  1.6443
 5642SOL     OW28144   9.925   6.475   3.063 -0.7511  0.3081 -0.2797
 5642SOL    HW128145  10.014   6.521   3.055 -0.7371  0.4003  0.3722
 5642SOL    HW228146   9.919   6.401   2.996  0.8362 -1.3672  1.3776
 5643SOL     OW28147   7.548   0.321   3.799 -0.2349 -0.0981 -0.3573
 5643SOL    HW128148   7.458   0.365   3.790  0.1155  0.5503 -0.7447
 5643SOL    HW228149   7.538   0.234   3.847 -1.0655 -0.0067 -0.3557
 5644SOL     OW28150   4.614   1.450   5.203 -0.0231 -0.2592  0.3064
 5644SOL    HW128151   4.599   1.511   5.124 -2.4141  0.1889  1.0617
 5644SOL    HW228152   4.583   1.358   5.180 -0.6607 -0.1431  0.7085
 5645SOL     OW28153   2.982   6.947   5.932  0.3227 -0.0329  0.1347
 5645SOL    HW128154   2.951   6.948   6.027  1.0703 -0.6730  0.3927
 5645SOL    HW228155   3.041   6.868   5.917  0.4473  0.2258 -0.7920
 5646SOL     OW28156   1.441   6.462   3.669  0.4096  0.1442  0.2431
 5646SOL    HW128157   1.407   6.392   3.606  1.8898 -0.0760 -0.3337
 5646SOL    HW228158   1.379   6.540   3.668 -0.2926 -0.4063 -0.4864
 5647SOL     OW28159   3.223   2.079   1.282  0.0120  0.0134 -0.0743
 5647SOL    HW128160   3.189   2.019   1.355  0.0496 -1.1411 -0.9925
 5647SOL    HW228161   3.178   2.168   1.288 -1.5842 -0.7947  0.0125
 5648SOL     OW28162   0.968   4.133   1.515  0.3000  0.4672 -0.0768
 5648SOL    HW128163   1.048   4.192   1.526  2.1738 -2.0619  0.2626
 5648SOL    HW228164   0.939   4.135   1.419  0.4967  1.7013 -0.1274
 5649SOL     OW28165   1.111   8.513   0.315 -0.3863  0.3252 -0.6271
 5649SOL    HW128166   1.078   8.579   0.384  0.3376  0.1389 -0.0981
 5649SOL    HW228167   1.038   8.448   0.294 -0.3825 -0.0419  0.4831
 5650SOL     OW28168   1.709   4.128   3.260  0.0180  0.0034  1.0507
 5650SOL    HW128169   1.752   4.217   3.246  1.1866 -0.5953  0.8032
 5650SOL    HW228170   1.711   4.105   3.358 -0.7808  0.4827  1.1899
 5651SOL     OW28171   3.412   0.574   0.108  0.4000  0.2354  0.7737
 5651SOL    HW128172   3.488   0.611   0.162  1.5712 -0.6057 -0.2632
 5651SOL    HW228173   3.375   0.645   0.048  0.6604  0.5400  0.9775
 5652SOL     OW28174   6.789   2.309   2.599 -0.6731 -0.3128  0.2560
 5652SOL    HW128175   6.825   2.317   2.507  0.9904 -0.5056  0.8797
 5652SOL    HW228176   6.817   2.389   2.653  0.6990 -1.5327  1.3733
 5653SOL     OW28177   1.030   1.749   1.473  0.3522  0.2315 -0.3826
 5653SOL    HW128178   0.996   1.687   1.402  0.5871 -0.2056 -0.1155
 5653SOL    HW228179   1.016   1.707   1.563  3.9757 -1.1609 -0.3822
 5654SOL     OW28180   9.809   6.576   5.905  0.2115 -0.6190  0.1897
 5654SOL    HW128181   9.754   6.584   5.822 -0.2760  0.0887  0.5746
 5654SOL    HW228182   9.791   6.488   5.948  0.2639 -0.8786 -0.3126
 5655SOL     OW28183   9.333   7.768   5.128 -0.6154 -0.5642 -0.0726
 5655SOL    HW128184   9.321   7.669   5.117 -1.7353 -0.9103  3.5193
 5655SOL    HW228185   9.243   7.813   5.125 -0.2193  0.2035 -0.5142
 5656SOL     OW28186   3.271   0.287   5.098 -0.0598  0.3424 -0.2203
 5656SOL    HW128187   3.355   0.239   5.072  0.3953  1.5157 -0.9226
 5656SOL    HW228188   3.201   0.271   5.028  0.2206  1.0278 -0.6617
 5657SOL     OW28189   1.163   1.378   6.551  0.2688  0.0660  0.7537
 5657SOL    HW128190   1.188   1.304   6.614  0.1206 -0.0832  0.6399
 5657SOL    HW228191   1.161   1.342   6.457 -2.3305 -0.4215  0.9725
 5658SOL     OW28192   3.029   5.736   6.535  0.4232  0.1233 -0.2415
 5658SOL    HW128193   3.036   5.772   6.442  0.1341  1.5930  0.2864
 5658SOL    HW228194   2.959   5.665   6.538 -0.0095  0.5081 -1.0248
 5659SOL     OW28195   3.653   9.430   2.400  0.0991  0.2755 -0.0714
 5659SOL    HW128196   3.564   9.387   2.414 -0.4158  1.1705 -0.5431
 5659SOL    HW228197   3.714   9.406   2.475 -0.6266 -0.1293  0.3907
 5660SOL     OW28198   9.774   8.187   1.612 -0.3600 -0.3223 -0.2416
 5660SOL    HW128199   9.676   8.179   1.595 -0.3300 -1.8498  0.2318
 5660SOL    HW228200   9.806   8.276   1.579 -1.7864 -0.0373 -0.9169
 5661SOL     OW28201   8.284   2.726   2.096  0.5231 -0.1131  0.2288
 5661SOL    HW128202   8.294   2.805   2.035  0.7968 -0.4544 -0.1694
 5661SOL    HW228203   8.188   2.718   2.124  0.4643  0.2681  0.1431
 5662SOL     OW28204   1.573   9.216   5.226 -0.0208  0.3866  1.1944
 5662SOL    HW128205   1.496   9.173   5.273 -1.1545  0.4386 -0.5417
 5662SOL    HW228206   1.588   9.308   5.263 -0.7616  0.3510  1.5978
 5663SOL     OW28207   8.083   8.498   3.954 -0.3373  0.2601  0.1102
 5663SOL    HW128208   8.125   8.481   4.043 -0.5935 -2.7525 -0.2897
 5663SOL    HW228209   7.985   8.515   3.966 -0.2007  0.7958  0.4778
 5664SOL     OW28210   0.884   0.587   3.238  0.1155  0.0797  0.4021
 5664SOL    HW128211   0.785   0.590   3.224 -0.1512 -0.8384  2.0024
 5664SOL    HW228212   0.919   0.681   3.247 -1.0616  0.3544  2.6249
 5665SOL     OW28213   2.015   8.996   1.279 -0.5358  0.1824  0.1080
 5665SOL    HW128214   1.978   9.041   1.198 -0.8978  0.0931  0.2237
 5665SOL    HW228215   1.940   8.961   1.335 -0.3053  0.7746  0.7875
 5666SOL     OW28216   1.304   2.543   6.251 -0.1936 -0.3902  0.0480
 5666SOL    HW128217   1.391   2.571   6.292 -0.9077  0.6297  0.9255
 5666SOL    HW228218   1.278   2.454   6.287 -0.1111 -0.1403  0.7474
 5667SOL     OW28219   6.541   2.207   4.299  0.2418  0.3471 -0.0778
 5667SOL    HW128220   6.574   2.295   4.265  1.0926  0.0860  0.0565
 5667SOL    HW228221   6.459   2.221   4.355  1.3456  1.2357  1.3365
 5668SOL     OW28222   9.224   6.619   4.281 -0.2999 -0.4406  0.7048
 5668SOL    HW128223   9.299   6.670   4.239 -0.1507  0.0017  1.4982
 5668SOL    HW228224   9.139   6.639   4.232 -0.2328  0.5430  0.9746
 5669SOL     OW28225   9.125   2.369   2.326 -0.1378  0.3694  0.1124
 5669SOL    HW128226   9.203   2.426   2.352 -0.4541  0.5028  0.7797
 5669SOL    HW228227   9.112   2.374   2.227  2.3389 -1.7760 -0.3666
 5670SOL     OW28228   2.283   7.560   4.052  0.0535 -0.3148  0.0883
 5670SOL    HW128229   2.315   7.653   4.032  0.7956 -0.4518  0.6456
 5670SOL    HW228230   2.361   7.498   4.059 -0.3641 -0.7590  0.8668
 5671SOL     OW28231   2.445   1.020   5.902 -0.5237  0.2923  0.0643
 5671SOL    HW128232   2.448   0.934   5.851  0.6437 -0.2908  1.0852
 5671SOL    HW228233   2.450   1.097   5.839 -0.7516 -0.4115 -0.8091
 5672SOL     OW28234   0.782   2.298   3.195  0.2927  0.2479  0.2210
 5672SOL    HW128235   0.721   2.255   3.261 -1.5417  1.3923 -0.6804
 5672SOL    HW228236   0.842   2.229   3.154 -1.5517 -1.1915 -0.1010
 5673SOL     OW28237   2.584   1.550   5.212  0.3934 -0.2174 -0.1410
 5673SOL    HW128238   2.652   1.623   5.217 -0.6085  0.6353  1.6941
 5673SOL    HW228239   2.492   1.590   5.222 -0.3511 -1.4218 -1.8858
 5674SOL     OW28240   9.219   1.535   3.259 -0.5139  0.5151  0.2044
 5674SOL    HW128241   9.231   1.583   3.346 -1.5062 -0.3836  0.8584
 5674SOL    HW228242   9.121   1.523   3.242 -0.2855 -0.6193 -0.3159
 5675SOL     OW28243   8.134   8.317   2.859 -0.4690 -0.3720 -0.0709
 5675SOL    HW128244   8.140   8.369   2.944  0.4527 -1.6207  0.6337
 5675SOL    HW228245   8.071   8.240   2.871 -0.3316 -0.5547 -0.5131
 5676SOL     OW28246   3.979   1.068   4.764 -0.2119  0.6235 -0.1510
 5676SOL    HW128247   3.995   1.005   4.688  1.2142  0.3843  0.3275
 5676SOL    HW228248   3.942   1.017   4.842 -0.1074  0.5769 -0.1317
 5677SOL     OW28249   4.590   9.693   5.236 -0.0100  0.2012  0.1917
 5677SOL    HW128250   4.505   9.646   5.256  0.7171 -1.6013 -0.8262
 5677SOL    HW228251   4.585   9.735   5.146 -0.2685  1.1865  0.6560
 5678SOL     OW28252   4.116   3.509   5.765 -0.1417  0.4091  0.9789
 5678SOL    HW128253   4.057   3.430   5.746  1.2789 -0.0474 -1.8707
 5678SOL    HW228254   4.060   3.586   5.796 -1.5381 -1.6903  3.9113
 5679SOL     OW28255   2.797   7.333   2.837  0.3178  0.6471  0.0962
 5679SOL    HW128256   2.861   7.409   2.828 -0.3665  1.2679  0.4751
 5679SOL    HW228257   2.799   7.298   2.931  1.2164 -0.3345 -0.2675
 5680SOL     OW28258   3.573   1.632   5.540 -0.1878 -0.2138  0.2788
 5680SOL    HW128259   3.588   1.723   5.579 -1.7034  0.2839 -0.2638
 5680SOL    HW228260   3.565   1.565   5.614 -1.9363  0.5542  0.7963
 5681SOL     OW28261   9.822   9.288   1.965 -0.2660  0.1515 -0.2021
 5681SOL    HW128262   9.798   9.223   1.893  1.0026 -0.4151 -0.1215
 5681SOL    HW228263   9.837   9.239   2.050 -0.3541  0.6760  0.1187
 5682SOL     OW28264   8.667   4.850   4.914 -0.0042  0.3012  0.5675
 5682SOL    HW128265   8.586   4.854   4.973 -0.0953 -0.2863  0.4896
 5682SOL    HW228266   8.749   4.844   4.970 -0.1774 -1.7561  0.6437
 5683SOL     OW28267   8.397   7.022   5.655 -0.1489 -0.1856  0.5550
 5683SOL    HW128268   8.410   6.957   5.730 -1.0817  0.2516  1.0925
 5683SOL    HW228269   8.333   7.093   5.683 -0.0916  0.2716 -0.4743
 5684SOL     OW28270   6.128   0.393   5.321  0.6746  0.1154  0.1913
 5684SOL    HW128271   6.187   0.439   5.388  1.3662 -0.8529  0.2656
 5684SOL    HW228272   6.184   0.361   5.245  0.3391 -1.3683  0.5619
 5685SOL     OW28273   1.564   1.239   2.475 -0.4606 -0.0987 -0.4784
 5685SOL    HW128274   1.483   1.187   2.447 -0.7255  0.5103 -0.8584
 5685SOL    HW228275   1.542   1.337   2.475 -0.0173  0.0081  0.3878
 5686SOL     OW28276   0.343   0.548   5.440  0.0925 -0.1151  0.2284
 5686SOL    HW128277   0.420   0.603   5.474 -0.8924  0.4439  1.5948
 5686SOL    HW228278   0.262   0.606   5.432 -0.4249 -0.9084 -0.3589
 5687SOL     OW28279   4.477   7.060   2.634 -0.1725 -0.0104  0.4657
 5687SOL    HW128280   4.539   7.093   2.704 -0.8560 -1.8188  1.9829
 5687SOL    HW228281   4.419   7.135   2.601  1.8215  1.3689  0.0327
 5688SOL     OW28282   3.261   9.061   6.330 -0.2544 -0.0883  0.1299
 5688SOL    HW128283   3.195   9.088   6.260  0.2688 -0.5908 -0.5563
 5688SOL    HW228284   3.333   9.004   6.289 -0.3629 -1.0197  1.2231
 5689SOL     OW28285   9.062   6.751   6.225  0.6890 -0.0780  0.9443
 5689SOL    HW128286   8.965   6.774   6.230  0.8630  0.7696  0.5710
 5689SOL    HW228287   9.108   6.781   6.309  1.2133  2.4363 -0.1935
 5690SOL     OW28288   3.138   8.877   3.477 -0.0397 -0.1494  0.4349
 5690SOL    HW128289   3.100   8.958   3.433 -0.5040 -0.2403  0.6657
 5690SOL    HW228290   3.207   8.836   3.418  1.4667  1.4185  1.0515
 5691SOL     OW28291   7.137   1.836   3.215 -0.2372 -0.5006 -0.0524
 5691SOL    HW128292   7.053   1.844   3.269 -1.5802  0.0535 -2.1647
 5691SOL    HW228293   7.172   1.928   3.195 -0.2036 -0.6789 -0.8154
 5692SOL     OW28294   7.845   9.223   5.445 -0.5000  0.2544 -0.3702
 5692SOL    HW128295   7.760   9.180   5.415  0.6495 -1.3372 -1.4855
 5692SOL    HW228296   7.830   9.320   5.463 -2.5131  0.0075 -0.6567
 5693SOL     OW28297   3.430   3.823   1.121 -0.3302 -0.0217  0.8269
 5693SOL    HW128298   3.348   3.781   1.159 -0.4084 -0.3004  0.3627
 5693SOL    HW228299   3.480   3.871   1.193 -0.3011 -0.8163  1.3393
 5694SOL     OW28300   3.393   9.825   4.890 -0.3304 -0.1493 -0.3261
 5694SOL    HW128301   3.368   9.850   4.983 -2.9775  0.9381 -1.2684
 5694SOL    HW228302   3.473   9.766   4.891 -0.7266 -0.6848  2.6577
 5695SOL     OW28303   0.676   8.332   5.219 -0.2667 -0.0143  0.0209
 5695SOL    HW128304   0.688   8.410   5.280 -0.8563  0.3849 -0.3559
 5695SOL    HW228305   0.735   8.343   5.139 -0.6372  0.2585 -0.2231
 5696SOL     OW28306   2.034   9.311   3.151  0.0228  0.0546 -0.9388
 5696SOL    HW128307   2.063   9.395   3.196 -0.5608 -0.1429 -0.1782
 5696SOL    HW228308   1.971   9.261   3.210  0.5210 -1.0249 -1.2967
 5697SOL     OW28309   6.220   2.063   4.870  0.1631  0.5152  0.1858
 5697SOL    HW128310   6.305   2.023   4.837  0.2772  0.2437  0.8116
 5697SOL    HW228311   6.211   2.048   4.969  0.2887  2.1890  0.4634
 5698SOL     OW28312   2.281   5.440   3.087 -0.1712 -0.0120  0.3128
 5698SOL    HW128313   2.188   5.465   3.115 -0.4966 -0.0124 -0.7141
 5698SOL    HW228314   2.330   5.398   3.163 -0.4562  1.5075  1.3403
 5699SOL     OW28315   1.630   9.845   3.005 -0.5279  0.3127  0.6595
 5699SOL    HW128316   1.557   9.875   2.944  1.0833  3.0453 -0.0157
 5699SOL    HW228317   1.657   9.752   2.982 -1.4778  0.5121 -1.3228
 5700SOL     OW28318   8.349   5.173   1.879 -0.1478 -0.0114 -0.3623
 5700SOL    HW128319   8.446   5.198   1.873 -0.0065 -0.6477 -0.7734
 5700SOL    HW228320   8.301   5.205   1.798 -0.6634  1.9186  0.6711
 5701SOL     OW28321   4.890   6.518   2.742  0.0016 -0.6879 -0.0400
 5701SOL    HW128322   4.893   6.617   2.736 -3.6535 -0.3600  2.0375
 5701SOL    HW228323   4.841   6.482   2.662 -0.8979 -0.6016  0.4670
 5702SOL     OW28324   1.070   7.294   4.539 -0.7171  0.2295  0.3351
 5702SOL    HW128325   1.037   7.332   4.453 -0.6681 -0.1607  0.1404
 5702SOL    HW228326   1.152   7.343   4.569 -1.1378  0.8225  0.5210
 5703SOL     OW28327   2.201   5.765   5.809  0.3369 -0.4266 -0.1979
 5703SOL    HW128328   2.275   5.820   5.769 -0.0473  1.2517  1.3451
 5703SOL    HW228329   2.238   5.703   5.878  0.2756  0.5406  0.6999
 5704SOL     OW28330   2.659   5.869   4.168 -0.2288  0.1001  0.4228
 5704SOL    HW128331   2.721   5.935   4.211 -0.9828 -0.1084  1.8663
 5704SOL    HW228332   2.566   5.906   4.166 -0.2969 -0.1010 -0.5963
 5705SOL     OW28333   3.608   3.187   2.801  0.0268 -0.1834  0.3144
 5705SOL    HW128334   3.673   3.217   2.732  0.8531 -1.1288  0.6675
 5705SOL    HW228335   3.522   3.237   2.790 -0.2340 -1.0956 -2.0669
 5706SOL     OW28336   0.989   6.336   2.859  0.2024  0.0060  0.0412
 5706SOL    HW128337   1.078   6.346   2.904 -0.3536  0.7048  1.0040
 5706SOL    HW228338   0.930   6.278   2.915 -0.8198  1.6580  0.7304
 5707SOL     OW28339   7.632   0.027   2.854 -0.3821  0.3049  0.0566
 5707SOL    HW128340   7.697   0.102   2.851 -0.8781  0.7049 -1.5107
 5707SOL    HW228341   7.676  -0.057   2.822 -0.4330  0.4147 -0.3022
 5708SOL     OW28342   5.911   5.082   0.405 -0.1589 -0.3077 -0.2256
 5708SOL    HW128343   5.919   5.001   0.463 -0.8319  0.6544  1.2107
 5708SOL    HW228344   5.967   5.069   0.322  2.1646 -0.9755  1.4032
 5709SOL     OW28345   1.566   9.264   6.191  0.6968 -0.7024 -0.0807
 5709SOL    HW128346   1.473   9.297   6.205  0.6755 -0.5521 -0.5624
 5709SOL    HW228347   1.590   9.272   6.094  0.7736 -1.9046 -0.1649
 5710SOL     OW28348   0.804   9.004   3.236  0.2257 -0.5743  0.0279
 5710SOL    HW128349   0.835   9.033   3.145  0.6431  0.9990  0.6587
 5710SOL    HW228350   0.859   9.050   3.306 -2.6463  1.2367  1.1559
 5711SOL     OW28351   3.722   2.163   1.706 -0.0362 -0.4011 -0.2579
 5711SOL    HW128352   3.688   2.173   1.800  0.5472  0.1969 -0.1090
 5711SOL    HW228353   3.655   2.112   1.652 -1.3117  1.0403 -0.0600
 5712SOL     OW28354   6.753   2.012   5.336  0.6885  0.1225 -0.7202
 5712SOL    HW128355   6.793   1.975   5.252 -2.0171  2.1734 -3.0345
 5712SOL    HW228356   6.775   2.109   5.344 -0.6135  0.3819 -0.0519
 5713SOL     OW28357   9.778   3.365   3.081 -0.0644  0.8897  0.6526
 5713SOL    HW128358   9.826   3.333   2.999  2.0815  1.2498  1.7346
 5713SOL    HW228359   9.811   3.315   3.161 -2.9145 -0.2184  1.1941
 5714SOL     OW28360   2.502   9.753   0.608 -0.6218  0.2497 -0.1750
 5714SOL    HW128361   2.585   9.806   0.625 -0.8229  0.0754  1.3400
 5714SOL    HW228362   2.442   9.804   0.546  0.6612  0.3150 -1.3981
 5715SOL     OW28363   3.200   3.127   2.957 -0.3146  0.1464 -0.6594
 5715SOL    HW128364   3.131   3.159   3.021  0.3350  0.2960 -0.0264
 5715SOL    HW228365   3.161   3.057   2.898 -1.3988  1.2222 -1.2370
 5716SOL     OW28366   0.630   6.948   3.569  0.2261 -0.5867  0.0085
 5716SOL    HW128367   0.534   6.948   3.597  0.6978 -2.1466  1.7653
 5716SOL    HW228368   0.683   7.004   3.633  0.5049  0.1847 -0.8959
 5717SOL     OW28369   3.255   7.299   3.393 -0.2364 -0.1815  0.7968
 5717SOL    HW128370   3.267   7.204   3.365  0.7181  0.1278  0.1513
 5717SOL    HW228371   3.342   7.336   3.422 -0.3587  0.8957 -0.1944
 5718SOL     OW28372   8.264   1.018   3.116 -0.5126 -0.2401 -0.5803
 5718SOL    HW128373   8.184   0.964   3.092 -0.8103  0.0665 -0.2944
 5718SOL    HW228374   8.318   0.970   3.186 -1.7262  0.6232  0.9906
 5719SOL     OW28375   5.318   1.430   4.748 -0.1059 -0.2467  0.0893
 5719SOL    HW128376   5.221   1.432   4.726  0.2998  1.5368 -1.6175
 5719SOL    HW228377   5.364   1.362   4.690 -0.4440 -1.7341  1.5129
 5720SOL     OW28378   9.119   7.262   0.218 -0.9140  0.3370  0.2002
 5720SOL    HW128379   9.068   7.177   0.202 -0.3101 -0.1454  0.8518
 5720SOL    HW228380   9.067   7.320   0.282 -0.6979 -0.1022  0.7712
 5721SOL     OW28381   5.835   8.971   3.772 -0.5919  0.5345 -0.8553
 5721SOL    HW128382   5.779   8.927   3.842 -1.7676  2.0230 -0.8124
 5721SOL    HW228383   5.932   8.960   3.794 -0.9339  0.4940  0.7137
 5722SOL     OW28384   5.185   0.999   4.344 -0.0585  0.1102  0.2443
 5722SOL    HW128385   5.097   0.954   4.347 -0.7806  1.5381  1.4651
 5722SOL    HW228386   5.258   0.933   4.362 -1.0161 -0.7249  1.0806
 5723SOL     OW28387   3.212   0.491   0.315  0.2971  0.0122 -0.2458
 5723SOL    HW128388   3.278   0.509   0.242  1.7446 -0.8883  0.8121
 5723SOL    HW228389   3.248   0.524   0.402  0.2325 -2.1925  0.6705
 5724SOL     OW28390   4.959   8.439   3.690  0.4266 -0.5221 -0.4939
 5724SOL    HW128391   4.871   8.393   3.675  0.5011 -0.6426 -0.5605
 5724SOL    HW228392   5.033   8.381   3.656  0.3706  0.6627 -2.6695
 5725SOL     OW28393   4.817   1.979   3.876  0.1142  0.4359 -0.2115
 5725SOL    HW128394   4.766   1.952   3.958 -0.2945 -0.6940 -0.8283
 5725SOL    HW228395   4.889   2.043   3.901  1.2195 -1.3446  1.3346
 5726SOL     OW28396   3.297   4.811   0.376  0.1561 -0.2657 -0.1391
 5726SOL    HW128397   3.335   4.865   0.300 -1.7093  0.5040 -0.5398
 5726SOL    HW228398   3.305   4.864   0.461  2.0850 -1.0571  0.2073
 5727SOL     OW28399   8.509   9.644   4.290  0.0258 -0.0711  0.3277
 5727SOL    HW128400   8.430   9.695   4.323  1.3672  1.8402  0.6229
 5727SOL    HW228401   8.576   9.635   4.363  1.6373  1.4393 -0.9437
 5728SOL     OW28402   3.147   4.748   5.495 -0.0424  0.2234  0.6430
 5728SOL    HW128403   3.203   4.732   5.576 -0.3602 -0.4120  0.7383
 5728SOL    HW228404   3.079   4.676   5.486 -0.5943  0.7786  0.3033
 5729SOL     OW28405   5.051   1.227   5.339 -0.5742 -0.4766  0.3670
 5729SOL    HW128406   4.952   1.218   5.349 -0.5423 -2.2583 -0.7102
 5729SOL    HW228407   5.072   1.260   5.247 -0.2326  1.9700  1.2733
 5730SOL     OW28408   3.658   1.905   5.610 -0.4244  0.2639  0.0887
 5730SOL    HW128409   3.573   1.935   5.567 -0.1074 -0.2375 -0.9081
 5730SOL    HW228410   3.668   1.948   5.700 -2.1276 -0.3125  0.5548
 5731SOL     OW28411   3.689   3.474   0.758  0.4940 -0.3179  0.4089
 5731SOL    HW128412   3.642   3.545   0.810  2.7766  0.5246  1.3902
 5731SOL    HW228413   3.673   3.487   0.661 -2.0888 -0.6536  0.7540
 5732SOL     OW28414   8.126   0.161   2.573 -0.0094 -0.0954  0.0471
 5732SOL    HW128415   8.105   0.246   2.524  0.1731 -0.6516 -1.0225
 5732SOL    HW228416   8.088   0.084   2.522  1.1314 -0.7772  0.2295
 5733SOL     OW28417   3.498   9.802   2.195 -0.0970  0.4815 -0.3027
 5733SOL    HW128418   3.489   9.840   2.103  3.9998  2.5011  0.0124
 5733SOL    HW228419   3.531   9.708   2.188  2.2255  1.2980 -0.9490
 5734SOL     OW28420   3.465   3.166   3.609 -0.0838 -0.4532  1.0088
 5734SOL    HW128421   3.436   3.251   3.564  0.8388 -0.6883 -0.0685
 5734SOL    HW228422   3.442   3.088   3.550  0.6953 -0.8089  1.1730
 5735SOL     OW28423   7.219   7.225   5.844 -0.0535  0.5304 -0.0557
 5735SOL    HW128424   7.300   7.173   5.870 -0.6386 -0.9653 -1.1634
 5735SOL    HW228425   7.157   7.232   5.922 -0.1736 -0.8343 -0.0157
 5736SOL     OW28426   7.275   2.612   2.948  0.2514  0.1692 -0.0326
 5736SOL    HW128427   7.245   2.696   2.904 -1.0812 -0.8798 -1.1909
 5736SOL    HW228428   7.272   2.537   2.882  0.4621 -0.9768  1.2387
 5737SOL     OW28429   4.133   4.073   6.135  0.0891 -0.3063  0.2423
 5737SOL    HW128430   4.058   4.078   6.201 -0.8283 -0.1944 -0.7904
 5737SOL    HW228431   4.098   4.038   6.047  1.1700  0.0831 -0.3514
 5738SOL     OW28432   7.175   1.944   4.875  0.4853 -0.9466 -0.6809
 5738SOL    HW128433   7.152   1.866   4.818 -0.0693 -0.9755 -0.4182
 5738SOL    HW228434   7.201   1.912   4.966  1.2030 -0.8890 -0.8595
 5739SOL     OW28435   9.395   6.241   5.472 -0.7958  0.3503  0.0408
 5739SOL    HW128436   9.375   6.276   5.381  0.6179 -1.7219 -1.1203
 5739SOL    HW228437   9.486   6.272   5.501 -0.5062 -0.4311 -0.0126
 5740SOL     OW28438   6.841   9.719   4.558 -0.4750 -0.7067  0.1774
 5740SOL    HW128439   6.866   9.627   4.529 -0.6897 -0.8884  0.5635
 5740SOL    HW228440   6.831   9.722   4.657  2.6269  0.5051  0.5012
 5741SOL     OW28441   3.519   8.558   1.220 -0.1862  0.4585 -0.3203
 5741SOL    HW128442   3.597   8.501   1.246 -0.8841 -0.6545 -0.6072
 5741SOL    HW228443   3.550   8.650   1.199  0.9822  0.1544  0.0504
 5742SOL     OW28444   1.359   9.017   4.053 -0.1409  0.6314  0.0538
 5742SOL    HW128445   1.395   9.076   4.125 -0.5348  1.3643 -0.3527
 5742SOL    HW228446   1.328   8.931   4.093  2.1453 -0.0713  0.4196
 5743SOL     OW28447   2.074   3.432   0.749  0.0493 -0.3869  0.3705
 5743SOL    HW128448   2.143   3.475   0.807  0.7375  0.0695 -0.7786
 5743SOL    HW228449   2.120   3.382   0.675 -0.8604  0.3721 -0.7193
 5744SOL     OW28450   8.496   9.311   2.451  0.3897 -0.1542  0.0909
 5744SOL    HW128451   8.565   9.240   2.466 -0.0153 -0.7765 -0.9168
 5744SOL    HW228452   8.473   9.353   2.538 -1.3397 -3.1347  1.1479
 5745SOL     OW28453   9.440   6.358   3.647  0.3579  0.3384 -0.6052
 5745SOL    HW128454   9.447   6.348   3.548  3.4243  3.1143 -0.7609
 5745SOL    HW228455   9.384   6.438   3.668  1.0340  0.6940 -0.1467
 5746SOL     OW28456   0.640   4.862   4.623  0.0644  0.4147 -0.3687
 5746SOL    HW128457   0.653   4.796   4.549 -2.9066  1.5486 -1.9884
 5746SOL    HW228458   0.644   4.955   4.587 -3.8603  0.9509  0.3797
 5747SOL     OW28459   2.945   9.862   5.164 -0.4670 -0.0292  0.1343
 5747SOL    HW128460   3.042   9.864   5.189 -0.8436  2.0469  1.5475
 5747SOL    HW228461   2.920   9.770   5.134  2.0242 -0.4969 -0.5977
 5748SOL     OW28462   5.103   9.451   5.650  0.0963 -0.3033  0.0557
 5748SOL    HW128463   5.113   9.433   5.748  0.6515  2.8823  0.6443
 5748SOL    HW228464   5.189   9.428   5.603  0.7163  0.6280  0.7322
 5749SOL     OW28465   3.478   8.692   1.729  0.0451 -0.4015 -0.9794
 5749SOL    HW128466   3.484   8.753   1.650  2.9763  0.7272  0.0466
 5749SOL    HW228467   3.480   8.746   1.813  1.0562 -1.7951 -0.0845
 5750SOL     OW28468   7.142   3.354   4.455 -0.0466 -0.3236 -0.2034
 5750SOL    HW128469   7.116   3.336   4.360 -0.0275  3.4047 -0.9966
 5750SOL    HW228470   7.061   3.381   4.507  0.4806  1.0433 -0.0685
 5751SOL     OW28471   3.064   9.413   1.714  0.3046  0.1668  0.2539
 5751SOL    HW128472   2.964   9.417   1.723  0.3557  1.1855  0.4333
 5751SOL    HW228473   3.103   9.373   1.797 -0.0623 -1.7353 -0.4807
 5752SOL     OW28474   4.582   6.980   2.109 -0.1511  0.2765  0.5112
 5752SOL    HW128475   4.504   6.925   2.138 -0.1980 -0.0539 -0.2361
 5752SOL    HW228476   4.635   7.007   2.190 -0.1386 -0.8475  0.8920
 5753SOL     OW28477   7.912   8.069   3.387 -0.1854 -0.2152  0.0732
 5753SOL    HW128478   7.875   8.021   3.467 -1.4206  1.5213  0.5588
 5753SOL    HW228479   7.883   8.164   3.388 -0.1631 -0.1399 -2.4216
 5754SOL     OW28480   3.085   7.582   1.198 -0.3440  0.4976 -0.2694
 5754SOL    HW128481   3.010   7.521   1.174 -1.0798  0.7754  1.2880
 5754SOL    HW228482   3.053   7.677   1.196  0.4261  0.7516 -1.2840
 5755SOL     OW28483   8.979   7.113   3.665 -0.0576 -0.3068 -0.1663
 5755SOL    HW128484   8.948   7.182   3.599  0.8321  0.9033  0.6745
 5755SOL    HW228485   8.910   7.102   3.736  0.3197  0.6015  0.3540
 5756SOL     OW28486   4.740   9.765   4.333  0.5165 -0.0660 -0.4320
 5756SOL    HW128487   4.837   9.748   4.351  0.7455 -2.5468 -3.4988
 5756SOL    HW228488   4.728   9.859   4.301  2.0234  0.0608 -0.6708
 5757SOL     OW28489   0.703   1.232   0.832  0.0684 -0.1385 -0.2313
 5757SOL    HW128490   0.770   1.178   0.882  1.4846  0.6047 -1.2815
 5757SOL    HW228491   0.739   1.324   0.817 -1.1556  0.2448 -0.8893
 5758SOL     OW28492   1.191   6.889   4.613  0.7149  0.4178 -0.3142
 5758SOL    HW128493   1.166   6.846   4.526  1.1768 -0.6335  0.0737
 5758SOL    HW228494   1.110   6.930   4.655  0.3541  0.2850 -0.8806
 5759SOL     OW28495   2.878   6.616   1.113  0.3325  0.1336 -0.1165
 5759SOL    HW128496   2.923   6.531   1.088 -1.1889 -0.1467 -1.9758
 5759SOL    HW228497   2.784   6.598   1.140  0.4541  1.0531  0.9914
 5760SOL     OW28498   1.644   5.109   2.903  0.0325  0.5583 -0.3092
 5760SOL    HW128499   1.655   5.208   2.914  1.5507  0.4639 -0.9954
 5760SOL    HW228500   1.732   5.067   2.884 -0.8891 -0.6945 -1.9263
 5761SOL     OW28501   7.756   6.624   0.272 -0.2069 -0.3538  0.4198
 5761SOL    HW128502   7.709   6.695   0.219 -2.1029 -2.0180 -0.2304
 5761SOL    HW228503   7.715   6.619   0.363 -0.9299 -1.4040  0.0529
 5762SOL     OW28504   8.409   8.985   5.815 -0.0605  0.3306  0.3127
 5762SOL    HW128505   8.467   8.960   5.737  0.8448 -0.2273  1.1507
 5762SOL    HW228506   8.465   9.027   5.886 -0.9113  0.9995  0.5975
 5763SOL     OW28507   9.832   7.719   6.659 -0.1547  0.0481  0.4765
 5763SOL    HW128508   9.822   7.621   6.676  1.0521 -0.2449 -0.4079
 5763SOL    HW228509   9.893   7.733   6.581  0.0808  1.5168  0.9086
 5764SOL     OW28510   6.694   5.566   6.394  0.1058 -0.1992 -0.2743
 5764SOL    HW128511   6.600   5.532   6.399 -0.4720  1.2046 -1.2382
 5764SOL    HW228512   6.738   5.532   6.311 -0.1555  0.5932 -0.7452
 5765SOL     OW28513   2.828   8.922   0.404 -0.1345  0.3618  0.0941
 5765SOL    HW128514   2.745   8.951   0.356 -0.2744  2.3472  1.4941
 5765SOL    HW228515   2.908   8.939   0.346 -0.6128 -0.8726 -0.9621
 5766SOL     OW28516   5.241   9.102   2.562 -0.4602 -0.0125 -0.2754
 5766SOL    HW128517   5.326   9.138   2.599  0.5446 -2.2200 -0.3281
 5766SOL    HW228518   5.177   9.177   2.545  0.5178  1.4338  2.1609
 5767SOL     OW28519   9.189   2.094   1.334 -0.1676 -0.2736  0.2895
 5767SOL    HW128520   9.209   2.189   1.311 -0.3217 -0.1625  0.6098
 5767SOL    HW228521   9.246   2.065   1.411  0.3164 -0.6317 -0.2028
 5768SOL     OW28522   8.211   4.580   3.952 -0.3234 -0.6202 -0.0900
 5768SOL    HW128523   8.249   4.536   3.870 -1.2690  0.6478 -1.2430
 5768SOL    HW228524   8.232   4.525   4.032  2.4287 -0.8419 -0.9059
 5769SOL     OW28525   1.562   0.000   5.345  0.3424 -0.0639  0.2313
 5769SOL    HW128526   1.481  -0.040   5.302  0.4568 -0.6211  0.5340
 5769SOL    HW228527   1.539   0.028   5.439 -0.2706  2.3502 -0.6111
 5770SOL     OW28528   8.954   4.899   2.034 -0.1311 -0.4911 -0.1201
 5770SOL    HW128529   9.002   4.860   2.113  2.0327 -1.1747 -1.7137
 5770SOL    HW228530   8.866   4.854   2.023  1.2573 -3.2417 -0.4242
 5771SOL     OW28531   9.386   6.501   0.655 -0.0739  0.6184  0.2252
 5771SOL    HW128532   9.337   6.513   0.568 -0.3711 -0.5817  0.2057
 5771SOL    HW228533   9.322   6.467   0.724  0.4776  0.1821  0.5231
 5772SOL     OW28534   3.592   5.901   2.743 -0.3874 -0.3789  0.4360
 5772SOL    HW128535   3.517   5.921   2.805 -1.0219  1.5730 -0.9365
 5772SOL    HW228536   3.608   5.979   2.682 -0.0065 -2.3329 -2.0722
 5773SOL     OW28537   9.891   6.713   0.889 -0.3092 -0.5153  0.2031
 5773SOL    HW128538   9.834   6.655   0.948 -0.5150  0.5487  1.0812
 5773SOL    HW228539   9.987   6.695   0.907 -0.3715 -1.3996 -0.3503
 5774SOL     OW28540   9.499   7.381   0.441  0.4423  0.4753 -0.2005
 5774SOL    HW128541   9.478   7.378   0.343  1.0516 -0.7225 -0.3101
 5774SOL    HW228542   9.597   7.369   0.454  0.2968  0.1063  0.5763
 5775SOL     OW28543   6.354   1.020   1.276 -0.0590  0.0475  0.4565
 5775SOL    HW128544   6.323   1.110   1.244  1.3248 -0.5248 -2.6524
 5775SOL    HW228545   6.276   0.969   1.313 -1.6098  1.0806 -1.3089
 5776SOL     OW28546   2.221   6.265   4.467  0.3691 -0.1162 -0.2958
 5776SOL    HW128547   2.314   6.242   4.493  2.0939  1.3656 -4.7173
 5776SOL    HW228548   2.198   6.357   4.501  0.5620 -0.4237  0.6678
 5777SOL     OW28549   9.312   6.551   2.686  0.4049 -0.3964  0.3706
 5777SOL    HW128550   9.291   6.467   2.636 -0.5324  0.4462 -0.6580
 5777SOL    HW228551   9.325   6.626   2.622 -0.9576  0.7229  1.3863
 5778SOL     OW28552   0.832   3.821   6.174 -0.0737  0.0082 -0.1298
 5778SOL    HW128553   0.869   3.795   6.085  0.6533  1.8695 -0.3912
 5778SOL    HW228554   0.732   3.814   6.172 -0.0117 -0.8223 -0.7873
 5779SOL     OW28555   9.272   5.511   5.708 -0.2903 -0.0472 -0.4003
 5779SOL    HW128556   9.184   5.463   5.708 -0.4910  0.2995  1.0891
 5779SOL    HW228557   9.258   5.606   5.681 -0.2499 -0.1926 -0.9431
 5780SOL     OW28558   9.385   1.452   0.066 -0.2097  0.3579  0.1626
 5780SOL    HW128559   9.437   1.388   0.123  0.8257  1.2004  0.1826
 5780SOL    HW228560   9.378   1.416  -0.027  1.4618  0.7938 -0.1473
 5781SOL     OW28561   0.313   1.770   1.442 -0.1407  0.0287  0.2816
 5781SOL    HW128562   0.330   1.703   1.371  0.4012  0.2437  0.2101
 5781SOL    HW228563   0.217   1.801   1.437 -0.3181 -0.5448  0.1578
 5782SOL     OW28564   9.767   2.506   5.886  0.0974  0.5071  0.2335
 5782SOL    HW128565   9.767   2.512   5.787  0.6522 -0.6318  0.1566
 5782SOL    HW228566   9.696   2.566   5.923 -0.0352  1.0229 -0.8349
 5783SOL     OW28567   4.441   4.329   1.663  0.1266  0.3839  0.1932
 5783SOL    HW128568   4.403   4.417   1.636 -0.5943  0.2067  0.6013
 5783SOL    HW228569   4.414   4.308   1.757  1.5707  0.4264  0.6182
 5784SOL     OW28570   4.477   5.646   0.523 -0.1408  0.4472  0.5434
 5784SOL    HW128571   4.427   5.563   0.499 -0.4780  1.3351 -2.0097
 5784SOL    HW228572   4.550   5.624   0.588 -0.7957 -1.6825  0.5756
 5785SOL     OW28573   9.538   9.226   2.586 -0.6900 -0.5777 -0.2218
 5785SOL    HW128574   9.555   9.133   2.554 -1.4584 -0.4887 -0.9165
 5785SOL    HW228575   9.498   9.223   2.677  0.4137 -0.8787  0.2609
 5786SOL     OW28576   0.534   1.680   1.065 -0.0756  0.0649  0.6107
 5786SOL    HW128577   0.474   1.638   1.133 -0.7544 -0.9001 -0.5695
 5786SOL    HW228578   0.629   1.665   1.092 -0.3334 -0.3137  1.3414
 5787SOL     OW28579   3.758   5.751   1.489  0.3133 -0.2671  0.1084
 5787SOL    HW128580   3.805   5.795   1.565 -2.5752  1.7763  0.7464
 5787SOL    HW228581   3.707   5.819   1.436  0.7573 -1.9277 -2.5853
 5788SOL     OW28582   7.570   8.593   4.712  0.3374 -0.5285 -0.1043
 5788SOL    HW128583   7.554   8.502   4.673 -0.6607 -0.3903 -0.0260
 5788SOL    HW228584   7.605   8.654   4.642  1.8173 -1.1924  0.0341
 5789SOL     OW28585   4.466   8.850   6.620  0.2215 -0.0283 -0.2231
 5789SOL    HW128586   4.530   8.861   6.696  1.0047 -1.0240 -0.7236
 5789SOL    HW228587   4.511   8.875   6.534  0.2946 -1.7428 -0.7023
 5790SOL     OW28588   0.827   1.112   3.784 -0.0485  0.1318 -0.2520
 5790SOL    HW128589   0.768   1.193   3.779  0.0376  0.4657  2.9171
 5790SOL    HW228590   0.920   1.138   3.755 -0.1647  1.0267  0.1391
 5791SOL     OW28591   3.735   6.215   2.265 -0.4340 -0.1684 -0.0852
 5791SOL    HW128592   3.806   6.226   2.334 -3.0990 -1.0109  2.8979
 5791SOL    HW228593   3.689   6.303   2.249 -0.4466 -0.1768 -0.0987
 5792SOL     OW28594   3.014   4.904   4.244 -0.2928 -0.3246 -0.0435
 5792SOL    HW128595   2.932   4.948   4.278  0.4947 -1.1103  2.9850
 5792SOL    HW228596   2.989   4.826   4.187 -1.6299  0.1313 -0.0998
 5793SOL     OW28597   7.094   0.608   3.018  0.4175  0.0268 -0.2323
 5793SOL    HW128598   7.006   0.589   2.975  0.1272 -0.7775  0.6816
 5793SOL    HW228599   7.117   0.705   3.007  0.0765 -0.0546 -1.6643
 5794SOL     OW28600   9.222   8.396   6.376  0.5348 -0.1259 -0.2966
 5794SOL    HW128601   9.164   8.366   6.453 -0.5144 -1.0433 -1.4301
 5794SOL    HW228602   9.279   8.320   6.345  1.2974  0.3756 -0.1351
 5795SOL     OW28603   3.844   9.415   0.171  0.9686 -0.0746  0.1823
 5795SOL    HW128604   3.858   9.399   0.269  2.6418 -0.4350 -0.1059
 5795SOL    HW228605   3.790   9.340   0.132 -0.0920  0.2990  0.9122
 5796SOL     OW28606   2.638   8.004   3.518  0.6510 -0.2918  0.0628
 5796SOL    HW128607   2.704   8.079   3.530 -0.0941  0.9621 -3.0527
 5796SOL    HW228608   2.685   7.922   3.487  1.0201  0.0076 -0.1753
 5797SOL     OW28609   7.773   3.251   0.045  0.3043  0.0921  0.2215
 5797SOL    HW128610   7.702   3.264   0.114 -0.3612 -0.3933 -0.3697
 5797SOL    HW228611   7.737   3.275  -0.045  0.6499 -0.8813 -0.1791
 5798SOL     OW28612   7.671   4.191   6.281  0.4249 -0.2767 -0.7345
 5798SOL    HW128613   7.653   4.286   6.308  0.1301  0.0363 -1.9990
 5798SOL    HW228614   7.588   4.137   6.296  0.7993 -0.4926  0.6270
 5799SOL     OW28615   4.618   1.585   0.194  0.0676  0.1501  0.0239
 5799SOL    HW128616   4.680   1.625   0.126  2.8113 -0.8857  1.8489
 5799SOL    HW228617   4.545   1.535   0.147  0.9605  0.8444 -2.1695
 5800SOL     OW28618   9.796   1.918   3.924 -0.2782 -0.1536  0.0108
 5800SOL    HW128619   9.698   1.921   3.941 -0.6581  0.7552 -2.1954
 5800SOL    HW228620   9.813   1.919   3.825  1.9887  0.8209  0.3872
 5801SOL     OW28621   1.294   1.614   3.758  0.4104 -0.5588  0.5373
 5801SOL    HW128622   1.307   1.528   3.807 -1.1848 -0.3758  1.3334
 5801SOL    HW228623   1.332   1.689   3.811 -1.1628 -0.3817  1.4576
 5802SOL     OW28624   3.493   8.945   3.396 -0.4870 -0.6648 -0.4624
 5802SOL    HW128625   3.474   8.952   3.493 -0.5483 -0.1532 -0.5075
 5802SOL    HW228626   3.434   8.875   3.355 -0.3626 -0.9775 -0.1101
 5803SOL     OW28627   9.839   0.818   2.970 -0.5950 -0.7139  0.4247
 5803SOL    HW128628   9.830   0.896   3.033 -0.5498 -1.3741  1.2602
 5803SOL    HW228629   9.820   0.848   2.877  0.2388  0.4823  0.6258
 5804SOL     OW28630   1.651   9.572   2.949 -0.3601  0.1363 -0.1743
 5804SOL    HW128631   1.585   9.540   3.018  0.0428  0.4053  0.3336
 5804SOL    HW228632   1.713   9.497   2.926 -1.0757 -0.2395 -0.9416
 5805SOL     OW28633   8.783   6.310   0.218 -0.7781  0.1058 -0.4047
 5805SOL    HW128634   8.788   6.300   0.119 -0.7693  0.3811 -0.4327
 5805SOL    HW228635   8.859   6.261   0.261 -0.2814  0.7196 -0.5837
 5806SOL     OW28636   2.495   9.582   1.470  0.1513 -0.6321 -0.0486
 5806SOL    HW128637   2.567   9.641   1.508 -0.6738 -0.3112  1.0391
 5806SOL    HW228638   2.445   9.632   1.400  1.0716 -0.9031 -0.9136
 5807SOL     OW28639   9.341   9.123   6.453 -0.7747 -0.2520 -0.1694
 5807SOL    HW128640   9.369   9.090   6.543  1.9385 -1.0821 -1.2525
 5807SOL    HW228641   9.269   9.064   6.416  0.3444 -1.8286  0.1353
 5808SOL     OW28642   9.641   2.527   0.575 -0.3319  0.1638  0.0026
 5808SOL    HW128643   9.638   2.438   0.620 -0.2735 -0.3401 -0.9650
 5808SOL    HW228644   9.563   2.535   0.513  0.0767  0.4815 -0.4761
 5809SOL     OW28645   9.055   3.680   3.774 -0.0769 -0.0324  0.0912
 5809SOL    HW128646   9.100   3.715   3.856 -0.6467 -0.0457  0.4050
 5809SOL    HW228647   8.956   3.690   3.782 -0.0898  0.9507 -1.0350
 5810SOL     OW28648   5.687   7.476   3.257  0.5245 -0.2478  0.2768
 5810SOL    HW128649   5.626   7.409   3.215  1.5272 -0.9041 -0.1365
 5810SOL    HW228650   5.644   7.512   3.340 -0.7551 -0.1444 -0.4180
 5811SOL     OW28651   3.925   8.631   6.091  0.4736  0.1637 -0.2314
 5811SOL    HW128652   3.893   8.678   6.009 -0.7594 -0.2777 -0.0142
 5811SOL    HW228653   3.924   8.532   6.076  1.4867  0.1327 -0.1240
 5812SOL     OW28654   2.703   1.266   0.086  0.4446  0.2710  0.3133
 5812SOL    HW128655   2.724   1.328   0.162 -1.7091  0.4291  0.8132
 5812SOL    HW228656   2.727   1.172   0.112  2.8513  0.7242 -0.1055
 5813SOL     OW28657   0.333   0.925   6.562 -0.3191 -0.7152  0.2233
 5813SOL    HW128658   0.408   0.939   6.627  1.3233 -1.5350 -1.4650
 5813SOL    HW228659   0.318   1.010   6.511  0.5745 -1.0341 -0.5819
 5814SOL     OW28660   8.381   3.169   4.233 -0.5943 -0.5360  0.0058
 5814SOL    HW128661   8.391   3.176   4.332  0.6323 -1.5488 -0.0334
 5814SOL    HW228662   8.334   3.084   4.210  0.6690 -1.1571 -0.3517
 5815SOL     OW28663   1.561   9.433   4.886 -0.1358 -0.3214  0.2406
 5815SOL    HW128664   1.605   9.523   4.879  0.0972 -0.5615 -1.5270
 5815SOL    HW228665   1.624   9.369   4.930  0.4881 -0.1493 -0.4020
 5816SOL     OW28666   6.890   8.541   3.172  0.0202  0.3044 -0.1767
 5816SOL    HW128667   6.808   8.546   3.114  0.0183 -0.4950 -0.2474
 5816SOL    HW228668   6.966   8.502   3.119  0.1684  0.0830  0.1945
 5817SOL     OW28669   3.400   4.141   1.978  0.5682 -0.5391 -0.0457
 5817SOL    HW128670   3.334   4.214   1.994  0.5804 -0.4307 -0.4891
 5817SOL    HW228671   3.478   4.176   1.927  0.3894 -0.9500 -0.6069
 5818SOL     OW28672   1.180   8.036   2.606 -0.0976  0.3337  0.2389
 5818SOL    HW128673   1.262   8.076   2.566 -0.7850  0.7483 -0.7759
 5818SOL    HW228674   1.156   8.085   2.690  0.0532  0.9321 -0.0638
 5819SOL     OW28675   4.746   7.906   3.176 -0.9356 -0.0144  0.4606
 5819SOL    HW128676   4.775   7.923   3.270 -0.6003 -0.9781  0.5362
 5819SOL    HW228677   4.673   7.838   3.175 -0.0079 -1.0111 -0.0666
 5820SOL     OW28678   2.882   4.384   6.631  0.1049  0.4715  0.0344
 5820SOL    HW128679   2.789   4.393   6.665  0.2392 -2.2843  1.2942
 5820SOL    HW228680   2.895   4.293   6.591  2.2423  0.8111 -0.1329
 5821SOL     OW28681   3.902   7.403   0.881  0.1219  0.7897  0.4703
 5821SOL    HW128682   3.883   7.305   0.867  2.1888  0.4307  0.0731
 5821SOL    HW228683   3.991   7.413   0.924 -0.2759  2.5054  0.9070
 5822SOL     OW28684   5.277   1.125   2.764  0.3051 -0.4857 -0.2616
 5822SOL    HW128685   5.305   1.033   2.737  1.7501 -0.4045  0.9322
 5822SOL    HW228686   5.250   1.126   2.860 -0.7525  0.1326 -0.5415
 5823SOL     OW28687   0.748   9.930   2.675  0.1482 -0.2438 -0.1842
 5823SOL    HW128688   0.790   9.901   2.761 -1.0688 -1.3759  0.0470
 5823SOL    HW228689   0.673   9.994   2.694  0.4754  0.2291 -0.4682
 5824SOL     OW28690   1.747   9.533   4.378  0.2065 -0.2002  0.1876
 5824SOL    HW128691   1.744   9.622   4.424  0.0869 -0.1977  0.1757
 5824SOL    HW228692   1.786   9.465   4.440  0.1964 -0.1624  0.2363
 5825SOL     OW28693   3.605   0.851   3.982 -0.1863 -0.3050 -0.2446
 5825SOL    HW128694   3.661   0.805   4.051  0.2334  1.1506  0.4033
 5825SOL    HW228695   3.600   0.949   4.003 -2.7527 -0.3618 -0.4269
 5826SOL     OW28696   2.197   3.355   4.756 -0.3341  0.7927  0.0521
 5826SOL    HW128697   2.131   3.321   4.823  1.4935 -0.3888  1.3207
 5826SOL    HW228698   2.290   3.342   4.792  0.5963  2.3200 -1.7208
 5827SOL     OW28699   6.408   9.937   0.839  0.4770 -0.5018  0.4942
 5827SOL    HW128700   6.410   9.839   0.822  0.6544 -0.3038 -0.7047
 5827SOL    HW228701   6.340   9.958   0.910 -0.3897 -1.3759 -0.0601
 5828SOL     OW28702   8.507   5.413   3.665 -0.1909 -0.0098  0.4260
 5828SOL    HW128703   8.440   5.423   3.592 -0.7083 -0.1542  0.8728
 5828SOL    HW228704   8.468   5.357   3.739  0.5961 -0.5067  0.4750
 5829SOL     OW28705   8.900   9.591   1.362  0.4438  0.0634  0.2351
 5829SOL    HW128706   8.958   9.631   1.292 -1.0658  2.6895  0.4363
 5829SOL    HW228707   8.954   9.578   1.446  1.1082  1.1719 -0.0064
 5830SOL     OW28708   0.049   8.526   4.858  0.4227  0.3279  0.6492
 5830SOL    HW128709  -0.022   8.464   4.824 -0.3674  0.8143  1.4048
 5830SOL    HW228710   0.101   8.480   4.931 -0.5428  0.7508  1.6172
 5831SOL     OW28711   7.853   3.264   4.178 -0.0171  0.9595 -0.2789
 5831SOL    HW128712   7.873   3.350   4.223  1.4198 -0.0241  1.0045
 5831SOL    HW228713   7.786   3.212   4.232 -0.4910  1.0347 -0.7843
 5832SOL     OW28714   9.600   7.914   3.055 -0.5742  0.4074  0.4759
 5832SOL    HW128715   9.647   7.993   3.094 -0.0225  0.1791  0.2792
 5832SOL    HW228716   9.538   7.944   2.983 -1.3474  0.7976  1.2964
 5833SOL     OW28717   0.050   7.878   1.694  0.2262 -0.2914 -0.0993
 5833SOL    HW128718   0.045   7.901   1.597 -0.6911 -1.9890 -0.4828
 5833SOL    HW228719   0.051   7.778   1.705 -0.2789 -0.1291  1.6505
 5834SOL     OW28720   5.183   1.805   5.227 -0.0028 -0.1043  0.6297
 5834SOL    HW128721   5.210   1.901   5.237 -0.3464 -0.2292  3.1531
 5834SOL    HW228722   5.098   1.789   5.277  0.6339 -1.9633  1.1529
 5835SOL     OW28723   7.870   5.142   1.486 -0.3201 -0.7484 -0.5087
 5835SOL    HW128724   7.937   5.192   1.431 -0.0858 -0.0431  0.4033
 5835SOL    HW228725   7.893   5.151   1.583 -0.5192 -2.2770 -0.2969
 5836SOL     OW28726   2.959   2.057   2.064 -0.2162 -0.0670  0.3536
 5836SOL    HW128727   2.908   2.116   2.125 -4.0163  0.8388 -3.4838
 5836SOL    HW228728   2.935   1.961   2.082 -0.4474  0.1145  1.0065
 5837SOL     OW28729   7.586   0.886   5.571 -0.8424  0.1107 -0.2693
 5837SOL    HW128730   7.579   0.789   5.596 -0.2105 -0.0093 -0.5325
 5837SOL    HW228731   7.518   0.939   5.622 -1.5975 -0.5574 -0.5776
 5838SOL     OW28732   9.832   1.287   4.263 -0.0979 -0.6256 -0.5288
 5838SOL    HW128733   9.860   1.276   4.167  3.0090 -1.1699  0.3846
 5838SOL    HW228734   9.864   1.209   4.316 -0.1585  0.5684  1.3169
 5839SOL     OW28735   9.660   8.423   6.014  0.1519  0.2034 -0.4206
 5839SOL    HW128736   9.723   8.350   6.039 -0.8310 -0.5665 -0.1269
 5839SOL    HW228737   9.578   8.383   5.973 -0.5300  1.1303  0.0109
 5840SOL     OW28738   1.164   3.187   2.438 -0.4129  0.2471  0.3435
 5840SOL    HW128739   1.211   3.258   2.385  0.1112 -0.3136  0.0514
 5840SOL    HW228740   1.227   3.111   2.455 -0.9619 -0.1308  0.6859
 5841SOL     OW28741   7.989   6.252   4.547 -0.1825  0.9661  0.4175
 5841SOL    HW128742   8.074   6.303   4.532  0.2222  0.3340  0.5254
 5841SOL    HW228743   7.924   6.271   4.474  0.4236  0.6910 -0.1989
 5842SOL     OW28744   8.100   5.894   2.070  0.3343  0.1505 -0.0063
 5842SOL    HW128745   8.038   5.815   2.065 -0.0596  0.4802 -0.3933
 5842SOL    HW228746   8.148   5.904   1.983 -0.2285  0.8299 -0.2397
 5843SOL     OW28747   1.707   6.297   3.876  0.0139  0.1594  0.1521
 5843SOL    HW128748   1.744   6.218   3.925  0.0063  1.8408  2.9374
 5843SOL    HW228749   1.781   6.345   3.830  0.3289 -0.2485  0.2277
 5844SOL     OW28750   7.244   0.169   1.441  0.0685  0.2592  0.6208
 5844SOL    HW128751   7.282   0.077   1.453 -4.1370 -1.5626  0.6792
 5844SOL    HW228752   7.244   0.192   1.343 -0.6360 -0.6322  0.4001
 5845SOL     OW28753   5.986   1.722   3.933  0.7329 -0.1742 -0.0683
 5845SOL    HW128754   6.040   1.646   3.898  0.2506  0.3241 -1.9043
 5845SOL    HW228755   6.029   1.808   3.908  0.3096  0.1947  0.4618
 5846SOL     OW28756   2.513   8.295   1.719  0.0146 -0.2175  0.1524
 5846SOL    HW128757   2.598   8.344   1.739  0.7750 -0.1740 -2.8751
 5846SOL    HW228758   2.532   8.197   1.708 -0.6014 -0.4408  1.0242
 5847SOL     OW28759   9.965   1.392   6.546  0.2241  0.3278  0.6180
 5847SOL    HW128760  10.030   1.391   6.470  0.2167 -0.6814  0.6209
 5847SOL    HW228761   9.955   1.485   6.580 -1.5343  1.2019 -2.1206
 5848SOL     OW28762   5.250   9.340   4.547  0.4251 -0.4842  0.0117
 5848SOL    HW128763   5.211   9.276   4.481  0.8151  0.3127 -1.0211
 5848SOL    HW228764   5.177   9.393   4.590  0.2583  0.1383 -1.0042
 5849SOL     OW28765   1.694   6.868   0.629 -0.0701  0.1171  0.2410
 5849SOL    HW128766   1.660   6.939   0.567  1.3868  0.2099 -0.4689
 5849SOL    HW228767   1.785   6.893   0.662  0.0432 -0.9471  0.7588
 5850SOL     OW28768   7.318   2.648   2.094 -0.0718  0.5153 -0.2226
 5850SOL    HW128769   7.352   2.648   2.000  0.2018  0.7794 -0.1223
 5850SOL    HW228770   7.383   2.694   2.154  0.0064 -0.1137  0.1888
 5851SOL     OW28771   4.557   8.343   4.723  0.3748  0.0833  0.0689
 5851SOL    HW128772   4.511   8.324   4.809  1.0877 -2.0310  0.0058
 5851SOL    HW228773   4.495   8.324   4.647 -0.2826  2.0330  0.1093
 5852SOL     OW28774   8.931   1.232   1.273 -0.3425  0.5094  0.2344
 5852SOL    HW128775   8.982   1.305   1.319 -0.5805  2.9182 -3.0807
 5852SOL    HW228776   8.840   1.265   1.250 -0.6576 -1.0432 -0.7898
 5853SOL     OW28777   2.990   0.360   2.706  0.1720  0.2226  0.7481
 5853SOL    HW128778   2.968   0.320   2.794 -0.4501 -0.0832  0.4553
 5853SOL    HW228779   3.072   0.317   2.669 -2.2188 -3.0551 -1.0120
 5854SOL     OW28780   3.902   0.084   4.905  0.0554  0.2452 -0.5587
 5854SOL    HW128781   3.886   0.031   4.822  0.3309  0.5012 -0.7785
 5854SOL    HW228782   3.999   0.106   4.912  0.0094  0.3476 -0.2462
 5855SOL     OW28783   9.196   4.854   2.476  0.1094  0.4434  0.2557
 5855SOL    HW128784   9.273   4.915   2.459  1.7087 -1.5347  0.3054
 5855SOL    HW228785   9.135   4.896   2.544 -0.3732  3.2787 -1.8145
 5856SOL     OW28786   3.603   2.654   4.988  0.2511  0.4135  0.0428
 5856SOL    HW128787   3.654   2.737   5.011 -0.1740  0.0663  2.2849
 5856SOL    HW228788   3.521   2.678   4.935  0.6672  1.3090 -0.1945
 5857SOL     OW28789   4.044   3.101   5.716 -0.0899 -0.4765  0.0313
 5857SOL    HW128790   4.135   3.064   5.700 -0.1367 -0.3536 -0.5339
 5857SOL    HW228791   4.038   3.193   5.677 -1.1739 -1.3841 -2.0076
 5858SOL     OW28792   8.184   0.200   5.663 -0.0813  0.3368 -0.1257
 5858SOL    HW128793   8.225   0.154   5.742  0.6648 -1.3120 -1.4475
 5858SOL    HW228794   8.086   0.180   5.660  0.4131 -2.0921 -1.2794
 5859SOL     OW28795   2.165   4.395   3.794  0.3723  0.7319  0.0244
 5859SOL    HW128796   2.195   4.391   3.890  2.1931 -2.8347 -0.6033
 5859SOL    HW228797   2.067   4.376   3.789  1.0091 -3.2839  0.9459
 5860SOL     OW28798   8.100   0.778   3.060 -0.2530 -0.4856 -0.1341
 5860SOL    HW128799   8.029   0.838   3.024  0.0024 -1.3501 -2.1819
 5860SOL    HW228800   8.079   0.684   3.035  0.9691 -0.8871  0.3282
 5861SOL     OW28801   4.388   8.646   2.707  0.3973  0.1140 -0.2224
 5861SOL    HW128802   4.303   8.698   2.705 -0.5487 -1.3286  1.0403
 5861SOL    HW228803   4.456   8.690   2.649 -0.8364  1.9330 -0.3124
 5862SOL     OW28804   3.853   1.642   2.124  0.1010 -0.2667 -0.1495
 5862SOL    HW128805   3.951   1.636   2.107  0.1119  0.4282 -0.3629
 5862SOL    HW228806   3.834   1.725   2.177 -0.3748 -0.3701 -0.1588
 5863SOL     OW28807   2.968   2.303   0.569  0.1168  0.2786  0.5750
 5863SOL    HW128808   2.897   2.256   0.517 -0.3469  1.2040  0.3497
 5863SOL    HW228809   3.058   2.282   0.531  0.1846 -2.6459  2.2023
 5864SOL     OW28810   7.252   4.368   5.847  0.0606 -0.6324  0.5164
 5864SOL    HW128811   7.282   4.457   5.882 -3.1192  0.9216 -0.5262
 5864SOL    HW228812   7.206   4.317   5.919 -0.9283 -0.0683  0.2944
 5865SOL     OW28813   0.698   0.598   3.558 -0.8526 -0.0041  0.0863
 5865SOL    HW128814   0.661   0.662   3.491 -1.0727 -0.9909 -0.7511
 5865SOL    HW228815   0.662   0.506   3.539 -0.3032 -0.4297  1.0842
 5866SOL     OW28816   9.965   0.740   4.489  0.0069 -0.3807  0.7758
 5866SOL    HW128817  10.048   0.792   4.467 -1.2145  1.3369  0.0772
 5866SOL    HW228818   9.986   0.643   4.493  2.0970  0.0545  0.8260
 5867SOL     OW28819   2.021   1.585   5.997 -0.3814  0.3843  0.0525
 5867SOL    HW128820   2.047   1.498   5.955 -0.5796  0.5979 -0.5168
 5867SOL    HW228821   1.982   1.645   5.928 -1.0691  0.5955  0.6149
 5868SOL     OW28822   5.052   0.138   0.947  0.1446 -0.1072  0.1252
 5868SOL    HW128823   5.145   0.168   0.965  0.2333  0.6576 -1.5179
 5868SOL    HW228824   4.997   0.148   1.030  1.5066 -0.5481  1.0976
 5869SOL     OW28825   1.182   5.199   3.311 -0.5429  0.2964  0.0631
 5869SOL    HW128826   1.127   5.271   3.269 -0.3221  0.3785 -0.0908
 5869SOL    HW228827   1.205   5.130   3.242  0.8164  1.0329 -0.2519
 5870SOL     OW28828   8.716   3.461   1.543 -0.0605  0.1541  0.1220
 5870SOL    HW128829   8.645   3.391   1.548  0.9014 -0.9405 -0.9386
 5870SOL    HW228830   8.773   3.456   1.625  0.6337 -1.0309 -0.4125
 5871SOL     OW28831   1.459   6.756   0.727  0.4409  0.4368  0.2103
 5871SOL    HW128832   1.383   6.783   0.669 -0.1705  1.7395  1.5922
 5871SOL    HW228833   1.545   6.791   0.688  0.1917  0.1283 -0.6206
 5872SOL     OW28834   2.845   1.082   3.662  0.3819  0.3313  0.5929
 5872SOL    HW128835   2.817   1.161   3.607  1.5975  0.6271  0.3791
 5872SOL    HW228836   2.945   1.081   3.670  0.5942 -2.5575 -1.5193
 5873SOL     OW28837   3.931   4.392   2.144 -0.1056 -0.2210 -0.5561
 5873SOL    HW128838   3.891   4.483   2.144  0.9995  0.2845 -2.5489
 5873SOL    HW228839   3.884   4.335   2.213  0.1111  2.2062  1.6738
 5874SOL     OW28840   0.782   3.993   1.130 -0.0970 -0.3342  0.3872
 5874SOL    HW128841   0.859   4.056   1.142 -0.1094 -0.5804  1.9249
 5874SOL    HW228842   0.718   4.005   1.207  0.1979 -2.6164  1.0098
 5875SOL     OW28843   8.508   0.640   5.736  0.1226 -0.1208 -0.0081
 5875SOL    HW128844   8.452   0.593   5.804 -0.2245 -0.6270 -0.6365
 5875SOL    HW228845   8.592   0.588   5.720  0.1764 -0.0330 -0.0066
 5876SOL     OW28846   6.445   1.718   1.542  0.0254  0.3337  0.7254
 5876SOL    HW128847   6.400   1.781   1.480 -1.3648 -1.7021 -0.3749
 5876SOL    HW228848   6.454   1.761   1.632 -0.5139  2.2379 -0.1041
 5877SOL     OW28849   1.575   6.814   3.161 -0.3044 -0.2053 -0.4251
 5877SOL    HW128850   1.499   6.872   3.188 -0.6783 -1.4001  1.1724
 5877SOL    HW228851   1.620   6.852   3.080 -2.2431  0.7951 -1.0379
 5878SOL     OW28852   8.341   0.709   4.417  0.5083  0.4177  0.1611
 5878SOL    HW128853   8.370   0.614   4.403 -0.1135  0.4390 -1.3191
 5878SOL    HW228854   8.245   0.718   4.391 -0.2686  0.8227  2.9944
 5879SOL     OW28855   7.723   0.297   2.564  0.4240 -0.4769 -0.2067
 5879SOL    HW128856   7.789   0.282   2.638  1.6178  0.8028 -0.9812
 5879SOL    HW228857   7.729   0.223   2.498  0.6486 -0.6804  0.0421
 5880SOL     OW28858   4.017   2.057   5.944  0.2961  0.0626 -0.1363
 5880SOL    HW128859   3.990   2.067   5.848  0.0578  1.0828  0.0297
 5880SOL    HW228860   3.956   2.111   6.001  2.1480  1.7383  0.3171
 5881SOL     OW28861   3.136   8.972   4.432 -0.0119 -0.2880  0.4052
 5881SOL    HW128862   3.224   8.936   4.401 -0.5055 -1.3417  0.2034
 5881SOL    HW228863   3.067   8.954   4.362  0.0274  2.4375 -0.3916
 5882SOL     OW28864   7.636   4.557   1.113 -0.0791 -0.0462  0.4252
 5882SOL    HW128865   7.614   4.614   1.193 -0.2906  1.5273 -0.7246
 5882SOL    HW228866   7.577   4.477   1.112 -0.7458  0.4216  1.3251
 5883SOL     OW28867   3.302   3.879   5.261 -0.8348 -0.9164  0.2549
 5883SOL    HW128868   3.355   3.929   5.193  0.1450 -0.4198  1.3778
 5883SOL    HW228869   3.243   3.943   5.311 -0.0907 -0.9701  1.2166
 5884SOL     OW28870   0.100   3.085   0.590  0.6363  0.3511 -0.5970
 5884SOL    HW128871   0.141   3.099   0.681  1.0406  1.3492 -0.9257
 5884SOL    HW228872   0.029   3.015   0.596  1.5237 -0.5013  0.2430
 5885SOL     OW28873   1.875   7.152   3.496  0.2552 -0.4748  0.5435
 5885SOL    HW128874   1.945   7.081   3.505  1.0325  0.3827  1.4163
 5885SOL    HW228875   1.899   7.214   3.422 -0.3658 -1.0409 -0.1437
 5886SOL     OW28876   7.250   1.700   4.478  0.3855 -0.3119 -0.4328
 5886SOL    HW128877   7.206   1.718   4.566  1.1702 -0.4143 -0.0090
 5886SOL    HW228878   7.181   1.689   4.407 -0.2071  1.5190 -0.1637
 5887SOL     OW28879   1.177   0.048   4.665 -0.6851  0.4298  0.1974
 5887SOL    HW128880   1.116   0.011   4.595  0.1962 -0.4598 -0.1140
 5887SOL    HW228881   1.191  -0.019   4.737  2.5137 -0.6801 -1.3699
 5888SOL     OW28882   0.420   5.199   4.850 -0.1216 -0.0530 -0.0361
 5888SOL    HW128883   0.443   5.294   4.870 -0.8049  0.0077  0.5000
 5888SOL    HW228884   0.390   5.191   4.755  0.7966  0.0998 -0.3481
 5889SOL     OW28885   9.591   7.793   6.322 -0.3398 -0.0510  0.3498
 5889SOL    HW128886   9.653   7.715   6.317  2.5505  2.0762  1.9126
 5889SOL    HW228887   9.519   7.774   6.389  0.4033 -1.3466  0.7995
 5890SOL     OW28888   8.629   4.693   5.298 -0.0080  0.2543 -0.8541
 5890SOL    HW128889   8.723   4.683   5.266 -0.3742  0.9791 -2.1867
 5890SOL    HW228890   8.566   4.686   5.220 -0.8780  2.6254 -0.3941
 5891SOL     OW28891   1.688   7.339   2.617 -0.0897  0.2313 -0.7175
 5891SOL    HW128892   1.727   7.346   2.709  0.7542  1.7140 -1.1619
 5891SOL    HW228893   1.597   7.380   2.616  0.5948  1.7668 -0.9213
 5892SOL     OW28894   8.932   8.565   1.756  0.0705  0.0673  0.1961
 5892SOL    HW128895   8.888   8.557   1.667  1.3370  1.0558 -0.5436
 5892SOL    HW228896   8.894   8.643   1.806  0.5612  0.5643 -0.2008
 5893SOL     OW28897   2.766   3.657   5.849  0.8914 -0.1505  0.3019
 5893SOL    HW128898   2.746   3.594   5.773  0.7995  0.5302 -0.2412
 5893SOL    HW228899   2.714   3.741   5.837  2.3518  0.7334  0.0844
 5894SOL     OW28900   4.234   6.902   2.099  0.4135 -0.2483  0.2580
 5894SOL    HW128901   4.145   6.924   2.139  1.3925  1.8677  1.3018
 5894SOL    HW228902   4.293   6.862   2.169  0.5322 -1.0335 -0.2752
 5895SOL     OW28903   8.803   6.327   6.696  0.3178  0.1702 -0.2789
 5895SOL    HW128904   8.734   6.399   6.695  0.9564  0.7852 -0.3174
 5895SOL    HW228905   8.792   6.269   6.614 -1.6930 -1.2340  0.9321
 5896SOL     OW28906   9.296   8.691   1.223 -0.3910 -0.0922 -0.1558
 5896SOL    HW128907   9.292   8.645   1.312  0.0750 -0.0857 -0.1295
 5896SOL    HW228908   9.347   8.777   1.233 -1.6186  0.6360 -0.1149
 5897SOL     OW28909   2.817   2.032   3.336 -0.1692  0.1278 -0.5805
 5897SOL    HW128910   2.790   2.112   3.284 -0.0498  1.3628  1.2018
 5897SOL    HW228911   2.750   2.015   3.408  1.0596  0.1027  0.5833
 5898SOL     OW28912   8.319   3.080   1.526 -0.4882  0.3574  0.4159
 5898SOL    HW128913   8.229   3.041   1.545 -0.6711  0.6468  0.1398
 5898SOL    HW228914   8.368   3.023   1.460 -1.0766  1.0370 -0.6057
 5899SOL     OW28915   5.962   2.712   3.566  0.2195 -0.6656  0.7547
 5899SOL    HW128916   5.891   2.670   3.508  0.5207 -1.0249  0.6471
 5899SOL    HW228917   6.018   2.773   3.511 -0.1235 -0.2298  0.8801
 5900SOL     OW28918   5.645   9.086   4.215  0.3930 -0.6764  0.0512
 5900SOL    HW128919   5.548   9.109   4.226  0.2247 -1.5311  0.4188
 5900SOL    HW228920   5.669   9.086   4.118  0.6012  1.8063  0.0505
 5901SOL     OW28921   8.724   4.748   1.984  0.1686 -0.4761 -0.2541
 5901SOL    HW128922   8.649   4.742   2.050 -0.7956  2.5253 -1.0374
 5901SOL    HW228923   8.699   4.700   1.900 -0.1821 -0.9418  0.1166
 5902SOL     OW28924   8.464   9.320   2.747  0.0537  0.1410  0.1866
 5902SOL    HW128925   8.545   9.272   2.713  0.4540  0.6674  0.3939
 5902SOL    HW228926   8.454   9.304   2.845 -1.6106 -2.1218 -0.3177
 5903SOL     OW28927   0.978   9.198   6.646 -0.3683  0.0390 -0.3723
 5903SOL    HW128928   1.020   9.287   6.665 -1.4039 -0.1125  3.0171
 5903SOL    HW228929   1.042   9.125   6.671 -0.2260 -0.1988 -1.3942
 5904SOL     OW28930   5.146   0.531   3.141  0.1454  0.3504 -0.5528
 5904SOL    HW128931   5.053   0.510   3.110  0.2136  0.0924 -0.5903
 5904SOL    HW228932   5.142   0.570   3.233  0.0869 -0.9210 -0.0003
 5905SOL     OW28933   2.227   7.993   3.041 -0.3576 -0.2178 -0.2159
 5905SOL    HW128934   2.149   7.986   3.103 -0.3908 -0.1337 -0.2488
 5905SOL    HW228935   2.307   7.951   3.084 -0.0880  0.8694  0.3505
 5906SOL     OW28936   3.059   4.424   3.047  0.4664 -0.1705 -0.0378
 5906SOL    HW128937   3.130   4.362   3.013  2.5572  1.4386  1.2751
 5906SOL    HW228938   3.057   4.506   2.989 -2.7598 -1.6829 -2.1931
 5907SOL     OW28939   8.573   7.787   6.609 -0.0194 -0.0886 -0.2585
 5907SOL    HW128940   8.521   7.797   6.694 -0.0740 -2.9740  0.1202
 5907SOL    HW228941   8.510   7.783   6.531 -0.2896 -1.6421  0.0121
 5908SOL     OW28942   7.954   3.654   1.099  0.6906 -1.3001  0.6197
 5908SOL    HW128943   8.045   3.663   1.139  0.6250 -1.9282  0.9100
 5908SOL    HW228944   7.896   3.600   1.160 -0.4552  0.7180  1.3875
 5909SOL     OW28945   0.096   9.397   1.223 -0.6267 -0.5333 -0.0117
 5909SOL    HW128946   0.067   9.437   1.136  1.5767  1.0540 -0.0579
 5909SOL    HW228947   0.144   9.466   1.277 -0.0668 -2.1034  1.5455
 5910SOL     OW28948   0.533   2.601   5.302 -0.2638  0.1626  0.6310
 5910SOL    HW128949   0.605   2.543   5.263 -1.0623  0.4625 -1.3583
 5910SOL    HW228950   0.574   2.684   5.340  0.6877 -0.8307  1.8319
 5911SOL     OW28951   9.172   4.462   0.744 -0.2965 -0.0773 -0.3242
 5911SOL    HW128952   9.211   4.424   0.660  1.7985  0.4267  0.3984
 5911SOL    HW228953   9.174   4.392   0.816  0.7650  0.4384  0.1572
 5912SOL     OW28954   7.551   8.010   5.230 -0.2186  0.4645 -0.7007
 5912SOL    HW128955   7.613   7.950   5.181 -2.0676 -1.5039 -0.7156
 5912SOL    HW228956   7.556   7.992   5.328  0.2626  1.2977 -0.5680
 5913SOL     OW28957   0.207   4.021   2.459 -0.3723 -0.1318  0.0134
 5913SOL    HW128958   0.267   4.068   2.524 -0.1539 -0.9974  0.4527
 5913SOL    HW228959   0.112   4.045   2.477 -0.2713  0.0514  0.3055
 5914SOL     OW28960   0.520   0.926   5.005  0.3624 -0.2997 -0.3069
 5914SOL    HW128961   0.525   1.026   5.004  0.3567 -0.2267  2.4866
 5914SOL    HW228962   0.464   0.894   4.928 -0.9785  1.9417 -0.2973
 5915SOL     OW28963   1.281   0.851   0.055  0.0485 -0.3059 -1.2340
 5915SOL    HW128964   1.373   0.874   0.025  0.1765 -0.3487 -0.8712
 5915SOL    HW228965   1.281   0.762   0.100 -0.1295 -0.2013 -1.0245
 5916SOL     OW28966   4.476   8.371   3.886 -0.1635  0.3921 -0.0511
 5916SOL    HW128967   4.558   8.314   3.897 -0.2360 -0.0433 -1.6824
 5916SOL    HW228968   4.426   8.342   3.805 -0.3909  2.5902 -0.7176
 5917SOL     OW28969   0.144   5.633   5.224  0.8872 -0.0910  0.3029
 5917SOL    HW128970   0.060   5.670   5.185  1.6405 -0.3793 -1.6013
 5917SOL    HW228971   0.126   5.541   5.259  0.5310 -0.3164 -0.4769
 5918SOL     OW28972   4.080   1.542   6.588 -0.8136  0.6384  0.3381
 5918SOL    HW128973   4.130   1.539   6.501  0.7047 -1.6475  1.2348
 5918SOL    HW228974   4.004   1.477   6.585  0.5762 -1.0750  1.4675
 5919SOL     OW28975   0.530   3.533   5.069  0.7305 -0.3845  0.4417
 5919SOL    HW128976   0.484   3.447   5.048 -0.3764  0.4885 -0.7918
 5919SOL    HW228977   0.514   3.556   5.166 -0.5155 -0.6507  0.3062
 5920SOL     OW28978   6.399   0.481   2.614 -0.0735 -0.1811  0.4415
 5920SOL    HW128979   6.350   0.565   2.636 -0.6495 -0.1668 -0.8367
 5920SOL    HW228980   6.486   0.505   2.569 -0.1273 -0.2552  0.2957
 5921SOL     OW28981   1.495   1.034   3.966 -0.5696 -0.8592  0.0530
 5921SOL    HW128982   1.444   0.979   3.900 -0.9600 -0.9092  0.3932
 5921SOL    HW228983   1.431   1.083   4.025 -0.2832  1.8748 -1.7786
 5922SOL     OW28984   8.904   2.940   6.549 -0.1189 -0.3008 -0.1398
 5922SOL    HW128985   8.864   3.016   6.499 -0.6173  0.0028  0.7067
 5922SOL    HW228986   8.992   2.915   6.508 -0.6839 -0.2871 -1.3685
 5923SOL     OW28987   2.589   5.365   3.146  0.4242  0.2852  0.2832
 5923SOL    HW128988   2.569   5.365   3.048  0.5876  0.7969  0.2456
 5923SOL    HW228989   2.632   5.279   3.172 -1.7269 -0.8055  0.3481
 5924SOL     OW28990   8.216   9.485   1.951 -0.2892  0.4455  0.0938
 5924SOL    HW128991   8.239   9.512   1.858 -1.8714 -0.0233 -0.4502
 5924SOL    HW228992   8.270   9.538   2.016  0.3580  1.2320 -1.0808
 5925SOL     OW28993   0.131   4.717   6.295  0.6490  0.2977 -0.6713
 5925SOL    HW128994   0.104   4.653   6.223 -0.2197  0.8034 -0.8044
 5925SOL    HW228995   0.055   4.729   6.359  1.5060 -0.3666  0.5011
 5926SOL     OW28996   2.399   0.890   2.388 -0.1975  0.4482 -0.5256
 5926SOL    HW128997   2.366   0.851   2.474  0.3735  0.7388 -0.1738
 5926SOL    HW228998   2.393   0.990   2.391  1.0021  0.5253 -0.3312
 5927SOL     OW28999   0.240   3.248   2.075  0.4109 -0.3543 -0.0491
 5927SOL    HW129000   0.288   3.257   2.162 -0.2527 -2.0063  0.5147
 5927SOL    HW229001   0.196   3.335   2.053  2.4635  0.7581  0.1152
 5928SOL     OW29002   3.170   2.087   5.477 -0.5782 -0.1636 -0.2716
 5928SOL    HW129003   3.157   2.098   5.379 -0.1318 -1.0285 -0.4291
 5928SOL    HW229004   3.080   2.079   5.521 -0.7434 -1.3079 -0.7946
 5929SOL     OW29005   3.724   8.263   1.627  0.4755 -0.1346 -0.2368
 5929SOL    HW129006   3.653   8.333   1.626  1.6450  1.0662 -1.1880
 5929SOL    HW229007   3.706   8.196   1.555  0.0878 -0.0747 -0.1975
 5930SOL     OW29008   3.946   9.271   3.202 -0.3981  0.6682 -0.8083
 5930SOL    HW129009   3.992   9.229   3.280 -0.6051 -0.3541 -1.2279
 5930SOL    HW229010   3.880   9.338   3.234 -1.0325 -0.2937 -0.0664
 5931SOL     OW29011   9.473   1.940   4.306 -0.5046  0.1585  0.4515
 5931SOL    HW129012   9.479   1.944   4.406  1.2259  0.2926  0.3709
 5931SOL    HW229013   9.408   1.870   4.279 -0.1977 -0.6162  1.6796
 5932SOL     OW29014   9.263   9.906   1.001  0.2107 -0.7496  0.1071
 5932SOL    HW129015   9.254   9.935   0.906  0.2797  0.2937  0.4229
 5932SOL    HW229016   9.173   9.905   1.045  0.3125 -0.2584  0.3225
 5933SOL     OW29017   2.062   0.999   4.655 -0.2070  0.4976  0.0773
 5933SOL    HW129018   2.154   0.965   4.671  0.2449  1.6759  0.0765
 5933SOL    HW229019   2.057   1.096   4.682 -0.7253  1.1846 -2.3418
 5934SOL     OW29020   9.735   7.390   0.640  0.2321  0.6960  0.2617
 5934SOL    HW129021   9.683   7.351   0.715  0.2033 -1.1716 -0.7104
 5934SOL    HW229022   9.832   7.394   0.664  0.1597  0.5474  0.5745
 5935SOL     OW29023   8.602   9.755   2.011  0.1253 -0.3203  0.2046
 5935SOL    HW129024   8.614   9.825   1.941  0.2782  0.5824  1.1122
 5935SOL    HW229025   8.663   9.775   2.088  0.9432 -2.0430  0.0393
 5936SOL     OW29026   9.088   5.059   0.049 -0.4936 -0.1371 -0.6186
 5936SOL    HW129027   9.173   5.062   0.103  0.3416 -0.7891 -1.8743
 5936SOL    HW229028   9.086   5.136  -0.015 -1.4309  0.5706  0.2413
 5937SOL     OW29029   0.367   6.368   5.065  0.0294  0.0272  0.2325
 5937SOL    HW129030   0.413   6.428   4.998  1.6654  0.0045  1.2975
 5937SOL    HW229031   0.300   6.422   5.116 -1.0385  0.1104 -1.2241
 5938SOL     OW29032   1.168   1.206   6.313 -0.0106 -0.2863 -0.1696
 5938SOL    HW129033   1.083   1.216   6.261  0.1487  0.4301 -0.2927
 5938SOL    HW229034   1.202   1.113   6.303 -0.3848 -0.3669 -0.7298
 5939SOL     OW29035   0.633   0.362   6.114 -0.2269  0.6283 -0.5794
 5939SOL    HW129036   0.641   0.420   6.195  2.1906 -0.5758  0.0817
 5939SOL    HW229037   0.723   0.348   6.073 -1.2606  0.2859 -2.8520
 5940SOL     OW29038   0.687   2.932   2.853 -0.1040  0.3459  0.2231
 5940SOL    HW129039   0.761   2.878   2.813 -2.1640 -0.5305 -2.5604
 5940SOL    HW229040   0.725   3.015   2.894  2.7114 -1.5004  1.4509
 5941SOL     OW29041   0.163   5.985   1.104 -0.3103  0.2744 -0.2805
 5941SOL    HW129042   0.098   5.917   1.136 -0.1489  0.2287 -0.0449
 5941SOL    HW229043   0.114   6.063   1.066 -0.4934 -0.0573 -0.7296
 5942SOL     OW29044   1.692   9.501   6.308  0.7417 -0.7592 -0.0096
 5942SOL    HW129045   1.610   9.552   6.336  1.2892  0.7663 -1.1426
 5942SOL    HW229046   1.669   9.437   6.236  0.7656  0.5315 -1.1791
 5943SOL     OW29047   9.826   5.482   4.035 -0.4458  0.6671 -0.2923
 5943SOL    HW129048   9.854   5.399   3.986 -0.1807  1.3785 -1.3739
 5943SOL    HW229049   9.904   5.543   4.044 -0.5981  0.7334  0.6664
 5944SOL     OW29050   5.118   5.853   0.843  0.1642 -0.2173  0.0917
 5944SOL    HW129051   5.072   5.923   0.898 -1.2652 -2.0039  1.2423
 5944SOL    HW229052   5.212   5.882   0.824 -0.1357  1.6114  1.2636
 5945SOL     OW29053   9.004   4.590   1.859 -0.2127  0.2268 -0.5364
 5945SOL    HW129054   8.943   4.510   1.859  1.9538 -1.4784  0.5166
 5945SOL    HW229055   8.978   4.652   1.932 -0.2566 -0.8267  0.3480
 5946SOL     OW29056   5.811   1.702   2.538 -0.2350  0.7566 -0.5158
 5946SOL    HW129057   5.797   1.607   2.565  0.5747  0.3608 -1.4582
 5946SOL    HW229058   5.895   1.709   2.484  0.7675  2.3150  1.1792
 5947SOL     OW29059   3.743   9.347   3.611 -0.4052  0.0554  0.1150
 5947SOL    HW129060   3.649   9.376   3.631 -0.3908  1.3427 -1.5405
 5947SOL    HW229061   3.775   9.394   3.529  1.3961 -1.0253  0.1791
 5948SOL     OW29062   2.745   6.393   2.610 -0.2304  0.0632  0.3672
 5948SOL    HW129063   2.748   6.460   2.684  1.4638 -0.5218  0.8479
 5948SOL    HW229064   2.742   6.441   2.522 -0.2825  0.7655  0.7501
 5949SOL     OW29065   9.876   7.787   5.424  0.0818  0.2104 -1.1287
 5949SOL    HW129066   9.916   7.785   5.332  1.4859  0.2554 -0.5425
 5949SOL    HW229067   9.866   7.881   5.454  1.9861  0.1806 -0.2769
 5950SOL     OW29068   8.032   9.898   0.009 -0.1628  1.0862  0.0528
 5950SOL    HW129069   8.044   9.986  -0.037 -0.0808  1.0623  0.0302
 5950SOL    HW229070   8.089   9.895   0.091  1.3223  0.3153 -0.9859
 5951SOL     OW29071   9.704   0.988   6.693 -0.4057  0.7294 -0.1587
 5951SOL    HW129072   9.768   1.056   6.728  0.4067 -1.1705  2.1246
 5951SOL    HW229073   9.618   0.995   6.743  0.2042 -0.9255  1.1337
 5952SOL     OW29074   0.540   4.184   2.038 -0.2728  0.6223  0.2983
 5952SOL    HW129075   0.464   4.213   2.095 -0.4955 -1.0248  0.8874
 5952SOL    HW229076   0.527   4.218   1.945 -1.5245  0.6874  0.4886
 5953SOL     OW29077   0.830   5.748   3.632  0.0424 -0.4241  0.6404
 5953SOL    HW129078   0.762   5.677   3.648 -1.5317  0.9616  0.1837
 5953SOL    HW229079   0.813   5.826   3.691  1.4617 -0.1946  0.7790
 5954SOL     OW29080   0.646   2.991   1.199 -0.0949 -0.5855  0.7636
 5954SOL    HW129081   0.557   2.948   1.214 -0.1248 -0.4358  1.0070
 5954SOL    HW229082   0.645   3.085   1.232  0.1997 -0.6301  0.9047
 5955SOL     OW29083   4.758   1.925   3.229  0.3004 -0.4830  0.0546
 5955SOL    HW129084   4.821   1.869   3.176 -1.9656 -2.1341 -0.9489
 5955SOL    HW229085   4.790   1.930   3.324  2.0448 -1.0894 -0.4871
 5956SOL     OW29086   7.218   0.420   2.497  0.3249 -0.0162 -0.0714
 5956SOL    HW129087   7.300   0.429   2.441  1.5414 -0.7965  1.5356
 5956SOL    HW229088   7.227   0.340   2.557 -1.1929  0.4423  0.8098
 5957SOL     OW29089   9.235   7.543   2.521  0.1601  0.0830 -0.3776
 5957SOL    HW129090   9.213   7.478   2.449  0.9927 -1.2647  0.5438
 5957SOL    HW229091   9.233   7.636   2.485  1.9697 -0.6462 -2.4956
 5958SOL     OW29092   0.273   4.929   6.026  0.3424 -0.0308  0.4234
 5958SOL    HW129093   0.256   4.976   6.112 -0.2555  1.8184 -0.6707
 5958SOL    HW229094   0.371   4.927   6.007  0.5952 -1.6391  1.7747
 5959SOL     OW29095   5.036   9.730   1.286  0.1170  0.1253  0.0434
 5959SOL    HW129096   5.054   9.636   1.257  1.9528  1.0711 -2.0213
 5959SOL    HW229097   4.978   9.775   1.219 -0.2332  0.6550  0.6994
 5960SOL     OW29098   9.983   6.546   4.890  0.2370  0.2625 -0.1580
 5960SOL    HW129099   9.914   6.479   4.919 -1.8693  3.8412  3.5119
 5960SOL    HW229100   9.952   6.590   4.806 -1.1041  0.5820  0.4928
 5961SOL     OW29101   8.824   5.517   5.050  0.8281 -0.6787  0.5235
 5961SOL    HW129102   8.782   5.605   5.072 -1.7284 -0.8716 -3.2037
 5961SOL    HW229103   8.801   5.451   5.121 -0.3893  0.7207  1.4682
 5962SOL     OW29104   9.429   0.083   4.231 -0.0128 -0.6840  0.0242
 5962SOL    HW129105   9.342   0.070   4.184 -0.1511 -0.8235  0.3136
 5962SOL    HW229106   9.413   0.137   4.314  0.7691  2.7326 -1.9557
 5963SOL     OW29107   2.755   4.843   4.009 -0.2505 -0.7768  0.4378
 5963SOL    HW129108   2.808   4.788   4.073  0.5726  0.6583  1.0279
 5963SOL    HW229109   2.744   4.793   3.923  1.3181 -1.4652  0.6178
 5964SOL     OW29110   7.614   2.938   3.347  0.2030  0.1973 -0.0162
 5964SOL    HW129111   7.546   2.994   3.300 -0.0140  0.2129  0.3161
 5964SOL    HW229112   7.704   2.956   3.308 -0.1787 -0.8605 -1.3894
 5965SOL     OW29113   2.520   9.677   3.109  0.1355  0.1155  1.0252
 5965SOL    HW129114   2.512   9.715   3.017 -0.2587 -0.8303  0.6559
 5965SOL    HW229115   2.602   9.712   3.152  1.8674 -1.6161 -0.7588
 5966SOL     OW29116   8.847   5.949   5.688 -0.0888 -0.3620 -0.1771
 5966SOL    HW129117   8.786   5.892   5.633 -1.3405  1.6068 -0.8677
 5966SOL    HW229118   8.938   5.948   5.648  0.0446 -2.2850  0.1214
 5967SOL     OW29119   1.642   9.670   2.310  0.0502  0.0803  0.2242
 5967SOL    HW129120   1.729   9.708   2.279 -0.5923  1.6620  0.3225
 5967SOL    HW229121   1.657   9.617   2.393  1.0604 -0.4110 -0.2639
 5968SOL     OW29122   9.480   3.714   0.469 -0.0238  0.6146  0.4867
 5968SOL    HW129123   9.568   3.712   0.421  0.3375 -0.4602  1.1791
 5968SOL    HW229124   9.496   3.703   0.567 -0.9832 -0.1666  0.5532
 5969SOL     OW29125   2.222   2.169   1.126  0.4139 -0.5789  0.2721
 5969SOL    HW129126   2.122   2.160   1.122  0.1125  2.5576 -0.7944
 5969SOL    HW229127   2.261   2.151   1.036  0.6236 -0.1146  0.2664
 5970SOL     OW29128   3.459   2.243   2.179 -0.4029  0.5342  0.3117
 5970SOL    HW129129   3.473   2.194   2.265 -1.4490  1.1889  0.8645
 5970SOL    HW229130   3.503   2.333   2.185 -0.6040  0.6391  0.2112
 5971SOL     OW29131   2.323   7.284   2.265 -0.2129  0.2586  0.6092
 5971SOL    HW129132   2.237   7.266   2.312 -1.3910  1.2014 -1.1508
 5971SOL    HW229133   2.330   7.226   2.184 -0.0344  1.4620 -0.2553
 5972SOL     OW29134   2.664   9.254   4.492  0.0744  0.0238  0.0109
 5972SOL    HW129135   2.716   9.215   4.416  0.7017  0.9498 -0.0385
 5972SOL    HW229136   2.719   9.253   4.575 -0.8848 -1.7084  0.6612
 5973SOL     OW29137   2.587   3.845   5.367 -0.5517 -0.7305  0.0104
 5973SOL    HW129138   2.564   3.788   5.288 -0.3295 -0.0087 -0.5771
 5973SOL    HW229139   2.626   3.932   5.336 -0.2334 -0.5396  0.9175
 5974SOL     OW29140   5.086   3.135   3.760 -0.3652 -0.5257 -0.2143
 5974SOL    HW129141   5.145   3.066   3.718  0.5296  0.7768 -1.1298
 5974SOL    HW229142   5.055   3.199   3.690  0.1497  0.9494  0.8902
 5975SOL     OW29143   1.940   0.417   2.397  0.5886  0.5381  0.2568
 5975SOL    HW129144   1.900   0.376   2.314  0.1698 -1.1711  1.2849
 5975SOL    HW229145   1.997   0.349   2.443  1.7982  1.8722  0.7318
 5976SOL     OW29146   0.653   3.094   0.543 -0.2317 -0.2420  0.3109
 5976SOL    HW129147   0.561   3.055   0.542  1.1102 -3.6133 -2.4406
 5976SOL    HW229148   0.701   3.062   0.625 -0.9264  0.1527  0.8812
 5977SOL     OW29149   3.481   5.766   2.427  0.2358 -0.0234 -0.2615
 5977SOL    HW129150   3.464   5.710   2.346 -0.0875 -0.6187  0.2124
 5977SOL    HW229151   3.554   5.831   2.408 -1.5063  1.5599 -1.8613
 5978SOL     OW29152   5.026   8.324   4.500  0.0933 -0.0080 -0.0212
 5978SOL    HW129153   5.034   8.291   4.595 -2.6385 -2.6238 -0.6268
 5978SOL    HW229154   5.055   8.252   4.437 -0.1363  0.9602 -1.2511
 5979SOL     OW29155   7.361   0.663   3.640 -0.3165 -0.0425  0.1972
 5979SOL    HW129156   7.449   0.701   3.612 -0.0673 -1.0727 -0.4493
 5979SOL    HW229157   7.307   0.733   3.686  1.5735  0.1548  2.2152
 5980SOL     OW29158   5.342   9.408   4.049  0.5072  0.2041 -0.0982
 5980SOL    HW129159   5.376   9.340   4.114 -2.2282  0.7050  1.9876
 5980SOL    HW229160   5.281   9.364   3.983  1.6673  0.0323 -1.0583
 5981SOL     OW29161   3.753   1.113   6.472 -0.7486  0.1645 -0.0914
 5981SOL    HW129162   3.741   1.090   6.569 -0.1494 -0.5629 -0.1781
 5981SOL    HW229163   3.727   1.034   6.416 -1.0623  0.5717 -0.5190
 5982SOL     OW29164   2.268   4.619   2.349 -0.2023  0.1312  0.4149
 5982SOL    HW129165   2.340   4.686   2.365  0.6829 -0.9354  1.0142
 5982SOL    HW229166   2.278   4.543   2.414 -2.4092  0.3885  1.1132
 5983SOL     OW29167   3.953   0.488   5.305 -0.3189  0.1781  0.4704
 5983SOL    HW129168   3.980   0.468   5.211 -0.6724 -1.7436  0.7609
 5983SOL    HW229169   3.860   0.454   5.321 -0.5299  1.1378  1.3050
 5984SOL     OW29170   3.591   2.189   2.710  0.1733  0.5753 -0.1545
 5984SOL    HW129171   3.508   2.232   2.745  0.2376  0.4437  0.1587
 5984SOL    HW229172   3.667   2.254   2.716 -0.1590  1.1164 -1.5631
 5985SOL     OW29173   8.609   2.170   4.946  0.3750 -0.2254 -0.3633
 5985SOL    HW129174   8.528   2.228   4.948  0.3502 -0.2604 -0.3564
 5985SOL    HW229175   8.670   2.200   4.872  0.3378 -0.2260 -0.3944
 5986SOL     OW29176   3.051   8.457   6.636 -0.6892 -0.2901  0.0666
 5986SOL    HW129177   3.076   8.471   6.732 -0.6837  1.7426 -0.2114
 5986SOL    HW229178   2.956   8.483   6.623 -0.4649  0.1708 -0.6460
 5987SOL     OW29179   6.126   0.615   2.856 -0.1410 -0.2456 -0.3639
 5987SOL    HW129180   6.168   0.663   2.779 -1.5979  2.3734  0.4199
 5987SOL    HW229181   6.157   0.655   2.942 -2.3546  0.1548  0.2789
 5988SOL     OW29182   2.245   5.636   4.841  0.1817 -0.0313  0.1605
 5988SOL    HW129183   2.304   5.623   4.921  0.0645 -0.2232  0.2153
 5988SOL    HW229184   2.298   5.678   4.767  0.2285  0.3613  0.4197
 5989SOL     OW29185   6.263   5.299   0.503  0.0563 -0.2379  0.2363
 5989SOL    HW129186   6.305   5.320   0.592  0.3847  0.0614  0.0121
 5989SOL    HW229187   6.197   5.370   0.479  0.4662  0.0435 -0.0740
 5990SOL     OW29188   3.137   6.366   2.607 -0.6501 -0.1060  0.0628
 5990SOL    HW129189   3.121   6.291   2.672  2.6627  0.3471  1.4964
 5990SOL    HW229190   3.081   6.445   2.633 -1.4782 -0.8808  0.6718
 5991SOL     OW29191   2.272   9.733   0.046 -0.3696  0.4548  0.0893
 5991SOL    HW129192   2.310   9.641   0.037 -0.5608  0.3138  0.6542
 5991SOL    HW229193   2.326   9.798  -0.007  0.9467  0.3452  1.2815
 5992SOL     OW29194   7.770   9.571   0.817 -0.0324  0.3344 -0.1897
 5992SOL    HW129195   7.732   9.543   0.729  0.0654 -0.4792  0.0206
 5992SOL    HW229196   7.713   9.535   0.891  0.6428 -0.1449  0.1036
 5993SOL     OW29197   0.616   2.638   6.086  0.0199 -0.5791 -0.2003
 5993SOL    HW129198   0.641   2.584   6.166 -2.5002 -1.0514  0.3243
 5993SOL    HW229199   0.668   2.607   6.007  0.2658 -2.2172  0.5863
 5994SOL     OW29200   0.719   7.867   3.069 -0.1562 -0.0804  0.2871
 5994SOL    HW129201   0.746   7.782   3.114 -0.8247  0.8349  2.4725
 5994SOL    HW229202   0.619   7.872   3.063 -0.0898  0.0021 -0.9638
 5995SOL     OW29203   9.555   8.808   1.880 -0.2806 -0.0746  0.2444
 5995SOL    HW129204   9.630   8.780   1.822  0.7932  1.9369  0.6176
 5995SOL    HW229205   9.591   8.844   1.967 -1.7149 -0.2804  0.9473
 5996SOL     OW29206   7.016   0.161   5.890  0.0539 -1.0568 -0.0017
 5996SOL    HW129207   6.979   0.250   5.919 -0.5505 -1.8186  1.5963
 5996SOL    HW229208   7.012   0.155   5.790  2.2642  1.6623 -0.3340
 5997SOL     OW29209   5.803   9.313   1.909  0.2524 -0.0421 -0.2008
 5997SOL    HW129210   5.773   9.408   1.912  1.1315  0.2250  0.4236
 5997SOL    HW229211   5.751   9.259   1.975  0.7264  0.2987  0.4574
 5998SOL     OW29212   3.467   2.030   3.512 -0.2319 -0.4851 -0.0243
 5998SOL    HW129213   3.411   2.011   3.431  1.2499 -0.2533 -1.1384
 5998SOL    HW229214   3.410   2.068   3.584 -1.2211  1.3299 -1.7136
 5999SOL     OW29215   3.037   9.388   5.652  0.1394  0.0085  0.0667
 5999SOL    HW129216   3.117   9.442   5.679 -0.8768  2.2240 -1.1787
 5999SOL    HW229217   3.048   9.359   5.557  0.1129 -0.9209  0.3461
 6000SOL     OW29218   3.168   5.389   0.846 -0.2808  0.1388 -1.2029
 6000SOL    HW129219   3.175   5.443   0.929  0.6366 -2.9720  0.8537
 6000SOL    HW229220   3.072   5.382   0.818 -0.5721  1.3541 -0.5330
 6001SOL     OW29221   8.329   5.561   2.785 -0.0678 -0.7360 -0.3342
 6001SOL    HW129222   8.300   5.566   2.690  0.2518 -0.0856 -0.4028
 6001SOL    HW229223   8.315   5.468   2.820  0.2512 -1.0948 -1.1547
 6002SOL     OW29224   9.379   1.971   1.519 -0.2409 -0.0107 -0.1362
 6002SOL    HW129225   9.474   1.996   1.532 -0.7178  1.1629  1.2440
 6002SOL    HW229226   9.373   1.878   1.482  1.3943 -0.5905  1.0410
 6003SOL     OW29227   0.768   9.230   2.860 -0.0294 -0.4958 -0.1592
 6003SOL    HW129228   0.687   9.178   2.831 -2.6360  2.5865  1.2142
 6003SOL    HW229229   0.823   9.254   2.780 -2.7913  1.0180 -1.6902
 6004SOL     OW29230   2.644   7.991   2.688 -0.1498 -0.2856  0.1517
 6004SOL    HW129231   2.654   7.961   2.593 -0.0637  0.0832  0.0439
 6004SOL    HW229232   2.699   7.933   2.747  1.8484  1.1024 -0.3112
 6005SOL     OW29233   8.936   4.361   2.104  0.1064 -0.1365  0.3631
 6005SOL    HW129234   8.978   4.293   2.044 -2.1931 -1.7698  0.5513
 6005SOL    HW229235   8.994   4.375   2.184  0.6789 -1.7745  0.2463
 6006SOL     OW29236   1.650   5.489   6.179  0.5076  0.7277 -0.5042
 6006SOL    HW129237   1.695   5.570   6.140  2.7370  0.7382  1.9395
 6006SOL    HW229238   1.716   5.438   6.234 -1.2270 -2.0630 -0.9153
 6007SOL     OW29239   1.723   8.002   0.236 -0.3534 -1.0459  0.1802
 6007SOL    HW129240   1.690   8.017   0.329 -1.1366  0.1176 -0.2629
 6007SOL    HW229241   1.679   7.921   0.198  0.3257 -1.7925  0.9859
 6008SOL     OW29242   6.603   1.704   6.213  0.3166 -0.0200 -0.2506
 6008SOL    HW129243   6.616   1.624   6.155 -0.4813  0.3894 -1.0041
 6008SOL    HW229244   6.509   1.737   6.203  0.0931 -0.0947  1.4505
 6009SOL     OW29245   1.281   7.718   4.937  0.0203 -0.3836  0.1397
 6009SOL    HW129246   1.355   7.781   4.914  0.7997 -1.4374 -0.2848
 6009SOL    HW229247   1.244   7.678   4.853 -0.2922 -0.6861  0.4204
 6010SOL     OW29248   2.388   5.937   5.042 -0.1638  0.3216 -0.2815
 6010SOL    HW129249   2.426   6.029   5.055 -2.5120  1.2928 -0.0535
 6010SOL    HW229250   2.442   5.887   4.975  1.1846  1.8481 -0.3463
 6011SOL     OW29251   2.474   3.435   5.384  0.3930  0.1648  0.7253
 6011SOL    HW129252   2.404   3.500   5.357  1.6204  0.8852 -0.7884
 6011SOL    HW229253   2.439   3.342   5.374 -0.2640  0.5135 -0.2520
 6012SOL     OW29254   8.425   0.851   4.625 -0.4041 -0.0993 -0.7198
 6012SOL    HW129255   8.396   0.791   4.550 -0.1614 -0.5607 -0.4471
 6012SOL    HW229256   8.381   0.940   4.615 -1.8904 -0.7791 -0.3327
 6013SOL     OW29257   2.541   0.328   6.626 -0.0454  0.0808 -0.4703
 6013SOL    HW129258   2.509   0.293   6.538 -3.1599  1.4523  0.0565
 6013SOL    HW229259   2.488   0.286   6.699  1.8882 -0.3307  0.7147
 6014SOL     OW29260   1.396   6.501   4.939  0.1597 -0.3560 -0.4902
 6014SOL    HW129261   1.361   6.537   4.853  0.9900 -0.9259 -1.0725
 6014SOL    HW229262   1.363   6.557   5.015 -0.9511 -0.1234 -1.1367
 6015SOL     OW29263   1.483   9.302   3.450 -0.2623 -0.4188  0.1501
 6015SOL    HW129264   1.448   9.384   3.496 -1.1682 -0.5748 -0.2351
 6015SOL    HW229265   1.427   9.223   3.477 -0.8542 -0.4950 -1.2585
 6016SOL     OW29266   0.440   3.192   5.914  0.0804 -0.2239  0.2920
 6016SOL    HW129267   0.493   3.122   5.866 -1.5749  0.1214 -2.0948
 6016SOL    HW229268   0.465   3.191   6.011  3.9445 -0.5539 -0.6037
 6017SOL     OW29269   3.988   0.150   0.544  0.6416 -0.0976 -0.0399
 6017SOL    HW129270   4.071   0.102   0.517  0.9481 -0.2575  1.1989
 6017SOL    HW229271   3.913   0.084   0.553  0.7724 -0.1794  0.4579
 6018SOL     OW29272   2.630   8.512   3.945  0.4874  0.1499 -0.0072
 6018SOL    HW129273   2.641   8.430   4.002 -0.1180 -0.6640 -1.0507
 6018SOL    HW229274   2.689   8.585   3.980  1.1917 -0.7921  0.7987
 6019SOL     OW29275   6.934   1.311   2.968  0.3093  0.1493 -0.0875
 6019SOL    HW129276   6.957   1.392   3.023  0.8382  0.3623 -0.6096
 6019SOL    HW229277   6.958   1.229   3.019  1.7411  0.3602 -0.3883
 6020SOL     OW29278   6.340   2.503   3.484 -0.8900  0.8233 -0.1871
 6020SOL    HW129279   6.369   2.408   3.495  0.8555  1.6792  3.2463
 6020SOL    HW229280   6.240   2.507   3.482 -0.9838 -1.1037 -0.6346
 6021SOL     OW29281   5.313   0.803   0.563 -0.4830  0.3064 -0.3792
 6021SOL    HW129282   5.311   0.867   0.486 -0.7820 -0.7733 -1.2710
 6021SOL    HW229283   5.220   0.773   0.584 -0.3787  0.4129  0.2508
 6022SOL     OW29284   6.372   0.865   2.985 -0.6056 -0.3424  0.6947
 6022SOL    HW129285   6.323   0.803   3.046  0.1711 -0.3680  1.2928
 6022SOL    HW229286   6.458   0.823   2.957 -0.0914  0.4445  1.0709
 6023SOL     OW29287   0.004   1.216   5.539 -0.8509  0.2215 -0.0659
 6023SOL    HW129288   0.044   1.125   5.546 -0.3019  0.4586 -0.0703
 6023SOL    HW229289  -0.087   1.210   5.498 -0.6531 -0.2791 -0.4303
 6024SOL     OW29290   1.097   3.815   1.902  0.3397  0.3245  0.0242
 6024SOL    HW129291   1.124   3.911   1.908 -0.0215  0.5372 -1.6478
 6024SOL    HW229292   1.152   3.769   1.833 -0.8251 -0.1860 -0.5810
 6025SOL     OW29293   1.825   8.225   2.849  0.3448 -0.6136 -0.3091
 6025SOL    HW129294   1.904   8.284   2.863  1.5699 -2.6039  1.5234
 6025SOL    HW229295   1.820   8.196   2.754  1.0202  0.6292 -0.7246
 6026SOL     OW29296   1.224   2.748   3.338 -0.6268 -0.1922 -0.1078
 6026SOL    HW129297   1.210   2.746   3.437  0.8395  1.1005  0.1367
 6026SOL    HW229298   1.144   2.789   3.294 -0.2277  1.5266  0.7570
 6027SOL     OW29299   9.318   3.085   0.162 -0.2817 -0.0615  0.0366
 6027SOL    HW129300   9.278   2.997   0.139 -2.5174  1.4018 -1.9829
 6027SOL    HW229301   9.244   3.152   0.177  1.3544  1.4332  1.6700
 6028SOL     OW29302   7.943   4.141   3.433  0.0538  0.0396  0.2451
 6028SOL    HW129303   7.965   4.232   3.470 -0.2787 -0.2552  1.1825
 6028SOL    HW229304   7.844   4.130   3.429  0.0906 -0.1052 -0.3151
 6029SOL     OW29305   8.671   3.728   1.436  0.7419 -0.2342 -1.2954
 6029SOL    HW129306   8.697   3.643   1.482  1.4110  2.3173  3.3087
 6029SOL    HW229307   8.575   3.749   1.457  1.1160  1.0736 -0.8374
 6030SOL     OW29308   2.315   8.190   5.385  0.4569 -0.2433 -0.2401
 6030SOL    HW129309   2.343   8.128   5.311  1.7133  0.2199 -0.1516
 6030SOL    HW229310   2.217   8.209   5.376  0.3144 -1.2558 -0.9954
 6031SOL     OW29311   3.133   0.392   2.019  0.6313 -0.3374 -0.5555
 6031SOL    HW129312   3.155   0.447   2.099 -0.7589  1.1214 -1.1507
 6031SOL    HW229313   3.053   0.336   2.039 -0.6940  1.2133 -1.4309
 6032SOL     OW29314   9.356   5.049   4.825  0.4248 -0.3521 -0.8139
 6032SOL    HW129315   9.267   5.024   4.864  0.4731  0.1458 -0.3757
 6032SOL    HW229316   9.368   5.002   4.738 -0.8519  0.6218 -1.5306
 6033SOL     OW29317   3.357   7.012   0.643  0.0598  0.4982  0.0061
 6033SOL    HW129318   3.344   6.929   0.589  1.9843  1.3104 -1.7629
 6033SOL    HW229319   3.276   7.070   0.635  0.2015  0.4776 -1.7864
 6034SOL     OW29320   7.559   6.735   4.750 -0.2233 -0.4791 -0.2401
 6034SOL    HW129321   7.608   6.654   4.780 -0.2297 -1.3407 -2.4759
 6034SOL    HW229322   7.588   6.814   4.805  0.1691 -1.8713  1.5882
 6035SOL     OW29323   8.306   4.439   5.088 -0.5053  0.1125  0.0850
 6035SOL    HW129324   8.248   4.397   5.018 -0.4514 -0.9793  0.6887
 6035SOL    HW229325   8.253   4.454   5.171  0.5913 -2.9195  1.3963
 6036SOL     OW29326   3.205   3.939   1.649  0.3802 -0.3986 -0.9074
 6036SOL    HW129327   3.180   3.843   1.637 -1.7611 -0.0015  0.2196
 6036SOL    HW229328   3.196   3.988   1.563 -2.1896 -0.4032 -0.6681
 6037SOL     OW29329   9.025   5.817   1.433  0.6763  0.3471  0.1949
 6037SOL    HW129330   8.965   5.843   1.357 -1.0258  1.2339  1.7982
 6037SOL    HW229331   8.973   5.818   1.519  1.9471 -3.0131  1.0754
 6038SOL     OW29332   3.983   7.389   3.049 -0.1483 -0.5203  0.2680
 6038SOL    HW129333   3.977   7.481   3.087 -1.0536 -0.4653  0.0088
 6038SOL    HW229334   3.991   7.323   3.123 -0.8703 -0.3320  0.5263
 6039SOL     OW29335   3.891   2.511   6.256 -0.1812 -0.3625 -0.0829
 6039SOL    HW129336   3.975   2.504   6.309 -1.6389 -1.1203  2.2371
 6039SOL    HW229337   3.852   2.420   6.243  0.0996 -0.1805 -2.4450
 6040SOL     OW29338   2.841   2.674   2.413 -0.0568  0.7629  0.1856
 6040SOL    HW129339   2.791   2.760   2.407 -1.2961  0.0156 -0.4846
 6040SOL    HW229340   2.934   2.691   2.444 -0.3503  2.3173  0.2324
 6041SOL     OW29341   3.176   6.045   2.701  0.4349 -0.1389  0.1116
 6041SOL    HW129342   3.244   6.032   2.629 -0.3206  0.3745 -0.7167
 6041SOL    HW229343   3.097   5.986   2.683  0.9725 -1.3269  1.4983
 6042SOL     OW29344   3.294   3.152   5.258 -0.3938 -0.6458  0.7341
 6042SOL    HW129345   3.349   3.070   5.270  0.4111 -0.7254 -2.8136
 6042SOL    HW229346   3.347   3.233   5.282  0.8173 -0.8218 -1.2732
 6043SOL     OW29347   0.269   6.354   4.480 -0.1192  0.4894  0.4539
 6043SOL    HW129348   0.340   6.350   4.551 -1.1200  0.0254  1.4519
 6043SOL    HW229349   0.291   6.291   4.406 -0.0805 -0.5355  1.3291
 6044SOL     OW29350   5.328   9.822   4.042  0.3296  0.1024 -0.5076
 6044SOL    HW129351   5.242   9.771   4.036 -0.3407  1.2313 -0.9144
 6044SOL    HW229352   5.330   9.891   3.969  1.5385  0.1502 -0.4319
 6045SOL     OW29353   7.302   7.963   4.595  0.3822  0.3621  0.3070
 6045SOL    HW129354   7.346   8.025   4.529  1.5858  0.3890  1.1139
 6045SOL    HW229355   7.372   7.906   4.638 -0.6403 -1.0545  0.1038
 6046SOL     OW29356   2.934   1.597   0.614 -0.2778 -0.1894  0.5762
 6046SOL    HW129357   2.990   1.577   0.694 -0.3066 -0.7609  0.4552
 6046SOL    HW229358   2.869   1.523   0.599 -0.2754 -0.0839  0.0223
 6047SOL     OW29359   9.239   8.319   5.078  0.2108 -0.2336 -0.2663
 6047SOL    HW129360   9.173   8.349   5.009 -0.7546  1.7013  1.4517
 6047SOL    HW229361   9.199   8.245   5.131 -0.1298  0.1391  0.0023
 6048SOL     OW29362   4.322   9.992   0.995  0.5064 -0.3233  0.9795
 6048SOL    HW129363   4.287  10.030   0.909  0.2198 -0.3135  1.0986
 6048SOL    HW229364   4.353   9.898   0.979  0.4829 -0.3101  0.8561
 6049SOL     OW29365   3.487   8.650   3.714 -0.2993  0.0633 -0.0141
 6049SOL    HW129366   3.564   8.653   3.777 -0.0470  0.4674 -0.3385
 6049SOL    HW229367   3.480   8.558   3.674  1.0069  0.4722 -1.2077
 6050SOL     OW29368   4.060   5.444   1.928 -0.4550  0.4941 -0.3069
 6050SOL    HW129369   4.152   5.413   1.905 -0.1230  0.3193  1.1899
 6050SOL    HW229370   4.038   5.526   1.876  0.7978  0.9105 -0.1857
 6051SOL     OW29371   9.351   3.059   1.934  0.2911 -0.4378 -0.2052
 6051SOL    HW129372   9.448   3.060   1.959  0.5153  0.9891 -1.0937
 6051SOL    HW229373   9.296   3.083   2.014  0.8424  1.3774 -0.3466
 6052SOL     OW29374   2.801   2.292   2.663  0.1688 -0.0130  0.1313
 6052SOL    HW129375   2.742   2.364   2.626  0.0142 -0.3582 -0.2929
 6052SOL    HW229376   2.842   2.240   2.588  1.0278  0.2305  0.4160
 6053SOL     OW29377   1.506   0.490   4.175 -0.1514 -0.2118  0.0188
 6053SOL    HW129378   1.533   0.476   4.080 -1.1339  1.3743 -0.5247
 6053SOL    HW229379   1.503   0.588   4.195  0.3525 -0.5398  1.7814
 6054SOL     OW29380   0.663   0.528   0.824 -0.1623  0.4683 -0.1248
 6054SOL    HW129381   0.614   0.612   0.801 -0.9071 -0.4015 -1.7725
 6054SOL    HW229382   0.598   0.458   0.853  0.3260 -0.0063 -0.1662
 6055SOL     OW29383   9.046   6.095   4.556 -0.1671  0.0445  0.1106
 6055SOL    HW129384   9.075   6.180   4.600 -1.0023 -0.8501  2.4924
 6055SOL    HW229385   9.091   6.018   4.601  0.4253 -0.7956 -1.8972
 6056SOL     OW29386   3.050   6.984   1.872  0.1165  0.4642  0.1266
 6056SOL    HW129387   3.145   6.998   1.843  0.1587 -0.3128 -0.1133
 6056SOL    HW229388   2.988   6.997   1.795 -0.0644  1.9763  0.5049
 6057SOL     OW29389   0.455   3.511   3.006  0.2004 -0.1838  0.0062
 6057SOL    HW129390   0.464   3.415   3.032  2.3092  0.3349  1.3776
 6057SOL    HW229391   0.516   3.566   3.063 -0.4818  1.8917 -1.2239
 6058SOL     OW29392   9.225   2.106   2.317 -0.4476 -0.3914  0.0254
 6058SOL    HW129393   9.279   2.100   2.234 -1.1793 -0.2650 -0.4603
 6058SOL    HW229394   9.162   2.183   2.311 -0.6011 -0.4608  0.6400
 6059SOL     OW29395   6.070   2.092   4.600  0.5998 -0.5106 -0.2946
 6059SOL    HW129396   6.154   2.117   4.648 -0.2493 -1.7685  1.9022
 6059SOL    HW229397   6.052   1.995   4.612 -1.1025 -0.2813 -0.8897
 6060SOL     OW29398   9.887   6.627   1.521 -0.2753 -0.4782 -0.4984
 6060SOL    HW129399   9.929   6.704   1.474  0.3933  0.2186  1.1888
 6060SOL    HW229400   9.790   6.646   1.538  0.1294  0.4640  0.8447
 6061SOL     OW29401   1.794   7.242   3.738 -0.1367  0.4849  0.9747
 6061SOL    HW129402   1.823   7.212   3.647 -1.0680 -0.2184  0.9155
 6061SOL    HW229403   1.815   7.340   3.748  0.0080  0.5586  0.0305
 6062SOL     OW29404   0.535   5.659   1.973 -0.9726  0.7273 -0.2894
 6062SOL    HW129405   0.466   5.731   1.986 -0.2033  1.5514 -0.7510
 6062SOL    HW229406   0.597   5.685   1.899 -0.1745 -0.0271  0.1075
 6063SOL     OW29407   4.339   1.684   4.280 -0.1871 -0.1406 -0.1448
 6063SOL    HW129408   4.350   1.771   4.233 -0.1317  1.8761  3.4344
 6063SOL    HW229409   4.245   1.652   4.271 -0.8209  1.5042  0.4692
 6064SOL     OW29410   8.660   0.161   0.126  0.4433  0.1001 -0.0251
 6064SOL    HW129411   8.631   0.249   0.164  0.5745 -0.1567  0.6767
 6064SOL    HW229412   8.699   0.175   0.034 -0.1115  0.6885 -0.1699
 6065SOL     OW29413   3.046   9.374   4.225  0.1676 -0.0061  0.1544
 6065SOL    HW129414   3.083   9.431   4.152  2.0887 -1.1116  0.2164
 6065SOL    HW229415   2.946   9.372   4.219  0.2329  1.0603 -1.5645
 6066SOL     OW29416   3.232   9.343   1.499 -0.1153 -0.1087  0.0739
 6066SOL    HW129417   3.183   9.371   1.581 -0.1862 -1.7918  0.6309
 6066SOL    HW229418   3.215   9.408   1.426 -1.0330  0.7520  1.0431
 6067SOL     OW29419   1.904   6.300   1.103 -0.0597 -0.1281  0.8638
 6067SOL    HW129420   1.822   6.351   1.078  0.3543  0.2457  0.2803
 6067SOL    HW229421   1.963   6.356   1.161 -0.0515 -0.2786  1.0049
 6068SOL     OW29422   8.860   5.205   1.482 -0.7423 -0.2113  0.0167
 6068SOL    HW129423   8.866   5.156   1.395  0.0491 -0.1320  0.0178
 6068SOL    HW229424   8.856   5.139   1.557 -2.1099 -0.2875 -0.1073
 6069SOL     OW29425   2.327   3.384   1.846  0.2335 -0.2799 -0.2600
 6069SOL    HW129426   2.328   3.479   1.816  0.7711  0.0878  0.9242
 6069SOL    HW229427   2.415   3.361   1.887 -0.0801 -1.1427 -0.0574
 6070SOL     OW29428   8.192   2.078   5.980  0.0832  0.9453  0.6194
 6070SOL    HW129429   8.271   2.084   5.919  0.2633 -0.6848  0.6499
 6070SOL    HW229430   8.123   2.144   5.952  0.9669  1.5647 -0.1426
 6071SOL     OW29431   5.022   8.188   4.739 -0.7530  0.5917  0.7309
 6071SOL    HW129432   4.930   8.173   4.774 -0.6146  2.6266  2.0778
 6071SOL    HW229433   5.089   8.155   4.805 -0.5081 -0.7811 -0.1947
 6072SOL     OW29434   1.398   1.828   1.089  0.5772 -0.1905 -0.4049
 6072SOL    HW129435   1.358   1.895   1.026  0.6065 -1.3661 -1.7119
 6072SOL    HW229436   1.371   1.850   1.182  1.1301  2.0282 -0.7250
 6073SOL     OW29437   4.311   9.916   0.063 -0.5321 -0.3259 -0.4877
 6073SOL    HW129438   4.272   9.878   0.147  0.0148  1.6440  0.6821
 6073SOL    HW229439   4.239   9.961   0.010 -0.2237  1.8141  0.8412
 6074SOL     OW29440   4.338   2.489   1.388  0.4862 -0.1866  0.5105
 6074SOL    HW129441   4.248   2.455   1.416  0.2718 -0.8794 -0.9801
 6074SOL    HW229442   4.409   2.437   1.435  0.1250  0.4695  1.8159
 6075SOL     OW29443   7.436   9.638   4.613 -0.0839 -0.0454  0.5227
 6075SOL    HW129444   7.459   9.623   4.709 -2.2546 -3.1995  0.6084
 6075SOL    HW229445   7.344   9.676   4.606  1.1601  2.9449 -0.2364
 6076SOL     OW29446   0.527   0.926   0.050  0.6893  0.1905  0.1378
 6076SOL    HW129447   0.598   0.996   0.063  0.6729  0.3489 -0.6084
 6076SOL    HW229448   0.570   0.836   0.049  0.6782  0.1679  1.3725
 6077SOL     OW29449   7.564   7.525   5.144 -0.7142  0.6530  0.3013
 6077SOL    HW129450   7.557   7.575   5.057 -0.8010  0.9931  0.5035
 6077SOL    HW229451   7.605   7.435   5.127  0.2674  1.1342  0.0643
 6078SOL     OW29452   7.971   1.227   0.243 -0.3391  0.3580 -0.0588
 6078SOL    HW129453   8.027   1.150   0.213 -1.0920 -0.4442  0.5654
 6078SOL    HW229454   7.913   1.258   0.168  0.0979  0.4421 -0.3652
 6079SOL     OW29455   3.207   5.280   3.595 -0.1853 -0.0580 -0.2381
 6079SOL    HW129456   3.192   5.224   3.513  1.6356 -0.1510 -0.5508
 6079SOL    HW229457   3.280   5.239   3.649  1.4949  2.2238 -0.6969
 6080SOL     OW29458   3.703   8.280   3.404  0.0264  0.6976 -0.1775
 6080SOL    HW129459   3.802   8.282   3.407 -0.0028  1.8712  0.6114
 6080SOL    HW229460   3.672   8.202   3.351  1.3453 -0.4589  0.7387
 6081SOL     OW29461   1.566   5.181   3.239  0.1940  0.1533 -0.3592
 6081SOL    HW129462   1.646   5.146   3.191  0.7833 -0.1395  0.8158
 6081SOL    HW229463   1.483   5.150   3.193  0.7566  0.4451 -1.5730
 6082SOL     OW29464   1.486   5.459   1.980  0.7996 -0.3226 -0.0195
 6082SOL    HW129465   1.506   5.361   1.984  1.7090 -0.1195  0.4740
 6082SOL    HW229466   1.415   5.475   1.911  0.8291 -1.2927 -0.2911
 6083SOL     OW29467   9.684   6.495   4.600 -0.2320 -0.0924 -0.0705
 6083SOL    HW129468   9.749   6.420   4.614 -1.1665 -0.9507 -0.3175
 6083SOL    HW229469   9.732   6.582   4.611  0.9013 -0.7155  0.0457
 6084SOL     OW29470   1.577   8.135   2.359 -0.0754 -0.0484  0.2582
 6084SOL    HW129471   1.556   8.215   2.415 -1.8710 -0.1338 -0.2541
 6084SOL    HW229472   1.665   8.096   2.387  0.9051  2.1842  0.4059
 6085SOL     OW29473   1.847   9.368   1.054 -0.7395 -0.6173 -0.5379
 6085SOL    HW129474   1.884   9.453   1.093 -0.4853 -0.6701 -0.6606
 6085SOL    HW229475   1.747   9.371   1.056 -0.7247 -0.5737  0.0103
 6086SOL     OW29476   2.204   8.893   2.945 -0.0915 -0.1938  0.6833
 6086SOL    HW129477   2.114   8.889   2.989 -0.7942 -1.0070 -0.7905
 6086SOL    HW229478   2.206   8.968   2.880 -0.6213 -1.7715 -1.2049
 6087SOL     OW29479   9.742   1.636   2.234 -0.0143  0.3648 -0.0052
 6087SOL    HW129480   9.829   1.595   2.207  1.1350  1.9492  1.1607
 6087SOL    HW229481   9.727   1.621   2.332 -0.7158  0.7198 -0.0550
 6088SOL     OW29482   1.121   4.557   0.188  0.2971 -0.0641 -0.4271
 6088SOL    HW129483   1.085   4.574   0.280  1.0552  0.0747 -0.1512
 6088SOL    HW229484   1.218   4.584   0.185  0.3524 -0.3464 -1.1816
 6089SOL     OW29485   0.755   3.415   3.707 -0.3055 -0.3675  0.4291
 6089SOL    HW129486   0.705   3.456   3.783 -0.0956  2.0045 -0.6516
 6089SOL    HW229487   0.748   3.475   3.627  2.0847 -1.2684 -0.4926
 6090SOL     OW29488   2.938   6.032   2.343 -0.7189  0.0795  0.5737
 6090SOL    HW129489   2.994   6.114   2.359  0.5217 -0.4285 -1.0430
 6090SOL    HW229490   2.907   5.995   2.430 -0.8773  1.9932  1.3458
 6091SOL     OW29491   8.388   4.746   6.005  0.2083 -0.2508 -0.1251
 6091SOL    HW129492   8.320   4.797   5.952  0.7061  0.4675 -0.0737
 6091SOL    HW229493   8.474   4.743   5.955  0.2866 -0.7383  0.0347
 6092SOL     OW29494   1.046   8.518   2.147 -0.2359 -0.1343 -0.0518
 6092SOL    HW129495   1.038   8.470   2.060  0.3033  0.1491 -0.2593
 6092SOL    HW229496   1.081   8.611   2.132 -0.3536 -0.0051  0.4392
 6093SOL     OW29497   0.711   7.998   1.970  0.3723  0.5443  0.2873
 6093SOL    HW129498   0.776   8.008   2.045  0.7048 -1.0772  0.2311
 6093SOL    HW229499   0.639   7.933   1.996 -0.3171  1.0736 -0.2631
 6094SOL     OW29500   3.336   2.604   4.145  0.2431  0.2864  0.5150
 6094SOL    HW129501   3.360   2.691   4.103  0.5251  0.2543  0.6108
 6094SOL    HW229502   3.313   2.618   4.241  0.4657  0.2287  0.5772
 6095SOL     OW29503   2.364   1.646   6.293 -0.0123  0.4503 -0.2661
 6095SOL    HW129504   2.303   1.577   6.333  2.5117 -3.0083 -2.1422
 6095SOL    HW229505   2.423   1.683   6.365 -0.5678 -0.2387  0.5618
 6096SOL     OW29506   2.026   4.235   0.258 -0.2280 -0.4049  0.3277
 6096SOL    HW129507   2.078   4.195   0.334  0.1631 -0.4876  0.0211
 6096SOL    HW229508   1.996   4.326   0.283  0.7012 -0.0685  0.2366
 6097SOL     OW29509   2.624   8.815   0.208  0.3735  0.2338  0.1698
 6097SOL    HW129510   2.545   8.780   0.259  0.8585 -0.3141  0.5511
 6097SOL    HW229511   2.682   8.738   0.180  0.4438  0.5812 -0.6570
 6098SOL     OW29512   6.215   9.750   5.186 -0.1873 -0.1650 -0.0988
 6098SOL    HW129513   6.206   9.811   5.107  0.8624  1.4736  1.0244
 6098SOL    HW229514   6.206   9.655   5.156  0.2775  0.4327 -2.1886
 6099SOL     OW29515   8.366   8.536   3.905  0.2886 -0.0402 -0.1909
 6099SOL    HW129516   8.452   8.521   3.954 -1.4358 -3.1248  2.0955
 6099SOL    HW229517   8.289   8.529   3.969 -1.8627 -0.6871 -2.7397
 6100SOL     OW29518   8.773   3.165   6.425 -0.1781  0.4365  0.4068
 6100SOL    HW129519   8.690   3.214   6.398 -0.1779  0.6856  0.8602
 6100SOL    HW229520   8.846   3.185   6.359  0.6407  3.2749  2.0784
 6101SOL     OW29521   8.087   9.136   3.582  0.1876 -0.6335 -0.5158
 6101SOL    HW129522   8.146   9.132   3.662 -0.9781  0.1548  0.4032
 6101SOL    HW229523   8.132   9.187   3.509  0.9063 -0.6215 -0.0674
 6102SOL     OW29524   0.935   3.174   0.239  0.4406 -0.5187 -0.1070
 6102SOL    HW129525   0.914   3.218   0.152 -1.2706 -1.2928 -0.1030
 6102SOL    HW229526   0.888   3.086   0.245 -1.5673  0.6620  2.6733
 6103SOL     OW29527   6.203   0.172   1.262 -0.4228  0.0008 -0.0199
 6103SOL    HW129528   6.110   0.207   1.272 -0.7384 -0.8356  0.0206
 6103SOL    HW229529   6.230   0.125   1.346 -0.6878 -1.4468 -0.7269
 6104SOL     OW29530   1.396   5.037   4.809  0.2823  0.2125 -0.1348
 6104SOL    HW129531   1.445   5.122   4.828 -0.4632  0.2310  1.7634
 6104SOL    HW229532   1.303   5.059   4.781  0.1382  0.0171  0.2012
 6105SOL     OW29533   6.498   4.913   0.393  0.2428  0.1298  0.3193
 6105SOL    HW129534   6.541   4.826   0.420 -0.8199 -0.5090 -0.0321
 6105SOL    HW229535   6.568   4.973   0.355  1.0239 -0.4968  0.7292
 6106SOL     OW29536   3.009   6.859   2.196 -0.0249 -0.4566 -0.3923
 6106SOL    HW129537   3.003   6.862   2.296 -0.6850  2.5517 -0.4953
 6106SOL    HW229538   3.095   6.815   2.170  1.6553  1.5569  1.5663
 6107SOL     OW29539   3.134   2.932   6.489 -0.4766 -0.3676  0.1559
 6107SOL    HW129540   3.064   3.004   6.481 -1.3326 -1.1944  0.1276
 6107SOL    HW229541   3.093   2.843   6.471  0.5477 -0.8902  0.3467
 6108SOL     OW29542   9.351   5.488   1.059 -0.3161  0.7128 -0.6317
 6108SOL    HW129543   9.293   5.569   1.066 -0.7870  0.4992 -1.8926
 6108SOL    HW229544   9.445   5.516   1.039 -0.5555  0.9417 -1.4673
 6109SOL     OW29545   2.918   3.910   5.040  0.0675 -0.0052  0.2810
 6109SOL    HW129546   2.894   3.814   5.051 -1.0555  0.3940  1.4536
 6109SOL    HW229547   2.872   3.947   4.959 -0.8078 -0.0545  0.7441
 6110SOL     OW29548   0.859   9.250   1.520 -0.1011  0.3096 -0.1095
 6110SOL    HW129549   0.833   9.280   1.611  1.0228 -2.0201  1.0309
 6110SOL    HW229550   0.872   9.151   1.520  1.8725  0.5165 -2.3249
 6111SOL     OW29551   3.651   7.520   1.034 -0.0307  0.5893  0.2647
 6111SOL    HW129552   3.601   7.531   0.948 -0.8442  1.5267  0.8405
 6111SOL    HW229553   3.742   7.485   1.016 -0.4614  0.0494 -0.9201
 6112SOL     OW29554   2.162   6.153   5.087  0.0383  0.3178 -0.0425
 6112SOL    HW129555   2.246   6.099   5.081  1.4601  2.3789  0.8179
 6112SOL    HW229556   2.164   6.211   5.169 -0.4129  3.3130 -2.0360
 6113SOL     OW29557   8.931   8.657   2.584  0.1550  0.5933  0.0705
 6113SOL    HW129558   8.899   8.656   2.678  1.2018 -0.0783  0.4329
 6113SOL    HW229559   8.974   8.569   2.562 -1.4012  0.1771 -1.5092
 6114SOL     OW29560   5.084   3.851   0.598  0.0128  0.7152 -0.0711
 6114SOL    HW129561   5.102   3.923   0.666  1.4576  2.5067 -2.2908
 6114SOL    HW229562   5.021   3.885   0.529  1.7995  0.3459 -1.9247
 6115SOL     OW29563   2.121   5.076   3.433  0.1840 -0.2432  0.0291
 6115SOL    HW129564   2.164   4.986   3.428 -0.5828 -0.6115  0.0535
 6115SOL    HW229565   2.029   5.068   3.473 -0.6761  0.2756 -1.8009
 6116SOL     OW29566   9.742   8.668   6.067 -0.4272  0.2333  0.1556
 6116SOL    HW129567   9.732   8.569   6.055  1.4332  0.0019  0.3038
 6116SOL    HW229568   9.743   8.711   5.977 -1.5738  0.1497  0.1039
 6117SOL     OW29569   8.078   2.619   5.624  0.2426 -0.5840 -0.1217
 6117SOL    HW129570   8.035   2.691   5.679 -0.5949 -1.2406  0.0891
 6117SOL    HW229571   8.170   2.649   5.597 -0.2124  0.6914 -0.3000
 6118SOL     OW29572   7.421   0.040   1.042 -0.7079 -0.0366 -0.3348
 6118SOL    HW129573   7.494  -0.018   1.079  0.4120  0.1842 -2.1546
 6118SOL    HW229574   7.455   0.091   0.963 -2.2436  1.6523  0.0473
 6119SOL     OW29575   4.321   2.909   0.943  0.5046 -0.3008  0.5971
 6119SOL    HW129576   4.282   2.884   0.854  0.7738  0.4780  0.2635
 6119SOL    HW229577   4.419   2.892   0.943  0.6567  0.6045  0.4320
 6120SOL     OW29578   1.874   4.680   5.914  0.1794  0.5389 -0.1633
 6120SOL    HW129579   1.950   4.620   5.940 -0.5012  0.6013  2.0218
 6120SOL    HW229580   1.904   4.740   5.839  1.8634 -0.3250 -0.2246
 6121SOL     OW29581   9.658   5.316   1.592 -0.3268  0.4685  0.2006
 6121SOL    HW129582   9.686   5.221   1.603  1.0140  0.4925 -2.5241
 6121SOL    HW229583   9.579   5.321   1.531 -0.4094  1.1055  0.3548
 6122SOL     OW29584   2.753   9.635   5.871  0.3534  0.4221 -0.1757
 6122SOL    HW129585   2.745   9.575   5.791 -0.6740  1.0138 -0.5326
 6122SOL    HW229586   2.682   9.612   5.937 -0.6406  1.8297 -0.7190
 6123SOL     OW29587   7.252   8.421   4.438  0.0334 -0.1270  0.4065
 6123SOL    HW129588   7.317   8.466   4.376  0.5540 -2.2814 -0.6642
 6123SOL    HW229589   7.161   8.462   4.426  0.5238  0.7340 -0.4287
 6124SOL     OW29590   7.466   5.905   5.594  0.5564  0.0444 -0.0266
 6124SOL    HW129591   7.442   5.864   5.506  0.5783  0.9315 -0.4549
 6124SOL    HW229592   7.550   5.959   5.583 -0.2230  1.3237  0.1913
 6125SOL     OW29593   4.727   8.629   3.458 -0.8298  0.2935  0.5649
 6125SOL    HW129594   4.769   8.552   3.410 -0.1986  0.1760  1.3046
 6125SOL    HW229595   4.767   8.715   3.425  0.8253  0.1254  2.0701
 6126SOL     OW29596   7.782   7.918   6.032  0.3407 -0.9404  0.1183
 6126SOL    HW129597   7.858   7.899   6.093  1.6406  0.8903 -0.8847
 6126SOL    HW229598   7.720   7.839   6.029  1.6854 -2.0723  1.6602
 6127SOL     OW29599   7.627   7.066   4.706 -0.2720  0.5920  0.4163
 6127SOL    HW129600   7.711   7.121   4.704  1.2905 -1.6738  1.6838
 6127SOL    HW229601   7.597   7.054   4.800 -1.5402  0.6213  0.0306
 6128SOL     OW29602   6.835   0.632   3.140  0.1694 -0.3005 -0.0182
 6128SOL    HW129603   6.814   0.715   3.090 -1.5463  0.0526  1.2267
 6128SOL    HW229604   6.924   0.640   3.183 -1.1894  2.1017  2.4748
 6129SOL     OW29605   0.498   9.800   1.953  0.2210 -0.4999 -0.0001
 6129SOL    HW129606   0.442   9.813   1.871  0.4747  1.2988  0.0887
 6129SOL    HW229607   0.497   9.704   1.979 -2.4883 -0.5669 -0.2166
 6130SOL     OW29608   3.208   1.867   4.932  0.2193  0.1041  0.1644
 6130SOL    HW129609   3.277   1.927   4.970 -1.5001  2.0036  0.3796
 6130SOL    HW229610   3.223   1.855   4.834 -0.1262  1.8790 -0.1118
 6131SOL     OW29611   7.733   9.802   3.133  0.3003  0.1766  0.7006
 6131SOL    HW129612   7.690   9.823   3.045  1.7151 -2.2661 -0.6029
 6131SOL    HW229613   7.758   9.888   3.179 -1.8243  1.5067 -0.5454
 6132SOL     OW29614   0.969   1.398   0.476 -0.1837 -0.7028  0.0808
 6132SOL    HW129615   0.918   1.327   0.524 -4.2761  2.1999  0.3345
 6132SOL    HW229616   0.952   1.391   0.378 -2.9443  1.4224  0.3039
 6133SOL     OW29617   6.949   0.030   0.363  0.0015 -0.3091  0.5872
 6133SOL    HW129618   7.048   0.037   0.376  0.1384 -1.5155  0.2697
 6133SOL    HW229619   6.930   0.015   0.265 -0.5555  1.0416  0.4863
 6134SOL     OW29620   4.238   0.136   0.759 -0.3648  0.0314  0.2735
 6134SOL    HW129621   4.220   0.088   0.674  0.2289  2.9577 -1.5779
 6134SOL    HW229622   4.155   0.185   0.788 -0.2653 -0.1174  0.8149
 6135SOL     OW29623   7.091   8.980   2.994  0.1462  0.3740  0.6355
 6135SOL    HW129624   6.994   9.000   3.009 -0.5397 -3.0271  1.1320
 6135SOL    HW229625   7.102   8.882   2.978  3.2995  0.9967 -1.3709
 6136SOL     OW29626   8.504   4.810   4.326  0.0899  0.9835 -0.0072
 6136SOL    HW129627   8.507   4.718   4.367 -0.4307  1.7668  1.8019
 6136SOL    HW229628   8.598   4.843   4.313  0.2489  1.1565  1.5281
 6137SOL     OW29629   2.378   6.993   0.612 -0.1790 -0.3228  0.2971
 6137SOL    HW129630   2.415   6.984   0.705 -0.5108 -0.7633  0.3865
 6137SOL    HW229631   2.433   7.060   0.561 -2.1680  2.7350  1.9595
 6138SOL     OW29632   9.402   0.193   0.415 -0.0116  0.2307  0.0674
 6138SOL    HW129633   9.386   0.179   0.513  0.5405  1.7874  0.3939
 6138SOL    HW229634   9.323   0.161   0.363 -1.7554  2.5075  1.2653
 6139SOL     OW29635   2.781   8.292   5.384  0.1500 -0.2071  0.5204
 6139SOL    HW129636   2.847   8.366   5.387  0.4517 -0.4539  0.0853
 6139SOL    HW229637   2.690   8.327   5.408 -0.3716  1.0753 -2.9962
 6140SOL     OW29638   9.018   5.497   0.661  0.5328 -0.5208  0.2044
 6140SOL    HW129639   8.987   5.515   0.754  0.1895 -1.1933  0.2266
 6140SOL    HW229640   9.026   5.398   0.647 -1.9009 -0.5603 -1.2769
 6141SOL     OW29641   2.671   4.735   2.778  0.6077 -0.0095  0.1981
 6141SOL    HW129642   2.592   4.765   2.831  0.1126 -0.2265 -0.4065
 6141SOL    HW229643   2.744   4.706   2.840 -0.2331 -0.9487  0.7619
 6142SOL     OW29644   4.622   3.040   3.251 -0.1291 -0.0565  0.2252
 6142SOL    HW129645   4.647   3.026   3.347  0.1226  1.1797  0.3524
 6142SOL    HW229646   4.560   3.118   3.244 -1.0244 -0.8157 -0.5098
 6143SOL     OW29647   9.885   9.774   6.153 -0.1654  0.4611 -0.3561
 6143SOL    HW129648   9.861   9.782   6.250  0.2382 -0.2716 -0.1866
 6143SOL    HW229649   9.926   9.860   6.122 -0.2421  0.6795  0.1398
 6144SOL     OW29650   0.987   6.992   5.171  0.4585 -0.6197 -0.4183
 6144SOL    HW129651   0.947   7.040   5.093  1.3462  0.7774 -0.0296
 6144SOL    HW229652   0.946   7.026   5.256  0.2401 -1.3969 -0.2090
 6145SOL     OW29653   8.534   0.471   4.519 -0.4256  0.0904  0.9892
 6145SOL    HW129654   8.477   0.415   4.459  1.1706 -0.7558  0.2229
 6145SOL    HW229655   8.624   0.428   4.529  0.4582  1.9659  1.2742
 6146SOL     OW29656   8.552   8.260   2.131 -0.4006  0.0032  0.5112
 6146SOL    HW129657   8.617   8.229   2.200  2.1392  1.0215 -1.3147
 6146SOL    HW229658   8.491   8.185   2.106  2.8181 -2.3303 -0.7198
 6147SOL     OW29659   4.113   9.779   0.724  0.0200 -0.1093 -0.3749
 6147SOL    HW129660   4.166   9.698   0.750  1.6162  1.1241  0.2627
 6147SOL    HW229661   4.073   9.819   0.806 -0.7627 -0.2417 -0.6907
 6148SOL     OW29662   7.807   2.979   3.792 -0.2199 -0.1374  0.2964
 6148SOL    HW129663   7.870   3.028   3.852  0.9782 -0.1228 -0.9325
 6148SOL    HW229664   7.765   3.043   3.728  0.0099 -0.4324 -0.1577
 6149SOL     OW29665   9.284   1.201   3.493  0.0821  0.1736  0.0276
 6149SOL    HW129666   9.333   1.148   3.424  1.5401  3.0320 -1.2009
 6149SOL    HW229667   9.187   1.205   3.469  0.4245  0.3521 -1.3792
 6150SOL     OW29668   9.323   2.965   1.522 -0.2306  0.3658 -0.3306
 6150SOL    HW129669   9.337   3.056   1.559 -0.1460  0.1548  0.1624
 6150SOL    HW229670   9.249   2.967   1.455 -0.7260  0.6512  0.2247
 6151SOL     OW29671   8.314   8.438   5.687 -0.1931  0.9587 -0.1105
 6151SOL    HW129672   8.403   8.403   5.716  0.3733  1.5661 -1.1048
 6151SOL    HW229673   8.260   8.461   5.768  0.0582 -0.5997  0.5355
 6152SOL     OW29674   0.881   5.822   6.542  0.3260  0.0599 -0.1338
 6152SOL    HW129675   0.902   5.728   6.569  0.7115 -0.1612 -1.1804
 6152SOL    HW229676   0.786   5.843   6.567  0.0923 -0.7654 -0.3010
 6153SOL     OW29677   3.584   9.538   2.160 -0.1351 -0.4026 -0.1245
 6153SOL    HW129678   3.671   9.580   2.136 -0.6302 -0.0629 -1.3659
 6153SOL    HW229679   3.591   9.495   2.250  0.4911  2.0045  1.0171
 6154SOL     OW29680   0.876   4.654   1.097 -0.5922  0.3848  0.1144
 6154SOL    HW129681   0.904   4.652   1.193 -1.8957 -0.8304  0.4907
 6154SOL    HW229682   0.783   4.619   1.088 -0.5370  0.6032 -1.5788
 6155SOL     OW29683   2.731   5.317   3.503  0.2718  0.4849 -0.1671
 6155SOL    HW129684   2.636   5.319   3.472 -0.2158 -1.1763  1.1496
 6155SOL    HW229685   2.753   5.403   3.549 -1.0904  0.2599  0.9245
 6156SOL     OW29686   3.841   4.403   0.846 -0.1575 -0.2600 -0.4982
 6156SOL    HW129687   3.751   4.358   0.847 -0.4413  0.3126 -0.3332
 6156SOL    HW229688   3.912   4.334   0.831 -0.5924 -0.7697 -0.2417
 6157SOL     OW29689   2.637   6.204   4.742 -0.3159  0.2028  0.3481
 6157SOL    HW129690   2.584   6.235   4.664  0.6988 -0.9703 -0.8285
 6157SOL    HW229691   2.575   6.173   4.814 -1.2317 -0.9974 -0.9356
 6158SOL     OW29692   3.995   5.769   5.850  0.3243 -0.0449 -0.0323
 6158SOL    HW129693   4.065   5.734   5.788 -0.9864 -0.7145 -1.1617
 6158SOL    HW229694   3.969   5.697   5.915  1.0100  0.3524  0.6869
 6159SOL     OW29695   9.930   5.645   1.543  0.0631  0.6593  0.3577
 6159SOL    HW129696   9.877   5.637   1.458  1.4177  0.1949 -0.4492
 6159SOL    HW229697  10.024   5.671   1.521  1.5360 -3.4570  1.3761
 6160SOL     OW29698   2.435   0.348   2.004 -0.1339  0.0115 -0.0729
 6160SOL    HW129699   2.512   0.293   2.038 -0.3799 -1.5558 -1.9901
 6160SOL    HW229700   2.354   0.330   2.059  0.6672  1.1331  1.5119
 6161SOL     OW29701   9.312   5.170   5.693  0.5801 -0.0761  0.1861
 6161SOL    HW129702   9.235   5.109   5.709  1.6253 -1.2636  0.8192
 6161SOL    HW229703   9.321   5.233   5.770  0.7688 -0.5218  0.5328
 6162SOL     OW29704   7.697   8.873   3.450  0.2118 -0.5658  0.7117
 6162SOL    HW129705   7.619   8.821   3.485 -1.3951  0.5885 -1.0624
 6162SOL    HW229706   7.706   8.859   3.352  1.6545  0.0797  0.7269
 6163SOL     OW29707   2.248   6.759   1.447 -0.3033 -0.0554 -0.1003
 6163SOL    HW129708   2.293   6.773   1.536  0.8321 -0.1383 -0.6626
 6163SOL    HW229709   2.157   6.719   1.462 -0.9823  1.8939  1.1577
 6164SOL     OW29710   9.536   7.194   4.816  0.0286 -0.0365  0.0982
 6164SOL    HW129711   9.567   7.178   4.722 -2.6767 -2.8728 -0.4022
 6164SOL    HW229712   9.578   7.126   4.877 -1.1300 -0.5895  0.2932
 6165SOL     OW29713   8.565   9.864   6.746  0.1887  0.1488  0.7682
 6165SOL    HW129714   8.491   9.922   6.779 -0.6355  0.0789 -0.8959
 6165SOL    HW229715   8.649   9.885   6.796 -0.6659  1.0746  1.8350
 6166SOL     OW29716   0.015   1.961   0.734 -0.2221 -0.1325  0.0765
 6166SOL    HW129717   0.082   1.925   0.799  0.8473  0.8136 -0.4940
 6166SOL    HW229718   0.062   1.991   0.651 -1.6290 -1.9233 -1.4185
 6167SOL     OW29719   0.692   2.477   0.742 -0.4863  0.0425  0.3831
 6167SOL    HW129720   0.655   2.434   0.659 -2.4567  0.0133  1.2686
 6167SOL    HW229721   0.728   2.567   0.719 -2.5374  0.7247 -0.2047
 6168SOL     OW29722   0.244   9.094   5.022 -0.1394 -0.4560 -0.7011
 6168SOL    HW129723   0.244   9.116   4.924  2.4066 -1.0854 -0.8743
 6168SOL    HW229724   0.150   9.099   5.057 -1.3750 -2.0164 -3.5850
 6169SOL     OW29725   3.566   4.346   2.190  0.0458  0.1068 -0.1055
 6169SOL    HW129726   3.543   4.250   2.207 -3.1107  0.7717 -0.2612
 6169SOL    HW229727   3.598   4.356   2.095  0.9541 -0.8516  0.0856
 6170SOL     OW29728   8.246   3.098   3.892  0.0595 -0.3880  0.2090
 6170SOL    HW129729   8.164   3.110   3.947 -1.2926 -0.9699 -1.6438
 6170SOL    HW229730   8.303   3.025   3.931 -2.0938 -2.5287 -0.5350
 6171SOL     OW29731   9.247   5.662   0.606 -0.4916 -0.4821 -0.2117
 6171SOL    HW129732   9.293   5.647   0.519  1.8811  0.0473  0.9345
 6171SOL    HW229733   9.157   5.618   0.604 -0.2278 -0.9585 -2.7080
 6172SOL     OW29734   4.228   4.908   3.923 -0.2247 -0.2977  0.6306
 6172SOL    HW129735   4.261   4.953   3.841  1.1906 -1.0911  0.7525
 6172SOL    HW229736   4.304   4.895   3.987 -1.5449  1.5699  2.6767
 6173SOL     OW29737   0.981   4.568   6.501 -0.1976 -0.7976  0.4019
 6173SOL    HW129738   1.029   4.528   6.579  0.7632 -1.1096 -0.3396
 6173SOL    HW229739   0.997   4.667   6.498 -0.5852 -0.7227  0.8462
 6174SOL     OW29740   2.157   8.450   3.525 -0.3543  0.1577 -0.1798
 6174SOL    HW129741   2.231   8.410   3.579 -1.0544  0.4365  1.0149
 6174SOL    HW229742   2.145   8.399   3.440  1.2712  0.1742 -0.4233
 6175SOL     OW29743   8.858   8.834   2.350  0.7347  0.2952 -0.0247
 6175SOL    HW129744   8.813   8.791   2.271  0.7671  1.2434 -0.5759
 6175SOL    HW229745   8.921   8.769   2.392 -1.2661 -1.1113  0.8567
 6176SOL     OW29746   3.061   0.811   0.573 -0.0810  0.3157  0.1455
 6176SOL    HW129747   3.109   0.822   0.486 -1.7299 -2.5867 -1.1947
 6176SOL    HW229748   3.108   0.743   0.630  0.4616  1.5072  1.1457
 6177SOL     OW29749   9.007   1.356   3.727 -0.3393 -0.2727 -0.4268
 6177SOL    HW129750   8.947   1.436   3.735 -0.6553 -0.6934  1.7500
 6177SOL    HW229751   9.102   1.385   3.730 -0.4213  0.2346 -2.1274
 6178SOL     OW29752   3.685   4.343   5.079 -0.0087 -0.1511 -0.5426
 6178SOL    HW129753   3.782   4.354   5.100 -0.0290 -0.2541 -0.3978
 6178SOL    HW229754   3.643   4.280   5.145 -0.3844  0.6572 -0.0030
 6179SOL     OW29755   1.461   9.646   5.089  0.0043 -0.0578 -0.4517
 6179SOL    HW129756   1.442   9.744   5.100 -0.5745 -0.2749  0.5994
 6179SOL    HW229757   1.527   9.632   5.016 -0.3819  1.0801 -1.0253
 6180SOL     OW29758   3.150   8.837   6.495 -0.2000 -0.0008 -0.8334
 6180SOL    HW129759   3.154   8.928   6.456  1.8976  0.3816  0.1711
 6180SOL    HW229760   3.172   8.769   6.425 -0.0542  0.4076 -1.1835
 6181SOL     OW29761   7.948   7.839   6.268 -0.4302 -0.1870  0.2526
 6181SOL    HW129762   8.006   7.918   6.245 -0.0492 -0.7692 -0.8383
 6181SOL    HW229763   8.002   7.773   6.320  0.0156 -0.9000 -1.0888
 6182SOL     OW29764   7.421   6.586   4.414  0.3461 -0.4511 -0.8206
 6182SOL    HW129765   7.447   6.639   4.334  0.1625  0.6762 -0.1458
 6182SOL    HW229766   7.404   6.648   4.491  0.8674 -1.5339  0.1873
 6183SOL     OW29767   3.319   4.795   4.609  0.5308  0.1344 -0.0898
 6183SOL    HW129768   3.248   4.733   4.575 -0.6941  1.5038 -0.0653
 6183SOL    HW229769   3.408   4.762   4.578  0.0031 -2.1772  0.7395
 6184SOL     OW29770   9.469   6.972   5.276 -0.2127 -0.1628  0.3066
 6184SOL    HW129771   9.395   6.915   5.313 -0.4944 -0.6509 -0.9997
 6184SOL    HW229772   9.490   7.045   5.341 -0.7489 -0.9728  1.4005
 6185SOL     OW29773   7.544   7.597   1.702 -0.1796 -0.0551 -0.1397
 6185SOL    HW129774   7.628   7.551   1.733  0.2364  0.5440 -0.3692
 6185SOL    HW229775   7.562   7.694   1.690 -1.3853  0.3783  1.5038
 6186SOL     OW29776   4.018   5.585   0.873 -0.1819 -1.0441  0.0603
 6186SOL    HW129777   3.941   5.576   0.810  0.8210 -1.0008 -1.1873
 6186SOL    HW229778   4.041   5.681   0.885 -0.3184 -1.0560  0.4389
 6187SOL     OW29779   1.335   6.168   6.402  0.0819  0.2777  0.6955
 6187SOL    HW129780   1.339   6.122   6.492 -0.0957  0.1220  0.6255
 6187SOL    HW229781   1.306   6.262   6.414  0.4803  0.3819  0.8453
 6188SOL     OW29782   6.269   9.491   3.104 -0.2497  0.6656 -0.4338
 6188SOL    HW129783   6.235   9.538   3.023  2.4323  1.7717 -0.9729
 6188SOL    HW229784   6.314   9.556   3.164  0.1434 -0.5972  0.6592
 6189SOL     OW29785   5.954   0.323   3.131  0.1777 -0.2064  0.1857
 6189SOL    HW129786   5.912   0.320   3.040  1.4219  1.9000 -0.4982
 6189SOL    HW229787   5.895   0.376   3.192  0.5007  0.4503 -0.0604
 6190SOL     OW29788   8.565   5.017   3.315  0.2791  0.0770 -0.1981
 6190SOL    HW129789   8.504   4.938   3.311 -1.5708  1.5444 -1.4664
 6190SOL    HW229790   8.579   5.044   3.410 -1.6307  0.1613  0.0792
 6191SOL     OW29791   9.187   4.504   1.512  0.3786  0.2760 -0.6474
 6191SOL    HW129792   9.182   4.524   1.414  0.3774  0.0447 -0.6942
 6191SOL    HW229793   9.098   4.520   1.554 -0.2367 -1.7841 -1.0907
 6192SOL     OW29794   9.889   4.326   2.030  0.0003 -0.0174 -0.4985
 6192SOL    HW129795   9.812   4.264   2.014  0.3362 -1.0272  1.7254
 6192SOL    HW229796   9.973   4.273   2.042  0.3099  0.8765  1.3165
 6193SOL     OW29797   5.754   2.798   4.583  0.1413  0.6832  0.2629
 6193SOL    HW129798   5.800   2.802   4.672  1.4129  0.9675 -0.3916
 6193SOL    HW229799   5.823   2.787   4.511 -1.0097 -1.4778 -0.5374
 6194SOL     OW29800   1.309   1.704   4.480 -0.1143 -0.1481 -0.1849
 6194SOL    HW129801   1.381   1.765   4.448  0.4059 -0.1834  0.8979
 6194SOL    HW229802   1.240   1.758   4.529 -0.5721 -0.1866 -0.7751
 6195SOL     OW29803   1.714   7.105   2.460  0.3179 -0.0353 -0.1535
 6195SOL    HW129804   1.717   7.197   2.501  1.7035  0.4778 -1.3790
 6195SOL    HW229805   1.803   7.061   2.472 -0.5279 -1.4780  0.9720
 6196SOL     OW29806   5.380   2.597   4.907  0.4054  0.0067 -0.1058
 6196SOL    HW129807   5.412   2.668   4.843 -0.5756 -0.1065 -0.7338
 6196SOL    HW229808   5.288   2.567   4.880 -0.2698  0.3677  1.6879
 6197SOL     OW29809   8.838   7.166   3.133 -0.0416 -0.2138 -0.1709
 6197SOL    HW129810   8.830   7.104   3.211 -2.0904 -2.1184 -1.8335
 6197SOL    HW229811   8.809   7.119   3.049  1.5566  1.9590 -2.0223
 6198SOL     OW29812   8.498   0.444   3.266 -0.9303  0.1233  0.1184
 6198SOL    HW129813   8.542   0.441   3.356 -0.3964  0.6853 -0.1199
 6198SOL    HW229814   8.459   0.535   3.252 -0.5752  0.1904 -0.4291
 6199SOL     OW29815   0.670   7.193   0.914  0.0587 -0.2869  0.4030
 6199SOL    HW129816   0.624   7.236   0.991  1.2678  0.4667  0.7121
 6199SOL    HW229817   0.619   7.213   0.830 -0.7761 -0.3758  0.8822
 6200SOL     OW29818   0.666   6.067   4.129  0.4551  0.2965 -0.1759
 6200SOL    HW129819   0.659   6.074   4.229  1.6976  1.5817 -0.1727
 6200SOL    HW229820   0.751   6.022   4.105 -1.4306 -3.2300 -0.5974
 6201SOL     OW29821   3.590   3.872   1.592  0.0478  0.3263  0.1649
 6201SOL    HW129822   3.654   3.925   1.648  0.0668 -1.1153  1.5376
 6201SOL    HW229823   3.518   3.834   1.650  1.2338 -2.9358 -0.4313
 6202SOL     OW29824   3.263   9.573   3.375 -0.5146  0.2344 -0.0777
 6202SOL    HW129825   3.291   9.625   3.295 -0.6823  0.2672 -0.1140
 6202SOL    HW229826   3.219   9.488   3.346 -1.3100  0.6326 -0.0245
 6203SOL     OW29827   1.009   7.859   0.079 -0.1597 -0.0621 -0.2947
 6203SOL    HW129828   0.921   7.901   0.101 -1.5334 -2.7296 -0.5420
 6203SOL    HW229829   0.999   7.802  -0.002  2.1459  0.6533 -1.1212
 6204SOL     OW29830   3.128   1.186   4.768 -0.1297  0.0237 -0.5695
 6204SOL    HW129831   3.030   1.166   4.768 -0.0199 -0.5274 -0.4513
 6204SOL    HW229832   3.171   1.139   4.691  0.3133 -1.1139  0.3534
 6205SOL     OW29833   0.885   2.528   0.355 -0.2275 -0.2812 -0.3117
 6205SOL    HW129834   0.837   2.443   0.332  1.9250 -2.1004  1.7577
 6205SOL    HW229835   0.961   2.542   0.292 -1.7562  1.2205 -1.9064
 6206SOL     OW29836   9.449   5.348   1.408  0.0693 -0.0702 -0.1742
 6206SOL    HW129837   9.407   5.426   1.361 -1.8171 -1.5618 -1.0627
 6206SOL    HW229838   9.377   5.284   1.435  1.3451 -0.2872  2.8468
 6207SOL     OW29839   0.554   2.105   2.759 -0.1058 -0.1031 -0.2447
 6207SOL    HW129840   0.484   2.161   2.804  1.0866  0.6875  0.6631
 6207SOL    HW229841   0.642   2.152   2.764  0.2558 -0.4484 -2.5673
 6208SOL     OW29842   8.382   0.095   6.497  0.0521 -0.0404  0.1127
 6208SOL    HW129843   8.411   0.019   6.439  0.7631 -0.5393  1.1076
 6208SOL    HW229844   8.282   0.093   6.507 -0.1177  0.2472 -1.3432
 6209SOL     OW29845   1.233   6.524   2.761 -0.0787 -0.5249  0.4548
 6209SOL    HW129846   1.231   6.473   2.675 -1.8444  0.9093 -0.3823
 6209SOL    HW229847   1.226   6.460   2.838 -0.5982 -1.6688 -0.5292
 6210SOL     OW29848   8.188   3.389   6.436 -0.2969  0.4942 -0.4568
 6210SOL    HW129849   8.219   3.396   6.531 -0.7949 -0.3246 -0.2267
 6210SOL    HW229850   8.233   3.312   6.392 -1.9061 -0.6597 -0.1443
 6211SOL     OW29851   3.432   4.775   2.580 -0.3778  0.4219 -0.0887
 6211SOL    HW129852   3.470   4.795   2.490 -2.0690  0.5695 -0.7872
 6211SOL    HW229853   3.506   4.752   2.643  0.8350  0.4792 -1.4668
 6212SOL     OW29854   3.435   6.959   4.176  1.0569  0.3255 -0.2989
 6212SOL    HW129855   3.424   7.039   4.235  1.0958 -0.8862  1.3813
 6212SOL    HW229856   3.527   6.958   4.137  1.0996  1.0127 -0.2106
 6213SOL     OW29857   1.678   8.329   4.773 -0.2861  0.2775 -0.5750
 6213SOL    HW129858   1.616   8.366   4.703  0.3289  2.6950  0.1050
 6213SOL    HW229859   1.689   8.396   4.846  3.4321  0.0490 -0.8426
 6214SOL     OW29860   1.283   8.102   4.312  0.2816 -0.1608  0.0598
 6214SOL    HW129861   1.305   8.005   4.301  1.0169 -0.0904  0.8518
 6214SOL    HW229862   1.359   8.157   4.276 -0.0829  0.1219 -0.2801
 6215SOL     OW29863   9.971   0.526   0.398 -0.0760  0.0406 -0.0181
 6215SOL    HW129864  10.007   0.592   0.333 -0.7559  1.8164  1.3678
 6215SOL    HW229865   9.872   0.515   0.384  0.0493 -0.7728 -0.3123
 6216SOL     OW29866   0.339   8.470   2.630  0.0616 -0.5802 -0.6276
 6216SOL    HW129867   0.339   8.375   2.661  1.3721 -0.1586  0.7134
 6216SOL    HW229868   0.304   8.529   2.702  0.8414  0.1364 -0.8224
 6217SOL     OW29869   7.718   7.141   2.505  0.4631 -0.1782  0.1954
 6217SOL    HW129870   7.698   7.052   2.548 -0.0608 -1.2803 -2.2585
 6217SOL    HW229871   7.802   7.134   2.452 -1.2248 -0.1773 -2.6020
 6218SOL     OW29872   8.829   0.744   6.759  0.4985  0.1714 -0.2273
 6218SOL    HW129873   8.918   0.754   6.803 -0.1566  1.0319  0.9315
 6218SOL    HW229874   8.806   0.647   6.752  1.3484 -0.0368 -0.1653
 6219SOL     OW29875   7.851   3.205   4.590  0.2559 -0.6712  0.3652
 6219SOL    HW129876   7.827   3.297   4.561 -0.3539 -0.1522  2.3833
 6219SOL    HW229877   7.943   3.182   4.557  0.4755  0.7262 -0.0295
 6220SOL     OW29878   9.626   3.545   6.601  0.4558 -0.1562  0.6723
 6220SOL    HW129879   9.684   3.537   6.682  1.0761 -0.2564  0.2192
 6220SOL    HW229880   9.572   3.461   6.591  0.2710 -0.0848  1.0607
 6221SOL     OW29881   4.720   3.023   4.309  0.2958  0.3165 -0.3428
 6221SOL    HW129882   4.722   3.117   4.276 -0.4873  1.0527  1.6221
 6221SOL    HW229883   4.810   2.998   4.347 -0.1175  1.0373  1.1438
 6222SOL     OW29884   6.347   9.906   4.200 -0.3666  0.1533 -0.0126
 6222SOL    HW129885   6.304   9.826   4.159 -2.2328  1.8842 -1.5247
 6222SOL    HW229886   6.411   9.946   4.135  0.6676 -0.1748  0.7939
 6223SOL     OW29887   9.460   4.481   4.073  0.1580  0.6124 -0.4177
 6223SOL    HW129888   9.394   4.407   4.078  0.6523  0.2169  0.3715
 6223SOL    HW229889   9.497   4.487   3.981 -0.8033  0.6886 -0.8032
 6224SOL     OW29890   3.685   0.593   5.096  0.3669 -0.5901 -0.6504
 6224SOL    HW129891   3.663   0.691   5.100 -0.7028 -0.8312 -0.4704
 6224SOL    HW229892   3.674   0.553   5.187 -1.3762 -1.3321 -1.1685
 6225SOL     OW29893   4.493   1.487   5.462  0.0167  0.4570  0.5243
 6225SOL    HW129894   4.525   1.467   5.369  0.1226 -2.1006  1.0641
 6225SOL    HW229895   4.513   1.582   5.484  2.3960  0.3899 -1.1101
 6226SOL     OW29896   1.908   0.428   2.687 -0.3096  0.3697  0.1648
 6226SOL    HW129897   1.866   0.473   2.608 -0.0669  0.9318  0.3515
 6226SOL    HW229898   1.920   0.330   2.668 -0.4182  0.4704 -0.4211
 6227SOL     OW29899   3.875   5.386   5.387 -0.0990  0.2489 -0.1095
 6227SOL    HW129900   3.930   5.333   5.452 -1.0497  1.1087  1.4399
 6227SOL    HW229901   3.913   5.377   5.295  1.4009 -0.8351  0.6026
 6228SOL     OW29902   1.332   8.378   3.839 -0.4952  0.2420  0.6423
 6228SOL    HW129903   1.309   8.379   3.742  0.8083  1.3892  0.3346
 6228SOL    HW229904   1.285   8.301   3.883  0.1975 -1.2981 -1.2193
 6229SOL     OW29905   1.218   4.842   5.660 -0.2166 -0.0140  0.6707
 6229SOL    HW129906   1.206   4.940   5.680  1.3253  0.2967  0.0770
 6229SOL    HW229907   1.188   4.789   5.740 -0.8850  0.9380  1.0707
 6230SOL     OW29908   1.094   1.005   6.103  0.1436 -0.1875 -0.1095
 6230SOL    HW129909   1.061   0.943   6.031  0.8298  2.6321 -2.9791
 6230SOL    HW229910   1.020   1.024   6.167 -1.2814 -0.6750 -1.5808
 6231SOL     OW29911   7.774   7.434   0.757  0.1345 -0.1059 -0.4242
 6231SOL    HW129912   7.833   7.514   0.751 -0.8407  0.6568  0.1162
 6231SOL    HW229913   7.746   7.407   0.664 -0.5886  0.9678 -0.5286
 6232SOL     OW29914   4.985   1.782   3.138  0.1198 -0.0354  0.2031
 6232SOL    HW129915   4.965   1.684   3.145 -4.3956  0.9094  2.3658
 6232SOL    HW229916   5.032   1.800   3.052  1.8739 -4.1935  0.1645
 6233SOL     OW29917   7.659   6.301   3.661  0.3141  0.2142 -0.4960
 6233SOL    HW129918   7.568   6.260   3.656  0.6036 -0.5413  0.2802
 6233SOL    HW229919   7.723   6.248   3.605  0.5158  0.0684 -0.1307
 6234SOL     OW29920   8.850   8.002   3.945 -0.1994 -0.0309 -0.3539
 6234SOL    HW129921   8.852   7.906   3.972  0.2624 -0.1372 -0.7451
 6234SOL    HW229922   8.918   8.053   3.998  0.0016 -0.0450 -0.5983
 6235SOL     OW29923   5.079   3.632   0.752 -0.0138  0.0072  0.6705
 6235SOL    HW129924   5.123   3.657   0.838  1.6408  0.5638 -0.3131
 6235SOL    HW229925   5.088   3.707   0.686 -0.2623 -0.8475 -0.3633
 6236SOL     OW29926   9.847   4.050   4.892  0.7139  0.7747 -0.2771
 6236SOL    HW129927   9.812   4.053   4.798  0.1997  1.3684 -0.0688
 6236SOL    HW229928   9.850   3.955   4.923  0.3390  0.6264 -0.6883
 6237SOL     OW29929   3.700   8.761   2.562  0.1151  0.5951 -0.7109
 6237SOL    HW129930   3.628   8.817   2.521 -0.6462  0.5355  0.5343
 6237SOL    HW229931   3.662   8.704   2.634  1.2925  0.0673 -0.4903
 6238SOL     OW29932   9.679   5.618   5.611 -0.5144  0.0470  0.1870
 6238SOL    HW129933   9.688   5.690   5.541  3.6356  0.7889  1.3405
 6238SOL    HW229934   9.690   5.658   5.702  1.5065 -1.9359  0.8701
 6239SOL     OW29935   1.662   7.475   4.680 -0.1003 -0.0258 -0.3428
 6239SOL    HW129936   1.724   7.447   4.606  3.8787  1.8681  2.0931
 6239SOL    HW229937   1.633   7.394   4.731 -0.1439 -1.0117 -1.9019
 6240SOL     OW29938   0.040   3.556   4.889 -0.1045 -0.7670 -0.7541
 6240SOL    HW129939  -0.023   3.633   4.881 -0.1825 -0.8743 -1.1907
 6240SOL    HW229940   0.030   3.496   4.809 -1.8102 -2.5633  0.7776
 6241SOL     OW29941   2.688   5.662   2.973 -0.0907 -0.0728 -0.2890
 6241SOL    HW129942   2.602   5.673   2.925  1.1730  0.4269 -2.4930
 6241SOL    HW229943   2.733   5.578   2.943 -0.0416 -0.6015  1.2235
 6242SOL     OW29944   1.227   7.614   5.183  0.1258  0.2945 -0.3658
 6242SOL    HW129945   1.174   7.530   5.172  0.6859 -0.0098 -0.7163
 6242SOL    HW229946   1.242   7.657   5.094  1.5295 -0.2689 -0.4147
 6243SOL     OW29947   1.391   4.791   6.641 -0.5160 -0.1055  0.5101
 6243SOL    HW129948   1.378   4.700   6.601  0.5760 -0.2947  0.5754
 6243SOL    HW229949   1.488   4.815   6.639 -0.8256  1.1685  0.2702
 6244SOL     OW29950   9.468   5.097   1.767  0.0439 -0.3124 -0.0656
 6244SOL    HW129951   9.451   5.144   1.853  0.7976 -0.4891  0.1819
 6244SOL    HW229952   9.539   5.028   1.779  2.0410  1.4118 -1.3806
 6245SOL     OW29953   7.975   7.087   2.383 -0.4179  0.3071 -0.4844
 6245SOL    HW129954   8.074   7.078   2.374 -0.8600 -2.8700 -2.9728
 6245SOL    HW229955   7.938   7.131   2.301 -1.2451 -0.2635 -0.4228
 6246SOL     OW29956   4.757   7.930   4.456  0.6044 -0.0297 -0.2663
 6246SOL    HW129957   4.668   7.975   4.463  0.3570 -0.3945 -1.0097
 6246SOL    HW229958   4.745   7.838   4.419  1.4824  0.6174 -2.2705
 6247SOL     OW29959   4.121   2.708   3.059  0.6429 -0.1666 -0.2747
 6247SOL    HW129960   4.033   2.712   3.106  0.7325  0.6642 -0.1758
 6247SOL    HW229961   4.164   2.620   3.078 -0.1357 -0.5551 -0.2755
 6248SOL     OW29962   8.682   0.480   5.500 -0.1289  0.3244 -0.4883
 6248SOL    HW129963   8.658   0.554   5.438  0.0062 -0.9648 -2.1232
 6248SOL    HW229964   8.779   0.458   5.490 -0.1059  0.1093  0.1866
 6249SOL     OW29965   8.562   2.728   5.736  0.1221  0.6274 -0.2029
 6249SOL    HW129966   8.629   2.779   5.682 -0.2452  1.9067  0.5162
 6249SOL    HW229967   8.479   2.783   5.746 -1.1214 -1.0375 -1.2759
 6250SOL     OW29968   3.029   8.681   3.162  0.1392 -0.2300 -0.7758
 6250SOL    HW129969   2.953   8.698   3.226  1.2911  1.8981  0.0969
 6250SOL    HW229970   3.068   8.591   3.180 -2.0754 -1.2963 -1.1455
 6251SOL     OW29971   7.512   8.074   4.394  0.2612 -0.0190 -0.5191
 6251SOL    HW129972   7.427   8.045   4.350  1.0955  0.7464 -2.7500
 6251SOL    HW229973   7.589   8.053   4.333  1.8450 -2.0595  2.1063
 6252SOL     OW29974   8.013   0.676   4.600 -0.3717 -0.1559 -0.0877
 6252SOL    HW129975   7.923   0.633   4.586  0.1838 -1.3422 -0.0241
 6252SOL    HW229976   8.082   0.606   4.613  0.3163  0.7797  1.4632
 6253SOL     OW29977   1.748   7.583   1.106  0.0695 -0.4394 -0.0459
 6253SOL    HW129978   1.779   7.626   1.191  0.4810 -2.0080  0.6281
 6253SOL    HW229979   1.659   7.540   1.121 -0.3095  0.1198 -0.6874
 6254SOL     OW29980   2.053   2.284   4.905  0.2753 -0.3568  0.7525
 6254SOL    HW129981   1.985   2.316   4.970  1.1644  1.8533  0.6425
 6254SOL    HW229982   2.016   2.288   4.812  0.9199  1.9966  0.5685
 6255SOL     OW29983   2.375   1.632   4.062 -0.0548 -0.2976 -0.5736
 6255SOL    HW129984   2.352   1.567   4.135  1.1134  1.3736  1.3389
 6255SOL    HW229985   2.330   1.719   4.081 -0.1190  0.0125 -2.1271
 6256SOL     OW29986   5.073   9.709   3.969  0.3725  0.3136 -0.4084
 6256SOL    HW129987   4.980   9.725   4.003  1.0587  1.8249  0.7890
 6256SOL    HW229988   5.096   9.779   3.901  0.5143 -0.2597 -0.9512
 6257SOL     OW29989   4.031   9.184   4.492 -0.4489 -0.0475  0.4755
 6257SOL    HW129990   4.065   9.131   4.570 -0.3632 -0.7579 -0.0455
 6257SOL    HW229991   4.057   9.138   4.407 -0.1648  0.9558  0.0168
 6258SOL     OW29992   9.023   3.723   4.937 -0.5596  0.2787  0.1561
 6258SOL    HW129993   9.034   3.740   5.034 -1.2370 -1.4211  0.5573
 6258SOL    HW229994   9.106   3.749   4.888  0.0836  0.3677  1.3003
 6259SOL     OW29995   8.382   4.354   4.761 -0.2362  0.2357 -0.4155
 6259SOL    HW129996   8.460   4.362   4.822 -0.6792 -0.7237  0.3042
 6259SOL    HW229997   8.413   4.326   4.670  0.2174 -0.5465 -0.0230
 6260SOL     OW29998   6.386   1.191   4.688 -0.2819 -0.1742 -0.2704
 6260SOL    HW129999   6.385   1.106   4.637 -0.9995 -1.7801  2.3329
 6260SOL    HW230000   6.464   1.247   4.658  1.4954 -2.6927 -0.4756
 6261SOL     OW30001   3.472   9.870   3.451  0.4459 -0.1578 -0.3331
 6261SOL    HW130002   3.542   9.820   3.400 -0.8395 -1.1193 -1.1796
 6261SOL    HW230003   3.399   9.897   3.389 -0.8358 -0.7837  0.9035
 6262SOL     OW30004   7.927   1.330   5.603 -0.1851  0.1161 -0.0218
 6262SOL    HW130005   7.932   1.390   5.524  0.1102  0.5319  0.3059
 6262SOL    HW230006   8.020   1.301   5.630 -0.2211  0.5887  0.6269
 6263SOL     OW30007   1.195   2.757   5.073 -0.2270  0.4435  1.0601
 6263SOL    HW130008   1.253   2.830   5.038  0.4197  0.3785  1.9703
 6263SOL    HW230009   1.100   2.788   5.076 -0.3893  0.2568 -1.2532
 6264SOL     OW30010   1.421   9.716   5.615  0.4785  0.8106 -0.5250
 6264SOL    HW130011   1.461   9.677   5.532  1.6236  0.5776  0.1140
 6264SOL    HW230012   1.333   9.672   5.634 -0.3061  1.6262 -2.1906
 6265SOL     OW30013   3.236   6.187   1.545  0.3885 -0.3046  0.6590
 6265SOL    HW130014   3.290   6.193   1.461 -0.1700  0.6876  0.3677
 6265SOL    HW230015   3.231   6.276   1.589 -0.9767 -0.3920  0.7042
 6266SOL     OW30016   4.928   2.372   1.165 -0.2183  0.1300 -0.2885
 6266SOL    HW130017   4.912   2.415   1.254 -1.4461 -1.4433  0.2669
 6266SOL    HW230018   4.847   2.383   1.108 -0.1155 -0.4883 -0.5528
 6267SOL     OW30019   8.303   2.636   4.585  0.4262  0.1540  0.3833
 6267SOL    HW130020   8.214   2.638   4.539 -0.0435 -0.3468  1.2488
 6267SOL    HW230021   8.373   2.671   4.523 -0.2418 -0.1983 -0.5971
 6268SOL     OW30022   5.034   4.349   3.397 -0.0611  0.6390  0.3470
 6268SOL    HW130023   5.040   4.320   3.492 -1.9808  0.8674  0.5468
 6268SOL    HW230024   5.091   4.289   3.340  0.6150  0.1310  1.5417
 6269SOL     OW30025   1.793   8.555   2.639  0.0783  0.1934  0.5391
 6269SOL    HW130026   1.836   8.641   2.613 -0.4040  0.6356  1.2028
 6269SOL    HW230027   1.847   8.512   2.712  2.0385 -1.5699 -1.8336
 6270SOL     OW30028   2.598   4.718   0.226  0.3054  0.3440  0.3980
 6270SOL    HW130029   2.529   4.756   0.289  0.0741  0.0687  0.3096
 6270SOL    HW230030   2.569   4.734   0.132 -0.5524 -1.4081  0.3426
 6271SOL     OW30031   5.599   8.939   3.618 -0.1114 -0.6623 -0.2972
 6271SOL    HW130032   5.526   8.999   3.653 -0.5027 -1.5490  0.4180
 6271SOL    HW230033   5.687   8.975   3.649 -0.2509  0.2659 -0.9413
 6272SOL     OW30034   7.559   8.863   5.246 -0.5641 -0.1246 -0.6006
 6272SOL    HW130035   7.628   8.797   5.276 -0.1518 -0.3425 -1.9909
 6272SOL    HW230036   7.476   8.815   5.220 -1.4217  0.1714  1.4867
 6273SOL     OW30037   7.436   6.201   6.355 -0.5722 -0.0659  0.0380
 6273SOL    HW130038   7.369   6.193   6.428 -1.1683  0.0220 -0.4987
 6273SOL    HW230039   7.522   6.158   6.384 -1.1209 -0.9270  0.3936
 6274SOL     OW30040   9.488   1.881   2.017  0.0737  0.5127  0.0622
 6274SOL    HW130041   9.392   1.869   1.993 -0.3209  0.8523  1.4664
 6274SOL    HW230042   9.533   1.791   2.019 -0.1360  0.3822 -0.8892
 6275SOL     OW30043   9.040   8.123   2.603  0.4176  0.1295 -0.9096
 6275SOL    HW130044   9.029   8.161   2.511  0.9501 -2.0523 -1.9228
 6275SOL    HW230045   8.987   8.177   2.669  0.3536  1.9537 -2.4357
 6276SOL     OW30046   6.139   2.873   3.912  0.1420 -0.1533 -0.5309
 6276SOL    HW130047   6.174   2.870   3.819 -0.6299  2.6080 -0.9729
 6276SOL    HW230048   6.040   2.888   3.910  0.0460 -0.5325  0.7321
 6277SOL     OW30049   5.393   5.507   1.459 -0.2173  0.1558  0.1178
 6277SOL    HW130050   5.432   5.595   1.431 -1.8175  0.5723 -0.8799
 6277SOL    HW230051   5.337   5.470   1.384 -0.4508 -1.1857  0.9332
 6278SOL     OW30052   1.968   9.173   6.634 -0.3485 -0.5557  0.2133
 6278SOL    HW130053   1.910   9.144   6.558 -0.9620  0.8619  0.1334
 6278SOL    HW230054   2.064   9.168   6.605 -0.5644 -0.2040 -0.5952
 6279SOL     OW30055   4.006   2.397   6.634 -0.2397  0.4754  0.5263
 6279SOL    HW130056   4.025   2.486   6.676  0.1138  1.1575 -1.0123
 6279SOL    HW230057   4.066   2.385   6.555  0.0012 -1.3327  0.9749
 6280SOL     OW30058   2.079   9.142   3.509 -0.1893 -0.5241  0.4312
 6280SOL    HW130059   1.992   9.166   3.466  0.4050 -1.3948 -1.2929
 6280SOL    HW230060   2.061   9.094   3.595 -1.4259 -0.8820 -0.0137
 6281SOL     OW30061   9.129   7.920   3.785 -0.2726  0.3792  0.0135
 6281SOL    HW130062   9.185   7.868   3.721  0.2405  1.2582 -0.2693
 6281SOL    HW230063   9.034   7.921   3.754  0.1630  1.6933 -1.3138
 6282SOL     OW30064   1.586   8.991   2.733 -0.1307  0.0683 -0.1658
 6282SOL    HW130065   1.505   9.025   2.686  0.2392  0.4458 -0.5311
 6282SOL    HW230066   1.615   9.056   2.803 -1.2075 -0.9049  1.2086
 6283SOL     OW30067   1.599   7.350   3.881  0.1340  0.0593 -0.2550
 6283SOL    HW130068   1.651   7.289   3.821 -0.0956 -0.2293 -0.1573
 6283SOL    HW230069   1.535   7.297   3.936 -0.0193  0.3810 -0.1220
 6284SOL     OW30070   9.997   1.525   2.789  0.0851 -0.5182 -0.5795
 6284SOL    HW130071  10.075   1.545   2.849  0.1479  0.3875 -0.9490
 6284SOL    HW230072   9.992   1.594   2.717 -1.0772 -0.5630 -0.5470
 6285SOL     OW30073   3.084   6.566   4.858  0.2552  0.0791  0.2236
 6285SOL    HW130074   3.149   6.595   4.928  0.9774  0.0028 -0.4088
 6285SOL    HW230075   3.110   6.477   4.823  0.8611  0.8535 -1.3283
 6286SOL     OW30076   7.547   0.850   6.540 -0.1930  0.4152 -0.0293
 6286SOL    HW130077   7.543   0.809   6.449  0.8203  1.6007 -0.6270
 6286SOL    HW230078   7.637   0.836   6.580  0.2558  2.2003 -0.3415
 6287SOL     OW30079   2.419   5.806   1.913 -0.3057  0.9275  0.2314
 6287SOL    HW130080   2.518   5.816   1.925 -0.4184  1.5893  0.6425
 6287SOL    HW230081   2.393   5.712   1.935  0.6033 -0.0150 -2.5548
 6288SOL     OW30082   7.784   6.913   1.285 -0.3545  0.0554  0.3474
 6288SOL    HW130083   7.798   7.010   1.307  0.3823 -0.0640  0.4118
 6288SOL    HW230084   7.872   6.872   1.257 -0.6548 -0.6078  0.3720
 6289SOL     OW30085   8.225   2.263   6.675 -0.1355  0.0031 -0.2202
 6289SOL    HW130086   8.193   2.193   6.611  1.4004 -0.4245 -0.5411
 6289SOL    HW230087   8.271   2.336   6.625  0.1135  0.2048  0.2986
 6290SOL     OW30088   8.789   6.027   2.347 -0.0218  0.4211  0.5613
 6290SOL    HW130089   8.713   6.036   2.411  0.4724 -1.2182  1.4303
 6290SOL    HW230090   8.859   6.095   2.369 -0.0074  0.0906  1.5641
 6291SOL     OW30091   5.554   8.719   3.831  0.0854  0.3843  0.0572
 6291SOL    HW130092   5.603   8.750   3.911 -0.9289  0.8421  0.5111
 6291SOL    HW230093   5.577   8.777   3.752  1.4769 -0.3842 -0.1201
 6292SOL     OW30094   9.501   3.622   0.978 -0.6426 -0.3991 -0.0623
 6292SOL    HW130095   9.422   3.581   1.022  0.2055 -1.2406  0.7137
 6292SOL    HW230096   9.548   3.682   1.042  1.0610 -2.2560  0.5101
 6293SOL     OW30097   7.806   9.948   4.332  0.0194 -0.6830  0.2044
 6293SOL    HW130098   7.750   9.904   4.401 -1.2243 -1.0493 -1.0060
 6293SOL    HW230099   7.841   9.880   4.268 -0.2639 -0.1689 -0.5162
 6294SOL     OW30100   0.626   7.733   2.597  0.3247  0.2864 -0.3882
 6294SOL    HW130101   0.550   7.703   2.655  0.2241 -1.8868 -1.5840
 6294SOL    HW230102   0.703   7.761   2.654  0.4081 -2.2739  0.8078
 6295SOL     OW30103   8.924   1.808   3.529 -0.1049  0.4883  0.7215
 6295SOL    HW130104   9.004   1.854   3.568 -0.0962 -0.6449  2.1132
 6295SOL    HW230105   8.903   1.847   3.440  1.7368  1.0932  0.5277
 6296SOL     OW30106   9.389   6.062   4.520  0.4419 -0.1789  0.2284
 6296SOL    HW130107   9.393   5.980   4.462 -0.7152 -0.0920 -0.0007
 6296SOL    HW230108   9.387   6.143   4.462  0.6932 -0.0275  0.4328
 6297SOL     OW30109   3.127   9.487   0.421 -0.3422  0.3545 -0.2264
 6297SOL    HW130110   3.075   9.571   0.405 -0.0833  0.3622 -1.0506
 6297SOL    HW230111   3.192   9.473   0.346  0.0152 -0.2776  0.2001
 6298SOL     OW30112   1.098   9.696   0.904  0.0461 -0.0404 -0.8985
 6298SOL    HW130113   1.068   9.780   0.860 -0.1219  1.1022  1.2994
 6298SOL    HW230114   1.053   9.687   0.993 -1.4929 -3.5230 -1.9428
 6299SOL     OW30115   6.602   0.172   4.882 -0.0122 -0.0830  0.0808
 6299SOL    HW130116   6.594   0.272   4.886  3.0726  0.1386  1.9929
 6299SOL    HW230117   6.599   0.143   4.786 -1.2846  1.7736 -0.4833
 6300SOL     OW30118   2.356   4.030   4.905 -0.0368  0.3229 -0.1655
 6300SOL    HW130119   2.380   3.959   4.838  1.1321 -1.2943  1.8918
 6300SOL    HW230120   2.282   4.086   4.869 -0.5029 -1.4842 -2.1560
 6301SOL     OW30121   2.578   4.616   4.325 -0.0711  0.1824 -0.3192
 6301SOL    HW130122   2.561   4.702   4.278  1.7151  0.7201 -0.0342
 6301SOL    HW230123   2.630   4.555   4.264 -1.8690 -0.9466 -0.7526
 6302SOL     OW30124   9.393   3.920   3.954  0.0609 -0.5493  0.2782
 6302SOL    HW130125   9.454   3.987   3.997 -1.0913 -0.4049  1.7173
 6302SOL    HW230126   9.401   3.927   3.855  0.8236  0.9264  0.4300
 6303SOL     OW30127   8.245   8.268   2.128  0.4808  0.5233 -0.1898
 6303SOL    HW130128   8.244   8.288   2.226  0.6213  2.1487 -0.4950
 6303SOL    HW230129   8.223   8.172   2.113  1.9743 -0.1276  1.5292
 6304SOL     OW30130   0.660   4.514   2.025 -0.0749  0.1326  0.0710
 6304SOL    HW130131   0.580   4.527   2.084 -0.8502  0.4267 -1.0367
 6304SOL    HW230132   0.738   4.564   2.063 -0.9947  1.6383 -0.0230
 6305SOL     OW30133   0.466   5.770   3.344 -0.4125  0.2062 -0.0735
 6305SOL    HW130134   0.428   5.772   3.436 -1.1834 -0.4882 -0.3675
 6305SOL    HW230135   0.403   5.815   3.281  0.1629  0.7775 -0.2424
 6306SOL     OW30136   7.707   3.357   0.790  0.6459 -0.0031 -0.1073
 6306SOL    HW130137   7.738   3.448   0.764  0.2843 -0.3440 -1.7353
 6306SOL    HW230138   7.754   3.288   0.734 -1.9010 -0.6089 -1.5573
 6307SOL     OW30139   7.512   0.652   4.652 -0.3037  0.7331  0.6337
 6307SOL    HW130140   7.530   0.746   4.680 -1.4195  1.2070 -0.1889
 6307SOL    HW230141   7.413   0.639   4.642 -0.1562 -0.5420  0.8029
 6308SOL     OW30142   3.038   1.076   3.077 -0.3587  0.4764 -0.2007
 6308SOL    HW130143   3.091   1.159   3.091 -0.2141  0.2404  0.6816
 6308SOL    HW230144   2.973   1.064   3.152 -0.8788  0.1733 -0.6922
 6309SOL     OW30145   2.347   9.009   3.183  0.0249  0.1768 -0.2202
 6309SOL    HW130146   2.318   8.943   3.113 -0.4693 -0.4178  0.5397
 6309SOL    HW230147   2.422   9.064   3.147 -0.1326 -0.2135 -1.1757
 6310SOL     OW30148   9.882   1.048   4.371 -0.0124  0.2482  0.0483
 6310SOL    HW130149   9.806   1.057   4.436  0.1392 -3.2855  0.8278
 6310SOL    HW230150   9.968   1.045   4.422  0.1672 -1.7268 -0.3348
 6311SOL     OW30151   4.159   4.316   1.146 -0.0061  0.1605  0.4495
 6311SOL    HW130152   4.150   4.223   1.113 -0.4379  0.6323 -0.7939
 6311SOL    HW230153   4.157   4.317   1.246  0.0585 -1.1564  0.4636
 6312SOL     OW30154   8.516   1.321   4.725  0.4816 -0.0755 -0.0269
 6312SOL    HW130155   8.560   1.233   4.744  0.4074 -0.0052  0.4839
 6312SOL    HW230156   8.573   1.394   4.762  1.1494  0.1695 -1.5149
 6313SOL     OW30157   3.054   5.542   2.365 -0.0084  0.3077 -0.1718
 6313SOL    HW130158   2.957   5.560   2.349  0.0652  0.9291  0.0676
 6313SOL    HW230159   3.109   5.600   2.305  0.2029 -0.7303 -0.9788
 6314SOL     OW30160   8.350   9.645   5.655 -0.2933 -0.4233 -0.2936
 6314SOL    HW130161   8.312   9.571   5.600 -0.6564 -1.0955  0.8501
 6314SOL    HW230162   8.393   9.712   5.595 -0.9620 -0.9844 -1.4180
 6315SOL     OW30163   3.587   1.490   2.330  0.1555  0.4075  0.6362
 6315SOL    HW130164   3.520   1.517   2.261 -1.6263 -0.1937  2.0937
 6315SOL    HW230165   3.604   1.567   2.392  0.3001  0.3379  0.6833
 6316SOL     OW30166   2.790   7.224   2.562  0.0488  0.1640  0.8579
 6316SOL    HW130167   2.780   7.255   2.656 -0.6312 -0.1316  0.8910
 6316SOL    HW230168   2.723   7.271   2.504  0.3702  0.2444  0.5488
 6317SOL     OW30169   3.227   0.893   3.127  0.3202  0.0293 -0.0695
 6317SOL    HW130170   3.156   0.955   3.094 -1.6063 -2.2950 -0.4111
 6317SOL    HW230171   3.232   0.899   3.227  0.4198  0.9950 -0.1243
 6318SOL     OW30172   0.047   8.994   6.324  0.3263 -0.0355  0.1215
 6318SOL    HW130173   0.132   8.954   6.291 -0.0066 -0.5426 -0.1231
 6318SOL    HW230174  -0.015   8.922   6.354 -0.4787  0.2527 -0.8038
 6319SOL     OW30175   3.919   9.420   4.516  0.3411 -0.5432  0.0350
 6319SOL    HW130176   4.005   9.467   4.535  0.4499 -0.8393  0.3009
 6319SOL    HW230177   3.935   9.321   4.515 -0.2577 -0.6767  1.5030
 6320SOL     OW30178   9.268   8.052   2.689 -0.4495 -0.1969  0.9029
 6320SOL    HW130179   9.182   8.095   2.662  0.0817  1.2793  1.4778
 6320SOL    HW230180   9.342   8.088   2.632  0.1123  0.2107  1.8674
 6321SOL     OW30181   9.648   7.164   1.257 -0.0523 -0.1387  0.2956
 6321SOL    HW130182   9.721   7.221   1.220  2.3452 -3.4376 -0.3472
 6321SOL    HW230183   9.624   7.195   1.348 -0.1393  2.9762 -0.7447
 6322SOL     OW30184   9.283   7.716   3.022  0.4565 -0.0221 -0.5089
 6322SOL    HW130185   9.306   7.774   3.100 -0.3194  1.6542 -1.4957
 6322SOL    HW230186   9.317   7.758   2.938  2.0807 -2.2597 -1.0080
 6323SOL     OW30187   9.137   6.653   1.715  0.3096  0.0166 -0.0338
 6323SOL    HW130188   9.206   6.720   1.746  0.0994 -0.8827  2.4521
 6323SOL    HW230189   9.177   6.562   1.718 -0.5306 -0.3466 -0.0004
 6324SOL     OW30190   9.497   9.041   3.688  0.0836 -0.5953 -0.0961
 6324SOL    HW130191   9.482   8.942   3.689  0.5833 -0.6785 -0.7324
 6324SOL    HW230192   9.417   9.086   3.647  0.2437 -0.8122 -0.6586
 6325SOL     OW30193   2.885   9.341   2.126  0.0531  0.5620 -0.1237
 6325SOL    HW130194   2.810   9.299   2.177  1.2357 -1.0704  0.3142
 6325SOL    HW230195   2.872   9.440   2.123 -2.3263  0.2705 -0.4235
 6326SOL     OW30196   5.841   8.281   4.656 -0.0542  0.2496 -0.2575
 6326SOL    HW130197   5.755   8.284   4.606 -0.2081 -3.0335 -0.2952
 6326SOL    HW230198   5.826   8.243   4.747  1.3962 -0.6883 -0.3925
 6327SOL     OW30199   1.423   4.612   0.903  0.5288 -0.2204  0.2024
 6327SOL    HW130200   1.356   4.543   0.876  0.4667  0.2768 -0.9497
 6327SOL    HW230201   1.514   4.583   0.874  0.6921 -0.4570  0.9396
 6328SOL     OW30202   3.480   9.384   3.668 -0.1434  0.1559 -0.8867
 6328SOL    HW130203   3.399   9.338   3.632 -1.4162  1.9612 -0.4159
 6328SOL    HW230204   3.455   9.476   3.698  1.7070  0.0815  0.9783
 6329SOL     OW30205   7.404   9.093   3.213 -0.0106  0.1628 -0.3254
 6329SOL    HW130206   7.504   9.086   3.217  0.0126  0.9794  0.8758
 6329SOL    HW230207   7.375   9.179   3.257 -1.2192  0.0855 -0.9524
 6330SOL     OW30208   1.413   2.645   5.513 -0.6656  0.2551 -0.1031
 6330SOL    HW130209   1.402   2.550   5.540 -0.0275  0.4865  1.0327
 6330SOL    HW230210   1.508   2.673   5.527 -0.4111  0.5190 -2.2398
 6331SOL     OW30211   9.671   4.925   6.332  0.0961 -0.1087 -0.0221
 6331SOL    HW130212   9.721   4.924   6.419 -0.0583  1.0788  0.0881
 6331SOL    HW230213   9.735   4.920   6.256  0.2904 -0.1598  0.1466
 6332SOL     OW30214   9.483   7.977   6.129  0.4242 -0.6190  0.4247
 6332SOL    HW130215   9.520   7.934   6.211 -1.3459 -1.3011  0.8842
 6332SOL    HW230216   9.469   8.074   6.145 -0.3254 -0.8289  1.1031
 6333SOL     OW30217   5.412   4.447   1.075 -0.5188 -0.2590 -0.5986
 6333SOL    HW130218   5.336   4.503   1.110 -0.1395 -0.5901  0.8132
 6333SOL    HW230219   5.377   4.359   1.045 -0.6158 -0.6442  0.6302
 6334SOL     OW30220   3.383   8.234   2.030 -0.0189 -0.3050  0.1879
 6334SOL    HW130221   3.306   8.207   1.972 -0.2314 -0.1431  0.3938
 6334SOL    HW230222   3.351   8.245   2.124  0.2056  0.0097  0.2270
 6335SOL     OW30223   8.002   5.981   5.525 -0.2531 -0.0502  0.1500
 6335SOL    HW130224   7.996   6.068   5.476  0.4691  0.2318  0.5505
 6335SOL    HW230225   7.938   5.981   5.602 -0.9847 -0.2780 -0.4504
 6336SOL     OW30226   2.413   5.575   3.819  0.6560 -0.4859  0.5904
 6336SOL    HW130227   2.486   5.508   3.835  0.7224 -0.1937  1.5261
 6336SOL    HW230228   2.370   5.557   3.730  2.7110  0.1059 -0.5670
 6337SOL     OW30229   2.927   7.985   2.339  0.0456 -0.3056  0.2036
 6337SOL    HW130230   2.948   8.082   2.357 -0.9421  0.2295 -1.4325
 6337SOL    HW230231   2.990   7.927   2.390  1.3032  1.2205  0.4100
 6338SOL     OW30232   1.414   4.293   5.090  0.8916  0.9679 -0.2613
 6338SOL    HW130233   1.453   4.256   5.006  1.6272  3.0337 -0.8612
 6338SOL    HW230234   1.319   4.321   5.073  0.0617 -1.3220  0.4105
 6339SOL     OW30235   1.551   3.499   4.016 -0.0468  0.0949 -0.1317
 6339SOL    HW130236   1.500   3.429   4.066  2.6921 -1.1430  1.0641
 6339SOL    HW230237   1.555   3.583   4.071  1.0663 -0.5297  0.7455
 6340SOL     OW30238   9.413   8.175   2.947  0.1453 -0.4109  0.3836
 6340SOL    HW130239   9.473   8.177   3.026 -1.1156  2.4140  1.3304
 6340SOL    HW230240   9.334   8.116   2.966 -0.8483  1.3338  1.7913
 6341SOL     OW30241   8.190   1.507   5.568 -0.1354 -0.6917 -0.2471
 6341SOL    HW130242   8.276   1.512   5.517  1.1211 -0.8767  1.7655
 6341SOL    HW230243   8.113   1.514   5.505  1.3470  1.8600 -1.8512
 6342SOL     OW30244   4.082   9.300   1.175  0.4079 -0.1973  0.0873
 6342SOL    HW130245   4.018   9.271   1.247  1.2313 -0.7917  0.5878
 6342SOL    HW230246   4.077   9.235   1.099 -0.4379  0.4121 -0.3817
 6343SOL     OW30247   9.032   3.786   5.540 -0.0102 -0.3378 -0.4341
 6343SOL    HW130248   9.021   3.845   5.621  0.0112 -0.5248 -0.2945
 6343SOL    HW230249   8.946   3.783   5.490  0.7769  2.0951 -2.0128
 6344SOL     OW30250   0.481   2.119   2.423  0.0333  0.1319  0.1094
 6344SOL    HW130251   0.555   2.077   2.475  1.3202 -0.1029 -1.8462
 6344SOL    HW230252   0.397   2.119   2.477  0.9127 -1.6605  1.5023
 6345SOL     OW30253   4.303   9.753   5.837 -0.1403  0.1166  0.2251
 6345SOL    HW130254   4.213   9.745   5.880 -0.6076  0.4399 -0.7046
 6345SOL    HW230255   4.313   9.683   5.766  1.3813 -1.7257  2.1485
 6346SOL     OW30256   8.394   5.188   3.130 -0.1317 -0.2903  0.8559
 6346SOL    HW130257   8.378   5.124   3.055  0.0239  2.2918 -1.4831
 6346SOL    HW230258   8.469   5.155   3.187 -0.9216 -2.7964  0.4858
 6347SOL     OW30259   9.242   5.536   1.316  0.4073  0.1503 -0.1819
 6347SOL    HW130260   9.191   5.480   1.382 -0.3764  1.1364  0.0638
 6347SOL    HW230261   9.227   5.500   1.224  1.4677 -1.2051  0.1455
 6348SOL     OW30262   5.329   0.412   1.934  0.0267  0.0495 -0.2356
 6348SOL    HW130263   5.326   0.485   1.865 -1.2384 -2.3053 -2.7633
 6348SOL    HW230264   5.236   0.395   1.968 -0.0207 -1.7839 -1.2217
 6349SOL     OW30265   0.221   5.642   4.918  0.0284 -0.3925 -0.3409
 6349SOL    HW130266   0.202   5.721   4.859  0.3724  0.2878  0.4453
 6349SOL    HW230267   0.165   5.648   5.001  1.6439  0.1771  0.7226
 6350SOL     OW30268   9.372   6.052   5.990  0.5697 -0.6703 -1.0235
 6350SOL    HW130269   9.424   6.127   5.950 -0.1180 -0.3127 -1.2622
 6350SOL    HW230270   9.281   6.085   6.016  0.9736 -0.9117  0.7599
 6351SOL     OW30271   9.312   2.624   5.949 -0.5239  0.3244  0.0213
 6351SOL    HW130272   9.288   2.720   5.962 -0.6894  0.1082  1.4262
 6351SOL    HW230273   9.247   2.581   5.886  0.7135  1.6045 -2.1546
 6352SOL     OW30274   1.621   1.485   5.331 -0.2401 -0.3142  0.0603
 6352SOL    HW130275   1.695   1.418   5.336  0.1743  0.1143 -0.1531
 6352SOL    HW230276   1.661   1.575   5.312 -0.7631  0.0347  0.6145
 6353SOL     OW30277   1.257   1.517   6.137 -0.2179  0.2116  0.2922
 6353SOL    HW130278   1.266   1.444   6.206  2.5677  1.4807  1.3388
 6353SOL    HW230279   1.312   1.494   6.057  0.0986  0.8249  0.3335
 6354SOL     OW30280   8.382   9.979   0.158 -0.3314  0.0502 -0.2356
 6354SOL    HW130281   8.287   9.963   0.182  0.1111  0.7960  2.1613
 6354SOL    HW230282   8.441   9.920   0.214  0.6825  0.7604 -0.5221
 6355SOL     OW30283   6.453   1.435   4.125 -0.7522  0.1190 -0.5952
 6355SOL    HW130284   6.421   1.529   4.130 -2.2891 -0.4568  1.2484
 6355SOL    HW230285   6.411   1.389   4.047  0.1810  0.9932 -1.6380
 6356SOL     OW30286   9.599   8.484   2.664 -0.0167  0.2321 -0.9197
 6356SOL    HW130287   9.514   8.537   2.663 -0.0354  0.1949 -1.1846
 6356SOL    HW230288   9.625   8.461   2.570 -1.9023 -3.2421 -0.6985
 6357SOL     OW30289   4.540   8.897   4.606  0.6858  0.1925  0.0198
 6357SOL    HW130290   4.542   8.895   4.506  1.1156 -0.2118  0.0362
 6357SOL    HW230291   4.632   8.883   4.641  0.2297 -1.8134  0.5010
 6358SOL     OW30292   0.760   0.396   1.864  0.1503  0.5408 -0.3203
 6358SOL    HW130293   0.726   0.306   1.835 -0.3955  0.2248  1.2405
 6358SOL    HW230294   0.786   0.449   1.784 -0.6716 -0.5627 -1.3403
 6359SOL     OW30295   6.903   0.852   5.411  0.2653  0.1134  0.5656
 6359SOL    HW130296   6.987   0.800   5.398 -0.1227 -0.7062  1.3159
 6359SOL    HW230297   6.841   0.836   5.334  0.3969 -0.0525  0.4950
 6360SOL     OW30298   6.845   8.788   4.126 -0.3074 -0.3384 -0.1125
 6360SOL    HW130299   6.913   8.819   4.059 -0.4354  0.6121  0.1845
 6360SOL    HW230300   6.767   8.851   4.126 -0.4491 -0.5037  0.7023
 6361SOL     OW30301   0.083   2.676   4.414  0.5476 -0.4307 -0.7070
 6361SOL    HW130302   0.057   2.762   4.369  0.3105 -0.9405 -1.5622
 6361SOL    HW230303   0.122   2.696   4.504 -2.3342  0.4335  0.4428
 6362SOL     OW30304   3.644   1.500   5.066 -0.1406  0.2062  0.4166
 6362SOL    HW130305   3.682   1.522   5.156  0.0271  1.1929  0.1078
 6362SOL    HW230306   3.609   1.406   5.066  0.3779  0.0157  1.3390
 6363SOL     OW30307   6.702   4.654   6.440 -0.5694  0.4400  0.2076
 6363SOL    HW130308   6.792   4.626   6.473 -0.7764 -0.7130 -0.1656
 6363SOL    HW230309   6.688   4.751   6.458  0.7547  0.6325  0.2485
 6364SOL     OW30310   2.689   7.346   1.856  0.1275 -0.2133 -0.1136
 6364SOL    HW130311   2.724   7.425   1.805  2.2436  0.2844  2.0048
 6364SOL    HW230312   2.766   7.293   1.890 -1.2688 -1.6547  0.8313
 6365SOL     OW30313   1.131   9.018   0.662 -0.0801 -0.2034 -0.3054
 6365SOL    HW130314   1.069   9.093   0.681  1.0285  0.4266  0.9116
 6365SOL    HW230315   1.111   8.941   0.723 -0.7077 -0.6126 -1.0191
 6366SOL     OW30316   8.119   0.960   3.600 -0.6694  0.0265  0.1294
 6366SOL    HW130317   8.049   0.895   3.571  0.9308 -2.1525  0.9961
 6366SOL    HW230318   8.209   0.925   3.576  0.1421  3.0106 -1.3854
 6367SOL     OW30319   8.827   9.325   3.409 -0.0437 -0.1791  0.2167
 6367SOL    HW130320   8.782   9.236   3.421  0.6243 -0.7462 -1.3483
 6367SOL    HW230321   8.775   9.395   3.457 -1.4262 -1.1808  0.2158
 6368SOL     OW30322   3.180   8.303   5.858 -0.3849  0.0432  0.1566
 6368SOL    HW130323   3.234   8.385   5.839  1.3349 -0.9349  0.7019
 6368SOL    HW230324   3.175   8.247   5.775 -0.8036  0.2683  0.0296
 6369SOL     OW30325   8.072   8.183   4.186 -0.5576 -0.1156  0.0328
 6369SOL    HW130326   8.134   8.261   4.180  1.0644 -1.3951 -0.0881
 6369SOL    HW230327   7.977   8.216   4.183  0.0954  1.8460  0.0943
 6370SOL     OW30328   8.984   2.084   1.148 -0.2115 -0.0670 -0.0512
 6370SOL    HW130329   9.054   2.085   1.220  0.1111 -0.4810 -0.3504
 6370SOL    HW230330   8.922   2.007   1.163  0.4672 -0.7683 -0.7799
 6371SOL     OW30331   4.295   2.538   6.063  0.1850  0.0737  0.6980
 6371SOL    HW130332   4.243   2.520   5.980 -0.7706  2.6248  0.6967
 6371SOL    HW230333   4.350   2.621   6.051  1.7520 -0.7707  1.8502
 6372SOL     OW30334   9.647   5.661   6.122  0.1009  0.7478  0.4451
 6372SOL    HW130335   9.744   5.659   6.147 -0.1272 -0.2187  1.2894
 6372SOL    HW230336   9.594   5.609   6.189 -0.6442 -1.1329 -1.5327
 6373SOL     OW30337   4.524   0.350   3.236  0.1979 -0.0439 -0.3294
 6373SOL    HW130338   4.543   0.384   3.143  1.9149 -0.9939 -0.3453
 6373SOL    HW230339   4.499   0.254   3.232 -2.6230  0.6402 -0.0714
 6374SOL     OW30340   0.603   4.454   4.616  0.1784  0.5216 -0.5323
 6374SOL    HW130341   0.668   4.424   4.685 -0.7047 -0.3510 -0.0691
 6374SOL    HW230342   0.531   4.510   4.659  0.0626  0.6399 -0.8762
 6375SOL     OW30343   7.447   7.142   2.556  0.1825 -0.2220 -0.6412
 6375SOL    HW130344   7.540   7.126   2.522  1.0319 -0.4967  1.7032
 6375SOL    HW230345   7.410   7.056   2.591  0.2354  0.5102  1.2301
 6376SOL     OW30346   0.197   4.399   5.592 -0.2323  0.1527 -0.4165
 6376SOL    HW130347   0.182   4.330   5.663 -0.2006 -1.3527 -1.8559
 6376SOL    HW230348   0.294   4.400   5.566 -0.2266  0.7623 -0.3941
 6377SOL     OW30349   8.348   6.102   1.957  0.2217 -0.2685  0.4506
 6377SOL    HW130350   8.302   6.031   1.903  0.6169 -0.4581  0.3602
 6377SOL    HW230351   8.323   6.092   2.054 -3.3786  2.2930 -0.1031
 6378SOL     OW30352   7.049   0.673   1.480  0.4269 -0.2129  0.0370
 6378SOL    HW130353   7.077   0.756   1.432 -0.4147 -0.6757 -1.2814
 6378SOL    HW230354   7.021   0.696   1.573  0.8476  0.8754 -0.1003
 6379SOL     OW30355   3.254   9.819   4.161 -0.0430 -0.2387  0.1288
 6379SOL    HW130356   3.203   9.906   4.164  0.8479  0.2274  2.4727
 6379SOL    HW230357   3.209   9.752   4.220  1.5291 -0.1074  1.5012
 6380SOL     OW30358   7.953   4.015   5.281  0.8270  0.4449 -0.0875
 6380SOL    HW130359   7.905   4.080   5.340  0.8617 -0.4727  0.9601
 6380SOL    HW230360   8.032   4.060   5.239  1.9216  0.5926  2.0510
 6381SOL     OW30361   1.502   7.759   0.059 -0.1849  0.0756  0.0847
 6381SOL    HW130362   1.530   7.736   0.152 -0.3741 -2.1071 -0.3786
 6381SOL    HW230363   1.454   7.847   0.059 -0.1445  0.1028  2.0307
 6382SOL     OW30364   4.085   0.986   0.854  0.3492 -0.3743  0.7392
 6382SOL    HW130365   4.012   0.918   0.841 -1.0693  1.2391  0.1027
 6382SOL    HW230366   4.093   1.007   0.951  0.6399 -1.2679  0.9183
 6383SOL     OW30367   3.121   5.778   4.407  0.0489  0.3803  0.1006
 6383SOL    HW130368   3.155   5.819   4.322 -0.7353 -0.3386 -0.5707
 6383SOL    HW230369   3.197   5.768   4.472  0.2066  3.1068  0.3912
 6384SOL     OW30370   8.898   7.783   5.444  0.2777  0.3066 -0.1466
 6384SOL    HW130371   8.808   7.819   5.466 -0.5755 -0.8558 -1.5899
 6384SOL    HW230372   8.947   7.759   5.528 -0.8986  0.6355  0.6320
 6385SOL     OW30373   3.665   6.753   1.314 -0.0963 -0.1798 -0.2971
 6385SOL    HW130374   3.736   6.760   1.244  0.9308 -3.2951  0.3326
 6385SOL    HW230375   3.593   6.690   1.282 -2.2069  2.2863 -0.5853
 6386SOL     OW30376   0.036   1.665   0.538  0.2491 -0.5023  0.6025
 6386SOL    HW130377   0.059   1.662   0.636  0.9675  0.4744  0.4736
 6386SOL    HW230378  -0.035   1.598   0.519 -1.7404  1.0514  2.2940
 6387SOL     OW30379   7.309   6.698   4.649  0.2757 -0.3853 -0.2625
 6387SOL    HW130380   7.247   6.648   4.709  1.1439 -1.3134 -0.1228
 6387SOL    HW230381   7.397   6.710   4.695  0.6209 -0.2331 -0.9595
 6388SOL     OW30382   0.847   5.269   5.120  0.3156 -0.2888 -0.0481
 6388SOL    HW130383   0.813   5.177   5.100  0.3430 -0.1240 -0.8779
 6388SOL    HW230384   0.853   5.282   5.219  1.5763 -1.6415  0.0667
 6389SOL     OW30385   4.318   8.263   2.532  0.8319 -0.0316  0.6997
 6389SOL    HW130386   4.255   8.339   2.538  0.7245 -0.0586 -0.0966
 6389SOL    HW230387   4.345   8.234   2.624 -0.1473  0.1096  1.0289
 6390SOL     OW30388   9.341   4.536   1.083 -0.1463  0.0755 -0.3801
 6390SOL    HW130389   9.366   4.539   0.986  0.6528  0.1367 -0.1698
 6390SOL    HW230390   9.369   4.448   1.122 -2.7212 -0.9897 -0.8108
 6391SOL     OW30391   0.362   1.090   4.782  0.3252  0.7029 -0.3752
 6391SOL    HW130392   0.365   1.189   4.768  0.1484  0.5697 -1.3781
 6391SOL    HW230393   0.403   1.044   4.704 -0.5868 -0.0546 -0.4170
 6392SOL     OW30394   8.187   9.389   2.740  0.3591  0.7071  0.2977
 6392SOL    HW130395   8.276   9.344   2.753  1.0250  1.4817 -1.3332
 6392SOL    HW230396   8.192   9.482   2.776  0.2753  0.8213  0.0134
 6393SOL     OW30397   8.318   2.098   0.307  0.3790  0.1566 -0.4131
 6393SOL    HW130398   8.356   2.182   0.268  0.1308  0.4681  0.0036
 6393SOL    HW230399   8.392   2.034   0.328  0.5656  0.2592 -0.7572
 6394SOL     OW30400   3.214   9.196   2.866  0.2808 -0.5567  0.1569
 6394SOL    HW130401   3.284   9.262   2.894  0.4251 -1.1173  1.1457
 6394SOL    HW230402   3.147   9.241   2.807 -0.5004  0.8905  2.0944
 6395SOL     OW30403   1.460   1.585   5.519 -0.3217 -0.1112 -0.2396
 6395SOL    HW130404   1.488   1.631   5.603 -0.1048 -0.7260  0.0293
 6395SOL    HW230405   1.530   1.597   5.448 -0.7627  0.8763 -0.5052
 6396SOL     OW30406   0.954   5.404   2.639 -0.0283  0.0435  0.7194
 6396SOL    HW130407   0.926   5.498   2.657 -0.7128 -0.3421  1.7485
 6396SOL    HW230408   1.036   5.382   2.692 -0.9883 -0.5274  1.9968
 6397SOL     OW30409   5.587   4.899   0.495 -0.1391 -0.2917 -0.0800
 6397SOL    HW130410   5.619   4.825   0.436 -0.0166 -0.6678  0.4557
 6397SOL    HW230411   5.664   4.935   0.548  0.0042  0.8970 -1.0696
 6398SOL     OW30412   2.577   5.721   2.459 -0.2838  0.0041  0.0590
 6398SOL    HW130413   2.587   5.815   2.491 -1.0918 -1.0847  3.7438
 6398SOL    HW230414   2.499   5.678   2.504 -0.2508 -2.2785 -1.9663
 6399SOL     OW30415   3.132   2.512   2.697  0.2977  0.3851 -0.1507
 6399SOL    HW130416   3.185   2.502   2.612 -0.3081  4.0929 -1.0428
 6399SOL    HW230417   3.037   2.532   2.675 -0.2914 -0.5636  1.4392
 6400SOL     OW30418   3.406   4.425   0.877 -0.1495 -0.5877  0.1999
 6400SOL    HW130419   3.410   4.456   0.782 -0.7302  0.3397  0.4793
 6400SOL    HW230420   3.499   4.411   0.911  0.0724 -0.5136 -0.3669
 6401SOL     OW30421   0.029   3.894   0.306 -0.1435 -0.0841  0.2327
 6401SOL    HW130422  -0.059   3.900   0.353  0.8953  0.9864  2.1033
 6401SOL    HW230423   0.103   3.886   0.374  1.2621 -0.2787 -1.2811
 6402SOL     OW30424   8.454   0.911   3.313  0.0755  0.6406  0.1238
 6402SOL    HW130425   8.489   0.817   3.304 -1.0169  0.3071 -0.7739
 6402SOL    HW230426   8.520   0.975   3.273 -0.1062  0.0652 -1.1231
 6403SOL     OW30427   8.297   9.021   2.189 -0.3481  0.7613  0.2821
 6403SOL    HW130428   8.277   9.096   2.126  0.8416  0.7296 -0.1372
 6403SOL    HW230429   8.254   8.937   2.156 -2.7009  1.4949  1.3793
 6404SOL     OW30430   9.706   3.693   4.230  0.7255 -0.1946 -0.3498
 6404SOL    HW130431   9.740   3.649   4.147  2.8431 -0.3647  0.5847
 6404SOL    HW230432   9.761   3.774   4.250 -1.5794  1.5145 -0.6732
 6405SOL     OW30433   2.792   9.234   3.464 -0.1194 -0.1663  0.1774
 6405SOL    HW130434   2.714   9.217   3.403  0.8162 -0.0418 -1.0871
 6405SOL    HW230435   2.873   9.190   3.426  0.5467  0.1868  1.1833
 6406SOL     OW30436   8.197   1.002   0.674  0.0340 -0.4676  0.5851
 6406SOL    HW130437   8.214   0.930   0.741 -0.4551  0.2500  1.4977
 6406SOL    HW230438   8.102   1.031   0.679  0.3767  0.6833  0.6686
 6407SOL     OW30439   4.423   8.597   4.253 -0.1181  0.0335 -0.2750
 6407SOL    HW130440   4.463   8.683   4.285 -2.3167  0.4886  1.4213
 6407SOL    HW230441   4.481   8.520   4.280  0.7467  0.8205  0.1269
 6408SOL     OW30442   2.885   6.105   3.308 -0.2918  0.0763 -0.1873
 6408SOL    HW130443   2.942   6.187   3.315 -0.2861  0.2197 -1.6836
 6408SOL    HW230444   2.824   6.100   3.387 -0.4304  1.6343 -0.1844
 6409SOL     OW30445   5.704   7.694   2.510  0.7226  0.2764  0.4610
 6409SOL    HW130446   5.791   7.743   2.521  1.7028 -1.3964  0.2606
 6409SOL    HW230447   5.631   7.747   2.553  2.2348  0.5378  2.8002
 6410SOL     OW30448   4.169   4.342   3.357  0.6886  0.3390  0.4585
 6410SOL    HW130449   4.085   4.394   3.338  0.3145 -0.4732 -0.1255
 6410SOL    HW230450   4.198   4.359   3.451 -0.1599  0.5910  0.6781
 6411SOL     OW30451   3.344   6.337   3.517  0.0106  0.0288 -0.2902
 6411SOL    HW130452   3.271   6.405   3.510  0.7251  0.7246 -1.1191
 6411SOL    HW230453   3.312   6.250   3.480 -1.4835 -0.5876  2.3189
 6412SOL     OW30454   4.463   4.917   1.769 -0.4449 -0.8385 -0.4994
 6412SOL    HW130455   4.497   4.826   1.743  0.1157 -1.0469  0.9050
 6412SOL    HW230456   4.450   4.920   1.869 -0.4910  0.6111 -0.5460
 6413SOL     OW30457   9.521   0.231   5.393  0.0569 -0.1193 -0.3270
 6413SOL    HW130458   9.456   0.306   5.386  0.9782  0.7534  0.3341
 6413SOL    HW230459   9.610   0.260   5.358  1.1021 -0.0279  2.2918
 6414SOL     OW30460   5.597   5.678   1.661 -0.1618 -0.4664  0.1138
 6414SOL    HW130461   5.539   5.739   1.608  1.6953  1.3593  0.1407
 6414SOL    HW230462   5.564   5.674   1.756 -0.6265  0.0315 -0.0280
 6415SOL     OW30463   1.971   6.030   0.309  0.0012 -0.2363 -0.1697
 6415SOL    HW130464   2.031   5.955   0.281 -0.5631 -1.4590  1.8432
 6415SOL    HW230465   1.983   6.048   0.407 -0.0900  2.1212 -0.5521
 6416SOL     OW30466   3.665   2.303   6.293 -0.0183 -0.0299 -0.4036
 6416SOL    HW130467   3.662   2.323   6.391 -1.1412 -0.5779 -0.3149
 6416SOL    HW230468   3.580   2.257   6.266  0.9843 -1.3926 -1.3007
 6417SOL     OW30469   3.865   1.380   1.425 -0.1943 -0.7881  0.1330
 6417SOL    HW130470   3.800   1.404   1.353 -0.3917  0.4693  0.7052
 6417SOL    HW230471   3.958   1.403   1.396 -0.5140  2.0718  1.2072
 6418SOL     OW30472   9.335   1.250   0.749 -0.2461 -0.3153  0.0452
 6418SOL    HW130473   9.370   1.199   0.828 -0.1140 -0.5768 -0.1792
 6418SOL    HW230474   9.367   1.344   0.753  1.6396 -0.9072 -0.8910
 6419SOL     OW30475   8.084   3.581   2.155  0.1510 -0.3145 -0.2262
 6419SOL    HW130476   8.144   3.658   2.135 -0.0134  0.2239  1.2848
 6419SOL    HW230477   8.115   3.534   2.238  0.3086 -1.9421 -1.1869
 6420SOL     OW30478   8.624   2.379   1.681  0.3956  0.1282  0.5020
 6420SOL    HW130479   8.533   2.402   1.715  0.8745  0.6839  1.4261
 6420SOL    HW230480   8.615   2.324   1.598 -0.7843 -1.1739  1.4542
 6421SOL     OW30481   8.698   1.832   5.538  0.6157 -0.4840 -0.0497
 6421SOL    HW130482   8.757   1.867   5.611 -0.7071  0.6995  0.4718
 6421SOL    HW230483   8.685   1.733   5.550  0.4591 -0.3099  1.2852
 6422SOL     OW30484   2.679   4.058   0.015 -0.4253  0.6045  0.3106
 6422SOL    HW130485   2.616   4.130  -0.016 -0.7504  0.8570  1.5110
 6422SOL    HW230486   2.681   4.058   0.115  0.8478  0.0383  0.2867
 6423SOL     OW30487   9.244   9.173   3.959  0.4917  0.6780 -0.3570
 6423SOL    HW130488   9.171   9.129   3.907  0.0795  0.2860  0.5438
 6423SOL    HW230489   9.274   9.113   4.033  1.0399  1.2447 -0.1104
 6424SOL     OW30490   1.277   0.388   4.290 -0.1110 -0.2145 -0.2041
 6424SOL    HW130491   1.347   0.446   4.247  0.7218 -1.6382 -0.8024
 6424SOL    HW230492   1.239   0.436   4.369 -0.6005  1.8334 -1.6188
 6425SOL     OW30493   0.469   3.574   2.162  0.0558 -0.2540 -0.1234
 6425SOL    HW130494   0.501   3.506   2.096  1.4694  0.6714 -0.4024
 6425SOL    HW230495   0.490   3.543   2.254  0.9910 -0.0460 -0.2655
 6426SOL     OW30496   7.937   7.149   4.695 -0.5384 -0.5261 -0.2699
 6426SOL    HW130497   7.952   7.053   4.671 -0.8200 -0.7422  0.4166
 6426SOL    HW230498   7.961   7.207   4.617 -1.9685 -1.2614 -1.2757
 6427SOL     OW30499   9.427   0.391   5.637 -0.5752 -0.0394 -0.2746
 6427SOL    HW130500   9.486   0.410   5.559 -0.6569  0.4229 -0.2256
 6427SOL    HW230501   9.332   0.385   5.607 -0.6504  0.5339 -0.1501
 6428SOL     OW30502   2.554   7.405   1.237  0.0953 -0.3557  0.1961
 6428SOL    HW130503   2.572   7.382   1.141 -0.1685 -0.4794  0.1747
 6428SOL    HW230504   2.542   7.321   1.289 -0.2035 -0.2802  0.2496
 6429SOL     OW30505   7.386   0.944   1.550  0.0429 -0.1612  0.0098
 6429SOL    HW130506   7.315   0.994   1.600  0.4365  1.8254 -1.3238
 6429SOL    HW230507   7.403   0.856   1.594 -2.1883 -0.0294  1.2045
 6430SOL     OW30508   8.867   5.552   5.822  0.4672  0.8513 -0.4443
 6430SOL    HW130509   8.770   5.528   5.826  0.4224  0.9333 -0.9606
 6430SOL    HW230510   8.922   5.471   5.845  0.3102  0.3282 -1.8167
 6431SOL     OW30511   0.006   9.112   5.143 -0.1000 -1.0424 -0.7592
 6431SOL    HW130512  -0.088   9.079   5.152 -0.3097 -0.4703 -0.8470
 6431SOL    HW230513   0.064   9.064   5.209 -0.7883 -0.1161  0.5451
 6432SOL     OW30514   0.442   8.668   0.249  0.0266  0.3177  0.6339
 6432SOL    HW130515   0.399   8.713   0.171  1.0251 -1.6536 -1.1242
 6432SOL    HW230516   0.398   8.580   0.266  2.0551 -0.8625  0.0312
 6433SOL     OW30517   6.366   0.697   0.982 -0.0678  0.4927 -0.0971
 6433SOL    HW130518   6.447   0.645   0.955 -0.3547 -0.4044  0.7580
 6433SOL    HW230519   6.326   0.740   0.902  0.5957  0.0077 -0.6984
 6434SOL     OW30520   1.112   8.579   6.707  0.7663  0.3526 -0.8475
 6434SOL    HW130521   1.065   8.515   6.768  2.3751  1.1512  1.2769
 6434SOL    HW230522   1.190   8.533   6.664  0.6281  0.2605 -0.9968
 6435SOL     OW30523   1.881   3.036   5.900 -0.4445 -0.0493  0.0265
 6435SOL    HW130524   1.939   3.005   5.976 -0.9463  2.8122  1.6400
 6435SOL    HW230525   1.786   3.011   5.919  0.0246 -3.9853 -2.2202
 6436SOL     OW30526   8.619   7.984   6.158  0.2246  0.0462  0.3385
 6436SOL    HW130527   8.665   8.051   6.099 -0.0236 -0.9499 -1.0381
 6436SOL    HW230528   8.525   8.013   6.174  0.8868  1.3763  1.9902
 6437SOL     OW30529   4.694   9.513   1.888  0.1320  0.2649 -0.1437
 6437SOL    HW130530   4.603   9.518   1.848 -0.2028 -1.8704  0.2974
 6437SOL    HW230531   4.761   9.497   1.815  0.2727  2.6881 -0.5693
 6438SOL     OW30532   1.128   6.380   4.898  0.7541 -0.4101  0.2342
 6438SOL    HW130533   1.113   6.285   4.870  0.6236 -0.0966 -0.7590
 6438SOL    HW230534   1.134   6.384   4.998  0.5535 -1.4327  0.2962
 6439SOL     OW30535   6.694   7.134   5.371  0.1018  0.4260  0.6548
 6439SOL    HW130536   6.717   7.159   5.277  1.1900 -0.1981  0.7504
 6439SOL    HW230537   6.683   7.217   5.426  0.8146  0.7672  0.2888
 6440SOL     OW30538   7.559   5.470   4.899 -0.2540 -0.0406 -0.1103
 6440SOL    HW130539   7.636   5.409   4.917 -1.7508 -1.9910 -0.1790
 6440SOL    HW230540   7.575   5.519   4.814 -0.0241 -1.9948 -1.2206
 6441SOL     OW30541   7.981   7.754   3.590  0.5404 -0.5598  0.1473
 6441SOL    HW130542   7.943   7.846   3.600  0.5454 -0.8192  2.8377
 6441SOL    HW230543   7.971   7.724   3.494  0.5122  2.1879 -0.7423
 6442SOL     OW30544   9.729   6.086   2.652 -0.2149  0.1719  0.0084
 6442SOL    HW130545   9.648   6.064   2.707  0.5827 -0.8394  0.7895
 6442SOL    HW230546   9.811   6.053   2.699  0.2576 -3.5965 -3.2329
 6443SOL     OW30547   1.755   1.737   3.032 -0.9040  0.1191  0.1578
 6443SOL    HW130548   1.661   1.728   2.998 -0.8369 -0.7194  0.1733
 6443SOL    HW230549   1.766   1.682   3.115  0.4715 -2.5201 -1.6535
 6444SOL     OW30550   1.468   2.572   5.993 -0.3361 -0.1152  0.1395
 6444SOL    HW130551   1.421   2.648   5.948  0.6734 -0.3582 -1.3607
 6444SOL    HW230552   1.423   2.552   6.080 -1.4797  1.2677 -0.1151
 6445SOL     OW30553   9.852   8.653   3.025  0.2858 -0.4512  0.2306
 6445SOL    HW130554   9.766   8.692   3.056 -0.0187 -1.3394  0.5067
 6445SOL    HW230555   9.926   8.718   3.042 -0.1549 -0.1760  1.0953
 6446SOL     OW30556   5.206   9.364   2.963 -0.0559  0.6089 -0.4106
 6446SOL    HW130557   5.258   9.290   3.004  0.2326  0.6831 -0.6395
 6446SOL    HW230558   5.261   9.410   2.893  0.0924  1.6222  0.3555
 6447SOL     OW30559   0.782   8.227   2.784 -0.1703  0.0125  0.1494
 6447SOL    HW130560   0.773   8.302   2.849 -1.0386 -0.0088  0.0569
 6447SOL    HW230561   0.818   8.146   2.830  0.3848  0.3642  0.3353
 6448SOL     OW30562   8.631   6.426   5.677 -0.5103 -0.2465 -0.1276
 6448SOL    HW130563   8.547   6.447   5.728 -1.8500  0.6826 -2.5983
 6448SOL    HW230564   8.687   6.363   5.729 -2.9284 -1.1715  1.4437
 6449SOL     OW30565   7.353   2.151   0.168 -0.2554  0.4889  0.0437
 6449SOL    HW130566   7.362   2.063   0.214  1.9048 -0.3304 -1.8842
 6449SOL    HW230567   7.352   2.225   0.236  1.6038 -0.7678  1.4698
 6450SOL     OW30568   2.297   5.950   2.680 -0.1117  0.3983  0.0697
 6450SOL    HW130569   2.302   5.850   2.672  0.6903  0.3880  0.5879
 6450SOL    HW230570   2.368   5.981   2.743 -0.4345  1.2883 -0.0077
 6451SOL     OW30571   9.652   0.618   4.180  0.2580 -0.1030  0.2204
 6451SOL    HW130572   9.663   0.715   4.204 -1.4178 -0.0010  0.6512
 6451SOL    HW230573   9.627   0.610   4.083  0.2624 -0.0893  0.2177
 6452SOL     OW30574   2.983   6.371   1.100 -0.1780 -0.5239 -0.2347
 6452SOL    HW130575   2.926   6.358   1.181  0.0456 -0.7632 -0.1127
 6452SOL    HW230576   2.933   6.343   1.019 -0.0785 -1.1641 -0.0798
 6453SOL     OW30577   0.128   0.302   1.913 -0.3482  1.1345  0.1822
 6453SOL    HW130578   0.208   0.360   1.930 -0.6934  1.8838 -0.6871
 6453SOL    HW230579   0.045   0.356   1.924 -0.6393  1.1543 -1.8407
 6454SOL     OW30580   1.584   8.811   4.599  0.6262 -0.4286 -0.1329
 6454SOL    HW130581   1.602   8.899   4.641  2.3227  0.1356 -1.9554
 6454SOL    HW230582   1.555   8.745   4.669  1.0218  1.0905  1.4875
 6455SOL     OW30583   1.812   6.046   6.297 -0.1277 -0.1490  0.1831
 6455SOL    HW130584   1.859   6.037   6.209 -0.6382 -3.8402  0.1875
 6455SOL    HW230585   1.739   6.114   6.289  0.2883  0.0755 -2.0710
 6456SOL     OW30586   9.745   9.253   0.625 -0.3775 -0.2439  0.3868
 6456SOL    HW130587   9.730   9.352   0.619 -3.1719 -0.7122 -1.6657
 6456SOL    HW230588   9.831   9.229   0.581 -0.6738  1.0628 -0.9258
 6457SOL     OW30589   2.115   5.632   6.255 -0.0395  0.6089 -0.2692
 6457SOL    HW130590   2.087   5.691   6.179 -3.3737  0.1958  0.5561
 6457SOL    HW230591   2.043   5.631   6.324  1.9602 -0.8429  1.8362
 6458SOL     OW30592   4.096   7.296   1.496  0.0438  0.2698 -0.1893
 6458SOL    HW130593   4.105   7.212   1.548  0.0855 -0.3938 -1.2397
 6458SOL    HW230594   4.161   7.364   1.530  0.9369 -0.5737 -0.1841
 6459SOL     OW30595   1.618   6.362   3.092  0.9272 -0.2547 -0.5781
 6459SOL    HW130596   1.668   6.281   3.063  1.0941  0.1939 -1.5521
 6459SOL    HW230597   1.638   6.438   3.030  0.4419  0.4159  0.0775
 6460SOL     OW30598   8.443   7.170   1.538 -0.4393 -0.5683  0.1322
 6460SOL    HW130599   8.524   7.154   1.595 -0.9797  1.2857  1.4602
 6460SOL    HW230600   8.469   7.221   1.456  0.0700 -1.8369 -0.5140
 6461SOL     OW30601   0.042   2.740   1.546  0.0323 -0.0628 -0.0854
 6461SOL    HW130602   0.045   2.640   1.537  1.1471 -0.0608  0.1901
 6461SOL    HW230603   0.094   2.768   1.627 -0.2787  0.7458 -0.1588
 6462SOL     OW30604   0.090   7.505   2.895  0.4170 -0.5716 -0.3314
 6462SOL    HW130605   0.127   7.496   2.988 -0.3275  0.6356  0.0961
 6462SOL    HW230606   0.073   7.414   2.858  2.1899 -1.1064  0.1078
 6463SOL     OW30607   4.971   4.047   1.069  0.1276 -0.0070 -0.0809
 6463SOL    HW130608   5.039   3.974   1.068 -0.4736 -0.5633 -1.1615
 6463SOL    HW230609   4.911   4.037   0.991 -0.9787  0.6978  0.6679
 6464SOL     OW30610   2.083   6.914   3.507 -0.3012  0.1400  0.0968
 6464SOL    HW130611   2.107   6.822   3.478 -1.0106 -0.0903  0.2303
 6464SOL    HW230612   2.099   6.924   3.605 -0.0068  0.2355  0.0410
 6465SOL     OW30613   2.976   7.860   0.447 -0.0345  0.0993  0.0988
 6465SOL    HW130614   2.980   7.805   0.363 -0.1453  1.5112 -0.8484
 6465SOL    HW230615   3.069   7.882   0.477  0.0222 -1.1333  0.8352
 6466SOL     OW30616   0.549   6.381   3.486  0.0838  0.6185 -0.0613
 6466SOL    HW130617   0.619   6.418   3.425  0.6706  1.0733  0.8666
 6466SOL    HW230618   0.594   6.339   3.566 -0.5952 -1.4087 -0.7123
 6467SOL     OW30619   4.902   4.416   0.284 -0.1473 -0.0207 -0.3588
 6467SOL    HW130620   4.807   4.424   0.314  0.0586 -0.2348  0.3593
 6467SOL    HW230621   4.963   4.438   0.359  0.3738 -1.2083 -0.4152
 6468SOL     OW30622   6.039   9.943   2.433  0.6402  0.3349 -0.5204
 6468SOL    HW130623   5.949   9.905   2.455 -1.3711  2.0569 -5.0473
 6468SOL    HW230624   6.102   9.869   2.410  0.1459 -0.8245  1.7386
 6469SOL     OW30625   6.120   3.049   3.666  0.1054 -0.5081 -0.1632
 6469SOL    HW130626   6.063   3.073   3.588  0.6791  0.7551 -0.2067
 6469SOL    HW230627   6.105   3.115   3.740  2.9151  1.0241 -0.8801
 6470SOL     OW30628   6.891   3.996   0.317  0.1813 -0.2700 -0.0330
 6470SOL    HW130629   6.826   3.922   0.300 -2.2519  2.0552 -1.0975
 6470SOL    HW230630   6.982   3.957   0.331 -0.6800 -3.3390 -2.4044
 6471SOL     OW30631   1.084   6.643   0.032  0.5625  0.6252 -0.3236
 6471SOL    HW130632   1.183   6.627   0.031  0.1872 -1.7231 -1.5833
 6471SOL    HW230633   1.054   6.670  -0.059  0.1066  2.0039  0.2116
 6472SOL     OW30634   7.248   2.737   4.363 -0.0679 -0.6734 -0.9228
 6472SOL    HW130635   7.149   2.722   4.365 -0.2849  0.8443  0.7037
 6472SOL    HW230636   7.292   2.662   4.313 -1.7698 -2.9536  0.8465
 6473SOL     OW30637   9.598   5.503   4.166 -0.9767  0.1756  0.1103
 6473SOL    HW130638   9.693   5.512   4.138 -1.3075  2.9861 -0.1825
 6473SOL    HW230639   9.542   5.477   4.087 -0.9239  1.6994 -0.4406
 6474SOL     OW30640   9.887   7.685   0.878  0.6499 -0.3602  0.1723
 6474SOL    HW130641   9.824   7.698   0.801  0.8962 -0.1460  0.0042
 6474SOL    HW230642   9.956   7.758   0.877  0.5599 -0.2653  0.6910
 6475SOL     OW30643   9.761   4.365   3.579  0.2774 -0.0577 -0.5441
 6475SOL    HW130644   9.683   4.328   3.530  1.7642  1.2488 -4.0407
 6475SOL    HW230645   9.818   4.291   3.614 -0.9568 -0.9949 -0.5021
 6476SOL     OW30646   4.088   8.510   2.338 -0.0079 -0.3308 -0.3337
 6476SOL    HW130647   4.097   8.474   2.431 -2.1638 -2.3267 -0.8753
 6476SOL    HW230648   4.088   8.435   2.273 -0.5632  0.9219 -1.8074
 6477SOL     OW30649   2.259   2.952   1.264  0.2424 -0.3385 -0.4516
 6477SOL    HW130650   2.169   2.912   1.283 -0.1256 -0.3665 -2.1028
 6477SOL    HW230651   2.247   3.043   1.226  0.9215 -0.2556 -0.4660
 6478SOL     OW30652   2.187   1.484   4.643 -0.4701 -0.3928  0.5875
 6478SOL    HW130653   2.282   1.475   4.616 -0.8696 -1.2258 -0.5668
 6478SOL    HW230654   2.156   1.400   4.687 -0.2416  0.4306  2.3425
 6479SOL     OW30655   1.414   8.675   6.148  0.5024 -0.0433 -0.0928
 6479SOL    HW130656   1.418   8.580   6.179  0.1842 -0.1328 -0.3196
 6479SOL    HW230657   1.503   8.703   6.113  0.5079 -0.3681 -0.3381
 6480SOL     OW30658   4.418   4.950   0.947 -0.4237 -0.2008  0.7656
 6480SOL    HW130659   4.356   4.887   0.993 -0.3034  1.0073  2.6360
 6480SOL    HW230660   4.423   5.036   0.998  1.0518  0.5466 -0.5772
 6481SOL     OW30661   0.273   8.415   4.629 -0.3265  0.2354  0.0606
 6481SOL    HW130662   0.232   8.506   4.635 -0.9350  0.0979 -1.6216
 6481SOL    HW230663   0.238   8.368   4.547  0.7693 -1.1112  0.3432
 6482SOL     OW30664   4.206   7.988   2.067  0.0158 -0.3953 -0.3387
 6482SOL    HW130665   4.113   7.973   2.034  0.1632  1.3272 -1.6254
 6482SOL    HW230666   4.203   8.012   2.164 -1.1531  2.2249 -0.9764
 6483SOL     OW30667   7.460   8.013   3.626  0.0588  0.3253  0.2323
 6483SOL    HW130668   7.482   7.915   3.628 -0.4644  0.1624 -1.1737
 6483SOL    HW230669   7.370   8.028   3.666 -0.0880  0.1598 -0.0324
 6484SOL     OW30670   0.267   4.546   4.376 -0.1487 -0.8897 -0.3257
 6484SOL    HW130671   0.205   4.533   4.299 -0.5354 -0.3004 -0.1191
 6484SOL    HW230672   0.224   4.513   4.460 -0.3103 -0.2257 -0.1355
 6485SOL     OW30673   3.058   8.340   3.028  0.0006  0.7382  0.4038
 6485SOL    HW130674   2.973   8.307   3.069 -0.4928  1.4319 -0.0704
 6485SOL    HW230675   3.038   8.409   2.959  0.7053 -1.5082 -2.1539
 6486SOL     OW30676   7.376   4.110   1.230  0.3664  0.2056  0.6126
 6486SOL    HW130677   7.301   4.101   1.164  1.6237  0.5208 -0.8747
 6486SOL    HW230678   7.338   4.134   1.319 -1.5346 -1.9998  0.4808
 6487SOL     OW30679   1.554   6.520   4.472  0.1214 -0.1949  0.5188
 6487SOL    HW130680   1.554   6.428   4.511 -1.7750  0.1036  1.2452
 6487SOL    HW230681   1.594   6.584   4.538  1.7394 -0.5363 -0.1133
 6488SOL     OW30682   7.795   9.219   1.719 -0.4803 -0.4738  0.5031
 6488SOL    HW130683   7.779   9.176   1.631 -0.7838 -0.5286  0.5831
 6488SOL    HW230684   7.871   9.284   1.712 -0.4889 -0.4952  0.2101
 6489SOL     OW30685   0.954   7.564   6.385 -0.4628 -0.0009 -0.3497
 6489SOL    HW130686   1.003   7.604   6.307 -0.7200  0.1130 -0.4541
 6489SOL    HW230687   0.987   7.471   6.400  1.8951  1.0885  1.4552
 6490SOL     OW30688   0.981   5.343   0.615  0.0889  0.0218  0.1231
 6490SOL    HW130689   1.024   5.312   0.700 -1.1186 -2.7272 -0.2159
 6490SOL    HW230690   0.882   5.336   0.623 -0.1182  1.7890 -0.7750
 6491SOL     OW30691   3.835   6.047   1.419  0.0510  0.3117  0.2366
 6491SOL    HW130692   3.902   6.049   1.345 -0.0423  0.7159  0.1573
 6491SOL    HW230693   3.810   6.141   1.443 -0.2199  0.1711  0.5061
 6492SOL     OW30694   9.143   2.760   5.543 -0.0105 -0.3030  1.0369
 6492SOL    HW130695   9.151   2.854   5.577  1.0923  0.1835 -0.5057
 6492SOL    HW230696   9.072   2.755   5.473  1.0469 -0.2509 -0.0588
 6493SOL     OW30697   8.815   9.748   6.353 -0.1987 -0.3604  0.3706
 6493SOL    HW130698   8.756   9.746   6.435  0.8820 -0.4814  1.1523
 6493SOL    HW230699   8.790   9.826   6.297  0.9898  1.4482  2.2841
 6494SOL     OW30700   3.940   4.670   3.412 -0.4971  0.2559  0.3150
 6494SOL    HW130701   3.850   4.712   3.402 -1.1659 -0.6073  2.4453
 6494SOL    HW230702   4.009   4.740   3.431 -0.7496  0.8906 -1.1086
 6495SOL     OW30703   3.158   0.863   2.660 -0.4544  0.5354  0.0356
 6495SOL    HW130704   3.087   0.917   2.706 -0.9352  0.6549 -0.8426
 6495SOL    HW230705   3.238   0.921   2.643 -0.6663  0.7604 -0.1947
 6496SOL     OW30706   4.080   9.566   5.697 -0.0964 -0.1765 -0.0953
 6496SOL    HW130707   4.072   9.659   5.660 -0.1235  0.6805  2.0142
 6496SOL    HW230708   4.003   9.548   5.758  0.2046 -1.4023 -0.0672
 6497SOL     OW30709   9.535   3.054   5.767 -0.2470  0.1793 -0.0197
 6497SOL    HW130710   9.443   3.092   5.776 -0.3684  0.2280 -1.3005
 6497SOL    HW230711   9.537   2.991   5.690  0.7067 -0.0908  0.2239
 6498SOL     OW30712   1.629   6.913   5.510  0.5565  0.0000  0.1349
 6498SOL    HW130713   1.720   6.878   5.532  1.2020  0.9107 -1.0388
 6498SOL    HW230714   1.582   6.848   5.450  1.2045  0.4535 -0.8763
 6499SOL     OW30715   4.724   7.937   1.795 -0.0170  0.3030 -0.2683
 6499SOL    HW130716   4.781   7.855   1.790  0.9186  0.8787  0.8055
 6499SOL    HW230717   4.673   7.936   1.881  0.5895  1.2221  0.1098
 6500SOL     OW30718   0.524   7.555   3.154  0.6325  0.3732 -0.4727
 6500SOL    HW130719   0.521   7.455   3.159  0.6366  0.4142  0.4888
 6500SOL    HW230720   0.479   7.593   3.234 -1.6970  1.1708 -2.1113
 6501SOL     OW30721   4.081   8.581   0.179 -0.3058  0.4393 -0.0988
 6501SOL    HW130722   4.064   8.513   0.108 -0.0438  1.1213 -0.8252
 6501SOL    HW230723   4.014   8.654   0.171 -0.4934  0.3405  0.5847
 6502SOL     OW30724   3.432   3.486   6.117  0.2865  1.3062 -0.1683
 6502SOL    HW130725   3.479   3.464   6.203  0.0387 -3.3990 -1.0837
 6502SOL    HW230726   3.357   3.549   6.135 -0.4806 -0.4803  3.3252
 6503SOL     OW30727   4.877   8.551   2.029  0.5586 -0.3936 -0.5946
 6503SOL    HW130728   4.941   8.570   2.103  0.5950  0.2766 -0.7950
 6503SOL    HW230729   4.787   8.528   2.067  0.8908 -1.2538 -0.3160
 6504SOL     OW30730   0.585   0.039   0.037  0.1394  0.1552  0.2645
 6504SOL    HW130731   0.579   0.135   0.012  0.5454 -0.0354 -0.5952
 6504SOL    HW230732   0.617   0.030   0.131 -0.0657  0.8572  0.4051
 6505SOL     OW30733   8.597   6.378   3.439 -0.1831 -0.5953 -0.4507
 6505SOL    HW130734   8.660   6.450   3.410  0.1624 -1.2589 -1.3997
 6505SOL    HW230735   8.648   6.292   3.447 -0.2896 -0.4557  2.0762
 6506SOL     OW30736   5.508   0.463   3.327  0.7153  0.3400 -0.4803
 6506SOL    HW130737   5.420   0.424   3.357  0.8645  0.8833  0.7021
 6506SOL    HW230738   5.519   0.448   3.229  0.0658 -1.2232 -0.3429
 6507SOL     OW30739   1.380   4.777   2.774 -0.2668  0.0773 -0.3136
 6507SOL    HW130740   1.479   4.760   2.773 -0.4614 -1.0887  0.1755
 6507SOL    HW230741   1.354   4.824   2.689  0.5456 -0.5593 -0.9259
 6508SOL     OW30742   0.260   9.252   0.709  0.0743 -0.0283 -0.0836
 6508SOL    HW130743   0.257   9.316   0.785  0.4165 -1.6642  1.3535
 6508SOL    HW230744   0.335   9.275   0.648  2.0192 -0.7334  1.9724
 6509SOL     OW30745   9.749   6.074   5.563 -0.5670 -0.4524 -0.5675
 6509SOL    HW130746   9.841   6.035   5.576 -0.1902  1.1289  1.9962
 6509SOL    HW230747   9.715   6.050   5.472  2.5158 -0.8016 -1.6866
 6510SOL     OW30748   7.001   0.192   0.688  0.0655 -0.2396  0.1747
 6510SOL    HW130749   7.008   0.171   0.785 -2.8056 -1.1607  0.2313
 6510SOL    HW230750   7.021   0.288   0.672  1.9225 -0.3809  1.4566
 6511SOL     OW30751   2.209   2.152   3.153  0.1220  0.2643 -0.4637
 6511SOL    HW130752   2.201   2.199   3.066 -2.1596 -1.1572 -1.0716
 6511SOL    HW230753   2.123   2.105   3.174  0.7336  0.2808  2.3825
 6512SOL     OW30754   4.363   9.612   0.797 -0.0087  0.0893 -0.1148
 6512SOL    HW130755   4.355   9.515   0.820 -0.1057 -0.3959 -2.1268
 6512SOL    HW230756   4.429   9.656   0.859 -0.2554 -1.1638  1.0498
 6513SOL     OW30757   0.366   4.900   1.315  0.3812 -0.2476 -0.0786
 6513SOL    HW130758   0.311   4.942   1.387  1.3724  0.8781  0.0372
 6513SOL    HW230759   0.440   4.847   1.356 -0.3317 -1.3724 -0.2404
 6514SOL     OW30760   7.851   6.149   0.561 -0.0600 -0.1091 -0.7652
 6514SOL    HW130761   7.770   6.091   0.560 -0.6876  0.7736 -1.4707
 6514SOL    HW230762   7.912   6.122   0.485  0.3499 -0.8189 -0.1903
 6515SOL     OW30763   3.574   4.713   4.523  0.2200  0.2457  0.1833
 6515SOL    HW130764   3.617   4.739   4.609  1.2106  0.8882 -0.4975
 6515SOL    HW230765   3.585   4.615   4.508  0.3578  0.1954  0.6128
 6516SOL     OW30766   1.077   9.015   2.348  0.4564 -0.0771  0.6141
 6516SOL    HW130767   1.057   9.097   2.296  0.6100 -0.2970  0.2033
 6516SOL    HW230768   0.992   8.971   2.377  0.3730  1.4032  2.7134
 6517SOL     OW30769   4.370   5.975   1.960  0.3024 -0.5509  0.4747
 6517SOL    HW130770   4.348   6.014   1.870 -3.6732  0.7211  1.9259
 6517SOL    HW230771   4.326   5.885   1.969 -0.8370  0.1297  1.8137
 6518SOL     OW30772   9.347   6.066   3.389 -0.0688  0.1734 -0.1052
 6518SOL    HW130773   9.446   6.058   3.394 -0.2075 -1.7993 -0.1456
 6518SOL    HW230774   9.307   5.975   3.376 -1.8788  0.9463 -0.0509
 6519SOL     OW30775   3.405   9.681   3.612  0.7404  0.2058 -0.0279
 6519SOL    HW130776   3.368   9.616   3.545  3.3073 -1.9569  0.5679
 6519SOL    HW230777   3.441   9.761   3.565 -0.5789  0.2903 -0.9319
 6520SOL     OW30778   9.880   3.959   2.101  0.2454  0.0553  0.4559
 6520SOL    HW130779   9.915   4.014   2.178 -0.2628 -0.6606  1.2096
 6520SOL    HW230780   9.816   4.015   2.047 -0.2423  0.2307  1.1956
 6521SOL     OW30781   9.182   2.043   3.896  0.2182  0.6890  0.2489
 6521SOL    HW130782   9.180   2.131   3.945 -0.2769  0.3661  0.8270
 6521SOL    HW230783   9.152   1.970   3.958  0.2961  0.1611 -0.3278
 6522SOL     OW30784   3.656   7.806   2.715 -0.3127  0.1640 -0.3716
 6522SOL    HW130785   3.643   7.889   2.769  1.7783 -0.4812  1.1638
 6522SOL    HW230786   3.623   7.822   2.622  0.4621  2.8565 -0.2195
 6523SOL     OW30787   6.056   8.982   3.247 -0.0611 -0.2529  0.5916
 6523SOL    HW130788   6.002   8.899   3.237 -0.6458 -0.0752  2.2217
 6523SOL    HW230789   6.096   8.986   3.338  0.5301  0.9295  0.2975
 6524SOL     OW30790   4.788   0.530   0.119 -0.1434 -0.0854  0.0726
 6524SOL    HW130791   4.749   0.621   0.105  1.1928  0.2582 -1.5396
 6524SOL    HW230792   4.752   0.467   0.051  0.0371 -0.4248  0.2874
 6525SOL     OW30793   9.930   4.781   2.163 -0.2860  0.9267 -0.1008
 6525SOL    HW130794   9.853   4.752   2.106  0.4559  0.1808 -0.7357
 6525SOL    HW230795   9.958   4.873   2.137 -0.9137  1.1721  0.0830
 6526SOL     OW30796   2.375   5.476   5.077 -0.3177 -0.0907 -0.0605
 6526SOL    HW130797   2.418   5.434   4.997 -1.9248 -0.6585 -0.6465
 6526SOL    HW230798   2.290   5.427   5.098 -0.8899  1.2657  0.8193
 6527SOL     OW30799   1.631   7.886   5.833 -0.3346  0.2064 -0.0303
 6527SOL    HW130800   1.594   7.805   5.786  0.6839  0.3749 -1.1618
 6527SOL    HW230801   1.671   7.947   5.765 -2.0090  2.1634  0.7068
 6528SOL     OW30802   5.328   8.911   4.005 -0.1785 -0.5174  0.0522
 6528SOL    HW130803   5.229   8.909   4.013 -0.1036 -1.7627  0.8148
 6528SOL    HW230804   5.365   8.821   4.027  1.0778 -0.2260 -0.8109
 6529SOL     OW30805   3.814   2.320   3.803 -0.5019  0.5823 -0.4854
 6529SOL    HW130806   3.729   2.357   3.766 -0.0946  3.9063  1.6584
 6529SOL    HW230807   3.892   2.367   3.761  0.2017 -0.6304 -0.5727
 6530SOL     OW30808   0.155   1.952   1.165  0.0840  0.9931 -0.0232
 6530SOL    HW130809   0.171   1.989   1.257 -1.2349 -1.7949  1.4027
 6530SOL    HW230810   0.057   1.950   1.147  0.1644 -1.1774 -0.3003
 6531SOL     OW30811   2.410   7.218   0.297  0.1926  0.6738  0.0823
 6531SOL    HW130812   2.394   7.120   0.288 -1.5971  1.0544 -1.2813
 6531SOL    HW230813   2.506   7.239   0.278  0.4050 -0.7168 -0.4085
 6532SOL     OW30814   8.877   2.471   2.388 -0.0749  0.3406  0.3219
 6532SOL    HW130815   8.842   2.386   2.427 -0.1695 -0.5079 -1.5948
 6532SOL    HW230816   8.974   2.461   2.366 -0.2475  0.5104 -0.5264
 6533SOL     OW30817   8.708   3.564   4.398  0.1556  0.1541  0.0499
 6533SOL    HW130818   8.701   3.562   4.497  0.6277 -0.7175  0.0706
 6533SOL    HW230819   8.677   3.476   4.360  0.1731  0.4025 -0.5545
 6534SOL     OW30820   1.877   2.606   2.807  0.2597  0.5444 -0.7635
 6534SOL    HW130821   1.921   2.677   2.862  0.5549 -0.7535  0.7022
 6534SOL    HW230822   1.811   2.556   2.863  0.7535 -0.9796 -1.5069
 6535SOL     OW30823   7.019   8.936   3.977  0.0030  0.1388 -0.0664
 6535SOL    HW130824   7.100   8.962   4.029  1.7583 -0.7022 -2.3025
 6535SOL    HW230825   7.014   8.991   3.894 -0.9740 -0.7494 -0.6068
 6536SOL     OW30826   2.410   0.176   6.421  0.3314  0.3427 -0.6235
 6536SOL    HW130827   2.401   0.078   6.405  2.1025  0.1603 -0.6363
 6536SOL    HW230828   2.326   0.210   6.464 -0.6574 -0.9882 -1.4389
 6537SOL     OW30829   1.384   4.036   1.472 -0.3538 -0.8742  0.4087
 6537SOL    HW130830   1.352   4.035   1.377  0.0021 -0.1012  0.2776
 6537SOL    HW230831   1.437   3.953   1.490 -3.8032 -3.0155  1.1193
 6538SOL     OW30832   1.777   0.955   5.155  0.4201  0.0097 -0.2109
 6538SOL    HW130833   1.819   0.926   5.069 -0.1938 -0.8322 -0.2334
 6538SOL    HW230834   1.688   0.996   5.137 -0.8814 -2.5112  0.2002
 6539SOL     OW30835   3.305   5.877   5.446 -0.3908  0.5519  0.5675
 6539SOL    HW130836   3.281   5.784   5.475 -0.0917  0.5734  0.8820
 6539SOL    HW230837   3.264   5.895   5.357  0.3077 -0.2060  0.0876
 6540SOL     OW30838   2.637   7.136   1.303  0.2410  0.1344 -0.4273
 6540SOL    HW130839   2.642   7.036   1.305  0.9310  0.1716 -0.3071
 6540SOL    HW230840   2.722   7.173   1.267 -1.2827  0.5595 -3.8540
 6541SOL     OW30841   2.434   4.223   2.364 -0.5871 -0.0812  0.4043
 6541SOL    HW130842   2.492   4.235   2.283 -0.5892  0.7005  0.5174
 6541SOL    HW230843   2.404   4.128   2.368  1.7853 -0.8499  1.0648
 6542SOL     OW30844   7.785   1.060   3.443  0.2089 -0.2549 -0.9311
 6542SOL    HW130845   7.802   1.062   3.345  1.3934 -0.9573 -0.7485
 6542SOL    HW230846   7.804   1.150   3.482 -0.8525  0.1976 -1.4257
 6543SOL     OW30847   8.349   0.122   6.192 -0.1902 -0.3471  0.3355
 6543SOL    HW130848   8.291   0.181   6.247 -0.3020 -0.8725  0.7844
 6543SOL    HW230849   8.376   0.042   6.245  0.9568 -0.1074  0.1401
 6544SOL     OW30850   2.390   1.822   3.325  0.2626 -0.2957 -0.2998
 6544SOL    HW130851   2.384   1.732   3.368  0.7928 -0.2416 -0.1103
 6544SOL    HW230852   2.305   1.841   3.276 -0.7409  0.0578  1.5490
 6545SOL     OW30853   0.379   5.585   4.603  0.2509  0.0390 -0.4519
 6545SOL    HW130854   0.281   5.567   4.595  0.4940 -2.0472  0.8015
 6545SOL    HW230855   0.408   5.563   4.696  1.6129  2.1785 -0.3594
 6546SOL     OW30856   7.500   1.264   3.715 -0.3385 -0.3808  0.3481
 6546SOL    HW130857   7.400   1.264   3.720 -0.2657 -1.6754  2.2929
 6546SOL    HW230858   7.532   1.175   3.683  0.1845  0.1479 -0.6104
 6547SOL     OW30859   2.983   9.697   6.008  0.3434 -0.9828  0.1884
 6547SOL    HW130860   3.049   9.747   5.952 -0.8031  0.4400  0.1031
 6547SOL    HW230861   2.906   9.668   5.951  0.8503 -2.6001  0.3001
 6548SOL     OW30862   9.109   1.395   1.400 -0.0501 -0.2288 -0.0507
 6548SOL    HW130863   9.101   1.385   1.499 -2.1937 -0.1844 -0.1987
 6548SOL    HW230864   9.091   1.490   1.375  1.5339 -0.0034 -0.4084
 6549SOL     OW30865   3.816   9.056   5.293 -0.3389 -0.5301  0.0620
 6549SOL    HW130866   3.889   9.034   5.228 -0.9988 -2.2485 -0.1032
 6549SOL    HW230867   3.748   8.983   5.294 -2.0798  1.0431  0.2251
 6550SOL     OW30868   9.575   1.892   3.482 -0.7129  0.0794 -0.8360
 6550SOL    HW130869   9.584   1.841   3.396  0.0348  0.0661 -0.7569
 6550SOL    HW230870   9.616   1.982   3.471 -1.1063  0.2772 -0.6597
 6551SOL     OW30871   7.555   3.372   2.800 -0.0091 -0.0075  0.2662
 6551SOL    HW130872   7.580   3.454   2.852 -3.3680  1.5868 -0.5296
 6551SOL    HW230873   7.508   3.308   2.861 -1.3492  0.6010 -0.1171
 6552SOL     OW30874   3.713   9.910   4.267 -0.6977 -0.1981  0.0543
 6552SOL    HW130875   3.786   9.977   4.278  2.3487 -3.2962 -0.2257
 6552SOL    HW230876   3.665   9.898   4.354 -0.0104  0.9238  0.5956
 6553SOL     OW30877   0.500   8.604   3.348  0.3590  0.0670 -0.0901
 6553SOL    HW130878   0.576   8.662   3.319  0.6757 -0.2387  0.1191
 6553SOL    HW230879   0.536   8.515   3.377 -0.0189  0.1467  0.6187
 6554SOL     OW30880   8.122   0.891   2.672 -0.5555  0.1561 -0.1810
 6554SOL    HW130881   8.197   0.925   2.728 -1.2553 -0.6462  1.2838
 6554SOL    HW230882   8.158   0.853   2.587  0.6173  0.5942  0.1145
 6555SOL     OW30883   6.052   1.494   1.774  0.0211  0.4812 -0.3385
 6555SOL    HW130884   6.111   1.415   1.794 -0.9543  0.0142  0.7531
 6555SOL    HW230885   6.108   1.577   1.771  1.0795 -0.2532 -1.6358
 6556SOL     OW30886   9.823   8.825   1.307 -0.0333  0.0730  0.0366
 6556SOL    HW130887   9.921   8.841   1.319  0.1182 -1.4292  0.9135
 6556SOL    HW230888   9.771   8.892   1.360  0.4917  1.4270 -1.1281
 6557SOL     OW30889   0.407   7.597   1.676  0.1103  0.3132  0.1846
 6557SOL    HW130890   0.357   7.513   1.657  1.3958 -0.1799 -1.1368
 6557SOL    HW230891   0.505   7.580   1.668  0.4589  1.5197  1.6390
 6558SOL     OW30892   9.079   5.973   3.959 -0.4133 -0.1089  0.0999
 6558SOL    HW130893   9.149   6.001   4.024  0.4744 -1.3188 -0.3350
 6558SOL    HW230894   9.109   5.892   3.909 -1.0144  0.9028 -1.9544
 6559SOL     OW30895   8.919   2.373   3.065 -0.0262 -0.6345  0.4186
 6559SOL    HW130896   9.001   2.408   3.020 -0.3298 -1.4651 -0.8247
 6559SOL    HW230897   8.884   2.442   3.128 -1.5981  2.1199 -3.2569
 6560SOL     OW30898   0.306   5.655   4.079 -0.1774  0.3803  0.2199
 6560SOL    HW130899   0.323   5.558   4.060  0.3572  0.4065  0.5571
 6560SOL    HW230900   0.295   5.668   4.177  0.7666  0.8161  0.2706
 6561SOL     OW30901   7.025   3.945   6.606 -0.4927  0.0549  0.0846
 6561SOL    HW130902   7.100   3.946   6.540 -0.1966  1.2981  0.4240
 6561SOL    HW230903   7.035   3.868   6.668 -0.1891 -0.5017 -0.6556
 6562SOL     OW30904   2.766   2.944   3.101  0.1821 -0.0102  0.2973
 6562SOL    HW130905   2.831   2.921   3.173  0.9874  0.0633 -0.3955
 6562SOL    HW230906   2.729   3.036   3.117  1.9313  0.8532 -0.5032
 6563SOL     OW30907   8.143   7.790   1.124 -0.4714 -0.1665  0.6211
 6563SOL    HW130908   8.167   7.783   1.027 -1.6409 -1.7304  0.4216
 6563SOL    HW230909   8.044   7.778   1.135 -0.4497  0.7426  1.9404
 6564SOL     OW30910   0.437   6.588   3.610  0.3396 -0.1107  0.2304
 6564SOL    HW130911   0.475   6.504   3.572  0.1312 -0.1830  0.1765
 6564SOL    HW230912   0.340   6.594   3.586  0.6875  0.8504 -1.0089
 6565SOL     OW30913   2.600   2.323   2.117  0.0508  0.0720 -0.3309
 6565SOL    HW130914   2.601   2.289   2.211 -1.5753  0.7491 -0.0483
 6565SOL    HW230915   2.544   2.263   2.060 -0.8539  0.9315 -0.3559
 6566SOL     OW30916   3.206   6.506   1.261  0.0049 -0.6698 -0.3645
 6566SOL    HW130917   3.229   6.422   1.212 -0.4093 -1.5865  0.9859
 6566SOL    HW230918   3.175   6.575   1.195 -1.1014 -2.0723 -1.3515
 6567SOL     OW30919   4.282   6.837   1.623 -0.4267  0.0954  0.0444
 6567SOL    HW130920   4.286   6.821   1.722 -2.1265  0.6999  0.2238
 6567SOL    HW230921   4.366   6.882   1.593 -0.6915  1.6160  1.5329
 6568SOL     OW30922   1.342   0.441   1.782 -0.3016  0.0811  0.0491
 6568SOL    HW130923   1.247   0.443   1.753 -0.6745  1.1188  1.2653
 6568SOL    HW230924   1.348   0.405   1.875  0.5355 -0.3847 -0.1761
 6569SOL     OW30925   9.630   8.991   0.590 -0.1141  0.3449  0.3880
 6569SOL    HW130926   9.671   9.080   0.610  0.1651  0.3730 -0.2862
 6569SOL    HW230927   9.696   8.934   0.541 -0.1508 -0.3915  1.1991
 6570SOL     OW30928   8.606   5.832   6.582 -0.0521  0.0551  0.2799
 6570SOL    HW130929   8.511   5.858   6.562  0.1529  1.0466  0.5747
 6570SOL    HW230930   8.640   5.774   6.509 -0.5151  0.6325 -0.4089
 6571SOL     OW30931   6.124   9.606   2.077 -0.3966  0.5343 -0.2272
 6571SOL    HW130932   6.111   9.508   2.067  0.4089  0.1523  2.3348
 6571SOL    HW230933   6.101   9.634   2.170  1.1340  2.4819 -0.4086
 6572SOL     OW30934   3.948   5.946   1.653 -0.2060 -0.0516  0.5887
 6572SOL    HW130935   4.044   5.974   1.646  0.1873 -1.4855  0.2540
 6572SOL    HW230936   3.898   5.981   1.575  0.3961 -0.7191 -0.0989
 6573SOL     OW30937   3.114   5.156   4.158  0.1078 -0.8027  0.4378
 6573SOL    HW130938   3.097   5.060   4.181  0.0241 -0.9002 -0.0271
 6573SOL    HW230939   3.026   5.203   4.146  0.1450 -0.9794 -0.6138
 6574SOL     OW30940   3.885   0.872   6.392 -0.2086  0.1763  0.5079
 6574SOL    HW130941   3.917   0.879   6.486  0.5783  1.0259  0.1873
 6574SOL    HW230942   3.931   0.941   6.336 -1.6627  0.5866 -0.2273
 6575SOL     OW30943   2.266   5.765   5.337  0.3964 -0.2099  0.5778
 6575SOL    HW130944   2.347   5.711   5.314 -0.9579 -1.7555 -0.7020
 6575SOL    HW230945   2.221   5.795   5.253 -1.0476 -0.4511  1.2492
 6576SOL     OW30946   1.315   0.087   4.398  0.0531  0.0187 -0.5355
 6576SOL    HW130947   1.264   0.097   4.313 -0.5857 -1.1634 -0.3149
 6576SOL    HW230948   1.254   0.104   4.476  0.0765 -1.0349 -0.2765
 6577SOL     OW30949   2.300   0.926   1.222  0.0930  0.1009 -0.2676
 6577SOL    HW130950   2.392   0.950   1.190 -0.1760 -0.7014 -1.6789
 6577SOL    HW230951   2.233   0.947   1.151 -0.4920 -1.8951 -0.3477
 6578SOL     OW30952   5.285   6.433   2.026 -0.4455 -0.3872  0.4811
 6578SOL    HW130953   5.247   6.376   2.099 -2.5231 -0.7344 -0.8528
 6578SOL    HW230954   5.280   6.529   2.054 -0.5251 -0.5711  1.1113
 6579SOL     OW30955   0.427   1.578   0.824 -0.7651 -0.1676  0.4889
 6579SOL    HW130956   0.338   1.533   0.821 -1.4792  1.2937 -0.5981
 6579SOL    HW230957   0.443   1.613   0.917 -0.8370 -1.3292  0.9588
 6580SOL     OW30958   3.354   3.097   5.694  0.0180  0.0929  0.0843
 6580SOL    HW130959   3.405   3.161   5.637 -0.6193 -1.5498 -2.3892
 6580SOL    HW230960   3.417   3.035   5.741  0.4031 -1.2468 -2.1368
 6581SOL     OW30961   2.164   4.415   5.061  0.3243 -0.2426  0.3404
 6581SOL    HW130962   2.125   4.486   5.004 -1.2122 -1.2800  0.0797
 6581SOL    HW230963   2.264   4.421   5.058  0.2491  0.2527 -1.7524
 6582SOL     OW30964   4.833   1.636   2.428  0.4188  0.1030 -0.0209
 6582SOL    HW130965   4.826   1.640   2.528  0.0170  1.7217 -0.1028
 6582SOL    HW230966   4.808   1.725   2.389 -2.2041 -1.3370 -1.7390
 6583SOL     OW30967   6.278   9.481   2.580 -0.5586  0.2284  0.1108
 6583SOL    HW130968   6.296   9.522   2.491 -2.3824 -1.6500 -1.1899
 6583SOL    HW230969   6.339   9.520   2.649  0.7757  1.8092 -1.9319
 6584SOL     OW30970   6.494   4.461   1.070  0.0550  0.1100 -0.1020
 6584SOL    HW130971   6.455   4.523   1.002 -0.1373  1.3696  1.1442
 6584SOL    HW230972   6.442   4.376   1.071  1.3934 -0.8261 -3.0680
 6585SOL     OW30973   5.939   9.579   4.109  0.7402 -0.4286 -0.0063
 6585SOL    HW130974   5.872   9.653   4.096  1.6970  0.8674  2.1068
 6585SOL    HW230975   5.899   9.493   4.079 -2.0742  0.2186  1.6149
 6586SOL     OW30976   6.631   4.116   0.748 -0.2413 -0.0490  0.1351
 6586SOL    HW130977   6.685   4.191   0.787 -0.4327 -0.2078  0.7170
 6586SOL    HW230978   6.535   4.142   0.747 -0.2475 -0.0838 -0.1486
 6587SOL     OW30979   8.499   5.023   3.588 -0.9964  0.5892  0.0645
 6587SOL    HW130980   8.400   5.015   3.600 -1.2994  3.4178 -0.1773
 6587SOL    HW230981   8.534   5.093   3.650  0.8484 -0.2641  0.0173
 6588SOL     OW30982   8.229   7.605   1.299  0.0421 -0.5468  0.3095
 6588SOL    HW130983   8.232   7.675   1.228  2.5686 -0.2071  0.6991
 6588SOL    HW230984   8.218   7.515   1.257  0.5370 -0.2550 -0.4568
 6589SOL     OW30985   3.889   7.322   1.723  0.1307 -0.4053 -0.2961
 6589SOL    HW130986   3.852   7.231   1.741 -0.9673  0.4052  1.7914
 6589SOL    HW230987   3.902   7.334   1.625 -3.5630 -1.3727 -0.9949
 6590SOL     OW30988   3.230   1.259   0.952 -0.0826 -0.3676 -0.0338
 6590SOL    HW130989   3.183   1.315   1.021  2.9274  0.0875  1.7366
 6590SOL    HW230990   3.196   1.283   0.861 -1.6080  1.5769  0.9961
 6591SOL     OW30991   9.876   5.991   1.977  0.3620  0.1972  0.5105
 6591SOL    HW130992   9.937   5.911   1.977 -0.9422 -0.8331  2.5098
 6591SOL    HW230993   9.855   6.017   2.071 -0.8428  1.6840 -0.1470
 6592SOL     OW30994   9.903   0.068   5.340  0.6065  0.0153  1.0039
 6592SOL    HW130995   9.899   0.030   5.432 -0.0933 -2.1490  0.1331
 6592SOL    HW230996   9.970   0.017   5.286 -0.8564 -0.4694 -0.3942
 6593SOL     OW30997   0.420   7.615   5.782 -0.0871  0.2414  0.7303
 6593SOL    HW130998   0.337   7.570   5.816 -0.6197 -0.5952 -1.5455
 6593SOL    HW230999   0.499   7.586   5.837 -0.6396 -2.5037  0.1728
 6594SOL     OW31000   9.437   1.549   2.381  0.5212  0.0040 -0.6386
 6594SOL    HW131001   9.418   1.483   2.309  0.2017  1.1968 -1.6765
 6594SOL    HW231002   9.525   1.528   2.423  0.5492 -0.9076 -1.1407
 6595SOL     OW31003   7.397   4.088   2.542 -0.3027 -0.8337 -0.0640
 6595SOL    HW131004   7.464   4.048   2.479  0.0010  1.3504 -1.1726
 6595SOL    HW231005   7.409   4.047   2.633  2.9549 -0.1224 -0.0910
 6596SOL     OW31006   4.632   8.905   1.496  0.6184  0.0359  0.1085
 6596SOL    HW131007   4.553   8.856   1.460  1.0843 -0.6084 -0.0485
 6596SOL    HW231008   4.604   8.996   1.526 -0.0609  0.0333 -0.5078
 6597SOL     OW31009   8.763   8.387   2.003 -0.5606  0.5670  0.1063
 6597SOL    HW131010   8.684   8.352   2.053 -0.5125 -0.0977 -0.2679
 6597SOL    HW231011   8.812   8.310   1.961  1.0925  0.8144  1.5101
 6598SOL     OW31012   4.206   1.486   5.609 -0.4916  0.2920 -0.3683
 6598SOL    HW131013   4.116   1.475   5.567 -1.1853  0.2122  1.1108
 6598SOL    HW231014   4.277   1.472   5.540 -1.6260  1.5829 -1.8351
 6599SOL     OW31015   3.319   8.176   3.307  0.4520  0.0754  0.0038
 6599SOL    HW131016   3.262   8.103   3.269 -0.4374  1.4341 -1.3378
 6599SOL    HW231017   3.416   8.154   3.291  0.2106 -0.9844 -0.0358
 6600SOL     OW31018   2.883   7.432   1.059 -0.0644 -0.2230 -0.0226
 6600SOL    HW131019   2.789   7.409   1.032 -0.1138  0.2511 -0.2656
 6600SOL    HW231020   2.942   7.431   0.978  0.0834 -0.2385  0.0859
 6601SOL     OW31021   3.821   5.748   2.670 -0.3299  0.4410 -0.7476
 6601SOL    HW131022   3.861   5.664   2.709  0.9644  0.8978 -1.0760
 6601SOL    HW231023   3.771   5.797   2.741 -0.3206 -0.1516 -0.3307
 6602SOL     OW31024   7.814   4.348   5.891 -0.5581 -0.1323 -0.1991
 6602SOL    HW131025   7.789   4.251   5.888 -0.4763 -0.1898  0.8765
 6602SOL    HW231026   7.858   4.368   5.978  0.6611  0.5827 -0.9748
 6603SOL     OW31027   1.422   2.629   1.560  0.4123 -0.1945 -0.9454
 6603SOL    HW131028   1.358   2.703   1.582  0.6689  0.0040 -0.8571
 6603SOL    HW231029   1.506   2.642   1.612  0.9590  0.1777 -1.9097
 6604SOL     OW31030   1.156   7.584   2.588  0.0958  0.2833  0.5085
 6604SOL    HW131031   1.158   7.509   2.522  0.6435 -1.1027  2.0829
 6604SOL    HW231032   1.127   7.668   2.541 -1.2575 -1.0465 -1.1127
 6605SOL     OW31033   0.520   0.494   0.356 -0.1733 -0.1692  0.1241
 6605SOL    HW131034   0.565   0.519   0.442  0.4349  4.7898 -1.4586
 6605SOL    HW231035   0.575   0.426   0.308  1.9016  0.4542  1.5328
 6606SOL     OW31036   8.631   8.620   5.332  0.3310 -0.2970  0.0054
 6606SOL    HW131037   8.695   8.660   5.398 -0.5958  0.2917  0.5600
 6606SOL    HW231038   8.559   8.571   5.381  0.0069 -0.4239 -0.5928
 6607SOL     OW31039   3.937   1.519   5.952 -0.4298 -0.7113  0.4285
 6607SOL    HW131040   3.862   1.493   5.891 -0.9868 -0.5012  1.0198
 6607SOL    HW231041   3.998   1.583   5.905  0.3438 -2.2167 -0.6518
 6608SOL     OW31042   1.993   4.677   6.614 -0.1505  0.0464 -0.0771
 6608SOL    HW131043   2.087   4.645   6.611 -0.6860 -1.6105 -0.0438
 6608SOL    HW231044   1.989   4.774   6.591  1.4910 -0.0184 -0.6735
 6609SOL     OW31045   7.985   2.250   5.961  0.1542 -0.1536  0.2001
 6609SOL    HW131046   7.919   2.304   5.909 -0.4777 -0.4777  0.6665
 6609SOL    HW231047   8.017   2.303   6.039 -0.3049 -0.3791  0.5375
 6610SOL     OW31048   3.117   7.087   0.551 -0.6834  0.3663 -0.2048
 6610SOL    HW131049   3.140   7.116   0.458 -1.2361 -0.3874 -0.5833
 6610SOL    HW231050   3.071   6.998   0.548  2.7083 -1.5339  1.0425
 6611SOL     OW31051   9.680   4.106   5.194  0.0791  0.5822  0.6277
 6611SOL    HW131052   9.588   4.083   5.160  0.4800  0.5752 -0.4984
 6611SOL    HW231053   9.746   4.040   5.157  0.3759 -0.1606  2.4232
 6612SOL     OW31054   1.016   4.133   0.842 -0.2092 -0.4318  0.1084
 6612SOL    HW131055   0.927   4.164   0.808  0.2998 -0.0127 -0.8755
 6612SOL    HW231056   1.083   4.138   0.768  1.0016  0.7930  1.2686
 6613SOL     OW31057   9.989   4.793   4.262 -0.0041  0.0426 -0.0786
 6613SOL    HW131058  10.043   4.787   4.178 -0.9503 -2.4419 -0.5607
 6613SOL    HW231059   9.896   4.760   4.244 -0.6376  0.8416  1.6130
 6614SOL     OW31060   5.871   0.998   0.727  0.0307 -0.2608 -0.1707
 6614SOL    HW131061   5.799   1.058   0.762  1.2174  1.5670 -0.7214
 6614SOL    HW231062   5.908   0.943   0.801 -0.7877  0.0159  0.4487
 6615SOL     OW31063   5.358   7.128   2.074 -0.2442  0.3735 -0.2566
 6615SOL    HW131064   5.424   7.204   2.077  0.2527 -0.0327 -0.7600
 6615SOL    HW231065   5.367   7.073   2.157  0.0901  0.2893 -0.3466
 6616SOL     OW31066   7.391   2.483   4.480  0.3558  0.3043  0.0686
 6616SOL    HW131067   7.448   2.406   4.450 -0.3334 -0.4768  0.7442
 6616SOL    HW231068   7.299   2.473   4.443  0.3128  0.9140 -0.0016
 6617SOL     OW31069   8.852   5.233   3.536  0.1765 -0.1464 -0.6401
 6617SOL    HW131070   8.883   5.192   3.622 -1.4441 -0.9094 -0.4026
 6617SOL    HW231071   8.825   5.328   3.551  1.2577  0.1666 -0.6158
 6618SOL     OW31072   2.385   2.386   6.414 -0.2442 -0.4167 -0.6339
 6618SOL    HW131073   2.419   2.297   6.384 -1.2312 -1.2803  0.7380
 6618SOL    HW231074   2.444   2.458   6.378  1.5835 -1.7265 -0.3404
 6619SOL     OW31075   0.917   9.094   0.797 -0.1826 -0.9074 -0.5775
 6619SOL    HW131076   0.879   9.105   0.889 -0.1647 -2.1081 -0.4122
 6619SOL    HW231077   0.858   9.034   0.744  0.3237 -1.0046 -1.0349
 6620SOL     OW31078   3.898   1.905   2.919  0.1603  0.3414  0.5842
 6620SOL    HW131079   3.911   1.876   2.825 -1.9880 -2.1674  1.0081
 6620SOL    HW231080   3.958   1.851   2.979 -1.5967 -1.1575  1.0509
 6621SOL     OW31081   6.388   8.761   3.764  0.0660  0.3715 -0.4533
 6621SOL    HW131082   6.477   8.728   3.795  0.3257  0.9294 -0.6022
 6621SOL    HW231083   6.323   8.685   3.762  0.8090 -0.2484 -1.3401
 6622SOL     OW31084   9.733   7.129   6.719  0.4012  1.0848  0.5749
 6622SOL    HW131085   9.762   7.068   6.793  0.5843  1.1599  0.5664
 6622SOL    HW231086   9.783   7.106   6.636 -0.0370  0.7909  0.3905
 6623SOL     OW31087   3.003   9.142   5.742  0.2951 -0.1771 -0.1059
 6623SOL    HW131088   3.026   9.222   5.688  0.8781 -0.4624 -0.2763
 6623SOL    HW231089   2.930   9.091   5.696 -0.1996  0.3454  0.0901
 6624SOL     OW31090   0.846   1.100   5.953 -0.5165  0.5402  0.4296
 6624SOL    HW131091   0.866   1.019   5.898  0.7321  0.3698  1.1331
 6624SOL    HW231092   0.825   1.177   5.893  0.3958  0.2389 -0.2815
 6625SOL     OW31093   1.540   0.310   3.034  0.6318  0.4057  0.1536
 6625SOL    HW131094   1.540   0.226   3.088 -0.2511  0.0545 -0.3850
 6625SOL    HW231095   1.614   0.370   3.066  2.1311 -1.1287 -0.3306
 6626SOL     OW31096   1.242   4.187   4.510 -0.5677 -0.2047 -0.3751
 6626SOL    HW131097   1.246   4.140   4.422 -0.4832  0.7901 -0.9087
 6626SOL    HW231098   1.303   4.141   4.575 -2.8698 -2.7592  0.0630
 6627SOL     OW31099   9.246   2.916   0.991 -0.0747 -0.1071 -0.2102
 6627SOL    HW131100   9.176   2.915   0.919 -1.0655  0.3842  0.7388
 6627SOL    HW231101   9.209   2.875   1.074  1.1099 -0.7765 -0.0048
 6628SOL     OW31102   9.210   2.132   5.957 -0.8643 -0.5175  0.2021
 6628SOL    HW131103   9.309   2.136   5.965 -0.9830  0.5512  1.2867
 6628SOL    HW231104   9.185   2.071   5.882  0.6398  0.6215 -1.2654
 6629SOL     OW31105   3.724   9.777   0.048  0.0123  0.3071  0.2924
 6629SOL    HW131106   3.813   9.735   0.064 -0.2139 -0.3426 -0.1638
 6629SOL    HW231107   3.656   9.735   0.109 -0.0244  0.6487  0.4872
 6630SOL     OW31108   1.894   9.192   2.715  0.1480 -0.7538 -0.1444
 6630SOL    HW131109   1.900   9.181   2.814 -0.4272 -0.2017 -0.0426
 6630SOL    HW231110   1.896   9.102   2.671 -1.4656 -1.1278  0.4893
 6631SOL     OW31111   0.848   4.455   3.045 -0.6097 -0.5107 -0.1369
 6631SOL    HW131112   0.907   4.505   2.981 -1.7710  0.0948 -0.7578
 6631SOL    HW231113   0.754   4.455   3.010 -0.7420 -2.6623  0.1345
 6632SOL     OW31114   2.754   5.773   0.071 -0.5568  0.1223  0.1105
 6632SOL    HW131115   2.846   5.811   0.072 -0.3585 -0.3697  0.8698
 6632SOL    HW231116   2.702   5.813  -0.005  0.5691 -0.2833 -0.8975
 6633SOL     OW31117   6.703   4.858   6.238  0.0691  0.0093 -0.0966
 6633SOL    HW131118   6.685   4.878   6.335 -1.8170  2.0208 -0.8316
 6633SOL    HW231119   6.668   4.767   6.216 -1.3964  0.3915  0.6027
 6634SOL     OW31120   7.147   1.225   4.365 -0.3811  0.6191 -0.1963
 6634SOL    HW131121   7.070   1.239   4.426  0.4046  0.4191  0.8459
 6634SOL    HW231122   7.183   1.133   4.375 -0.7267  0.3181 -1.5320
 6635SOL     OW31123   5.740   8.633   5.293 -0.5439  0.0114  0.0686
 6635SOL    HW131124   5.751   8.713   5.353  0.9179  0.7202 -1.1328
 6635SOL    HW231125   5.814   8.631   5.227 -1.0050 -1.9425 -0.3961
 6636SOL     OW31126   7.391   3.279   4.402 -0.0404  0.8801  0.0607
 6636SOL    HW131127   7.300   3.309   4.430  0.9520  3.0252  1.0702
 6636SOL    HW231128   7.427   3.215   4.470 -0.6632  0.2740 -0.1783
 6637SOL     OW31129   6.809   0.996   3.883  0.2710  0.2577 -0.2633
 6637SOL    HW131130   6.710   0.983   3.892  0.5402 -0.8345  1.3365
 6637SOL    HW231131   6.843   0.941   3.807 -0.4876  1.3863 -1.4288
 6638SOL     OW31132   3.525   4.802   6.141 -0.3361  0.0551  0.5259
 6638SOL    HW131133   3.514   4.795   6.240  0.2572  1.0404  0.6702
 6638SOL    HW231134   3.538   4.711   6.102 -1.5129 -0.4285  1.2340
 6639SOL     OW31135   2.682   9.823   2.492 -0.1222  0.4581  0.3706
 6639SOL    HW131136   2.747   9.810   2.566  1.3741  0.3258 -0.9356
 6639SOL    HW231137   2.673   9.920   2.472  1.8974  0.3387 -1.3373
 6640SOL     OW31138   2.289   8.771   2.344  0.1978 -0.6196  0.1405
 6640SOL    HW131139   2.319   8.691   2.396 -0.1295 -0.3121  0.7959
 6640SOL    HW231140   2.311   8.757   2.247  2.9542 -0.1945  0.6487
 6641SOL     OW31141   8.066   2.107   6.490  0.2228 -0.1612  0.9275
 6641SOL    HW131142   8.110   2.110   6.400  1.1006 -0.2279  1.3498
 6641SOL    HW231143   8.076   2.015   6.529 -1.7869 -0.6618  0.2912
 6642SOL     OW31144   1.126   4.506   3.636 -0.2634 -0.2204 -0.0530
 6642SOL    HW131145   1.071   4.560   3.699 -0.3656  0.0513 -0.3710
 6642SOL    HW231146   1.067   4.444   3.585 -0.0667 -1.1014  0.7720
 6643SOL     OW31147   1.089   8.732   4.862 -0.1868 -0.2589 -0.1044
 6643SOL    HW131148   1.164   8.771   4.808 -1.0497 -0.4197 -1.4529
 6643SOL    HW231149   1.026   8.806   4.887 -0.6754 -0.4407 -0.7833
 6644SOL     OW31150   0.382   9.485   1.601  0.3736 -0.5332 -0.5466
 6644SOL    HW131151   0.482   9.492   1.599  0.4519 -1.5898 -1.0750
 6644SOL    HW231152   0.356   9.406   1.657 -0.2180  0.5856  0.7651
 6645SOL     OW31153   3.242   5.396   0.561  0.3710  0.5716  0.1721
 6645SOL    HW131154   3.158   5.343   0.572 -0.3805  1.6043 -0.4541
 6645SOL    HW231155   3.256   5.453   0.642  0.5514  0.2817  0.3446
 6646SOL     OW31156   2.353   2.858   3.839 -0.4636 -0.0598 -0.2771
 6646SOL    HW131157   2.338   2.893   3.746 -0.3689  1.7408  0.3784
 6646SOL    HW231158   2.283   2.789   3.860 -1.5070  0.7402 -1.0636
 6647SOL     OW31159   7.878   2.407   1.285 -0.3341  0.0754 -0.2835
 6647SOL    HW131160   7.890   2.443   1.192  0.8271  0.2281 -0.0860
 6647SOL    HW231161   7.966   2.377   1.321 -0.1830  2.8326  1.8950
 6648SOL     OW31162   2.819   7.232   6.627 -0.1122 -0.0507 -0.4871
 6648SOL    HW131163   2.754   7.166   6.665  0.6578 -1.3278 -1.3642
 6648SOL    HW231164   2.769   7.308   6.586 -1.0100 -0.1979  0.3247
 6649SOL     OW31165   7.732   9.219   1.041 -0.1782  0.4017  0.3054
 6649SOL    HW131166   7.692   9.294   1.092 -1.5233 -1.2584  1.7452
 6649SOL    HW231167   7.820   9.194   1.081 -0.8801 -0.4030  1.3590
 6650SOL     OW31168   2.379   8.506   4.705 -0.2464  0.0303  0.1384
 6650SOL    HW131169   2.363   8.538   4.612  1.7050  4.6367  1.2341
 6650SOL    HW231170   2.294   8.512   4.758 -1.0972 -1.5699 -1.0160
 6651SOL     OW31171   0.877   9.716   4.266 -0.4125 -0.4059  0.0058
 6651SOL    HW131172   0.943   9.657   4.220  0.5850 -0.2793  1.2541
 6651SOL    HW231173   0.925   9.780   4.326 -1.6197  0.2267  0.3163
 6652SOL     OW31174   9.697   7.696   0.638 -0.0644 -0.3206  0.0337
 6652SOL    HW131175   9.699   7.596   0.640 -0.5730 -0.3561 -0.8051
 6652SOL    HW231176   9.694   7.727   0.543 -0.3443  0.4795  0.3000
 6653SOL     OW31177   7.889   3.519   4.243 -0.1959  0.0339 -0.1456
 6653SOL    HW131178   7.971   3.510   4.300 -0.7997  0.5156  0.8152
 6653SOL    HW231179   7.907   3.582   4.168 -0.2513  1.6890  1.1812
 6654SOL     OW31180   9.541   5.028   4.369 -0.3550 -0.2342  0.5652
 6654SOL    HW131181   9.553   5.099   4.439  0.3414 -0.1243  0.3377
 6654SOL    HW231182   9.601   4.951   4.390 -0.2247 -0.2448  0.1457
 6655SOL     OW31183   0.365   2.924   0.062 -0.6497 -0.3886 -0.2486
 6655SOL    HW131184   0.363   2.834   0.019 -0.0073 -0.5728  0.1024
 6655SOL    HW231185   0.280   2.939   0.113 -0.1994 -1.3348  0.7970
 6656SOL     OW31186   7.425   4.269   0.175  0.0508 -0.9077 -0.0794
 6656SOL    HW131187   7.381   4.350   0.136  1.6088  0.1179  0.2424
 6656SOL    HW231188   7.445   4.204   0.102  0.9901  0.0717 -0.7181
 6657SOL     OW31189   7.169   8.494   5.199  0.1315  0.4537 -0.2396
 6657SOL    HW131190   7.157   8.506   5.100 -0.3376  0.9624 -0.1226
 6657SOL    HW231191   7.183   8.398   5.219  2.3283  0.5766 -1.0278
 6658SOL     OW31192   2.505   0.863   6.384 -0.1465  0.5734  0.4458
 6658SOL    HW131193   2.524   0.851   6.287 -2.0739 -1.2044  0.2488
 6658SOL    HW231194   2.581   0.826   6.438  1.0169  1.7529 -0.3747
 6659SOL     OW31195   9.013   4.170   3.626 -0.5881 -0.2850  0.1843
 6659SOL    HW131196   8.943   4.099   3.627 -0.6513 -0.2370 -0.5681
 6659SOL    HW231197   8.973   4.256   3.595 -0.1732 -0.2841 -0.3464
 6660SOL     OW31198   9.952   9.543   4.602 -0.1308 -0.4133  0.4828
 6660SOL    HW131199   9.941   9.445   4.619 -0.9153 -0.3816  0.1773
 6660SOL    HW231200   9.921   9.594   4.682 -2.2106 -0.3301 -0.3469
 6661SOL     OW31201   5.785   8.086   2.628  0.7213 -0.0727  0.0861
 6661SOL    HW131202   5.704   8.037   2.596 -0.2658  2.0325 -0.7721
 6661SOL    HW231203   5.769   8.120   2.720  0.4533  0.6908 -0.2368
 6662SOL     OW31204   0.648   9.538   1.533 -0.3712 -0.3634  0.1051
 6662SOL    HW131205   0.662   9.507   1.439  3.7926  1.1416  0.1036
 6662SOL    HW231206   0.687   9.472   1.596 -0.1945  0.2001  0.5917
 6663SOL     OW31207   3.711   2.761   0.462  0.3840  0.1012  0.0163
 6663SOL    HW131208   3.743   2.677   0.418 -2.6900 -1.6184  0.9012
 6663SOL    HW231209   3.755   2.770   0.551  1.3031 -0.1450 -0.4013
 6664SOL     OW31210   4.161   2.631   3.645 -0.8430  0.0390 -0.0892
 6664SOL    HW131211   4.110   2.717   3.643 -1.7156 -0.4574  0.2138
 6664SOL    HW231212   4.238   2.636   3.582 -1.2308  0.8253 -0.5097
 6665SOL     OW31213   9.278   8.323   6.017 -0.5594  0.0620 -0.3022
 6665SOL    HW131214   9.266   8.269   5.934 -0.0816  0.1513 -0.4311
 6665SOL    HW231215   9.305   8.416   5.992  1.7741 -0.4958  0.0130
 6666SOL     OW31216   2.364   1.345   1.851  0.2300 -0.6255 -0.1590
 6666SOL    HW131217   2.366   1.325   1.752  1.0988 -1.4550  0.0196
 6666SOL    HW231218   2.330   1.437   1.865  1.0629 -0.1271 -1.3023
 6667SOL     OW31219   2.374   3.825   3.462  0.6331 -0.1106 -0.0738
 6667SOL    HW131220   2.466   3.833   3.500  1.4378  0.3558 -2.0440
 6667SOL    HW231221   2.376   3.765   3.382 -0.5544  0.7690 -0.7898
 6668SOL     OW31222   4.191   3.462   6.354  0.0469  0.2338 -0.0111
 6668SOL    HW131223   4.266   3.524   6.332 -1.2972  1.5901 -0.9169
 6668SOL    HW231224   4.196   3.380   6.297  0.5130  0.5698 -0.4507
 6669SOL     OW31225   7.053   0.929   1.352 -0.2718 -0.1283  0.3335
 6669SOL    HW131226   7.048   1.028   1.350  0.7213 -0.0584  0.9740
 6669SOL    HW231227   6.975   0.890   1.303 -0.6014  0.9626 -0.0064
 6670SOL     OW31228   0.393   2.677   4.095  0.1041 -0.5320  0.1151
 6670SOL    HW131229   0.431   2.653   4.184  0.7620 -1.7937 -0.4815
 6670SOL    HW231230   0.310   2.624   4.079 -0.4384  0.2673  0.3110
 6671SOL     OW31231   9.401   9.824   5.332 -0.0637  0.0762 -0.4243
 6671SOL    HW131232   9.427   9.897   5.396 -1.5820  1.1254 -0.9519
 6671SOL    HW231233   9.476   9.808   5.268 -0.5937  2.9237 -1.8402
 6672SOL     OW31234   6.547   0.924   6.072  0.5797  0.7163 -0.1609
 6672SOL    HW131235   6.564   0.931   5.974 -0.0041  2.0819 -0.1813
 6672SOL    HW231236   6.457   0.963   6.093  0.1239 -0.7878  0.7445
 6673SOL     OW31237   2.609   8.463   2.425  0.1511 -0.2935 -0.1495
 6673SOL    HW131238   2.643   8.404   2.351 -2.6724 -3.6500  1.1062
 6673SOL    HW231239   2.519   8.499   2.400  0.8766  1.7730  0.0786
 6674SOL     OW31240   4.578   3.792   0.596 -0.2420 -0.8798 -0.1676
 6674SOL    HW131241   4.627   3.871   0.561 -0.7195  0.4583  2.0606
 6674SOL    HW231242   4.631   3.709   0.580  1.1867  0.1410 -0.7674
 6675SOL     OW31243   8.805   0.554   3.594 -0.3259 -0.1308  0.2559
 6675SOL    HW131244   8.770   0.579   3.684 -1.1808  1.2778 -0.4436
 6675SOL    HW231245   8.738   0.495   3.548 -0.2304 -0.2378  0.2537
 6676SOL     OW31246   2.787   3.681   5.440  0.0757  0.2146 -0.0871
 6676SOL    HW131247   2.735   3.748   5.386  0.4764  0.1255 -0.5888
 6676SOL    HW231248   2.730   3.600   5.456 -0.2513  0.4856  0.1330
 6677SOL     OW31249   6.908   0.533   0.526  0.0976 -0.6311 -0.0377
 6677SOL    HW131250   6.898   0.618   0.475  2.4217  0.1264  0.6800
 6677SOL    HW231251   6.927   0.458   0.463  0.2151 -0.2017 -0.5181
 6678SOL     OW31252   9.145   2.946   6.232 -0.0413  0.0760 -0.6566
 6678SOL    HW131253   9.148   2.884   6.311  1.1513  0.3331 -0.4955
 6678SOL    HW231254   9.078   3.018   6.250  1.0282  0.7872  0.6305
 6679SOL     OW31255   1.790   9.933   6.223  0.3922 -0.4066  0.1359
 6679SOL    HW131256   1.698   9.973   6.228 -0.7484 -2.9966  1.1384
 6679SOL    HW231257   1.826   9.923   6.316  0.9577 -0.9506 -0.1386
 6680SOL     OW31258   4.395   1.826   2.747  0.6441  0.5017 -0.2982
 6680SOL    HW131259   4.465   1.795   2.812  1.7334  3.1418 -0.1653
 6680SOL    HW231260   4.311   1.850   2.796  0.0967 -1.3279 -0.3122
 6681SOL     OW31261   7.884   0.137   0.355 -0.2814 -0.5964  0.5901
 6681SOL    HW131262   7.933   0.224   0.366 -1.2975 -0.1317  1.6990
 6681SOL    HW231263   7.785   0.155   0.355 -0.4635 -1.4663 -2.0238
 6682SOL     OW31264   5.696   8.535   4.880  0.1238  0.1181  0.3104
 6682SOL    HW131265   5.763   8.596   4.923 -0.7213  1.7007 -0.5964
 6682SOL    HW231266   5.735   8.443   4.873  1.2476  0.4284  2.1009
 6683SOL     OW31267   9.687   0.386   4.568 -0.3529  0.2022 -0.3350
 6683SOL    HW131268   9.736   0.448   4.629 -1.7648 -0.3544  1.4093
 6683SOL    HW231269   9.751   0.319   4.530 -0.0108 -1.6603  3.3641
 6684SOL     OW31270   3.249   6.718   3.365 -0.0320 -0.4620  0.0891
 6684SOL    HW131271   3.219   6.780   3.438  0.7216  1.0018 -0.8181
 6684SOL    HW231272   3.197   6.737   3.282 -0.1777 -1.4250 -0.0378
 6685SOL     OW31273   0.531   7.710   4.362 -0.6013 -0.4254 -0.0743
 6685SOL    HW131274   0.557   7.796   4.407 -1.2369 -0.2653 -0.0098
 6685SOL    HW231275   0.559   7.633   4.418 -1.8712 -0.2181  0.8559
 6686SOL     OW31276   8.612   1.226   3.058  0.6078 -0.1520 -0.4705
 6686SOL    HW131277   8.551   1.305   3.065  0.8013  0.0328 -0.8390
 6686SOL    HW231278   8.680   1.243   2.987  2.4782  0.5735  1.4507
 6687SOL     OW31279   2.510   6.549   6.257 -0.1157  0.3106 -0.3343
 6687SOL    HW131280   2.528   6.631   6.203  1.3822 -0.5344 -1.1398
 6687SOL    HW231281   2.571   6.475   6.228 -1.4050 -1.0843  0.4185
 6688SOL     OW31282   5.588   9.429   2.163  0.0294 -0.1915  0.7288
 6688SOL    HW131283   5.588   9.330   2.177  0.5439 -0.6296 -2.2296
 6688SOL    HW231284   5.656   9.471   2.223  0.6430 -1.7462  1.1294
 6689SOL     OW31285   0.144   4.255   6.272 -0.7567  0.3378 -0.7995
 6689SOL    HW131286   0.138   4.223   6.177 -1.3448  2.1377 -1.3957
 6689SOL    HW231287   0.076   4.208   6.327 -1.0747 -0.0116 -1.4836
 6690SOL     OW31288   3.174   8.483   2.279 -0.7402  0.0036  0.1323
 6690SOL    HW131289   3.218   8.394   2.273  0.5742  0.5322  1.5204
 6690SOL    HW231290   3.240   8.551   2.311 -1.7477  1.4576 -0.7941
 6691SOL     OW31291   8.325   1.565   2.725 -0.1772 -0.3251 -0.4881
 6691SOL    HW131292   8.352   1.658   2.746  0.2182 -0.4000 -0.6526
 6691SOL    HW231293   8.391   1.525   2.661 -0.6008 -0.5568 -0.7858
 6692SOL     OW31294   3.551   9.278   2.874 -0.7138 -0.1737  0.0803
 6692SOL    HW131295   3.550   9.179   2.858 -0.2471 -0.0598 -0.6652
 6692SOL    HW231296   3.549   9.325   2.786 -1.9855  0.4896  0.4576
 6693SOL     OW31297   2.574   2.027   1.334  0.1817 -0.0067  0.0928
 6693SOL    HW131298   2.627   2.103   1.371  0.5755  0.3293 -1.1430
 6693SOL    HW231299   2.632   1.946   1.328 -0.2964 -0.4766  1.6096
 6694SOL     OW31300   2.145   0.160   2.963 -0.2793 -0.4184 -0.6626
 6694SOL    HW131301   2.229   0.183   3.011  0.9993 -1.3739 -2.3495
 6694SOL    HW231302   2.086   0.240   2.957  1.1009  0.6234 -0.5958
 6695SOL     OW31303   2.287   4.377   1.293  0.3212  0.3243  0.7483
 6695SOL    HW131304   2.290   4.277   1.290  0.6120  0.3270  0.9000
 6695SOL    HW231305   2.254   4.412   1.205 -0.0108  0.0872  0.7761
 6696SOL     OW31306   3.600   5.412   1.045 -0.0558 -0.2781  0.4528
 6696SOL    HW131307   3.545   5.439   1.124  0.3736 -0.5323  0.8430
 6696SOL    HW231308   3.545   5.356   0.983 -0.5007  0.2271  0.3916
 6697SOL     OW31309   4.253   1.612   0.601 -0.1254 -0.0047  0.1163
 6697SOL    HW131310   4.325   1.614   0.671  0.2140 -0.6745 -0.2098
 6697SOL    HW231311   4.285   1.560   0.522 -0.2530  1.3109 -0.8247
 6698SOL     OW31312   5.210   9.549   1.612  0.0406  0.0087 -0.3941
 6698SOL    HW131313   5.248   9.482   1.547  1.0324 -0.5148  0.7193
 6698SOL    HW231314   5.195   9.636   1.565  0.6370 -0.3991 -1.3537
 6699SOL     OW31315   8.139   3.100   3.633  0.3179 -0.1423  0.1379
 6699SOL    HW131316   8.202   3.121   3.708  1.3808 -0.5405 -0.6333
 6699SOL    HW231317   8.160   3.009   3.596  1.1591  0.8702 -1.9702
 6700SOL     OW31318   8.516   6.028   4.600  0.4200  0.2163 -0.5380
 6700SOL    HW131319   8.518   6.055   4.696  0.7908  2.6572 -1.1854
 6700SOL    HW231320   8.601   5.982   4.576 -0.3014 -1.7879  0.6596
 6701SOL     OW31321   4.039   3.931   2.340 -0.7921  0.6346 -0.1559
 6701SOL    HW131322   4.064   3.867   2.266 -2.1239  0.3518 -0.3744
 6701SOL    HW231323   4.059   3.889   2.428 -1.3664  0.0423 -0.3059
 6702SOL     OW31324   2.655   0.953   0.058 -0.0851 -0.1984  0.6612
 6702SOL    HW131325   2.600   0.874   0.032 -1.1912  0.3406  1.3028
 6702SOL    HW231326   2.696   0.993  -0.024  0.4857 -1.4276  0.3367
 6703SOL     OW31327   8.094   6.526   2.335  0.0127  0.4806 -0.0251
 6703SOL    HW131328   8.009   6.507   2.383 -0.2755  1.2664 -0.2210
 6703SOL    HW231329   8.171   6.512   2.397 -0.2541 -0.2880  0.1338
 6704SOL     OW31330   1.726   3.458   0.392  0.3467  0.0869 -0.3187
 6704SOL    HW131331   1.713   3.434   0.296 -3.2281 -0.7900  0.3318
 6704SOL    HW231332   1.695   3.383   0.451  1.6907  0.9513  1.5653
 6705SOL     OW31333   1.430   3.299   2.755 -0.3541 -0.2352 -0.0929
 6705SOL    HW131334   1.517   3.293   2.706  0.9851 -1.5731  2.3619
 6705SOL    HW231335   1.368   3.360   2.705  1.5843 -0.1289 -2.4531
 6706SOL     OW31336   2.040   5.785   6.060 -0.5805  0.0157  0.0470
 6706SOL    HW131337   2.071   5.811   5.969  1.1482 -1.1714  0.2716
 6706SOL    HW231338   2.052   5.861   6.123  0.4826  0.0608 -0.2054
 6707SOL     OW31339   9.178   4.391   5.240  0.2780  0.2537 -0.2436
 6707SOL    HW131340   9.106   4.362   5.176 -0.9358 -0.7768  1.5632
 6707SOL    HW231341   9.262   4.407   5.189 -1.0124  0.7617 -2.3051
 6708SOL     OW31342   0.058   9.808   4.191 -0.0611 -0.7653  0.1047
 6708SOL    HW131343   0.125   9.882   4.199  0.9978 -1.6384 -0.5545
 6708SOL    HW231344   0.013   9.794   4.279 -0.2229  0.6214  0.2455
 6709SOL     OW31345   1.881   1.548   2.835  0.3310 -0.0384  0.1399
 6709SOL    HW131346   1.981   1.545   2.836  0.3145 -0.7226  0.9663
 6709SOL    HW231347   1.848   1.598   2.915  0.0303  1.0448 -0.6564
 6710SOL     OW31348   4.326   4.988   1.494  0.4245 -0.2166 -0.0586
 6710SOL    HW131349   4.357   4.973   1.588  0.6882  0.0626 -0.0985
 6710SOL    HW231350   4.230   4.962   1.486  0.0625  0.9029  0.5918
 6711SOL     OW31351   8.547   0.846   4.066  0.1547  0.0438 -0.1415
 6711SOL    HW131352   8.646   0.856   4.059  0.1746 -0.6519 -1.0902
 6711SOL    HW231353   8.504   0.883   3.983 -0.3362 -0.1245  0.0365
 6712SOL     OW31354   3.156   1.533   4.709  0.6883 -0.4432  0.3518
 6712SOL    HW131355   3.165   1.501   4.615 -1.3244 -0.0961  0.0175
 6712SOL    HW231356   3.118   1.459   4.765 -1.7650  0.5424  0.0620
 6713SOL     OW31357   2.228   4.547   6.575 -0.0208  0.3717  0.0868
 6713SOL    HW131358   2.179   4.459   6.571 -1.8569  1.4348 -2.6250
 6713SOL    HW231359   2.295   4.551   6.501 -0.9563  1.8067 -0.6973
 6714SOL     OW31360   0.531   4.766   2.981 -0.0197 -0.3796 -0.6141
 6714SOL    HW131361   0.434   4.746   2.995  0.3615 -1.5196  0.4560
 6714SOL    HW231362   0.570   4.696   2.921 -0.1762  0.9138 -2.2902
 6715SOL     OW31363   0.856   9.420   5.951 -0.3530  0.1651 -0.1543
 6715SOL    HW131364   0.842   9.467   6.038 -0.5858  0.3055 -0.2668
 6715SOL    HW231365   0.767   9.394   5.912 -0.1764 -1.3313  0.4302
 6716SOL     OW31366   4.049   4.192   0.760  0.3209 -0.3932  0.3971
 6716SOL    HW131367   4.132   4.245   0.776  1.1691 -2.2513  2.3615
 6716SOL    HW231368   4.063   4.132   0.681  1.0372 -1.0634  1.0273
 6717SOL     OW31369   3.754   8.729   4.542  0.4847  0.0158 -0.0389
 6717SOL    HW131370   3.824   8.676   4.495  0.4264  0.0383 -0.1499
 6717SOL    HW231371   3.749   8.821   4.503 -0.5436 -0.4167 -0.9507
 6718SOL     OW31372   0.301   6.707   2.486  0.3020 -0.5411  0.2850
 6718SOL    HW131373   0.323   6.704   2.583  0.7694 -0.5672  0.1769
 6718SOL    HW231374   0.384   6.698   2.432  0.3092  1.4812 -0.1044
 6719SOL     OW31375   3.072   2.019   1.506  0.1603 -0.5820  0.1328
 6719SOL    HW131376   3.043   2.105   1.548 -0.8087 -0.6663 -0.3502
 6719SOL    HW231377   3.112   1.959   1.576  1.8033  0.6597  0.2807
 6720SOL     OW31378   3.728   4.578   1.043 -0.9325  0.2066  0.2090
 6720SOL    HW131379   3.777   4.537   0.967 -0.5189  1.0540  0.0068
 6720SOL    HW231380   3.640   4.614   1.010 -1.9306 -1.7419  0.6680
 6721SOL     OW31381   3.743   2.817   1.434 -0.3623  0.1712  0.5185
 6721SOL    HW131382   3.694   2.732   1.455  1.4971 -0.3271  3.1117
 6721SOL    HW231383   3.833   2.796   1.397 -0.6935  1.0517 -0.8279
 6722SOL     OW31384   9.506   8.072   5.681 -0.9533 -0.2907 -0.5169
 6722SOL    HW131385   9.556   8.027   5.607  0.8000  1.4232 -0.4321
 6722SOL    HW231386   9.535   8.033   5.769  0.7135  1.0546 -0.4295
 6723SOL     OW31387   3.444   2.941   5.050 -0.0625  0.3910  0.7319
 6723SOL    HW131388   3.457   2.949   5.149 -0.5907  1.5154  0.7180
 6723SOL    HW231389   3.379   2.867   5.031 -0.2957  0.4599  1.2466
 6724SOL     OW31390   9.825   6.889   0.655 -0.1687  0.7395  0.3205
 6724SOL    HW131391   9.765   6.956   0.699 -3.6677 -1.3985 -0.9698
 6724SOL    HW231392   9.852   6.820   0.722 -0.5751  0.7596  0.5077
 6725SOL     OW31393   7.511   3.690   4.179  0.1862  0.6760 -0.0106
 6725SOL    HW131394   7.461   3.776   4.178 -1.8190 -0.4352  0.3649
 6725SOL    HW231395   7.501   3.646   4.269  0.8929 -0.1090 -0.3016
 6726SOL     OW31396   3.356   9.100   2.653 -0.1871  0.1494  0.4732
 6726SOL    HW131397   3.281   9.121   2.715  0.0529  1.6119  0.2900
 6726SOL    HW231398   3.433   9.064   2.705 -1.1446 -1.7639  0.6107
 6727SOL     OW31399   4.494   0.259   2.456  0.1580 -0.0763 -0.0132
 6727SOL    HW131400   4.396   0.271   2.469 -0.4627 -2.4249 -1.9617
 6727SOL    HW231401   4.532   0.339   2.410 -0.6708  1.1754  1.4338
 6728SOL     OW31402   2.232   5.435   4.170  0.0507 -0.4842  0.1516
 6728SOL    HW131403   2.149   5.405   4.219 -0.8412  1.9680  0.2084
 6728SOL    HW231404   2.205   5.488   4.090  1.5645  1.2237  0.7485
 6729SOL     OW31405   2.396   1.252   1.245 -0.2577 -0.2793 -0.5056
 6729SOL    HW131406   2.417   1.207   1.158  0.5893 -2.9311  1.0429
 6729SOL    HW231407   2.297   1.260   1.255 -0.4138 -1.7559 -0.8199
 6730SOL     OW31408   5.933   5.057   0.865  0.6114 -0.2305 -0.5518
 6730SOL    HW131409   5.883   5.066   0.951 -0.5324  2.4474 -1.4706
 6730SOL    HW231410   6.009   4.993   0.878  0.1952 -0.2154  2.3072
 6731SOL     OW31411   2.179   3.980   3.807 -1.0863  1.3074  0.3033
 6731SOL    HW131412   2.116   3.958   3.881  0.5575 -0.7391  1.1624
 6731SOL    HW231413   2.130   4.029   3.735 -4.1538 -1.8865  0.0545
 6732SOL     OW31414   9.020   8.531   1.440 -0.9856  0.2948 -0.7675
 6732SOL    HW131415   8.958   8.602   1.476 -0.8596  0.8113 -1.5524
 6732SOL    HW231416   8.966   8.451   1.412 -1.2199  0.4170 -0.6678
 6733SOL     OW31417   7.812   0.633   3.216  0.0248 -0.2970 -0.0556
 6733SOL    HW131418   7.750   0.709   3.236 -0.3472 -0.7266  0.4223
 6733SOL    HW231419   7.829   0.581   3.300 -0.2620 -1.1504 -0.5285
 6734SOL     OW31420   0.870   6.727   6.223 -0.1855 -0.0852 -0.3583
 6734SOL    HW131421   0.799   6.753   6.289 -0.7631 -0.5934 -0.7859
 6734SOL    HW231422   0.886   6.803   6.160 -0.3794  0.0075 -0.2953
 6735SOL     OW31423   4.526   2.400   1.578  0.3281  0.0726 -0.4330
 6735SOL    HW131424   4.553   2.488   1.619  0.6754  0.1867 -0.8971
 6735SOL    HW231425   4.585   2.328   1.613  0.2624  0.0826 -0.3036
 6736SOL     OW31426   3.717   4.690   4.761  0.0948 -0.0277 -0.0426
 6736SOL    HW131427   3.804   4.736   4.780 -0.4278  0.7587  0.4649
 6736SOL    HW231428   3.691   4.634   4.840  0.7169 -1.1999 -0.6468
 6737SOL     OW31429   3.683   7.486   4.286 -0.1180  0.1723 -0.3801
 6737SOL    HW131430   3.639   7.432   4.358  0.7527  0.1605  0.1492
 6737SOL    HW231431   3.669   7.584   4.304 -1.6415  0.1525 -1.3061
 6738SOL     OW31432   9.303   3.132   1.158  0.8828  0.3022  0.7120
 6738SOL    HW131433   9.305   3.061   1.088  0.3636  0.7586  0.2319
 6738SOL    HW231434   9.210   3.164   1.172  1.0383  0.5120  1.3166
 6739SOL     OW31435   2.381   8.994   0.906 -0.3373  0.2909 -0.5626
 6739SOL    HW131436   2.321   9.072   0.925  0.3432  0.8497 -0.7178
 6739SOL    HW231437   2.337   8.935   0.838  0.1509  1.7408 -2.1761
 6740SOL     OW31438   9.313   5.629   3.093  0.2683 -0.3072 -0.8135
 6740SOL    HW131439   9.374   5.604   3.018 -0.3036 -0.4441 -1.2361
 6740SOL    HW231440   9.260   5.709   3.067  0.2820 -0.1768 -0.4399
 6741SOL     OW31441   0.831   1.804   3.145 -0.3255  0.3737  0.0340
 6741SOL    HW131442   0.748   1.855   3.124  0.3256  1.5647  0.3039
 6741SOL    HW231443   0.911   1.858   3.118  0.3696 -0.5190  0.2862
 6742SOL     OW31444   0.383   9.959   1.340 -0.4938  0.7694 -0.2725
 6742SOL    HW131445   0.404   9.862   1.324 -1.8959  0.5487 -0.8318
 6742SOL    HW231446   0.380  10.007   1.252  1.7226  1.6580  0.1139
 6743SOL     OW31447   2.462   2.121   4.137 -0.6155 -0.9201 -0.6515
 6743SOL    HW131448   2.544   2.132   4.193 -0.4092 -1.8495 -0.7614
 6743SOL    HW231449   2.484   2.139   4.041 -0.9400  0.5403 -0.4745
 6744SOL     OW31450   2.034   4.312   6.096  0.1662  0.3168 -0.6511
 6744SOL    HW131451   2.119   4.260   6.105 -0.7129 -0.9647  0.3422
 6744SOL    HW231452   1.986   4.283   6.014 -0.6372 -0.9219  0.2428
 6745SOL     OW31453   8.178   7.841   4.756  0.1210 -0.3183  0.0797
 6745SOL    HW131454   8.178   7.940   4.738 -1.1448 -0.3884 -0.3099
 6745SOL    HW231455   8.134   7.824   4.844 -0.2749 -0.5995 -0.1765
 6746SOL     OW31456   1.331   9.881   5.231 -0.3910  0.3883  0.0392
 6746SOL    HW131457   1.314   9.957   5.168  0.6634  0.0023 -0.7225
 6746SOL    HW231458   1.246   9.829   5.244 -0.3896 -0.1438 -1.8710
 6747SOL     OW31459   7.898   1.795   3.199  0.0501 -0.0651 -0.0727
 6747SOL    HW131460   7.822   1.732   3.182  1.8097 -1.7824 -1.7299
 6747SOL    HW231461   7.867   1.889   3.182 -1.9824 -0.6399  0.2888
 6748SOL     OW31462   7.162   2.691   1.472  0.3630  0.0913  0.1106
 6748SOL    HW131463   7.136   2.630   1.398 -0.3390  0.5102  0.0002
 6748SOL    HW231464   7.198   2.776   1.434 -0.8219  0.6568  0.2316
 6749SOL     OW31465   6.197   2.891   3.465 -0.3580  0.3079  0.2295
 6749SOL    HW131466   6.297   2.890   3.461 -0.3616 -1.6210  0.0325
 6749SOL    HW231467   6.168   2.932   3.551  0.7238 -2.8635  2.1983
 6750SOL     OW31468   0.542   4.049   1.314  0.2149 -0.2723 -0.3342
 6750SOL    HW131469   0.516   3.984   1.385 -1.1883 -0.4007 -0.9399
 6750SOL    HW231470   0.461   4.071   1.259  0.5919  2.2886  0.1087
 6751SOL     OW31471   0.354   4.514   0.193  0.0498 -0.8079 -0.0447
 6751SOL    HW131472   0.271   4.471   0.157  0.2087 -2.5584  1.5463
 6751SOL    HW231473   0.432   4.490   0.135 -0.4051  0.1770 -1.0870
 6752SOL     OW31474   9.327   9.747   2.199  0.1074  0.1673 -0.6270
 6752SOL    HW131475   9.392   9.712   2.131 -0.6704 -0.1974 -1.1914
 6752SOL    HW231476   9.376   9.803   2.266  1.0505 -0.3653 -0.8641
 6753SOL     OW31477   8.475   1.621   5.845 -0.0909 -0.7547 -0.1618
 6753SOL    HW131478   8.392   1.667   5.815 -0.2034  0.1469  1.4517
 6753SOL    HW231479   8.532   1.686   5.896  1.3743 -1.4856 -0.8502
 6754SOL     OW31480   2.857   8.937   1.286  0.0403 -0.0020  0.0327
 6754SOL    HW131481   2.831   9.033   1.288  0.3939  0.1357 -1.3806
 6754SOL    HW231482   2.956   8.929   1.278  0.0191 -0.4912  0.2172
 6755SOL     OW31483   1.285   1.870   2.466  0.5232  0.1035  0.0331
 6755SOL    HW131484   1.342   1.880   2.547  0.4977  0.6651 -0.0162
 6755SOL    HW231485   1.261   1.961   2.431  2.0260 -0.1073 -1.6430
 6756SOL     OW31486   1.253   5.382   4.758  0.4084  0.0570 -0.4816
 6756SOL    HW131487   1.180   5.313   4.759  0.1266  0.3517 -0.3927
 6756SOL    HW231488   1.245   5.437   4.675 -1.1899  1.8881  0.8183
 6757SOL     OW31489   9.518   5.029   3.281  0.7565  0.0225  0.3453
 6757SOL    HW131490   9.469   5.094   3.339  0.7487  0.0163  0.3459
 6757SOL    HW231491   9.550   4.952   3.338 -0.6172 -0.7694  0.0706
 6758SOL     OW31492   0.657   6.147   4.995 -0.0832 -0.2148 -0.0094
 6758SOL    HW131493   0.680   6.053   5.020  0.6969 -0.4183 -1.4836
 6758SOL    HW231494   0.624   6.196   5.076  3.5718 -0.4825  1.7394
 6759SOL     OW31495   9.555   3.410   2.925  0.0663 -0.4429 -0.2806
 6759SOL    HW131496   9.519   3.319   2.906  0.2606 -0.4905 -0.4160
 6759SOL    HW231497   9.634   3.403   2.986 -1.1675 -0.2255  1.3717
 6760SOL     OW31498   3.454   9.704   1.211  0.1279  0.3760 -0.1780
 6760SOL    HW131499   3.468   9.726   1.114 -1.4804  1.6417 -0.1483
 6760SOL    HW231500   3.445   9.789   1.263  0.8925 -0.2947  1.0948
 6761SOL     OW31501   2.109   5.256   3.994  0.8797  0.6447  0.4630
 6761SOL    HW131502   2.063   5.224   3.911  1.2904  0.6895  0.2139
 6761SOL    HW231503   2.171   5.331   3.971  1.4344  0.2668  0.7133
 6762SOL     OW31504   9.433   0.418   4.680 -0.7571  0.0850 -0.3590
 6762SOL    HW131505   9.528   0.387   4.692 -1.2732 -1.7872 -0.9337
 6762SOL    HW231506   9.431   0.493   4.614  0.4691  1.0856  0.6918
 6763SOL     OW31507   6.222   1.041   3.972  0.1587 -0.1875 -0.1321
 6763SOL    HW131508   6.214   0.957   3.918 -2.3338  1.9849 -3.3504
 6763SOL    HW231509   6.137   1.057   4.021  1.4721 -0.7324  2.4010
 6764SOL     OW31510   5.620   1.126   0.784  0.1463 -0.3884  0.8895
 6764SOL    HW131511   5.574   1.214   0.795  1.8063  0.4803  1.0407
 6764SOL    HW231512   5.593   1.086   0.696  2.4106  2.1732 -1.0818
 6765SOL     OW31513   7.094   2.082   2.593  0.1380 -0.1493 -0.1297
 6765SOL    HW131514   7.090   2.007   2.659  1.0351 -1.4939 -1.5638
 6765SOL    HW231515   7.016   2.143   2.606 -1.2956 -2.0290  0.2241
 6766SOL     OW31516   9.582   9.234   5.883 -0.0325  0.1585 -0.1083
 6766SOL    HW131517   9.645   9.172   5.836 -0.9392 -0.9600  0.1283
 6766SOL    HW231518   9.635   9.299   5.938  0.9288 -1.7064  1.2642
 6767SOL     OW31519   1.532   9.912   4.441  0.6261  0.4924  0.2006
 6767SOL    HW131520   1.475   9.844   4.486  1.0001  0.3743  0.5022
 6767SOL    HW231521   1.475   9.988   4.409  0.5880  1.4643  2.5303
 6768SOL     OW31522   9.225   5.664   2.079  0.3048  0.0396  0.1663
 6768SOL    HW131523   9.218   5.566   2.096 -1.9535 -0.3037 -2.4590
 6768SOL    HW231524   9.145   5.710   2.117  0.6146  0.6822  0.0519
 6769SOL     OW31525   3.791   6.132   2.875 -0.3185  0.3124  0.1929
 6769SOL    HW131526   3.719   6.069   2.845  1.6076 -1.3911 -1.0603
 6769SOL    HW231527   3.798   6.130   2.975 -4.2014  3.0768  0.6179
 6770SOL     OW31528   9.169   5.962   0.288  0.3224 -0.0061 -0.6069
 6770SOL    HW131529   9.220   5.963   0.374  0.1629 -2.2574 -0.4669
 6770SOL    HW231530   9.145   5.868   0.265 -4.3237  1.0290 -0.3592
 6771SOL     OW31531   8.185   2.153   6.261  0.1701 -0.2730  0.5906
 6771SOL    HW131532   8.127   2.233   6.247 -0.6658 -0.9466  0.0797
 6771SOL    HW231533   8.238   2.135   6.178  1.6386  0.7366  1.2857
 6772SOL     OW31534   1.266   8.877   3.576  0.1671  0.1172  0.5516
 6772SOL    HW131535   1.275   8.779   3.558 -0.6885 -0.1397  1.4260
 6772SOL    HW231536   1.172   8.896   3.607  0.4883  1.1194  0.9253
 6773SOL     OW31537   3.466   1.745   3.581 -0.0884 -0.2673 -0.6703
 6773SOL    HW131538   3.416   1.831   3.581  0.5132  0.0868 -0.9435
 6773SOL    HW231539   3.564   1.763   3.588  0.0691 -0.9123 -1.1224
 6774SOL     OW31540   3.448   3.557   4.741 -0.0134 -0.0321  0.6398
 6774SOL    HW131541   3.470   3.590   4.832  0.1065  1.1568  0.1908
 6774SOL    HW231542   3.381   3.483   4.747  0.3070 -0.2407  1.7050
 6775SOL     OW31543   4.004   0.093   2.575 -0.2301 -0.5909 -0.5031
 6775SOL    HW131544   3.964   0.147   2.650  0.4445  0.8842 -1.1969
 6775SOL    HW231545   3.957   0.115   2.490 -0.3316 -1.5396 -0.6978
 6776SOL     OW31546   0.860   0.320   0.846 -0.1927 -0.3659  0.4201
 6776SOL    HW131547   0.894   0.307   0.939 -0.3815  0.6708  0.6370
 6776SOL    HW231548   0.781   0.380   0.847  1.3590  1.7683 -0.6477
 6777SOL     OW31549   0.732   9.679   6.384  0.6165  0.3485 -0.1991
 6777SOL    HW131550   0.695   9.638   6.467  0.1896 -2.8904 -1.9325
 6777SOL    HW231551   0.673   9.755   6.355 -1.2876 -0.8631  0.4331
 6778SOL     OW31552   9.027   8.269   2.837 -0.5384 -0.5284 -0.0970
 6778SOL    HW131553   9.100   8.209   2.871  1.2901  2.1627  0.9391
 6778SOL    HW231554   8.952   8.269   2.903  0.2476 -0.2657  0.8235
 6779SOL     OW31555   0.008   2.223   4.696  0.1147 -0.0524 -0.4170
 6779SOL    HW131556  -0.058   2.212   4.771  0.9201 -1.4213  0.1161
 6779SOL    HW231557  -0.033   2.190   4.611  0.1949 -1.1509 -0.0397
 6780SOL     OW31558   3.689   2.981   0.264 -0.1260 -0.0093  0.2755
 6780SOL    HW131559   3.728   3.065   0.303  0.0607 -0.8128  1.8806
 6780SOL    HW231560   3.694   2.908   0.332 -0.1906 -1.3560 -1.1498
 6781SOL     OW31561   9.237   9.825   0.413  0.7418  0.0621 -0.4743
 6781SOL    HW131562   9.240   9.748   0.476  1.1254  1.6620  1.5276
 6781SOL    HW231563   9.330   9.845   0.380  0.4801 -1.0477 -1.9100
 6782SOL     OW31564   1.680   8.907   0.910 -0.2325 -0.2175 -0.0907
 6782SOL    HW131565   1.620   8.985   0.923 -0.1197 -0.1790  0.2110
 6782SOL    HW231566   1.627   8.823   0.908 -0.2929 -0.1850  0.1948
 6783SOL     OW31567   1.905   3.069   2.879  0.6457 -1.0755  0.4594
 6783SOL    HW131568   1.824   3.019   2.849  1.0352 -1.8007  0.6102
 6783SOL    HW231569   1.889   3.108   2.970  0.7871 -1.9661  0.8676
 6784SOL     OW31570   9.172   8.105   3.261  0.2911 -0.9429 -0.5515
 6784SOL    HW131571   9.085   8.117   3.310  0.4400  2.5680 -1.0163
 6784SOL    HW231572   9.246   8.097   3.328 -0.0372 -0.7663 -0.1598
 6785SOL     OW31573   1.769   4.358   4.331  0.0675  0.3537  0.1700
 6785SOL    HW131574   1.711   4.367   4.251  0.4083 -0.0743 -0.1291
 6785SOL    HW231575   1.850   4.416   4.320 -0.1180  0.6571  0.4144
 6786SOL     OW31576   9.644   2.003   1.314 -0.1658 -0.1738  0.6978
 6786SOL    HW131577   9.642   2.013   1.414  1.8033  1.5831  0.5990
 6786SOL    HW231578   9.593   2.077   1.272 -0.3480 -0.4772  0.3878
 6787SOL     OW31579   1.139   6.023   1.408  0.4029 -0.7933  0.1768
 6787SOL    HW131580   1.070   5.953   1.427  1.4814 -1.4805  1.6765
 6787SOL    HW231581   1.228   5.992   1.441  1.0661  0.8954  0.0287
 6788SOL     OW31582   1.319   3.047   1.040 -0.3752  0.6472 -0.4923
 6788SOL    HW131583   1.385   3.053   0.965 -0.1471 -1.6217 -0.5099
 6788SOL    HW231584   1.227   3.039   1.002 -0.2276 -0.8818 -0.5682
 6789SOL     OW31585   2.031   7.279   2.340 -0.3652 -0.3114 -0.5192
 6789SOL    HW131586   2.009   7.305   2.246  0.6123 -1.7193 -1.1545
 6789SOL    HW231587   2.034   7.179   2.347  0.3346 -0.2047  0.8306
 6790SOL     OW31588   8.441   9.738   1.476  0.3953 -0.2218 -0.0442
 6790SOL    HW131589   8.450   9.772   1.570  1.7077 -3.0135  0.9033
 6790SOL    HW231590   8.522   9.762   1.424  0.0893  0.4931 -0.1950
 6791SOL     OW31591   3.714   6.486   3.554  0.0858  0.4080 -0.2884
 6791SOL    HW131592   3.690   6.401   3.509  1.3371 -0.1137 -0.0024
 6791SOL    HW231593   3.646   6.556   3.533 -0.6878 -0.5268 -0.9142
 6792SOL     OW31594   0.355   9.872   0.918  0.3104 -0.4525  0.2698
 6792SOL    HW131595   0.448   9.835   0.921  0.3529 -0.4380 -0.6389
 6792SOL    HW231596   0.303   9.825   0.847 -1.3194 -2.5402  2.7570
 6793SOL     OW31597   4.886   0.252   4.093  0.3154  0.3150 -0.1114
 6793SOL    HW131598   4.861   0.167   4.138  2.8784  0.6589  2.0614
 6793SOL    HW231599   4.864   0.329   4.152  1.6671  0.9031 -0.3467
 6794SOL     OW31600   6.606   7.455   4.793 -0.8764 -0.1041 -0.1889
 6794SOL    HW131601   6.526   7.455   4.852 -0.4843 -1.1601  0.3484
 6794SOL    HW231602   6.596   7.385   4.722 -0.8434  0.4041 -0.7073
 6795SOL     OW31603   8.134   2.097   1.752 -0.2933 -0.0010  0.1535
 6795SOL    HW131604   8.133   2.031   1.676 -0.6500  0.1981 -0.0126
 6795SOL    HW231605   8.059   2.162   1.741 -0.0588  0.3143  0.4258
 6796SOL     OW31606   6.727   1.008   6.251  0.3230  0.5727 -0.2132
 6796SOL    HW131607   6.813   1.019   6.200  1.4703 -4.3469  0.3829
 6796SOL    HW231608   6.651   1.000   6.187  0.7106  2.0696 -0.8627
 6797SOL     OW31609   6.945   5.274   6.617  0.5081  0.7648  0.2026
 6797SOL    HW131610   6.855   5.254   6.578  1.6172 -0.5323 -1.7765
 6797SOL    HW231611   6.948   5.370   6.645 -1.4954  0.8097  0.3774
 6798SOL     OW31612   2.213   1.811   3.105 -0.3946 -0.0815  0.5930
 6798SOL    HW131613   2.223   1.715   3.081 -0.8952 -0.2250  0.9542
 6798SOL    HW231614   2.126   1.846   3.071  0.0581  0.4133 -0.0761
 6799SOL     OW31615   2.337   1.015   4.111  0.5532  0.0368 -0.1467
 6799SOL    HW131616   2.287   0.954   4.174  0.7505 -0.4447 -0.4530
 6799SOL    HW231617   2.432   0.986   4.105  0.3869 -0.3241 -1.1743
 6800SOL     OW31618   9.565   4.901   1.955 -0.2244  0.2909 -0.0152
 6800SOL    HW131619   9.633   4.831   1.977  0.1726  0.6195 -0.1933
 6800SOL    HW231620   9.509   4.870   1.879  0.2262  0.3450 -0.3711
 6801SOL     OW31621   4.977   2.002   2.313 -0.2256 -0.0655  0.1934
 6801SOL    HW131622   4.989   1.912   2.271 -1.5591 -0.1827  0.0590
 6801SOL    HW231623   4.998   2.073   2.245 -1.5384 -0.2627 -0.4360
 6802SOL     OW31624   4.820   1.502   0.393 -0.4470  0.0734  0.1213
 6802SOL    HW131625   4.905   1.474   0.347 -1.4058 -3.1918  0.2206
 6802SOL    HW231626   4.765   1.557   0.330  1.3713  1.6291 -0.1846
 6803SOL     OW31627   1.905   5.064   4.859 -0.5083 -0.3303  0.0214
 6803SOL    HW131628   1.940   5.013   4.781 -1.8682 -1.2132 -0.0405
 6803SOL    HW231629   1.811   5.036   4.877 -0.8924  1.3383  0.7165
 6804SOL     OW31630   9.722   2.239   1.877 -0.2194 -0.3718 -0.2287
 6804SOL    HW131631   9.636   2.290   1.888 -0.8073 -0.8691 -2.4555
 6804SOL    HW231632   9.784   2.263   1.953 -2.1030  0.3796  1.1154
 6805SOL     OW31633   6.134   8.283   3.076 -0.0955 -0.1189  0.0131
 6805SOL    HW131634   6.060   8.231   3.117 -1.1072  0.8576 -0.5542
 6805SOL    HW231635   6.165   8.237   2.993 -0.2506 -0.3896  0.1064
 6806SOL     OW31636   3.152   1.410   1.877 -0.3349 -0.2144 -0.1468
 6806SOL    HW131637   3.099   1.377   1.799  0.8623  0.0061 -1.0710
 6806SOL    HW231638   3.249   1.389   1.863  0.2356  2.1917  0.0386
 6807SOL     OW31639   1.554   3.264   1.451 -0.1295 -0.1493 -0.0332
 6807SOL    HW131640   1.519   3.187   1.396 -0.4481  1.7347 -2.5498
 6807SOL    HW231641   1.579   3.339   1.391 -0.4218  1.9909  2.4297
 6808SOL     OW31642   2.125   2.628   3.287  0.1233 -0.3722  0.0871
 6808SOL    HW131643   2.071   2.674   3.216  2.3395 -0.2648 -1.5849
 6808SOL    HW231644   2.196   2.689   3.320  1.5045 -1.6928 -0.3625
 6809SOL     OW31645   8.360   3.046   5.006  0.0035 -0.5841 -0.1352
 6809SOL    HW131646   8.317   2.970   5.057 -0.5230  0.6192  1.2521
 6809SOL    HW231647   8.309   3.130   5.024  0.2106 -0.0131 -2.1738
 6810SOL     OW31648   2.602   7.305   2.353 -0.5641  0.0217 -0.0468
 6810SOL    HW131649   2.647   7.234   2.299 -1.1479 -1.1923  1.0305
 6810SOL    HW231650   2.509   7.320   2.319  0.0019  1.2420 -1.1180
 6811SOL     OW31651   3.260   4.890   5.316  0.2036  0.3708 -0.0831
 6811SOL    HW131652   3.336   4.947   5.346 -0.6130  0.9981  0.8411
 6811SOL    HW231653   3.220   4.844   5.395 -1.9008  1.9456 -0.1995
 6812SOL     OW31654   2.974   9.680   1.685 -0.6460  0.2189  0.0620
 6812SOL    HW131655   3.046   9.611   1.674 -0.6156 -0.0582  1.7356
 6812SOL    HW231656   2.991   9.757   1.625 -0.1592 -0.8242 -1.1527
 6813SOL     OW31657   2.935   4.219   0.608 -0.9003  0.2555  0.2018
 6813SOL    HW131658   2.901   4.133   0.645 -0.6410 -0.3770 -1.0086
 6813SOL    HW231659   2.938   4.214   0.508  1.1414  0.8915  0.2034
 6814SOL     OW31660   4.665   2.991   4.014  0.2205  0.2944 -1.1046
 6814SOL    HW131661   4.686   3.013   4.109  2.1163  0.0048 -1.4481
 6814SOL    HW231662   4.566   2.974   4.005  0.2323 -1.1918  1.1198
 6815SOL     OW31663   8.127   2.569   0.624  0.2358 -0.9256  0.0876
 6815SOL    HW131664   8.069   2.601   0.549  0.4606  2.1049  1.1267
 6815SOL    HW231665   8.076   2.577   0.710  1.5471  0.0541  0.7890
 6816SOL     OW31666   7.325   7.716   4.040  0.2906  0.3708  0.0929
 6816SOL    HW131667   7.287   7.709   4.132 -0.1823  1.6040  0.0094
 6816SOL    HW231668   7.283   7.648   3.981  0.0613  0.0554  0.6153
 6817SOL     OW31669   0.801   9.149   0.418 -0.3099  0.0795 -0.1381
 6817SOL    HW131670   0.853   9.104   0.345  0.0664 -1.8674  1.2765
 6817SOL    HW231671   0.761   9.079   0.478 -0.7972  1.6362  1.4031
 6818SOL     OW31672   9.382   4.902   4.586 -0.2001  0.0610 -0.1964
 6818SOL    HW131673   9.319   4.853   4.525 -0.9665  1.0176 -0.1712
 6818SOL    HW231674   9.447   4.955   4.531  0.9251 -1.3307 -0.2349
 6819SOL     OW31675   9.519   9.839   6.120  0.2089 -0.4715 -0.6560
 6819SOL    HW131676   9.599   9.811   6.174  0.9174 -0.1670 -1.5275
 6819SOL    HW231677   9.501   9.936   6.135  0.7759 -0.2398 -1.4031
 6820SOL     OW31678   8.885   3.464   2.853 -0.0205 -0.4801  0.5265
 6820SOL    HW131679   8.886   3.401   2.931 -0.1289 -1.2102 -0.0521
 6820SOL    HW231680   8.947   3.431   2.782 -0.3545 -0.1319  0.0609
 6821SOL     OW31681   5.549   8.484   2.767 -0.3215  0.2771 -0.0009
 6821SOL    HW131682   5.558   8.463   2.864 -1.9361  0.2943  0.1777
 6821SOL    HW231683   5.625   8.445   2.717  0.5127  0.2383  1.2705
 6822SOL     OW31684   1.501   2.004   2.934 -0.6189 -0.5816 -0.4287
 6822SOL    HW131685   1.412   1.963   2.918 -0.9667 -0.6355  1.5327
 6822SOL    HW231686   1.505   2.040   3.027  1.7351 -1.4650 -0.1412
 6823SOL     OW31687   1.525   1.611   4.095 -0.0287  0.5739  0.1167
 6823SOL    HW131688   1.510   1.626   3.997  1.2677  0.3426 -0.1277
 6823SOL    HW231689   1.456   1.660   4.147 -1.1806  0.0955 -0.9361
 6824SOL     OW31690   8.653   5.880   0.622  1.0978 -0.5964  0.2737
 6824SOL    HW131691   8.723   5.944   0.592  1.5255 -1.5266 -0.7663
 6824SOL    HW231692   8.691   5.819   0.692  1.0000 -0.3973  0.5016
 6825SOL     OW31693   0.450   2.109   1.729  0.3698  0.2869  0.3584
 6825SOL    HW131694   0.512   2.123   1.806 -0.7138 -1.1248  1.5256
 6825SOL    HW231695   0.490   2.044   1.664 -0.1499 -1.1455  1.4466
 6826SOL     OW31696   2.007   3.052   1.440 -0.5867  0.4551 -0.2075
 6826SOL    HW131697   2.035   3.148   1.433  0.9960 -0.0280 -0.6277
 6826SOL    HW231698   1.917   3.047   1.484 -1.0496  2.1771 -0.8957
 6827SOL     OW31699   8.667   9.239   6.499  0.0319 -0.4051 -0.3738
 6827SOL    HW131700   8.746   9.237   6.437  1.6414  0.3552  1.5998
 6827SOL    HW231701   8.591   9.190   6.457  0.8259  0.7346 -3.2700
 6828SOL     OW31702   8.838   0.487   2.909 -0.1184  0.4313 -0.3689
 6828SOL    HW131703   8.934   0.459   2.910 -0.3066 -0.3508 -2.1388
 6828SOL    HW231704   8.816   0.534   2.995  1.1498 -1.7114  1.1915
 6829SOL     OW31705   8.707   0.136   4.758 -0.0704  0.1861  0.2088
 6829SOL    HW131706   8.646   0.216   4.751  1.1505  1.2811  1.8494
 6829SOL    HW231707   8.760   0.128   4.673 -1.0595  0.3984 -0.4427
 6830SOL     OW31708   2.841   9.924   3.280 -0.1299 -0.1521  0.7063
 6830SOL    HW131709   2.807   9.830   3.288 -0.5799 -0.1793 -1.1612
 6830SOL    HW231710   2.940   9.925   3.288 -0.0329 -0.9390 -0.2788
 6831SOL     OW31711   2.729   5.675   6.489 -0.3058 -0.5771 -0.1388
 6831SOL    HW131712   2.679   5.604   6.539 -0.2585 -0.8741 -0.5120
 6831SOL    HW231713   2.683   5.693   6.402 -1.1743  0.9237  0.6064
 6832SOL     OW31714   3.220   6.636   1.728  0.5930  0.1593  0.2782
 6832SOL    HW131715   3.157   6.575   1.777 -1.4191  2.5259  0.7391
 6832SOL    HW231716   3.169   6.688   1.659  2.0987  1.8571  0.4073
 6833SOL     OW31717   1.055   0.292   4.685  0.0464  0.0461  0.4131
 6833SOL    HW131718   1.112   0.209   4.690 -1.7891 -1.2502  0.1774
 6833SOL    HW231719   1.094   0.353   4.616  2.1526 -0.0292  1.4896
 6834SOL     OW31720   5.242   9.639   4.857  0.3228 -0.4633 -0.3757
 6834SOL    HW131721   5.330   9.611   4.819  0.6033  0.6634 -0.5453
 6834SOL    HW231722   5.256   9.690   4.941 -0.0455  1.7228 -1.6066
 6835SOL     OW31723   1.009   7.171   3.689  0.2275  0.4715  0.4345
 6835SOL    HW131724   0.988   7.228   3.769 -0.1296  0.8291  0.0822
 6835SOL    HW231725   0.989   7.075   3.711 -1.8395  0.8049  0.0930
 6836SOL     OW31726   3.478   5.447   5.572 -0.2016 -0.0269  0.0056
 6836SOL    HW131727   3.488   5.546   5.579  0.8146 -0.1745  0.7905
 6836SOL    HW231728   3.396   5.418   5.620 -0.7309  0.4788 -0.5889
 6837SOL     OW31729   7.895   2.783   1.526  0.1085  0.0227 -0.6511
 6837SOL    HW131730   7.854   2.821   1.443 -0.5816 -0.0174 -0.3306
 6837SOL    HW231731   7.836   2.711   1.562  0.4396 -0.0042 -0.1586
 6838SOL     OW31732   9.028   7.229   0.578  0.6585  0.0199  0.0948
 6838SOL    HW131733   9.031   7.137   0.537 -0.4223  0.3998 -0.8453
 6838SOL    HW231734   8.945   7.238   0.633  0.0900  0.8739 -0.8787
 6839SOL     OW31735   5.608   5.824   1.119 -0.4978 -1.1320 -0.0525
 6839SOL    HW131736   5.631   5.884   1.043 -0.9969 -0.3233  0.4229
 6839SOL    HW231737   5.590   5.732   1.085 -0.0220 -0.9422 -0.8237
 6840SOL     OW31738   3.621   2.327   0.457 -0.2777  0.2296 -0.5528
 6840SOL    HW131739   3.571   2.295   0.537  3.1300 -2.3714  0.6097
 6840SOL    HW231740   3.587   2.280   0.376  0.0725 -1.2747  0.1736
 6841SOL     OW31741   0.823   8.371   5.008  0.1241  0.0768  0.2061
 6841SOL    HW131742   0.919   8.393   4.989 -0.1143  0.6158 -0.3897
 6841SOL    HW231743   0.768   8.392   4.928 -0.4222 -0.7368  0.3599
 6842SOL     OW31744   0.821   6.521   2.342 -0.2995  0.4628  0.1460
 6842SOL    HW131745   0.904   6.576   2.344 -0.5653  0.9281 -1.1443
 6842SOL    HW231746   0.794   6.497   2.436  0.2482  1.8593  0.6666
 6843SOL     OW31747   9.902   5.576   2.372  0.0004 -0.3037 -0.1207
 6843SOL    HW131748   9.817   5.603   2.417 -1.4154 -3.2423 -0.8697
 6843SOL    HW231749   9.882   5.555   2.276  1.7620 -0.2223 -0.5119
 6844SOL     OW31750   2.532   1.140   0.682  0.0180  0.0801 -0.2051
 6844SOL    HW131751   2.490   1.112   0.596  0.3740  0.1647 -0.4041
 6844SOL    HW231752   2.595   1.070   0.714 -0.8187 -0.3806  0.4720
 6845SOL     OW31753   0.014   8.410   0.506 -0.1039  0.0234  0.1871
 6845SOL    HW131754   0.114   8.412   0.511 -0.1309  1.6001  0.4420
 6845SOL    HW231755  -0.024   8.450   0.589 -0.9859 -1.8311  0.7004
 6846SOL     OW31756   7.133   4.902   1.427  0.4639  0.0755 -0.4734
 6846SOL    HW131757   7.036   4.923   1.438  0.7641  1.4195 -0.3489
 6846SOL    HW231758   7.143   4.814   1.380 -0.8067 -0.1122 -0.4089
 6847SOL     OW31759   8.387   4.071   2.535 -0.3969 -0.0436 -0.2757
 6847SOL    HW131760   8.422   4.160   2.507 -0.8833 -0.0914 -1.0429
 6847SOL    HW231761   8.460   4.017   2.577 -0.1709  0.8256  0.4609
 6848SOL     OW31762   2.951   0.422   5.829 -0.2552  0.2148 -0.2934
 6848SOL    HW131763   2.942   0.414   5.928  3.1366  0.1128  0.0634
 6848SOL    HW231764   2.956   0.519   5.803 -1.2663  0.2451 -0.3985
 6849SOL     OW31765   8.607   6.839   4.339  0.0827  0.5827  0.1174
 6849SOL    HW131766   8.545   6.800   4.406 -0.1766  0.8411  0.0288
 6849SOL    HW231767   8.568   6.924   4.302  0.1743  0.3919 -0.4313
 6850SOL     OW31768   3.812   8.158   4.199 -0.3092  0.0283  0.3986
 6850SOL    HW131769   3.812   8.122   4.292 -1.5934 -0.3081  0.2736
 6850SOL    HW231770   3.724   8.201   4.179  0.8347  2.3446  0.1863
 6851SOL     OW31771   3.391   9.172   6.008  0.1991  0.0297 -0.5494
 6851SOL    HW131772   3.333   9.208   6.080  0.1131  0.5025 -0.8578
 6851SOL    HW231773   3.342   9.172   5.922  0.6853  0.5321 -0.8329
 6852SOL     OW31774   4.205   4.891   4.495 -0.3846  0.5689 -0.6587
 6852SOL    HW131775   4.174   4.924   4.407  0.5687 -1.2194 -1.7073
 6852SOL    HW231776   4.298   4.855   4.486 -0.2579  0.3933  1.0869
 6853SOL     OW31777   2.578   0.288   0.360  0.1196 -0.5577  0.3279
 6853SOL    HW131778   2.573   0.203   0.412  1.0495 -0.3459  0.7765
 6853SOL    HW231779   2.519   0.357   0.402 -0.9327 -1.0835 -0.2561
 6854SOL     OW31780   7.716   0.826   4.166 -0.9277  0.1084 -0.7094
 6854SOL    HW131781   7.755   0.743   4.206 -0.3660  0.9173  0.4187
 6854SOL    HW231782   7.667   0.802   4.082 -2.4690 -1.6691  0.6389
 6855SOL     OW31783   6.801   0.530   6.197 -0.3408  0.5717  0.2089
 6855SOL    HW131784   6.850   0.568   6.275  0.2146  1.1337 -0.4035
 6855SOL    HW231785   6.713   0.577   6.186 -0.9811 -0.3752  1.2527
 6856SOL     OW31786   1.079   8.470   4.991 -0.1585  0.1202  0.3301
 6856SOL    HW131787   1.101   8.564   4.969  0.5224 -0.1428 -0.0991
 6856SOL    HW231788   1.159   8.412   4.977 -1.1044 -0.8397 -1.2793
 6857SOL     OW31789   7.559   6.800   6.113  0.5672  0.0228 -0.1427
 6857SOL    HW131790   7.465   6.777   6.088  0.9468 -0.4887 -1.0928
 6857SOL    HW231791   7.623   6.744   6.061  1.4356  1.2152 -0.3891
 6858SOL     OW31792   0.014   1.087   0.518 -0.1308  0.1614  0.2322
 6858SOL    HW131793   0.060   1.142   0.449 -0.6058  0.0838 -0.1483
 6858SOL    HW231794   0.079   1.021   0.557  0.2059  0.3847  0.0492
 6859SOL     OW31795   2.196   9.806   1.031 -0.1644 -0.2889  0.1416
 6859SOL    HW131796   2.256   9.769   0.961  0.4065  1.7562 -0.4892
 6859SOL    HW231797   2.241   9.883   1.077 -1.5305  0.0307  0.9837
 6860SOL     OW31798   8.941   9.340   3.158 -0.1213  0.1292  0.0340
 6860SOL    HW131799   9.004   9.417   3.163  1.1422 -0.8773 -0.1685
 6860SOL    HW231800   8.902   9.323   3.249  0.3901  0.3404  0.2943
 6861SOL     OW31801   6.100   8.921   3.848 -0.2319  0.4952 -0.0195
 6861SOL    HW131802   6.128   8.941   3.942  0.2902  1.3834 -0.3581
 6861SOL    HW231803   6.170   8.953   3.784 -0.2160 -0.8148 -0.6853
 6862SOL     OW31804   0.344   9.273   6.219  0.2448  0.4105 -0.1039
 6862SOL    HW131805   0.374   9.201   6.156  0.1466 -0.7500  1.1553
 6862SOL    HW231806   0.423   9.323   6.253  0.3018  1.0277 -1.1108
 6863SOL     OW31807   4.389   0.573   0.089  0.4574  0.4785 -0.7099
 6863SOL    HW131808   4.390   0.476   0.116  1.3038  0.2292 -1.5832
 6863SOL    HW231809   4.371   0.580  -0.009  0.4292  1.2097 -0.6545
 6864SOL     OW31810   0.941   0.279   6.123  0.3497 -0.4783  0.0715
 6864SOL    HW131811   1.023   0.228   6.095 -0.5670 -1.5836 -0.6281
 6864SOL    HW231812   0.967   0.346   6.192  1.9652 -0.4004 -0.5657
 6865SOL     OW31813   2.985   7.158   2.290 -0.3422  0.2501 -0.0683
 6865SOL    HW131814   3.021   7.132   2.200 -0.5134  1.4130 -0.4750
 6865SOL    HW231815   2.898   7.112   2.305 -0.7791  0.7912 -0.9036
 6866SOL     OW31816   1.887   4.360   6.332  0.4984  0.7880  0.8084
 6866SOL    HW131817   1.927   4.328   6.246  0.4236 -1.1278  1.4830
 6866SOL    HW231818   1.792   4.330   6.338 -0.0192  2.3724  0.8035
 6867SOL     OW31819   4.295   0.995   1.199 -0.2040  0.0807 -0.2059
 6867SOL    HW131820   4.204   0.955   1.210 -0.0063 -0.2424  0.2584
 6867SOL    HW231821   4.354   0.932   1.148  0.1956 -0.3596  0.7879
 6868SOL     OW31822   5.642   1.302   2.648  0.3485  0.7625  0.0302
 6868SOL    HW131823   5.627   1.355   2.564  1.6088 -0.2796 -0.8735
 6868SOL    HW231824   5.570   1.323   2.714 -0.5084  1.8022 -1.2124
 6869SOL     OW31825   8.120   1.883   6.612 -0.5858 -0.2120 -0.0347
 6869SOL    HW131826   8.081   1.895   6.703  0.0817  0.3729  0.1771
 6869SOL    HW231827   8.158   1.791   6.603  0.2586  0.0703  0.6252
 6870SOL     OW31828   1.862   4.140   3.817  0.4152 -1.0047 -0.0279
 6870SOL    HW131829   1.928   4.067   3.837  0.1329 -1.2629 -0.0518
 6870SOL    HW231830   1.799   4.150   3.894 -0.7956 -2.1287 -0.8690
 6871SOL     OW31831   3.901   4.075   4.744 -0.1075  0.0349 -0.2334
 6871SOL    HW131832   3.928   4.171   4.751  1.5371 -0.4588  0.3782
 6871SOL    HW231833   3.980   4.020   4.717 -1.2773 -1.0231 -1.5808
 6872SOL     OW31834   6.970   0.831   4.681 -0.6907 -0.3130 -0.5311
 6872SOL    HW131835   7.051   0.779   4.653  1.1235  0.8657  2.2856
 6872SOL    HW231836   6.956   0.908   4.620  0.3613 -0.4918 -0.9982
 6873SOL     OW31837   3.080   4.296   5.362  0.2534  0.5752  0.7359
 6873SOL    HW131838   3.097   4.202   5.393  1.1135  0.4970  0.0508
 6873SOL    HW231839   3.159   4.329   5.311 -0.8805  0.9065 -0.8503
 6874SOL     OW31840   1.545   2.890   0.767 -0.1423 -0.2727 -0.4400
 6874SOL    HW131841   1.539   2.972   0.824  0.5448  0.3354 -1.2290
 6874SOL    HW231842   1.468   2.889   0.703 -0.9365 -0.9763  0.5111
 6875SOL     OW31843   0.424   6.249   6.409  0.2798 -0.9042 -0.6978
 6875SOL    HW131844   0.426   6.198   6.323 -0.1373 -1.3287 -0.4551
 6875SOL    HW231845   0.394   6.189   6.483  0.3620 -0.4634 -0.3018
 6876SOL     OW31846   2.668   5.647   4.390 -0.0711  0.4980  0.4086
 6876SOL    HW131847   2.729   5.598   4.327 -1.3425 -0.2254 -0.2701
 6876SOL    HW231848   2.645   5.736   4.351 -1.0890 -0.0663 -0.2982
 6877SOL     OW31849   1.990   4.478   0.787  0.2044  0.1340 -0.1810
 6877SOL    HW131850   1.967   4.551   0.851 -0.7421 -0.1977 -0.1283
 6877SOL    HW231851   2.017   4.519   0.699  2.2256  0.6087  0.6294
 6878SOL     OW31852   9.864   8.046   3.782  0.6477 -0.0009 -0.4480
 6878SOL    HW131853   9.938   8.037   3.715  1.2823  1.8987 -0.0283
 6878SOL    HW231854   9.799   8.115   3.751 -0.4512 -0.9820 -0.3476
 6879SOL     OW31855   0.882   9.636   5.482 -0.1093  0.3124 -0.2085
 6879SOL    HW131856   0.932   9.650   5.568  1.1993  2.3175 -1.2547
 6879SOL    HW231857   0.825   9.716   5.463  0.9360  0.6527 -2.0499
 6880SOL     OW31858   4.081   5.059   2.482 -0.4867  0.1128 -0.0636
 6880SOL    HW131859   4.042   4.967   2.485 -1.0337  0.3783  1.7699
 6880SOL    HW231860   4.026   5.117   2.422  1.0095 -1.2368 -2.8259
 6881SOL     OW31861   4.983   9.869   3.201 -0.3631 -0.0642  0.2770
 6881SOL    HW131862   4.918   9.944   3.187  1.2139  1.1508 -0.6712
 6881SOL    HW231863   4.980   9.808   3.122 -0.1356  0.1622  0.0928
 6882SOL     OW31864   4.542   8.513   5.142 -0.2473  0.1191 -0.2242
 6882SOL    HW131865   4.497   8.431   5.176  0.8288 -0.3769  0.0491
 6882SOL    HW231866   4.529   8.588   5.208  0.1860 -0.3079  0.3589
 6883SOL     OW31867   3.538   0.629   3.269 -0.0329 -0.9792 -0.0138
 6883SOL    HW131868   3.472   0.686   3.221  0.1812 -0.2193  0.5818
 6883SOL    HW231869   3.497   0.593   3.353  0.7809  0.7518  1.1571
 6884SOL     OW31870   8.589   9.235   5.116  0.0530 -0.2283  0.2111
 6884SOL    HW131871   8.682   9.197   5.110  0.0086 -0.0850 -1.8801
 6884SOL    HW231872   8.529   9.169   5.159  0.4946 -1.5689 -1.1856
 6885SOL     OW31873   0.868   2.528   1.931  0.0134  0.3865  0.2950
 6885SOL    HW131874   0.807   2.484   1.865 -0.5495 -0.2049  1.1884
 6885SOL    HW231875   0.938   2.580   1.883  0.1026 -0.6980 -0.7704
 6886SOL     OW31876   5.924   0.497   3.726 -0.0846  0.3489 -0.3086
 6886SOL    HW131877   6.007   0.443   3.714 -0.7179 -0.5629 -0.5721
 6886SOL    HW231878   5.938   0.563   3.800  1.0164  0.4894 -0.6279
 6887SOL     OW31879   0.760   4.084   6.000  0.0489 -0.0268  0.6917
 6887SOL    HW131880   0.847   4.120   6.032 -0.0770  0.8699  0.0387
 6887SOL    HW231881   0.742   3.996   6.045  1.3433 -0.2841  0.7300
 6888SOL     OW31882   5.221   2.093   5.145  0.2600 -0.1229 -0.3880
 6888SOL    HW131883   5.129   2.126   5.123  0.0376 -0.0075  0.6981
 6888SOL    HW231884   5.282   2.171   5.158  0.5315 -0.2006 -1.1705
 6889SOL     OW31885   1.957   3.246   5.484  0.7538  0.5307  0.0906
 6889SOL    HW131886   1.926   3.152   5.470  0.4826  0.9371 -2.2914
 6889SOL    HW231887   1.996   3.255   5.575 -1.3160 -1.3188  1.2035
 6890SOL     OW31888   7.482   8.966   4.804  0.0354  0.4853 -0.5070
 6890SOL    HW131889   7.429   8.900   4.857  2.3496  0.2336  1.6018
 6890SOL    HW231890   7.442   9.057   4.815 -0.5189  0.1592  0.2835
 6891SOL     OW31891   8.600   7.184   1.041 -0.5024 -0.3849 -0.0394
 6891SOL    HW131892   8.632   7.127   0.965 -1.5400 -0.1549 -0.6646
 6891SOL    HW231893   8.639   7.151   1.127  1.2984 -0.1738 -0.7550
 6892SOL     OW31894   4.770   8.682   4.421 -0.4150  0.0430 -0.0258
 6892SOL    HW131895   4.723   8.594   4.413 -1.4434  0.4162  1.6913
 6892SOL    HW231896   4.827   8.682   4.504 -0.4235  1.0024 -0.0117
 6893SOL     OW31897   5.708   8.703   4.582  0.0952  0.5608 -0.5470
 6893SOL    HW131898   5.613   8.674   4.593  0.2754 -0.0912 -0.6416
 6893SOL    HW231899   5.714   8.776   4.515 -0.5699  1.9329  0.8475
 6894SOL     OW31900   2.068   1.569   5.180 -0.2019  0.4980  0.6753
 6894SOL    HW131901   2.001   1.537   5.112 -0.2136  1.0691  0.4122
 6894SOL    HW231902   2.020   1.604   5.260 -0.2056  0.5838  0.6347
 6895SOL     OW31903   8.514   5.103   0.343 -0.2119 -0.7149  0.0168
 6895SOL    HW131904   8.555   5.185   0.304  0.4547 -0.9845  0.1360
 6895SOL    HW231905   8.495   5.118   0.440 -0.0888 -0.7029  0.0389
 6896SOL     OW31906   9.833   8.186   5.725  0.6860 -0.2452 -0.1999
 6896SOL    HW131907   9.772   8.249   5.677 -1.6089 -3.1458 -1.2186
 6896SOL    HW231908   9.779   8.116   5.772  3.1599 -2.5127 -0.6012
 6897SOL     OW31909   7.768   9.173   3.392  0.1791 -0.4451 -0.1622
 6897SOL    HW131910   7.814   9.099   3.441  0.2918  0.8853  1.8107
 6897SOL    HW231911   7.711   9.225   3.456  1.0223  1.8813 -1.2428
 6898SOL     OW31912   8.008   6.050   0.804 -0.4794 -0.5777 -0.0230
 6898SOL    HW131913   7.959   6.099   0.732 -3.1077 -3.5564 -0.3608
 6898SOL    HW231914   7.945   6.025   0.877  1.4078 -0.8382  1.5719
 6899SOL     OW31915   6.310   8.534   3.888 -0.2052 -0.4090 -0.9830
 6899SOL    HW131916   6.325   8.545   3.986 -2.0246 -2.8616 -0.3826
 6899SOL    HW231917   6.375   8.467   3.852 -0.2845 -0.3541 -1.2247
 6900SOL     OW31918   7.640   2.606   2.213  0.8159  0.4563 -0.1260
 6900SOL    HW131919   7.675   2.513   2.216 -1.0533 -0.2834 -0.4448
 6900SOL    HW231920   7.603   2.631   2.303 -0.3386  0.2208 -0.5291
 6901SOL     OW31921   1.659   1.596   4.836 -0.1340  0.1335  0.3069
 6901SOL    HW131922   1.659   1.649   4.751 -1.2374 -0.2302  0.0670
 6901SOL    HW231923   1.566   1.565   4.855  0.2669 -0.5346  1.1862
 6902SOL     OW31924   3.410   5.823   3.488  0.1121  0.8399 -0.1283
 6902SOL    HW131925   3.324   5.832   3.538 -0.2287 -0.8702 -0.3735
 6902SOL    HW231926   3.420   5.729   3.455  0.7006  1.7116 -2.5821
 6903SOL     OW31927   2.792   2.009   5.871  0.2356 -0.0913  0.4581
 6903SOL    HW131928   2.876   2.054   5.840 -0.1180  1.0302  1.0840
 6903SOL    HW231929   2.814   1.919   5.908  1.1680  0.1765  0.5690
 6904SOL     OW31930   1.871   9.892   3.133  0.5629  0.5010 -0.0635
 6904SOL    HW131931   1.886   9.829   3.209 -1.0479  0.3281  0.1256
 6904SOL    HW231932   1.794   9.861   3.078 -0.1906  2.2359 -0.0382
 6905SOL     OW31933   9.935   1.719   2.590 -0.0786 -0.0396 -0.6334
 6905SOL    HW131934   9.892   1.799   2.631 -2.0775 -1.5071  0.2487
 6905SOL    HW231935   9.977   1.744   2.503 -1.7162  1.7253 -0.9386
 6906SOL     OW31936   7.975   7.098   3.325 -0.1244 -0.4773 -0.2517
 6906SOL    HW131937   8.020   7.058   3.245  1.0828 -0.6504  0.5002
 6906SOL    HW231938   7.911   7.169   3.295  0.9842  0.0922 -1.3259
 6907SOL     OW31939   2.123   9.767   0.495 -0.3289 -0.3171  0.0602
 6907SOL    HW131940   2.096   9.690   0.438 -2.0364 -0.1402  0.5857
 6907SOL    HW231941   2.159   9.841   0.438 -0.5879 -0.7350 -0.6427
 6908SOL     OW31942   8.074   3.053   5.233  0.5883  0.2325  0.1027
 6908SOL    HW131943   7.979   3.042   5.201  0.4623  1.7901 -0.0960
 6908SOL    HW231944   8.095   3.150   5.242  1.4203 -0.1343  2.4661
 6909SOL     OW31945   1.819   3.134   3.138 -0.1450  0.2244 -0.1453
 6909SOL    HW131946   1.732   3.086   3.127 -2.3793  4.0367 -0.3373
 6909SOL    HW231947   1.854   3.120   3.231 -1.2379 -0.8841  0.1108
 6910SOL     OW31948   4.845   2.290   0.288 -0.1768 -0.5462 -0.5263
 6910SOL    HW131949   4.751   2.309   0.315 -0.2514  0.5150 -1.4924
 6910SOL    HW231950   4.845   2.232   0.207  0.0279 -2.2412  0.6717
 6911SOL     OW31951   0.216   0.602   2.114 -0.3616  0.7957 -0.3168
 6911SOL    HW131952   0.306   0.628   2.080 -0.2681  0.2090 -0.5258
 6911SOL    HW231953   0.226   0.529   2.182 -0.7058  0.4793 -0.6057
 6912SOL     OW31954   3.108   0.576   3.514 -0.5800  0.3918  0.1056
 6912SOL    HW131955   3.107   0.478   3.535 -2.5208 -0.8261 -4.9488
 6912SOL    HW231956   3.014   0.610   3.513  0.0096  2.0849  0.6892
 6913SOL     OW31957   4.497   1.015   2.787  0.1504 -0.1262 -0.1877
 6913SOL    HW131958   4.573   0.954   2.810  0.1955 -0.0896 -0.2392
 6913SOL    HW231959   4.469   1.066   2.869  0.3802  0.0827 -0.2383
 6914SOL     OW31960   8.945   6.678   4.222 -0.2707  0.0461 -0.6864
 6914SOL    HW131961   8.904   6.646   4.137 -0.4775  2.0533 -1.3670
 6914SOL    HW231962   8.937   6.777   4.228  1.2919  0.1094  0.8669
 6915SOL     OW31963   7.710   6.845   1.929 -0.4061  0.0822 -0.0470
 6915SOL    HW131964   7.731   6.795   2.013  0.8052 -0.2079 -0.5088
 6915SOL    HW231965   7.781   6.912   1.911 -2.0559  2.0360  0.5973
 6916SOL     OW31966   2.504   7.679   6.685  0.1350 -0.1109  0.5251
 6916SOL    HW131967   2.413   7.706   6.718 -0.3984  0.7031 -1.5073
 6916SOL    HW231968   2.551   7.760   6.649  1.4808 -0.6162  1.1379
 6917SOL     OW31969   6.512   2.148   3.829  0.7964  0.0899 -0.0946
 6917SOL    HW131970   6.470   2.234   3.857 -0.9271 -1.0345  0.8640
 6917SOL    HW231971   6.551   2.158   3.738 -1.0993  1.3344 -0.7958
 6918SOL     OW31972   3.753   8.420   1.290 -0.2937 -0.5382  0.5274
 6918SOL    HW131973   3.813   8.350   1.252  0.9749  1.5983 -1.5034
 6918SOL    HW231974   3.804   8.475   1.355 -0.7588 -0.2608  0.6577
 6919SOL     OW31975   0.225   1.116   2.906 -0.8969  0.1449 -0.6133
 6919SOL    HW131976   0.140   1.162   2.931 -1.6642 -0.3745 -2.2572
 6919SOL    HW231977   0.253   1.144   2.814  1.5381  1.4965  0.4657
 6920SOL     OW31978   3.646   1.288   1.220  0.1075  0.1204  0.0612
 6920SOL    HW131979   3.726   1.293   1.160  0.3164  0.7424  0.3824
 6920SOL    HW231980   3.563   1.289   1.165  0.2852  1.2708 -0.1900
 6921SOL     OW31981   5.173   4.579   6.586  0.2373 -0.5823 -0.5554
 6921SOL    HW131982   5.136   4.510   6.524 -0.8516 -0.3276 -0.2113
 6921SOL    HW231983   5.172   4.545   6.680  0.2175 -0.3128 -0.4557
 6922SOL     OW31984   4.923   9.318   2.789  0.2674 -0.1057 -0.0787
 6922SOL    HW131985   4.859   9.395   2.780 -0.0937 -0.2958  0.8260
 6922SOL    HW231986   5.010   9.352   2.824  0.9620  0.2918 -2.1516
 6923SOL     OW31987   4.975   6.651   2.124  0.7000  0.3296 -0.6903
 6923SOL    HW131988   5.047   6.646   2.055  0.8369 -1.9630 -0.4128
 6923SOL    HW231989   5.013   6.682   2.211  1.2935 -0.6638 -0.6023
 6924SOL     OW31990   8.415   6.683   1.447  0.5963  0.4264 -0.5344
 6924SOL    HW131991   8.434   6.773   1.409 -0.4891  0.1647 -1.7430
 6924SOL    HW231992   8.475   6.615   1.404  0.9466  0.4683 -0.1158
 6925SOL     OW31993   1.362   6.983   3.162 -0.4025 -0.4083 -0.0498
 6925SOL    HW131994   1.405   7.073   3.170 -0.2289 -0.4138 -0.9456
 6925SOL    HW231995   1.271   6.987   3.204  0.2960 -0.2944  1.4886
 6926SOL     OW31996   4.345   5.424   0.424  0.2086  0.0078 -0.3811
 6926SOL    HW131997   4.332   5.325   0.433  0.3365  0.0586  0.4679
 6926SOL    HW231998   4.295   5.458   0.345 -0.7060 -0.5776 -0.0648
 6927SOL     OW31999   0.154   7.861   2.932 -0.2622  0.1417 -0.7696
 6927SOL    HW132000   0.092   7.860   3.011  1.1716 -2.8726  0.3953
 6927SOL    HW232001   0.109   7.818   2.854  0.3198 -2.0583  0.0791
 6928SOL     OW32002   2.759   9.018   3.213 -0.1108 -0.2012 -0.2188
 6928SOL    HW132003   2.681   8.962   3.186  0.0393 -0.5814  0.1143
 6928SOL    HW232004   2.759   9.103   3.162 -0.3573 -0.5000 -0.7170
 6929SOL     OW32005   0.563   9.995   3.009 -0.1486  0.1474  0.1535
 6929SOL    HW132006   0.620  10.019   3.088  2.4808 -2.2222 -0.9261
 6929SOL    HW232007   0.525   9.903   3.022 -0.1392 -0.0472 -1.1074
 6930SOL     OW32008   2.495   5.084   4.701 -0.1890  0.0854  0.1830
 6930SOL    HW132009   2.561   5.051   4.769  1.2118  1.0295 -0.7022
 6930SOL    HW232010   2.442   5.007   4.666  0.7735 -0.7522  0.5575
 6931SOL     OW32011   5.124   1.301   3.316 -0.2509 -0.0483 -0.5120
 6931SOL    HW132012   5.108   1.230   3.385  1.4097 -0.6083 -0.6760
 6931SOL    HW232013   5.187   1.369   3.351 -1.9458  1.4625 -0.3097
 6932SOL     OW32014   2.134   2.724   2.226 -0.3575 -0.2289 -0.0708
 6932SOL    HW132015   2.149   2.668   2.144  0.7846  0.8137 -0.5907
 6932SOL    HW232016   2.187   2.686   2.302  2.7407  1.7378 -1.1509
 6933SOL     OW32017   8.760   7.279   0.705  0.3883 -0.1036 -0.7004
 6933SOL    HW132018   8.796   7.210   0.768  1.3417 -0.6861 -1.8568
 6933SOL    HW232019   8.755   7.367   0.751  1.1932 -0.4930  0.1487
 6934SOL     OW32020   0.101   1.572   0.226 -0.1171  0.0695 -0.6231
 6934SOL    HW132021   0.190   1.540   0.194 -0.2634  0.6386 -1.6374
 6934SOL    HW232022   0.115   1.643   0.295  0.2642  1.9444 -2.5702
 6935SOL     OW32023   6.688   5.049   0.604 -0.6781 -0.0562  0.1379
 6935SOL    HW132024   6.744   5.108   0.662  0.6948 -0.3776 -0.8217
 6935SOL    HW232025   6.695   5.079   0.509 -1.0009 -0.9704 -0.1810
 6936SOL     OW32026   8.581   4.672   0.467  0.0785 -0.2345 -0.7939
 6936SOL    HW132027   8.589   4.709   0.374  1.6765 -1.6607 -1.2529
 6936SOL    HW232028   8.656   4.707   0.523  0.8868 -1.7643 -0.8950
 6937SOL     OW32029   0.291   8.390   6.715  0.9405  0.7024  0.9131
 6937SOL    HW132030   0.278   8.385   6.814 -0.6063  0.7929  0.7253
 6937SOL    HW232031   0.308   8.299   6.679 -0.6806  0.3588  0.9842
 6938SOL     OW32032   0.174   3.447   2.843  0.2705 -0.0795  0.0926
 6938SOL    HW132033   0.228   3.475   2.921  0.3732 -0.0169 -0.0017
 6938SOL    HW232034   0.221   3.373   2.795  0.0467 -0.3499  0.2857
 6939SOL     OW32035   4.377   1.010   3.531 -0.2204 -0.5528  0.2056
 6939SOL    HW132036   4.346   1.060   3.450  0.5684 -0.1807  0.1297
 6939SOL    HW232037   4.315   0.934   3.549 -0.8115 -0.1989 -0.3228
 6940SOL     OW32038   9.267   6.149   0.629 -0.7343 -0.1126 -0.0727
 6940SOL    HW132039   9.247   6.184   0.537 -1.4308 -1.7726 -0.5797
 6940SOL    HW232040   9.183   6.144   0.682 -0.1348  2.1043  1.1421
 6941SOL     OW32041   8.254   1.237   4.404  0.1425  0.6929 -0.4885
 6941SOL    HW132042   8.351   1.258   4.419 -0.1271  1.0688  0.7719
 6941SOL    HW232043   8.205   1.322   4.383  0.0545  0.5212 -0.9852
 6942SOL     OW32044   2.846   5.114   3.940  0.0878 -0.4287 -0.4596
 6942SOL    HW132045   2.839   5.162   4.028  1.0983  2.0403 -1.6715
 6942SOL    HW232046   2.798   5.027   3.946 -0.8631  0.2140  2.1786
 6943SOL     OW32047   4.965   1.943   1.318 -0.6027  0.5572  0.6914
 6943SOL    HW132048   5.028   2.013   1.354 -0.7247  0.5306  0.9633
 6943SOL    HW232049   5.006   1.898   1.239 -0.0138  0.1048  1.2537
 6944SOL     OW32050   1.253   7.793   3.272 -0.1650 -0.5217 -0.1385
 6944SOL    HW132051   1.207   7.734   3.206 -2.8682  0.1515  1.0649
 6944SOL    HW232052   1.248   7.753   3.363  0.1812  0.3579  0.2787
 6945SOL     OW32053   4.897   2.370   3.227 -0.4086  0.3738  0.4039
 6945SOL    HW132054   4.899   2.364   3.327 -0.1499 -0.7348  0.3345
 6945SOL    HW232055   4.833   2.302   3.192  0.8528 -0.4448 -0.2934
 6946SOL     OW32056   2.848   5.517   1.846 -0.6362  0.0252 -1.0247
 6946SOL    HW132057   2.898   5.453   1.787  0.4089 -0.5008  0.3914
 6946SOL    HW232058   2.913   5.568   1.902 -1.6423  0.0782  0.1080
 6947SOL     OW32059   8.689   8.760   2.127  0.0162  0.2983  0.0467
 6947SOL    HW132060   8.655   8.837   2.072 -0.6096  0.8355  1.1494
 6947SOL    HW232061   8.614   8.725   2.184 -0.3604 -2.7227 -2.1891
 6948SOL     OW32062   8.866   0.355   2.051  0.5542  0.4365 -0.0066
 6948SOL    HW132063   8.807   0.316   1.980  0.6726  0.4818 -0.1302
 6948SOL    HW232064   8.822   0.436   2.090  0.5054  0.4341 -0.0556
 6949SOL     OW32065   7.892   1.587   2.607  0.3606  0.1048 -0.6274
 6949SOL    HW132066   7.964   1.518   2.602 -0.4042 -0.8400  0.9626
 6949SOL    HW232067   7.808   1.550   2.566  0.4861  0.8244 -1.5456
 6950SOL     OW32068   4.161   4.485   4.905  0.2982 -0.0730 -0.2040
 6950SOL    HW132069   4.118   4.418   4.844  0.6275  0.4819 -1.0482
 6950SOL    HW232070   4.257   4.496   4.881  0.5705 -0.2444  0.7666
 6951SOL     OW32071   6.050   9.911   3.845 -0.3137  0.0172 -0.1464
 6951SOL    HW132072   6.043   9.906   3.944  0.8238  0.2722 -0.0410
 6951SOL    HW232073   6.089  10.000   3.819  2.2977 -1.2228 -0.6353
 6952SOL     OW32074   1.318   0.433   3.156  0.4779 -0.5562  0.0948
 6952SOL    HW132075   1.341   0.530   3.149  0.1380 -0.4555  0.4191
 6952SOL    HW232076   1.391   0.379   3.114  2.1349 -0.3270  2.6289
 6953SOL     OW32077   3.964   9.202   3.653  0.2360  0.1776  0.4265
 6953SOL    HW132078   4.020   9.252   3.720  0.8963  0.5614 -0.4072
 6953SOL    HW232079   3.885   9.258   3.628  1.4041  1.1495 -1.1119
 6954SOL     OW32080   3.026   4.957   5.723 -0.1177 -0.0764  0.0189
 6954SOL    HW132081   2.971   5.016   5.664 -0.0290  0.6941  0.7081
 6954SOL    HW232082   3.044   4.871   5.676 -0.3153  0.4126 -0.9598
 6955SOL     OW32083   1.897   5.073   1.863 -0.2793  0.1720  0.3417
 6955SOL    HW132084   1.881   4.984   1.822  0.3532  0.5419 -0.7361
 6955SOL    HW232085   1.982   5.071   1.916 -0.8753 -0.1864  1.2998
 6956SOL     OW32086   1.585   0.283   1.929 -0.2559  0.0928 -0.1258
 6956SOL    HW132087   1.681   0.282   1.900 -0.2191 -3.1958 -0.1401
 6956SOL    HW232088   1.526   0.256   1.853 -0.8657 -1.0093  0.7083
 6957SOL     OW32089   0.543   6.987   0.667 -0.1722 -0.6312  0.2803
 6957SOL    HW132090   0.572   6.909   0.723  0.4352  0.9873  2.2778
 6957SOL    HW232091   0.506   7.059   0.726 -0.4916  0.7069 -1.5027
 6958SOL     OW32092   2.043   7.137   4.254  0.9356 -0.7619  0.2272
 6958SOL    HW132093   2.110   7.171   4.188  0.1044  0.3117 -0.0789
 6958SOL    HW232094   2.014   7.213   4.313 -2.0507 -0.5479 -1.4064
 6959SOL     OW32095   1.990   0.913   6.525 -0.1585  0.2541  0.1103
 6959SOL    HW132096   2.024   0.902   6.618  1.4340  0.8887 -0.3756
 6959SOL    HW232097   2.015   0.833   6.470  0.6189  0.7574 -0.2717
 6960SOL     OW32098   1.596   6.192   5.543 -0.1134  0.0265 -0.4939
 6960SOL    HW132099   1.676   6.133   5.535 -0.6879 -0.6694 -1.0896
 6960SOL    HW232100   1.601   6.265   5.474 -0.1830 -0.2350 -0.7742
 6961SOL     OW32101   8.644   7.879   4.709  0.0065 -0.4236  0.2509
 6961SOL    HW132102   8.573   7.808   4.712  1.4368 -1.8644  0.6025
 6961SOL    HW232103   8.705   7.867   4.787  1.1342  0.2797 -0.5230
 6962SOL     OW32104   9.535   9.481   0.733 -0.0562  0.4835 -0.2720
 6962SOL    HW132105   9.471   9.537   0.785 -1.6351 -1.3670 -0.1802
 6962SOL    HW232106   9.492   9.394   0.710  2.8531 -1.3723  0.9764
 6963SOL     OW32107   2.354   4.256   1.917 -0.2161 -0.2159  0.1480
 6963SOL    HW132108   2.418   4.180   1.902 -0.8365 -0.5869 -0.6676
 6963SOL    HW232109   2.320   4.253   2.011 -1.8143 -2.1871 -0.4684
 6964SOL     OW32110   5.637   9.976   4.388  0.1622 -0.5192  0.2081
 6964SOL    HW132111   5.671   9.908   4.452  0.1579 -0.1618  0.5927
 6964SOL    HW232112   5.666  10.067   4.417  1.9013 -0.5334 -1.4254
 6965SOL     OW32113   9.153   6.371   3.854 -0.0630 -0.1555  0.5047
 6965SOL    HW132114   9.203   6.312   3.791 -1.8797 -0.4203 -0.7119
 6965SOL    HW232115   9.087   6.317   3.905 -0.7953  0.5927  0.3582
 6966SOL     OW32116   6.980   1.424   4.091 -0.4515  0.8219  0.6248
 6966SOL    HW132117   7.062   1.436   4.146 -0.4232 -0.2257  0.8213
 6966SOL    HW232118   6.987   1.339   4.038 -1.0554  1.1339  0.0283
 6967SOL     OW32119   7.347   0.210   6.029 -0.4403  0.1605  0.0817
 6967SOL    HW132120   7.354   0.146   5.953 -0.8255 -0.1063  0.2691
 6967SOL    HW232121   7.408   0.182   6.103  1.4929  1.5651 -0.9313
 6968SOL     OW32122   0.887   6.884   3.266  0.2084 -0.2680 -0.6425
 6968SOL    HW132123   0.907   6.830   3.185 -1.2869 -1.5473 -0.1771
 6968SOL    HW232124   0.947   6.857   3.341 -0.1463 -0.8858 -0.5811
 6969SOL     OW32125   0.898   3.451   2.194  0.4798 -0.2329 -0.1231
 6969SOL    HW132126   0.841   3.370   2.180  2.7130 -1.6442 -1.2800
 6969SOL    HW232127   0.924   3.458   2.290  0.2852 -0.8638 -0.0261
 6970SOL     OW32128   2.769   2.786   6.595 -0.6490  0.0094  0.3757
 6970SOL    HW132129   2.705   2.716   6.628  0.1129 -0.5825  0.6028
 6970SOL    HW232130   2.862   2.750   6.597 -0.0675  1.5195  1.8613
 6971SOL     OW32131   9.095   1.636   2.552  0.2107  0.2327 -0.3589
 6971SOL    HW132132   9.119   1.609   2.459 -1.3416  3.1771 -1.6703
 6971SOL    HW232133   9.004   1.601   2.574  0.3700 -0.0352 -0.1211
 6972SOL     OW32134   8.848   1.046   0.827  0.8054 -0.4989  0.1741
 6972SOL    HW132135   8.789   1.122   0.857  0.4769 -0.9540  0.6898
 6972SOL    HW232136   8.942   1.079   0.819  0.4550  0.2871 -0.8587
 6973SOL     OW32137   8.538   8.305   2.501  0.0768 -0.3436 -0.1590
 6973SOL    HW132138   8.632   8.280   2.477 -0.3088 -0.3828 -1.6634
 6973SOL    HW232139   8.538   8.395   2.546  1.1194 -1.5939  2.4228
 6974SOL     OW32140   7.557   0.770   6.264  0.2233  0.4707 -0.1542
 6974SOL    HW132141   7.557   0.820   6.178 -0.2440  1.0683  0.1890
 6974SOL    HW232142   7.473   0.715   6.271  0.3246  0.3171 -0.1432
 6975SOL     OW32143   5.083   9.315   2.483  0.2454 -0.3210  0.1387
 6975SOL    HW132144   4.989   9.289   2.506 -0.1936  2.2988  1.5467
 6975SOL    HW232145   5.082   9.384   2.411  1.1329 -0.8974 -0.4329
 6976SOL     OW32146   8.952   9.664   0.733  1.0222 -0.7429 -0.0980
 6976SOL    HW132147   8.882   9.690   0.800  1.7192 -0.5276  0.5704
 6976SOL    HW232148   8.913   9.601   0.666 -0.0433  0.0761 -0.2674
 6977SOL     OW32149   4.056   7.995   5.260 -0.0131 -0.5114 -0.7395
 6977SOL    HW132150   3.976   7.935   5.266 -0.7057  0.4306 -0.3801
 6977SOL    HW232151   4.128   7.951   5.207 -1.8466 -0.2207 -3.5650
 6978SOL     OW32152   2.068   0.644   2.333 -0.0484 -0.3651 -0.0751
 6978SOL    HW132153   2.014   0.564   2.362 -0.1380  0.1995  1.3799
 6978SOL    HW232154   2.046   0.722   2.391  0.6182  0.5154 -0.9854
 6979SOL     OW32155   8.750   4.392   4.670 -0.1888  0.3944 -0.2243
 6979SOL    HW132156   8.714   4.425   4.758  0.2806  3.1645 -1.0241
 6979SOL    HW232157   8.808   4.462   4.630  0.1508 -1.1221 -2.4459
 6980SOL     OW32158   0.158   4.771   4.948  0.0386 -0.2190 -0.2851
 6980SOL    HW132159   0.195   4.863   4.961 -3.3547  1.3441 -1.0721
 6980SOL    HW232160   0.182   4.739   4.856 -0.5959  0.7987 -0.8171
 6981SOL     OW32161   8.694   1.708   2.330 -0.5560 -0.3574 -0.5172
 6981SOL    HW132162   8.739   1.752   2.252 -0.6390 -0.9361 -0.8977
 6981SOL    HW232163   8.674   1.612   2.307  0.9962 -1.0326  0.8310
 6982SOL     OW32164   1.629   9.460   2.499  0.3416 -0.2807  0.0470
 6982SOL    HW132165   1.695   9.412   2.442 -0.2928 -1.9026  0.6417
 6982SOL    HW232166   1.637   9.427   2.593 -1.4259 -0.6240  0.0903
 6983SOL     OW32167   8.703   4.005   4.662 -0.2626 -0.5150 -0.0652
 6983SOL    HW132168   8.702   3.958   4.750 -0.7378  1.4173  0.9922
 6983SOL    HW232169   8.786   4.061   4.655  0.4599 -1.7314 -1.4401
 6984SOL     OW32170   4.721   0.933   3.923  0.1106  0.0055  0.6158
 6984SOL    HW132171   4.634   0.960   3.882  0.4689  0.4181  0.1147
 6984SOL    HW232172   4.761   1.012   3.971  0.0362 -0.2804  1.1518
 6985SOL     OW32173   4.245   3.489   4.542  0.0375 -0.4844  0.3701
 6985SOL    HW132174   4.253   3.413   4.477 -0.9889 -1.8836  1.8232
 6985SOL    HW232175   4.233   3.452   4.634  0.9473  1.4627  1.3027
 6986SOL     OW32176   3.550   6.988   1.519  0.1664 -0.5531  0.0992
 6986SOL    HW132177   3.543   6.888   1.512  1.8802 -0.6080 -1.0542
 6986SOL    HW232178   3.637   7.012   1.563  0.7077  0.4749 -1.4984
 6987SOL     OW32179   0.206   0.189   3.720  0.5502 -0.5767 -0.0964
 6987SOL    HW132180   0.234   0.176   3.815  1.7256  1.3486 -0.1473
 6987SOL    HW232181   0.118   0.144   3.704 -1.1254  1.5748  2.6918
 6988SOL     OW32182   8.527   3.997   3.134  0.0956 -0.3221 -0.1025
 6988SOL    HW132183   8.596   3.925   3.142  1.0127  0.4168 -1.2045
 6988SOL    HW232184   8.569   4.085   3.155 -0.9825 -0.0826  1.0700
 6989SOL     OW32185   8.085   3.526   3.944  0.1265  0.1089 -0.3588
 6989SOL    HW132186   8.125   3.617   3.933 -0.5497  0.3974 -0.4635
 6989SOL    HW232187   8.120   3.484   4.028  0.4963  0.4334 -0.3494
 6990SOL     OW32188   3.499   9.746   5.259  0.0514 -0.2932  0.0246
 6990SOL    HW132189   3.550   9.724   5.176  0.2448  0.2974 -0.0138
 6990SOL    HW232190   3.563   9.774   5.331 -0.2455  0.7836 -0.1276
 6991SOL     OW32191   7.450   0.117   4.568 -0.1595 -0.1156  0.2128
 6991SOL    HW132192   7.376   0.081   4.511 -0.5048  2.9147 -1.4028
 6991SOL    HW232193   7.413   0.187   4.629  1.5954  2.8552 -1.9984
 6992SOL     OW32194   3.543   1.427   0.776 -0.2618  0.1479 -0.1880
 6992SOL    HW132195   3.502   1.517   0.792 -1.0693  0.1618 -2.2098
 6992SOL    HW232196   3.630   1.438   0.728 -0.4629 -0.1654 -0.6244
 6993SOL     OW32197   1.334   6.151   2.104  0.4109 -0.5888  0.2067
 6993SOL    HW132198   1.236   6.138   2.089  0.4560 -0.9480  0.2237
 6993SOL    HW232199   1.385   6.073   2.067  0.7503 -0.0294 -0.5077
 6994SOL     OW32200   2.895   5.266   3.302  0.0141  0.4600 -0.3974
 6994SOL    HW132201   2.841   5.212   3.237  1.1276 -1.0310 -0.1207
 6994SOL    HW232202   2.848   5.269   3.390 -0.6622  1.0131 -0.7727
 6995SOL     OW32203   8.643   2.787   1.199 -0.2350 -0.0345 -0.0054
 6995SOL    HW132204   8.601   2.812   1.112  0.2219 -2.6096 -1.0212
 6995SOL    HW232205   8.722   2.846   1.216 -0.7364  0.9350 -1.0091
 6996SOL     OW32206   1.184   8.667   6.355  0.0183 -0.1424  0.1452
 6996SOL    HW132207   1.268   8.675   6.301 -0.5993  0.5533 -0.7216
 6996SOL    HW232208   1.163   8.570   6.369  0.7829 -0.3214  0.0782
 6997SOL     OW32209   8.735   0.980   4.474 -0.4579  0.2956  0.0382
 6997SOL    HW132210   8.834   0.962   4.472 -0.4137  0.6498 -1.1599
 6997SOL    HW232211   8.686   0.900   4.439 -0.4790  0.9087 -1.3588
 6998SOL     OW32212   0.016   5.873   5.838  0.9323  0.2063 -0.3067
 6998SOL    HW132213  -0.075   5.898   5.873  0.6772  0.1873 -0.9486
 6998SOL    HW232214   0.027   5.909   5.745  1.7349  0.5505 -0.0830
 6999SOL     OW32215   5.102   8.558   4.753 -0.0838 -0.1352 -0.1111
 6999SOL    HW132216   5.168   8.541   4.680 -0.1772 -0.3726 -0.1410
 6999SOL    HW232217   5.045   8.637   4.729 -2.2085 -2.1250 -1.7553
 7000SOL     OW32218   9.090   1.039   1.497 -0.0637  0.0012  0.0339
 7000SOL    HW132219   9.142   0.954   1.495  0.5958  0.4196 -1.0335
 7000SOL    HW232220   9.074   1.071   1.404 -0.4679  0.9497  0.4159
 7001SOL     OW32221   0.123   9.859   5.302 -0.4331 -0.0590 -0.0959
 7001SOL    HW132222   0.146   9.849   5.399  0.6248 -0.3579 -0.3666
 7001SOL    HW232223   0.115   9.768   5.261  1.2980  0.0666 -0.7709
 7002SOL     OW32224   3.496   8.071   0.570 -0.2910  0.3808  0.0385
 7002SOL    HW132225   3.563   8.000   0.590 -0.5475 -0.1591 -0.9646
 7002SOL    HW232226   3.455   8.104   0.655  1.6078  1.0958  0.7025
 7003SOL     OW32227   0.761   1.188   2.307 -0.3918 -0.6892  0.0086
 7003SOL    HW132228   0.666   1.192   2.276 -0.6325 -1.7689  0.6169
 7003SOL    HW232229   0.783   1.272   2.358 -1.1766 -0.6845  0.3351
 7004SOL     OW32230   5.190   2.119   4.695  0.1656 -0.2636 -0.0240
 7004SOL    HW132231   5.097   2.130   4.729 -0.1669 -1.2047 -0.5912
 7004SOL    HW232232   5.193   2.041   4.631  1.3978 -0.4218  0.2137
 7005SOL     OW32233   0.939   4.675   1.393 -0.9833  0.1075  0.7888
 7005SOL    HW132234   0.982   4.584   1.391  0.2094  0.6153  2.0157
 7005SOL    HW232235   0.966   4.722   1.477 -1.3934  1.7039  0.0455
 7006SOL     OW32236   7.147   5.111   5.932  0.2536 -0.6922  0.2699
 7006SOL    HW132237   7.184   5.204   5.940 -1.2158 -0.1597  1.1121
 7006SOL    HW232238   7.082   5.108   5.857 -0.3334 -0.8180  0.7808
 7007SOL     OW32239   2.448   7.464   4.797 -0.0418  0.0718 -0.3827
 7007SOL    HW132240   2.371   7.403   4.813  0.5274 -0.4257  0.5567
 7007SOL    HW232241   2.517   7.448   4.868 -0.1031  2.1548  0.1650
 7008SOL     OW32242   1.828   7.155   2.066  0.0886 -0.3692 -0.2802
 7008SOL    HW132243   1.916   7.118   2.037  0.7395  0.7441  0.2424
 7008SOL    HW232244   1.758   7.130   2.000  0.8624 -0.9608 -0.8909
 7009SOL     OW32245   7.299   0.088   3.239 -0.2859  0.2251 -0.0210
 7009SOL    HW132246   7.281   0.170   3.293 -1.1332 -0.2101  0.3767
 7009SOL    HW232247   7.253   0.094   3.151  0.0027  0.3599 -0.1627
 7010SOL     OW32248   8.300   0.102   5.188  0.5962  0.5644  0.4321
 7010SOL    HW132249   8.306   0.061   5.279 -0.2035  0.8118  0.6003
 7010SOL    HW232250   8.388   0.093   5.141  0.6906 -0.5483  0.8067
 7011SOL     OW32251   2.258   1.860   3.587 -0.2830  0.7342 -0.1976
 7011SOL    HW132252   2.288   1.873   3.493 -0.1207 -0.7567 -0.3586
 7011SOL    HW232253   2.301   1.778   3.625  0.4771  1.8939  1.5223
 7012SOL     OW32254   6.391   1.901   1.365  0.3965  0.2232 -0.6144
 7012SOL    HW132255   6.363   1.879   1.271  3.5361 -3.3117 -0.8191
 7012SOL    HW232256   6.474   1.956   1.363 -0.1828  1.1375  0.1112
 7013SOL     OW32257   3.838   8.872   1.039 -0.2194 -0.4365 -0.6852
 7013SOL    HW132258   3.745   8.881   1.075 -0.4016 -1.1022 -0.9830
 7013SOL    HW232259   3.838   8.808   0.962  0.5506 -0.7181 -0.4557
 7014SOL     OW32260   9.966   4.321   3.899 -0.2977  0.3646 -0.5103
 7014SOL    HW132261   9.998   4.249   3.961 -2.6171 -0.2232  0.0432
 7014SOL    HW232262  10.015   4.314   3.812  1.5753 -0.0428  0.5483
 7015SOL     OW32263   9.147   7.702   0.835 -0.0178  0.5493 -0.3098
 7015SOL    HW132264   9.226   7.647   0.808  0.4076  0.9425  0.1262
 7015SOL    HW232265   9.099   7.734   0.754 -0.6873 -1.0704 -0.5604
 7016SOL     OW32266   0.126   7.580   3.421  0.4931  0.1661 -0.5090
 7016SOL    HW132267   0.094   7.486   3.435  1.5580 -0.0835  0.3158
 7016SOL    HW232268   0.077   7.642   3.482  0.3661  0.0270 -0.4703
 7017SOL     OW32269   3.051   0.891   6.503 -0.3758 -0.5728  0.4764
 7017SOL    HW132270   3.143   0.859   6.525 -0.3992 -0.5300  0.6374
 7017SOL    HW232271   3.002   0.819   6.454  0.2230 -0.0613 -0.8765
 7018SOL     OW32272   8.472   4.583   4.142 -0.3062 -0.4216  0.1654
 7018SOL    HW132273   8.471   4.669   4.193  1.6572 -0.2982  0.0575
 7018SOL    HW232274   8.394   4.527   4.169 -2.7614  2.2169 -1.2402
 7019SOL     OW32275   4.078   0.816   1.205 -0.4471 -0.3404 -0.0261
 7019SOL    HW132276   3.989   0.772   1.217  0.1989 -1.2275  1.7247
 7019SOL    HW232277   4.136   0.757   1.148  0.3959 -1.8156  2.2656
 7020SOL     OW32278   9.087   2.985   0.541 -0.2253  0.1635  0.1014
 7020SOL    HW132279   9.093   2.890   0.510  0.1823  0.2889 -0.2211
 7020SOL    HW232280   9.151   3.041   0.488 -3.1930  1.3315 -2.3487
 7021SOL     OW32281   9.672   8.572   0.093 -0.5498  0.4140 -0.2346
 7021SOL    HW132282   9.611   8.515   0.038 -0.2509  1.5179 -1.7417
 7021SOL    HW232283   9.767   8.560   0.062 -0.3078  0.6030  0.4188
 7022SOL     OW32284   5.391   0.783   5.582  0.0103  0.1158  0.3390
 7022SOL    HW132285   5.487   0.755   5.594  0.4192  0.6554 -1.4792
 7022SOL    HW232286   5.384   0.882   5.595 -0.5200 -0.0761  1.5952
 7023SOL     OW32287   2.395   9.312   4.548 -0.0727 -0.2802  0.2599
 7023SOL    HW132288   2.464   9.249   4.513 -0.7435  0.3759 -2.3171
 7023SOL    HW232289   2.304   9.283   4.517 -0.3273  2.3068 -1.5735
 7024SOL     OW32290   0.552   3.901   6.657 -0.2386  0.3541  0.0481
 7024SOL    HW132291   0.617   3.936   6.589 -0.7583  1.1453 -0.0433
 7024SOL    HW232292   0.523   3.975   6.717 -0.0970 -0.2589  0.8904
 7025SOL     OW32293   7.165   1.518   5.382 -0.0274 -0.2639 -0.5835
 7025SOL    HW132294   7.082   1.574   5.373 -0.0869 -0.2920 -0.2334
 7025SOL    HW232295   7.218   1.551   5.461  0.0778 -0.5239 -0.5478
 7026SOL     OW32296   1.450   4.700   5.650  0.0490  0.5078 -0.0410
 7026SOL    HW132297   1.372   4.757   5.625  0.3864  1.0122  0.0486
 7026SOL    HW232298   1.486   4.730   5.739 -0.5590 -0.6666  0.6113
 7027SOL     OW32299   3.871   9.044   4.808 -0.5922 -0.3716 -0.1053
 7027SOL    HW132300   3.940   9.046   4.736 -0.4633 -0.5708  0.0104
 7027SOL    HW232301   3.792   8.990   4.778 -1.3562  1.1047 -0.8179
 7028SOL     OW32302   3.674   1.030   3.400  0.6306  0.1741 -0.0278
 7028SOL    HW132303   3.751   1.005   3.341 -0.1261 -1.5926 -0.3143
 7028SOL    HW232304   3.628   0.947   3.432 -1.2251  1.1831  0.0350
 7029SOL     OW32305   7.473   5.194   1.595  0.2061  0.3804 -0.5267
 7029SOL    HW132306   7.528   5.172   1.515  0.8418 -2.2221  0.5549
 7029SOL    HW232307   7.530   5.236   1.665 -0.1638  1.8295 -1.0727
 7030SOL     OW32308   7.764   4.068   5.928 -0.4952 -0.1343 -0.0306
 7030SOL    HW132309   7.758   4.010   5.847 -0.5005  0.0256 -0.1442
 7030SOL    HW232310   7.672   4.083   5.965 -0.7297  1.5446 -1.2329
 7031SOL     OW32311   4.648   2.343   5.100 -0.3046 -0.4672 -0.0260
 7031SOL    HW132312   4.635   2.295   5.187  1.4073 -2.6074 -0.8951
 7031SOL    HW232313   4.623   2.439   5.111 -3.1634 -1.3643  1.9567
 7032SOL     OW32314   5.786   8.943   2.388 -0.3231  0.5942  0.3294
 7032SOL    HW132315   5.690   8.916   2.399  0.1202 -0.8830  0.6575
 7032SOL    HW232316   5.835   8.924   2.473  0.5423  0.1540 -0.2623
 7033SOL     OW32317   8.674   9.171   2.664  0.0440 -0.4902 -0.0638
 7033SOL    HW132318   8.680   9.080   2.704  0.4374  0.3666  1.8897
 7033SOL    HW232319   8.766   9.210   2.656  0.2944 -1.6723 -4.3897
 7034SOL     OW32320   7.126   1.003   6.448 -0.1093 -0.5180  0.2992
 7034SOL    HW132321   7.039   0.978   6.491 -0.1021 -1.1088 -0.0252
 7034SOL    HW232322   7.180   1.058   6.511 -0.1201 -1.3439  1.0281
 7035SOL     OW32323   9.256   6.195   6.438  0.4117 -0.1316 -0.0192
 7035SOL    HW132324   9.341   6.211   6.387  0.4128  0.1025  0.0554
 7035SOL    HW232325   9.186   6.257   6.404  0.6395  0.5931  0.8280
 7036SOL     OW32326   6.164   8.471   4.740  0.0177 -0.3748  0.4881
 7036SOL    HW132327   6.067   8.492   4.729  0.3025  1.6164  1.5294
 7036SOL    HW232328   6.204   8.447   4.651 -0.7288  1.9482 -0.5179
 7037SOL     OW32329   3.912   4.375   4.351  0.4900 -0.1899 -1.1389
 7037SOL    HW132330   3.980   4.328   4.295  1.0311  1.5775 -2.0092
 7037SOL    HW232331   3.908   4.471   4.324  1.0930  0.8255  2.1369
 7038SOL     OW32332   3.108   5.035   0.561 -0.5148 -0.5002 -0.3413
 7038SOL    HW132333   3.187   4.995   0.607 -1.5170 -0.6841  1.2446
 7038SOL    HW232334   3.043   4.963   0.536 -0.2910 -0.3269 -1.4413
 7039SOL     OW32335   5.359   7.118   1.756 -0.1840 -0.4009  0.0789
 7039SOL    HW132336   5.348   7.048   1.686  0.0836  1.1989 -1.5861
 7039SOL    HW232337   5.269   7.152   1.783 -0.2327 -0.1566 -0.3825
 7040SOL     OW32338   1.090   4.278   5.867 -0.3771 -0.1139  0.6132
 7040SOL    HW132339   1.072   4.194   5.814  0.0434 -1.7999  3.0545
 7040SOL    HW232340   1.185   4.307   5.852  0.1314 -1.3174  1.3863
 7041SOL     OW32341   1.274   9.849   5.993  0.0141 -0.3780 -0.1793
 7041SOL    HW132342   1.360   9.842   6.043  0.0725  0.2151 -0.1971
 7041SOL    HW232343   1.231   9.758   5.987  1.3782 -0.9674 -1.4812
 7042SOL     OW32344   3.811   6.559   0.976  0.0346 -0.0774 -0.1759
 7042SOL    HW132345   3.739   6.606   0.926 -0.6596 -0.8536  0.0949
 7042SOL    HW232346   3.855   6.623   1.039 -0.2058  0.4724 -0.5646
 7043SOL     OW32347   3.994   2.114   1.570 -0.0089 -0.8085  0.3342
 7043SOL    HW132348   3.896   2.111   1.587 -0.2259 -1.1162 -0.9488
 7043SOL    HW232349   4.013   2.087   1.476  1.2495  0.0035  0.3415
 7044SOL     OW32350   8.949   0.814   5.599  0.2359  0.3289 -0.1408
 7044SOL    HW132351   8.967   0.808   5.697 -0.6854  2.3894  0.1916
 7044SOL    HW232352   9.030   0.850   5.552 -0.1893  1.8366  0.2447
 7045SOL     OW32353   9.272   8.472   0.996  0.3215  0.4461  0.1024
 7045SOL    HW132354   9.295   8.533   1.072  2.0584  0.1770 -0.1715
 7045SOL    HW232355   9.217   8.395   1.030  0.5597  0.6527  0.9785
 7046SOL     OW32356   8.019   8.866   5.593  0.2324  0.6032  0.0742
 7046SOL    HW132357   8.092   8.807   5.629  1.1705  0.4405 -2.0089
 7046SOL    HW232358   8.029   8.958   5.630  0.1145  0.0359  1.5729
 7047SOL     OW32359   0.343   9.452   3.001 -0.4724 -0.1111  0.7570
 7047SOL    HW132360   0.427   9.467   2.949  0.3582 -2.1284  1.5001
 7047SOL    HW232361   0.273   9.414   2.940 -0.4777  0.4355  0.4157
 7048SOL     OW32362   1.771   8.958   4.289  0.6527 -0.0208  0.3398
 7048SOL    HW132363   1.693   8.903   4.258 -0.0676 -0.0859  2.2494
 7048SOL    HW232364   1.847   8.944   4.226 -0.5092 -0.8253 -0.9204
 7049SOL     OW32365   9.483   5.060   0.941 -0.1651  0.2718  0.0895
 7049SOL    HW132366   9.454   4.968   0.969  2.0665 -0.2250  0.8253
 7049SOL    HW232367   9.437   5.128   0.998 -1.1053 -0.4092  0.1699
 7050SOL     OW32368   1.186   0.532   3.473  0.2889 -0.3240  0.1343
 7050SOL    HW132369   1.087   0.524   3.486 -0.0598  0.6478 -1.6605
 7050SOL    HW232370   1.222   0.447   3.435  0.0868 -0.5723  0.4986
 7051SOL     OW32371   5.190   8.171   2.697  0.4520 -0.6921 -0.5298
 7051SOL    HW132372   5.241   8.243   2.650  0.1515  0.1836  0.4976
 7051SOL    HW232373   5.093   8.192   2.697  0.6211  0.2159  2.0533
 7052SOL     OW32374   6.573   0.764   2.650 -0.1553 -0.4679 -0.5043
 7052SOL    HW132375   6.601   0.696   2.582 -0.4728 -0.1937 -0.9193
 7052SOL    HW232376   6.554   0.851   2.603  0.5579 -0.0030  0.0584
 7053SOL     OW32377   7.871   2.227   3.028  0.5012  0.5489  0.2615
 7053SOL    HW132378   7.815   2.145   3.044  1.9358 -0.4535  0.2960
 7053SOL    HW232379   7.966   2.206   3.050  0.9636  2.0931 -0.2398
 7054SOL     OW32380   2.954   4.146   6.181  0.0113  0.0001 -0.2779
 7054SOL    HW132381   2.895   4.083   6.232 -0.2897 -0.4546 -1.1814
 7054SOL    HW232382   2.899   4.208   6.126  0.3355  0.4893 -0.0553
 7055SOL     OW32383   4.804   0.463   5.934 -0.1044  0.4037 -0.9402
 7055SOL    HW132384   4.741   0.523   5.885  1.6404  1.3949 -2.0158
 7055SOL    HW232385   4.793   0.369   5.903  0.7031  0.9586 -3.0102
 7056SOL     OW32386   7.480   4.022   0.029  0.2727 -0.0228  0.7500
 7056SOL    HW132387   7.386   3.995   0.008 -0.0018  1.6033 -0.1717
 7056SOL    HW232388   7.533   3.941   0.052 -1.4365 -0.9205  1.6137
 7057SOL     OW32389   0.276   9.242   4.757 -0.5819 -0.1123 -0.0424
 7057SOL    HW132390   0.329   9.310   4.807 -0.8505 -0.0994  0.2259
 7057SOL    HW232391   0.292   9.253   4.659  0.0793 -0.2468  0.0475
 7058SOL     OW32392   8.695   9.626   4.481  0.0934 -0.5754 -0.4266
 7058SOL    HW132393   8.793   9.648   4.481 -0.0550  0.0902 -0.3822
 7058SOL    HW232394   8.646   9.693   4.536  0.0110 -2.7552  2.2323
 7059SOL     OW32395   4.547   2.110   6.248  0.1872  0.2400 -0.3410
 7059SOL    HW132396   4.636   2.112   6.292  0.1922 -0.8304 -0.2985
 7059SOL    HW232397   4.521   2.016   6.228 -1.1366  0.5034  0.0518
 7060SOL     OW32398   3.042   4.789   4.884 -0.0413 -0.2591 -0.7745
 7060SOL    HW132399   3.056   4.872   4.937 -0.0028  0.0864 -1.3229
 7060SOL    HW232400   3.115   4.724   4.904 -0.9035 -0.7634  0.8007
 7061SOL     OW32401   3.657   9.513   1.327 -0.0399  0.2673 -0.4468
 7061SOL    HW132402   3.714   9.493   1.247  0.4081  2.2183 -0.6472
 7061SOL    HW232403   3.571   9.553   1.296  0.0348  0.8052  0.0467
 7062SOL     OW32404   6.646   8.708   4.730 -0.3650 -0.0189  0.4123
 7062SOL    HW132405   6.590   8.749   4.803  0.0796  0.6485  0.3839
 7062SOL    HW232406   6.670   8.614   4.755 -0.3900  0.1385  1.0345
 7063SOL     OW32407   9.561   8.243   2.272 -1.3114  0.4525  0.0219
 7063SOL    HW132408   9.589   8.175   2.205  0.8359  0.1079  1.2395
 7063SOL    HW232409   9.535   8.198   2.357 -2.8683  0.9633 -0.1647
 7064SOL     OW32410   8.998   0.381   6.115 -0.1528 -0.1023  0.4119
 7064SOL    HW132411   8.930   0.394   6.042  0.4846 -0.8400 -0.3297
 7064SOL    HW232412   8.967   0.427   6.198 -0.1049  2.1689 -0.7986
 7065SOL     OW32413   8.222   3.722   6.159 -0.2949 -0.5055 -0.1934
 7065SOL    HW132414   8.158   3.686   6.228  0.4930  0.4679  1.0738
 7065SOL    HW232415   8.171   3.772   6.089 -1.0513 -0.9670  0.0188
 7066SOL     OW32416   9.212   6.347   4.214  0.2911  0.2166 -0.1989
 7066SOL    HW132417   9.204   6.445   4.234  0.8641  0.2711 -0.2079
 7066SOL    HW232418   9.299   6.330   4.168  0.0724 -0.2615 -0.4340
 7067SOL     OW32419   1.782   4.539   3.943  0.2384 -0.3988  0.3994
 7067SOL    HW132420   1.726   4.503   4.017  0.8989 -0.5863  0.8159
 7067SOL    HW232421   1.732   4.610   3.894  0.4413  0.9597  2.1233
 7068SOL     OW32422   8.894   4.571   3.753  0.2580  0.3352  0.2925
 7068SOL    HW132423   8.905   4.505   3.678 -0.9692  0.5872 -0.1363
 7068SOL    HW232424   8.971   4.564   3.816 -0.8203 -2.9017  1.3382
 7069SOL     OW32425   5.285   6.162   0.891 -0.2333 -0.0851  0.5543
 7069SOL    HW132426   5.364   6.189   0.947  1.3734 -0.9190 -1.2318
 7069SOL    HW232427   5.226   6.241   0.875  0.8953  0.8342  0.8775
 7070SOL     OW32428   7.817   8.251   2.254 -0.3921 -0.4970  0.2360
 7070SOL    HW132429   7.845   8.221   2.163  1.4724  0.5682  0.4304
 7070SOL    HW232430   7.822   8.350   2.260 -0.6154 -0.5470  1.4509
 7071SOL     OW32431   2.075   3.176   0.030  0.0545 -0.0300  0.2660
 7071SOL    HW132432   2.026   3.104   0.079  0.1849 -1.6442 -1.9250
 7071SOL    HW232433   2.031   3.193  -0.058  1.0441  1.3664  0.0236
 7072SOL     OW32434   8.189   3.433   2.763 -0.5026 -0.7681 -0.3852
 7072SOL    HW132435   8.285   3.454   2.744 -0.7291  0.5173 -0.1358
 7072SOL    HW232436   8.183   3.340   2.801  0.6358 -0.8562 -0.3855
 7073SOL     OW32437   9.030   5.128   1.119 -0.7998  0.0922  0.0826
 7073SOL    HW132438   8.968   5.069   1.172 -1.3379  0.6201  0.0383
 7073SOL    HW232439   9.106   5.158   1.178 -1.2126  0.3956  0.4609
 7074SOL     OW32440   2.182   2.705   6.219  1.1468 -0.0721 -0.0201
 7074SOL    HW132441   2.186   2.658   6.307  2.2969  0.3860  0.1784
 7074SOL    HW232442   2.210   2.642   6.146 -0.2295 -0.5857 -0.1334
 7075SOL     OW32443   4.786   1.359   1.534 -0.0573  0.2227 -0.0848
 7075SOL    HW132444   4.832   1.290   1.478  0.3246  1.2386 -1.0229
 7075SOL    HW232445   4.693   1.328   1.554  0.0728 -0.5177 -0.5960
 7076SOL     OW32446   0.059   9.963   4.922 -0.0736 -0.0391  0.0893
 7076SOL    HW132447   0.148   9.918   4.920 -0.3194 -0.4810 -1.8616
 7076SOL    HW232448   0.072  10.063   4.921  0.3917 -0.1023 -0.1022
 7077SOL     OW32449   0.054   4.567   0.329 -0.0130 -0.2580 -0.4528
 7077SOL    HW132450   0.034   4.496   0.396  1.5809  0.0122  0.3407
 7077SOL    HW232451   0.080   4.524   0.242 -1.7141 -0.6109 -0.7893
 7078SOL     OW32452   1.454   7.036   4.747 -0.4412 -0.3851 -0.3893
 7078SOL    HW132453   1.389   7.013   4.819  1.4728  2.2288  2.2983
 7078SOL    HW232454   1.406   7.038   4.659 -3.1623 -2.1379  0.9649
 7079SOL     OW32455   1.291   8.483   5.354 -0.7604 -0.8304  0.1069
 7079SOL    HW132456   1.230   8.410   5.323 -0.2465 -0.3888 -2.0131
 7079SOL    HW232457   1.385   8.452   5.352 -0.3187  0.4792 -2.8446
 7080SOL     OW32458   7.075   1.972   0.332 -0.2767  0.5731 -0.3949
 7080SOL    HW132459   7.044   2.061   0.298 -1.6602 -0.3437 -1.5888
 7080SOL    HW232460   7.035   1.954   0.421 -0.6726  0.7882 -0.5290
 7081SOL     OW32461   0.877   0.706   6.322 -0.4307  0.1482  0.2662
 7081SOL    HW132462   0.802   0.691   6.257 -0.9372 -0.1878  0.9301
 7081SOL    HW232463   0.941   0.629   6.316  0.2244  0.7519 -0.7762
 7082SOL     OW32464   8.961   4.647   1.590  0.3337 -0.7300 -0.4781
 7082SOL    HW132465   8.877   4.698   1.567  0.4762 -0.3513 -0.1702
 7082SOL    HW232466   8.962   4.628   1.688  0.9602 -0.0842 -0.3507
 7083SOL     OW32467   1.434   5.299   6.668 -0.1484  0.6775  0.3211
 7083SOL    HW132468   1.410   5.281   6.573  0.3240 -1.2804  0.5563
 7083SOL    HW232469   1.413   5.395   6.690  0.0133  1.2296 -1.8165
 7084SOL     OW32470   9.977   6.154   0.987 -0.4480  0.5879 -0.3795
 7084SOL    HW132471   9.899   6.103   0.952 -0.4986  0.2183  0.2637
 7084SOL    HW232472   9.993   6.234   0.929 -1.2674  0.6354 -0.5552
 7085SOL     OW32473   8.508   9.336   4.240  0.4166  0.3532  0.0413
 7085SOL    HW132474   8.506   9.400   4.163  2.2234 -0.2821 -0.5567
 7085SOL    HW232475   8.595   9.346   4.290  0.7042 -1.5928 -0.0341
 7086SOL     OW32476   7.185   9.906   5.101  0.3397  0.0107 -0.2328
 7086SOL    HW132477   7.257   9.952   5.153  0.2347  0.9452 -0.8981
 7086SOL    HW232478   7.106   9.890   5.161 -0.6011  2.9773 -0.5943
 7087SOL     OW32479   0.154   0.880   3.773 -0.0587  1.1442  0.1804
 7087SOL    HW132480   0.132   0.910   3.680  2.7909  2.4039 -0.1217
 7087SOL    HW232481   0.190   0.786   3.770 -1.9006  0.4043  0.2889
 7088SOL     OW32482   2.366   5.452   2.558 -0.0181 -0.0944 -0.0941
 7088SOL    HW132483   2.304   5.377   2.583  0.9797 -0.0040  2.9416
 7088SOL    HW232484   2.457   5.414   2.539  0.3223  0.2536  0.7965
 7089SOL     OW32485   8.103   1.806   4.294  0.0553  0.1464  0.2660
 7089SOL    HW132486   8.022   1.748   4.281 -1.1131  1.7560  0.3072
 7089SOL    HW232487   8.084   1.874   4.365  1.3911  0.6334  0.1568
 7090SOL     OW32488   6.509   2.559   3.914  0.1984  0.0327 -0.2198
 7090SOL    HW132489   6.577   2.535   3.983 -0.9657  0.7617  1.1808
 7090SOL    HW232490   6.475   2.651   3.930 -0.9677 -0.2401 -1.0419
 7091SOL     OW32491   5.887   8.775   3.267 -0.3068  0.0920  0.2036
 7091SOL    HW132492   5.898   8.680   3.296  1.4182 -0.1757 -1.2559
 7091SOL    HW232493   5.807   8.783   3.208  0.7110 -0.8715 -1.3423
 7092SOL     OW32494   0.349   2.113   1.081 -0.3679 -0.1417  0.1768
 7092SOL    HW132495   0.297   2.186   1.038 -0.8337 -0.0691  0.8528
 7092SOL    HW232496   0.288   2.039   1.108  0.2600 -1.3612 -1.6388
 7093SOL     OW32497   2.497   6.208   5.034 -0.8257 -0.3238  0.2111
 7093SOL    HW132498   2.458   6.270   4.966 -3.8245 -1.2368  1.0321
 7093SOL    HW232499   2.563   6.257   5.091  1.0177  0.6695 -2.7179
 7094SOL     OW32500   8.710   7.430   0.482 -0.6245 -0.0510  0.0762
 7094SOL    HW132501   8.799   7.424   0.438 -0.9427  0.5735 -0.6682
 7094SOL    HW232502   8.712   7.381   0.569  1.3385  2.5088  1.5379
 7095SOL     OW32503   6.743   0.606   1.245 -0.5775 -0.5618  0.1571
 7095SOL    HW132504   6.834   0.567   1.236  0.2283  1.8024 -3.2351
 7095SOL    HW232505   6.674   0.536   1.229  0.6734 -1.9121  0.6115
 7096SOL     OW32506   8.626   4.463   4.912 -0.6132  0.3021  0.6705
 7096SOL    HW132507   8.677   4.479   4.997  0.4378  0.8749 -0.0591
 7096SOL    HW232508   8.598   4.550   4.872  0.6683  0.1581 -0.6175
 7097SOL     OW32509   4.134   9.869   6.237 -0.4682  0.1285  0.7957
 7097SOL    HW132510   4.141   9.969   6.235  0.6608  0.0719  1.1590
 7097SOL    HW232511   4.117   9.839   6.331  0.1582 -0.0661  0.8508
 7098SOL     OW32512   9.315   7.706   5.633  0.2141  0.3375 -0.1948
 7098SOL    HW132513   9.352   7.756   5.711  1.5939  0.9025 -1.1883
 7098SOL    HW232514   9.390   7.662   5.584 -1.0785 -4.3383  1.7074
 7099SOL     OW32515   0.218   3.790   4.067  0.5164 -0.1004  0.3482
 7099SOL    HW132516   0.304   3.835   4.042  0.8046 -0.6341  0.3580
 7099SOL    HW232517   0.147   3.814   4.002  0.9602 -0.5385 -0.3095
 7100SOL     OW32518   9.359   7.168   6.012 -0.0668  0.4658 -0.2395
 7100SOL    HW132519   9.381   7.254   5.967  0.1543  0.1454 -0.7453
 7100SOL    HW232520   9.436   7.140   6.070  0.2484  0.1194 -0.8241
 7101SOL     OW32521   4.372   9.686   4.058 -0.2898  0.1546  0.3628
 7101SOL    HW132522   4.408   9.745   3.986 -1.9501  0.4065 -0.2774
 7101SOL    HW232523   4.356   9.594   4.021  2.6208 -0.8500  1.4421
 7102SOL     OW32524   4.317   0.311   1.956 -0.3580 -0.5783 -0.3832
 7102SOL    HW132525   4.408   0.321   1.996 -0.2029 -1.0168 -0.6172
 7102SOL    HW232526   4.260   0.389   1.982  0.9221  1.1035 -2.4550
 7103SOL     OW32527   9.770   3.095   1.475 -0.3214 -0.0352  0.2254
 7103SOL    HW132528   9.756   2.999   1.500 -0.7419 -0.4739 -1.6214
 7103SOL    HW232529   9.867   3.118   1.486 -0.5400 -0.1218  2.4683
 7104SOL     OW32530   7.769   4.195   2.473 -0.0102 -0.2213  0.4533
 7104SOL    HW132531   7.846   4.187   2.410  0.4974 -0.0791  1.0564
 7104SOL    HW232532   7.699   4.128   2.448 -0.2936  0.5761 -0.9386
 7105SOL     OW32533   4.975   3.944   1.984 -0.0158  0.2030  0.2245
 7105SOL    HW132534   5.005   4.016   1.921  0.9437 -0.5641 -0.2220
 7105SOL    HW232535   5.027   3.952   2.069  0.0331  0.0934  0.2047
 7106SOL     OW32536   4.111   9.460   5.199 -0.6612  0.1195  0.2099
 7106SOL    HW132537   4.152   9.402   5.270 -0.3124  0.0033 -0.0842
 7106SOL    HW232538   4.103   9.408   5.114 -1.1168  0.2483  0.1766
 7107SOL     OW32539   3.817   9.053   3.970 -0.1639 -0.0436  0.3298
 7107SOL    HW132540   3.752   9.075   3.897  1.6199  0.1846 -1.2340
 7107SOL    HW232541   3.869   8.972   3.944 -1.0384 -1.2853  2.3785
 7108SOL     OW32542   8.636   1.502   1.420  0.2720  0.3786 -0.1420
 7108SOL    HW132543   8.710   1.531   1.481  1.0603 -0.0163 -0.9011
 7108SOL    HW232544   8.675   1.454   1.342 -0.7130  1.1756 -1.1265
 7109SOL     OW32545   6.894   7.220   3.409 -0.1178 -0.0442 -0.5704
 7109SOL    HW132546   6.974   7.277   3.395 -0.6323  0.7992 -0.1378
 7109SOL    HW232547   6.912   7.154   3.482  0.5026 -0.4842 -1.1223
 7110SOL     OW32548   9.958   1.927   3.406 -0.3295  0.5177 -0.0269
 7110SOL    HW132549   9.911   1.881   3.331  1.0408  0.1590 -0.6946
 7110SOL    HW232550  10.057   1.916   3.394 -0.1224 -0.9958  2.7591
 7111SOL     OW32551   1.259   5.997   2.486  0.0214 -0.1587  0.0735
 7111SOL    HW132552   1.300   6.082   2.452 -0.9867  0.2830 -0.0342
 7111SOL    HW232553   1.166   5.988   2.451 -0.2651 -0.7736  0.9727
 7112SOL     OW32554   9.417   4.209   6.416  0.0060 -0.3224  0.2884
 7112SOL    HW132555   9.492   4.148   6.392 -1.4537 -1.6597 -0.9564
 7112SOL    HW232556   9.332   4.157   6.422 -0.9050  1.2424  1.2737
 7113SOL     OW32557   7.391   5.233   5.821 -0.1578 -0.1023 -0.3076
 7113SOL    HW132558   7.436   5.196   5.903  0.7153 -0.7321 -1.0679
 7113SOL    HW232559   7.459   5.250   5.750 -0.3997  3.6660  0.2352
 7114SOL     OW32560   8.748   1.822   2.100  0.1440 -0.6623 -0.2867
 7114SOL    HW132561   8.824   1.887   2.105 -0.9377  0.7302 -1.4588
 7114SOL    HW232562   8.663   1.868   2.124 -0.5322 -1.8659 -0.3285
 7115SOL     OW32563   9.101   8.425   2.636  0.4898  0.4313  0.4427
 7115SOL    HW132564   9.181   8.377   2.600  0.1070  0.1225 -0.0120
 7115SOL    HW232565   9.071   8.381   2.721 -0.7158 -1.0546 -0.7111
 7116SOL     OW32566   1.328   2.783   2.232  0.2628  0.0271 -0.2369
 7116SOL    HW132567   1.345   2.867   2.180  0.2206 -0.2554 -0.7110
 7116SOL    HW232568   1.378   2.707   2.191 -0.5871 -0.4103 -0.4776
 7117SOL     OW32569   9.944   8.138   2.124 -0.1817 -0.1324  0.1081
 7117SOL    HW132570   9.921   8.161   2.029  0.6009  1.4835  0.2840
 7117SOL    HW232571  10.021   8.075   2.125 -0.7432 -0.8384 -0.3439
 7118SOL     OW32572   8.936   6.116   1.397  0.4564  0.0145 -0.2641
 7118SOL    HW132573   9.019   6.136   1.448  0.5175  1.4716 -0.9182
 7118SOL    HW232574   8.859   6.167   1.436  0.0049 -0.7919 -0.0887
 7119SOL     OW32575   3.010   1.659   1.008  0.2432  0.0259 -0.7607
 7119SOL    HW132576   3.085   1.688   0.948  1.4598 -1.7001 -0.1192
 7119SOL    HW232577   2.928   1.642   0.954  0.9575 -0.2650 -1.7730
 7120SOL     OW32578   8.776   7.503   5.317  0.2461  0.0862 -0.0059
 7120SOL    HW132579   8.817   7.493   5.227  2.7709  1.3216  0.9455
 7120SOL    HW232580   8.848   7.509   5.386 -1.4400  3.5767  1.6373
 7121SOL     OW32581   7.695   3.113   3.572  0.5337 -0.1253 -0.0376
 7121SOL    HW132582   7.642   3.054   3.511 -0.1839 -0.6082  1.0462
 7121SOL    HW232583   7.762   3.165   3.518  0.6662 -1.3688 -1.0879
 7122SOL     OW32584   8.157   1.276   1.934 -0.1330  0.2413  0.5570
 7122SOL    HW132585   8.076   1.327   1.908  0.3738  1.7520  1.8728
 7122SOL    HW232586   8.233   1.339   1.951  0.1189 -0.7908  3.6119
 7123SOL     OW32587   1.339   8.860   1.614 -0.8163  0.3361  0.1229
 7123SOL    HW132588   1.245   8.887   1.635 -1.6058  1.0160 -3.9165
 7123SOL    HW232589   1.338   8.779   1.555  1.2640 -1.2876  2.2050
 7124SOL     OW32590   0.876   3.387   5.370  0.2943  0.5130  0.0500
 7124SOL    HW132591   0.927   3.355   5.450  2.4338 -1.8809 -2.1983
 7124SOL    HW232592   0.926   3.462   5.327 -0.2137  0.9501  0.2177
 7125SOL     OW32593   9.243   0.569   2.176  0.5775  0.2191 -0.3000
 7125SOL    HW132594   9.154   0.525   2.164  1.1568 -0.8881 -0.4763
 7125SOL    HW232595   9.289   0.578   2.088  0.7750  0.5319 -0.1692
 7126SOL     OW32596   2.196   5.934   1.093 -0.1869 -0.2742  0.0275
 7126SOL    HW132597   2.137   5.878   1.151 -1.3592  0.9491  0.0362
 7126SOL    HW232598   2.173   5.918   0.997  1.7156 -2.2568 -0.1304
 7127SOL     OW32599   0.432   4.546   5.327 -0.1940 -0.5614  0.0222
 7127SOL    HW132600   0.355   4.579   5.272 -0.1867 -1.2200 -0.3947
 7127SOL    HW232601   0.506   4.613   5.323 -0.7145  0.0366  0.3617
 7128SOL     OW32602   9.422   1.343   2.167  0.6194  0.4176 -0.2785
 7128SOL    HW132603   9.443   1.283   2.245 -1.0678  0.7008  0.4220
 7128SOL    HW232604   9.472   1.311   2.086  2.3806  0.1111  0.8984
 7129SOL     OW32605   7.090   2.491   5.730  0.7066 -0.2166 -0.2981
 7129SOL    HW132606   7.012   2.510   5.670 -1.3946  2.3773  3.0897
 7129SOL    HW232607   7.075   2.406   5.779  0.3029 -0.0920 -0.1984
 7130SOL     OW32608   1.910   7.960   6.200  0.1131  0.1693  0.2887
 7130SOL    HW132609   1.819   7.932   6.170  0.2602 -0.4787  0.4357
 7130SOL    HW232610   1.970   7.972   6.121  0.2528 -0.6642  0.2618
 7131SOL     OW32611   4.810   0.857   4.958  0.4196  0.1737 -0.5526
 7131SOL    HW132612   4.887   0.859   4.894  0.6625  2.2679 -0.2270
 7131SOL    HW232613   4.828   0.920   5.034 -1.1266 -0.1504  0.0947
 7132SOL     OW32614   0.363   5.735   3.602 -0.5004  0.2202  0.3286
 7132SOL    HW132615   0.385   5.638   3.589 -0.7499  0.3979 -1.6798
 7132SOL    HW232616   0.377   5.760   3.697 -0.1698 -1.7281  0.8191
 7133SOL     OW32617   3.099   0.159   1.676 -0.2537 -0.0962 -0.2580
 7133SOL    HW132618   3.042   0.163   1.594  1.2174 -3.1445 -1.5168
 7133SOL    HW232619   3.040   0.147   1.756 -1.5062 -1.2864 -1.3339
 7134SOL     OW32620   4.742   7.549   3.375 -0.9080  0.1385  0.8541
 7134SOL    HW132621   4.841   7.534   3.379 -0.8226  0.9784  2.4571
 7134SOL    HW232622   4.707   7.564   3.468 -2.3931  0.8247  0.1990
 7135SOL     OW32623   5.858   7.970   4.939  0.2199 -0.2124  0.3722
 7135SOL    HW132624   5.804   7.886   4.931  0.9748 -0.7520  0.8216
 7135SOL    HW232625   5.944   7.949   4.985 -0.1166  1.0551  1.6025
 7136SOL     OW32626   9.657   5.723   5.851 -0.1914  0.4265 -0.1918
 7136SOL    HW132627   9.642   5.687   5.943 -0.0692 -0.3333 -0.4627
 7136SOL    HW232628   9.570   5.759   5.815 -0.1484  1.1064  0.3759
 7137SOL     OW32629   1.270   3.877   5.307  0.0163  0.8006  0.1394
 7137SOL    HW132630   1.193   3.925   5.266 -0.7051 -1.6419 -1.4440
 7137SOL    HW232631   1.284   3.790   5.261  3.4641  0.9823  0.6889
 7138SOL     OW32632   7.816   5.559   6.710  0.5576 -0.0488 -0.8537
 7138SOL    HW132633   7.902   5.608   6.695  0.8589 -0.2696  0.1363
 7138SOL    HW232634   7.835   5.463   6.731  0.2291  0.4467  1.9194
 7139SOL     OW32635   1.809   6.063   5.465 -0.2830  0.3211  0.4809
 7139SOL    HW132636   1.808   6.023   5.556 -1.4044 -1.6312 -0.3506
 7139SOL    HW232637   1.813   5.990   5.397  1.6795  1.7729 -1.0272
 7140SOL     OW32638   0.581   3.077   2.624 -0.0706 -0.0199  0.1836
 7140SOL    HW132639   0.568   2.981   2.645 -1.0001  0.0213 -0.1766
 7140SOL    HW232640   0.616   3.087   2.531 -2.5518  0.0881 -0.7822
 7141SOL     OW32641   2.647   1.477   1.548  0.4591 -0.6612 -0.4581
 7141SOL    HW132642   2.555   1.480   1.588  0.2804  0.0681 -0.9153
 7141SOL    HW232643   2.680   1.570   1.532  0.9726 -0.9295 -0.9885
 7142SOL     OW32644   3.091   8.780   1.478 -0.1198 -0.2543 -0.1176
 7142SOL    HW132645   3.081   8.875   1.507  0.8609 -0.1950  0.0471
 7142SOL    HW232646   3.001   8.738   1.471 -0.3944 -0.3908  3.4017
 7143SOL     OW32647   4.414   0.493   6.042 -0.2511  0.5003  0.4067
 7143SOL    HW132648   4.425   0.531   5.950 -0.1373 -0.4337  0.0310
 7143SOL    HW232649   4.422   0.394   6.038 -2.4179  0.2589  1.0930
 7144SOL     OW32650   8.965   7.090   6.363 -0.2042 -0.4924 -0.1270
 7144SOL    HW132651   9.048   7.126   6.320 -0.6276 -0.1235 -0.6361
 7144SOL    HW232652   8.901   7.059   6.293 -0.6661 -0.4021  0.2526
 7145SOL     OW32653   2.397   7.270   2.907  0.1471 -0.2060  0.0055
 7145SOL    HW132654   2.386   7.313   2.818  0.2929 -0.9249 -0.3673
 7145SOL    HW232655   2.389   7.339   2.979  0.3843  0.4382 -0.5782
 7146SOL     OW32656   3.736   3.824   2.449 -0.1198 -0.2432 -0.3883
 7146SOL    HW132657   3.767   3.731   2.467  1.5488  0.2297 -0.6954
 7146SOL    HW232658   3.759   3.850   2.355 -2.3441 -0.1944 -0.9517
 7147SOL     OW32659   9.003   1.792   1.805 -0.1834  0.5285 -0.0588
 7147SOL    HW132660   9.066   1.715   1.797  0.9681  1.4496 -0.0300
 7147SOL    HW232661   9.005   1.827   1.899  1.0563  2.0464 -0.6273
 7148SOL     OW32662   6.133   1.356   4.406  0.0016 -0.3343 -0.1512
 7148SOL    HW132663   6.210   1.307   4.366  0.3822  0.9404 -0.9981
 7148SOL    HW232664   6.127   1.334   4.504  0.3024 -1.8706 -0.4628
 7149SOL     OW32665   9.652   5.209   5.648  0.8528  0.0509 -0.6786
 7149SOL    HW132666   9.661   5.135   5.581  0.3447 -1.5879  1.0302
 7149SOL    HW232667   9.634   5.295   5.600 -1.3568 -1.4077 -2.5618
 7150SOL     OW32668   0.659   3.138   4.411  0.6377 -0.4422 -0.0469
 7150SOL    HW132669   0.621   3.068   4.350 -0.1548 -1.5823  1.7046
 7150SOL    HW232670   0.744   3.105   4.450  0.8246  0.0302 -0.0611
 7151SOL     OW32671   8.572   7.887   2.745 -0.0585 -0.3741  0.1477
 7151SOL    HW132672   8.646   7.930   2.693  0.4182 -1.3619 -0.0064
 7151SOL    HW232673   8.604   7.800   2.784 -0.3367  0.4467  2.2915
 7152SOL     OW32674   9.125   0.037   4.681  0.0636  0.2469 -0.4533
 7152SOL    HW132675   9.107  -0.020   4.761  3.9282  2.0064  1.7836
 7152SOL    HW232676   9.198  -0.004   4.627 -0.3951  0.6765 -1.4053
 7153SOL     OW32677   7.873   1.932   1.526 -0.8461  0.6358 -0.2109
 7153SOL    HW132678   7.971   1.920   1.514 -0.6611  2.0213 -0.1602
 7153SOL    HW232679   7.848   1.912   1.620 -0.4970  0.9376 -0.0519
 7154SOL     OW32680   0.308   2.358   6.357  0.6163 -0.4185 -0.0691
 7154SOL    HW132681   0.341   2.278   6.409  2.5779  0.1567 -0.3637
 7154SOL    HW232682   0.293   2.332   6.262  2.3318 -0.2215 -0.4223
 7155SOL     OW32683   2.494   9.093   4.293 -0.1090  0.5566 -0.4113
 7155SOL    HW132684   2.591   9.109   4.273  0.4622 -0.5211  1.3023
 7155SOL    HW232685   2.438   9.158   4.242  1.4542  0.5755 -2.1757
 7156SOL     OW32686   6.807   4.244   0.431  0.0364  0.4062  0.0790
 7156SOL    HW132687   6.808   4.168   0.366 -2.7363  1.8270 -1.7386
 7156SOL    HW232688   6.866   4.318   0.397 -0.5311  0.7019 -0.2705
 7157SOL     OW32689   5.553   2.658   3.588 -0.3003  0.7861 -0.0029
 7157SOL    HW132690   5.557   2.736   3.650 -1.1245  0.3980  0.5401
 7157SOL    HW232691   5.590   2.685   3.499  0.1991  1.5544  0.4290
 7158SOL     OW32692   9.590   2.823   1.366 -0.5767 -0.4266  0.3699
 7158SOL    HW132693   9.545   2.885   1.431 -3.1795  0.1728 -1.9060
 7158SOL    HW232694   9.661   2.873   1.317 -1.4834  0.3022 -0.2194
 7159SOL     OW32695   7.416   2.104   2.191 -0.3139  0.0658 -0.6855
 7159SOL    HW132696   7.321   2.120   2.216 -0.5047 -1.0161 -0.6777
 7159SOL    HW232697   7.471   2.184   2.214 -1.3437  0.9841 -1.3425
 7160SOL     OW32698   4.293   0.487   0.803  0.3870  0.0981 -0.4379
 7160SOL    HW132699   4.335   0.567   0.844  4.0829 -0.9275 -2.0140
 7160SOL    HW232700   4.302   0.409   0.865 -3.0390  0.7779  1.0156
 7161SOL     OW32701   2.749   2.521   4.810  0.5775  0.2482  0.1298
 7161SOL    HW132702   2.674   2.466   4.845 -0.0467  1.4356  0.7142
 7161SOL    HW232703   2.782   2.582   4.883  1.9212 -0.0561 -0.2016
 7162SOL     OW32704   0.422   3.375   6.200 -0.0051 -0.3265 -0.3039
 7162SOL    HW132705   0.344   3.432   6.227  1.5543  1.6974  0.1151
 7162SOL    HW232706   0.462   3.411   6.116  2.3104  0.5621  1.1190
 7163SOL     OW32707   1.035   6.003   5.840 -0.3812  0.0934 -0.2392
 7163SOL    HW132708   1.125   6.046   5.830  1.2626 -3.2456 -0.2162
 7163SOL    HW232709   0.964   6.067   5.810  2.0389  2.4622 -1.0682
 7164SOL     OW32710   9.145   6.058   5.251  0.2966 -0.4518 -0.1984
 7164SOL    HW132711   9.189   6.074   5.163  0.1165  0.1178 -0.1851
 7164SOL    HW232712   9.112   5.963   5.255 -0.5459 -0.2080 -1.1214
 7165SOL     OW32713   6.897   6.368   5.207  0.1952 -0.6393  0.2515
 7165SOL    HW132714   6.855   6.284   5.172  1.1291 -0.5468 -1.1487
 7165SOL    HW232715   6.996   6.359   5.205  0.3145  0.5978 -0.1937
 7166SOL     OW32716   5.523   8.453   3.422  0.0070  0.0477 -0.0027
 7166SOL    HW132717   5.585   8.530   3.406  0.1198  0.7378  3.2739
 7166SOL    HW232718   5.430   8.480   3.400 -0.1240  1.6114  2.2276
 7167SOL     OW32719   7.751   2.471   6.117 -0.0263  0.1903 -0.0369
 7167SOL    HW132720   7.681   2.405   6.144  0.0414 -0.5017 -1.4976
 7167SOL    HW232721   7.778   2.525   6.197 -1.4140 -0.2820  0.7850
 7168SOL     OW32722   8.308   5.333   3.342  0.6473 -0.2715  0.0217
 7168SOL    HW132723   8.327   5.278   3.261 -0.3601 -0.3247 -0.1809
 7168SOL    HW232724   8.258   5.278   3.409  0.8178 -0.0002  0.3762
 7169SOL     OW32725   4.299   5.224   2.513  0.3035  0.4249  0.0493
 7169SOL    HW132726   4.226   5.162   2.484  0.0300  1.0241 -0.5568
 7169SOL    HW232727   4.335   5.273   2.434  1.3961  0.1161  0.3353
 7170SOL     OW32728   1.266   0.082   3.004 -0.2851  0.1324  0.0566
 7170SOL    HW132729   1.349   0.104   3.054 -0.2338  0.3259 -0.1115
 7170SOL    HW232730   1.188   0.081   3.066 -0.1053 -0.4013  0.2809
 7171SOL     OW32731   0.669   4.434   2.844  0.1307  0.1926 -0.1475
 7171SOL    HW132732   0.684   4.501   2.772  1.6564  0.3921  0.3495
 7171SOL    HW232733   0.679   4.342   2.806 -0.4532  0.2661 -0.4891
 7172SOL     OW32734   2.492   0.790   5.765 -0.2351  0.5912  0.0489
 7172SOL    HW132735   2.407   0.752   5.728 -0.2032  3.0715 -2.7597
 7172SOL    HW232736   2.570   0.752   5.717  0.2257 -0.9403  1.9613
 7173SOL     OW32737   8.826   1.860   2.986 -0.2937 -0.3214  0.5178
 7173SOL    HW132738   8.839   1.957   3.003 -0.4812 -0.5546  2.0196
 7173SOL    HW232739   8.915   1.815   2.983 -0.1763 -0.0152 -0.7419
 7174SOL     OW32740   9.785   2.753   5.020  0.5737  0.0669 -0.4861
 7174SOL    HW132741   9.766   2.759   5.118  1.6339 -0.9333 -0.2055
 7174SOL    HW232742   9.719   2.692   4.977 -0.0300  0.6816 -0.4380
 7175SOL     OW32743   5.334   4.190   0.638 -0.2859  0.1234 -0.2705
 7175SOL    HW132744   5.360   4.276   0.594 -0.4127  0.3845  0.1654
 7175SOL    HW232745   5.407   4.123   0.625  0.3428  0.6700  0.4307
 7176SOL     OW32746   1.813   1.657   5.635 -0.6042  0.0594 -0.0200
 7176SOL    HW132747   1.768   1.603   5.706  1.3437  1.9469  2.7394
 7176SOL    HW232748   1.769   1.747   5.628  2.3163  1.7691  2.4169
 7177SOL     OW32749   8.918   2.040   0.852  0.1003 -0.1769  0.5589
 7177SOL    HW132750   8.990   1.985   0.810 -1.8952 -2.8070  0.5112
 7177SOL    HW232751   8.956   2.088   0.932  2.1848 -0.5791 -0.1637
 7178SOL     OW32752   7.759   6.342   0.719  0.1300  0.1983  0.7427
 7178SOL    HW132753   7.778   6.271   0.651  0.9433  0.3982  0.7515
 7178SOL    HW232754   7.798   6.429   0.688  0.8740  0.1980  1.6565
 7179SOL     OW32755   9.439   0.475   2.590 -0.3215 -0.5756  1.1762
 7179SOL    HW132756   9.360   0.527   2.556 -0.1773 -1.2668 -0.2443
 7179SOL    HW232757   9.461   0.402   2.525  0.8710 -1.0116  2.0620
 7180SOL     OW32758   1.770   4.403   5.922 -0.2014 -0.1402  0.6862
 7180SOL    HW132759   1.684   4.400   5.973 -0.8221  0.7983 -0.2875
 7180SOL    HW232760   1.808   4.495   5.927 -0.0473 -0.1548 -0.1764
 7181SOL     OW32761   6.627   1.448   6.101  0.0841  0.1129  0.0826
 7181SOL    HW132762   6.541   1.398   6.086  0.2018  0.1768 -0.8474
 7181SOL    HW232763   6.703   1.394   6.064  0.6434 -0.6831  2.3388
 7182SOL     OW32764   9.359   1.973   3.123 -0.2419 -0.1730  0.3532
 7182SOL    HW132765   9.278   2.000   3.175 -0.6918  1.4063 -1.1558
 7182SOL    HW232766   9.332   1.915   3.046  0.2063 -0.7536  0.6274
 7183SOL     OW32767   0.429   2.200   0.682  0.1405 -0.1846  0.3713
 7183SOL    HW132768   0.485   2.255   0.620  0.0833 -0.6520 -0.0974
 7183SOL    HW232769   0.443   2.231   0.776 -0.5919  1.2316  0.0183
 7184SOL     OW32770   0.723   9.498   0.934  0.8489  0.4845  0.3305
 7184SOL    HW132771   0.789   9.499   0.859  2.6160 -0.6828  1.8191
 7184SOL    HW232772   0.678   9.408   0.937  0.8261  0.5074  0.6869
 7185SOL     OW32773   9.393   5.855   5.769  0.0085  0.1958 -0.4721
 7185SOL    HW132774   9.358   5.891   5.856  1.5765 -0.5351  0.4707
 7185SOL    HW232775   9.424   5.931   5.712  0.0321  0.5954  0.0668
 7186SOL     OW32776   3.288   7.270   4.513 -0.2431  1.2124  0.1069
 7186SOL    HW132777   3.237   7.338   4.565 -0.8575  1.3517 -0.6587
 7186SOL    HW232778   3.241   7.182   4.520 -0.4042  1.2621 -0.3117
 7187SOL     OW32779   6.262   8.010   4.639  0.0825 -0.4676 -0.0290
 7187SOL    HW132780   6.182   8.070   4.635  0.0301 -0.3626  2.2244
 7187SOL    HW232781   6.319   8.025   4.559  0.0782  2.5990  0.5143
 7188SOL     OW32782   9.599   5.927   6.106  0.4738 -0.5555  0.0608
 7188SOL    HW132783   9.520   5.970   6.062  1.1491 -0.2995 -0.9218
 7188SOL    HW232784   9.604   5.831   6.080  0.8891 -0.3977 -0.4463
 7189SOL     OW32785   7.178   0.506   5.903  0.0475 -0.2132 -0.3700
 7189SOL    HW132786   7.239   0.585   5.897 -1.2613  0.9890  1.6128
 7189SOL    HW232787   7.222   0.436   5.959 -0.7303  1.0176  1.8294
 7190SOL     OW32788   1.025   7.878   5.263 -0.4802  0.1992  0.0732
 7190SOL    HW132789   0.973   7.936   5.201 -0.7706 -0.0372  0.0956
 7190SOL    HW232790   1.080   7.814   5.210  0.5767  1.1340  0.0322
 7191SOL     OW32791   9.834   6.093   2.217  0.2783  0.6758  0.3611
 7191SOL    HW132792   9.789   6.069   2.303  0.1169  0.0962  0.1180
 7191SOL    HW232793   9.931   6.108   2.233  0.3277  0.1309  0.5694
 7192SOL     OW32794   2.880   6.287   5.344  0.0211 -0.4000 -0.0047
 7192SOL    HW132795   2.916   6.194   5.332 -0.0019 -0.4553  0.3688
 7192SOL    HW232796   2.898   6.340   5.261 -0.9669 -1.0726 -0.6604
 7193SOL     OW32797   6.858   7.164   4.240 -0.0924 -0.3440  0.9740
 7193SOL    HW132798   6.812   7.170   4.329 -0.4479  0.1259  0.7591
 7193SOL    HW232799   6.928   7.092   4.244 -0.3786 -0.6008  1.5114
 7194SOL     OW32800   9.011   7.324   6.196 -0.1598 -0.0000 -0.3313
 7194SOL    HW132801   8.991   7.349   6.291  0.5894  0.2940 -0.2506
 7194SOL    HW232802   9.067   7.395   6.154 -0.9970  0.1627 -1.1812
 7195SOL     OW32803   9.011   3.241   1.910 -0.5084 -0.3612  0.2865
 7195SOL    HW132804   9.107   3.267   1.917 -0.7966  0.4538  1.2474
 7195SOL    HW232805   8.997   3.154   1.958 -0.6826  0.6316  2.0588
 7196SOL     OW32806   9.259   2.779   2.571 -0.4513  0.4061 -0.6175
 7196SOL    HW132807   9.259   2.732   2.659 -1.0516  0.9034 -0.3546
 7196SOL    HW232808   9.194   2.854   2.572  0.9311  1.6365 -0.8452
 7197SOL     OW32809   5.526   2.340   3.377 -0.0308 -0.6561  0.1485
 7197SOL    HW132810   5.560   2.260   3.328  0.9148  0.2626 -0.7384
 7197SOL    HW232811   5.428   2.350   3.360  0.3778 -0.0367 -2.0792
 7198SOL     OW32812   4.768   9.360   4.666 -0.2018  0.2561  0.2486
 7198SOL    HW132813   4.727   9.305   4.593 -1.5218  0.4627  0.8254
 7198SOL    HW232814   4.767   9.308   4.751  0.8141  0.2376  0.2572
 7199SOL     OW32815   1.529   9.819   6.095  0.2426  0.0233 -0.5669
 7199SOL    HW132816   1.502   9.790   6.186 -0.3822 -0.2707 -0.8393
 7199SOL    HW232817   1.563   9.912   6.098 -1.4734  0.6711 -0.3145
 7200SOL     OW32818   2.887   9.663   4.481 -0.3838 -0.0591  0.3593
 7200SOL    HW132819   2.793   9.639   4.508 -1.0014 -0.9384 -2.4340
 7200SOL    HW232820   2.904   9.759   4.503 -1.7030 -0.0666  1.5037
 7201SOL     OW32821   2.192   2.282   3.625 -0.1844  0.0703 -0.0249
 7201SOL    HW132822   2.183   2.374   3.586 -0.7225 -0.4705 -1.2041
 7201SOL    HW232823   2.234   2.221   3.558  0.8722 -0.3795  1.0205
 7202SOL     OW32824   7.936   0.241   2.010  0.3255  0.3179 -0.1551
 7202SOL    HW132825   7.853   0.296   2.021 -2.2696 -3.4208  0.0902
 7202SOL    HW232826   7.956   0.231   1.912  0.9849  1.8870 -0.1917
 7203SOL     OW32827   8.784   9.899   2.181  0.0881  0.1691  0.4814
 7203SOL    HW132828   8.879   9.871   2.165 -0.2156 -0.9631  0.6478
 7203SOL    HW232829   8.782   9.994   2.213  1.2013  0.0067  1.0359
 7204SOL     OW32830   0.742   7.125   6.149  0.5370  0.0760  0.8259
 7204SOL    HW132831   0.768   7.118   6.053 -0.5771  2.6124  0.2954
 7204SOL    HW232832   0.823   7.115   6.206  1.3179 -0.7108 -0.3827
 7205SOL     OW32833   1.362   3.356   0.809  0.3169 -0.2492 -0.1387
 7205SOL    HW132834   1.399   3.399   0.892 -0.4696 -0.4427  0.3157
 7205SOL    HW232835   1.275   3.311   0.831 -0.9917  1.5306 -1.5388
 7206SOL     OW32836   2.105   5.113   6.304  0.0612  0.1979  0.0691
 7206SOL    HW132837   2.124   5.078   6.212  0.0100  0.0312  0.1209
 7206SOL    HW232838   2.146   5.203   6.315  2.2314 -0.8308  0.7110
 7207SOL     OW32839   0.148   4.762   4.049 -0.3532 -0.1561 -0.1474
 7207SOL    HW132840   0.107   4.700   3.981 -0.7403  0.3039 -0.3290
 7207SOL    HW232841   0.224   4.811   4.006 -2.6621  2.5971 -1.2405
 7208SOL     OW32842   4.307   5.469   2.653 -0.0421  0.7198 -0.2402
 7208SOL    HW132843   4.277   5.378   2.624  1.5925  0.7003 -1.9174
 7208SOL    HW232844   4.269   5.489   2.743 -0.3214 -1.6663  0.2034
 7209SOL     OW32845   3.385   8.140   0.304  0.4020 -0.1232  0.0884
 7209SOL    HW132846   3.431   8.108   0.387  0.2448  0.8572  0.5670
 7209SOL    HW232847   3.331   8.222   0.326 -0.7061 -0.6400 -0.6967
 7210SOL     OW32848   2.381   6.717   4.610  0.1528  0.0702 -0.2409
 7210SOL    HW132849   2.432   6.785   4.663  0.2617  0.5876 -1.0109
 7210SOL    HW232850   2.446   6.654   4.566  0.1216  0.5786 -1.0197
 7211SOL     OW32851   0.668   9.151   6.166  0.4630  0.4594  0.2259
 7211SOL    HW132852   0.709   9.100   6.091  0.9201 -0.1636  0.8806
 7211SOL    HW232853   0.607   9.090   6.218  1.5908  0.3483  1.4601
 7212SOL     OW32854   7.880   9.953   1.520  0.2151  0.0796 -0.5383
 7212SOL    HW132855   7.803   9.984   1.575 -0.7595 -0.6638 -1.4429
 7212SOL    HW232856   7.956   9.926   1.580 -0.5557 -0.0275  0.3978
 7213SOL     OW32857   4.256   9.924   4.796  0.2507  0.3300  0.7367
 7213SOL    HW132858   4.332   9.937   4.732  0.2828  0.6721  0.8394
 7213SOL    HW232859   4.276   9.971   4.882 -1.2425  2.7858 -0.2021
 7214SOL     OW32860   4.234   8.982   6.675 -0.0644  0.3096 -0.1423
 7214SOL    HW132861   4.178   8.954   6.597 -0.3599  0.6334 -0.0463
 7214SOL    HW232862   4.322   8.935   6.671 -0.2263  0.0309 -0.4589
 7215SOL     OW32863   3.193   3.724   1.266  0.3201 -0.4612 -0.1574
 7215SOL    HW132864   3.167   3.642   1.214 -1.5385  0.0260 -0.0344
 7215SOL    HW232865   3.266   3.701   1.330 -0.1262 -2.0145 -0.1853
 7216SOL     OW32866   2.200   7.100   4.820  0.1399  0.4292  0.4391
 7216SOL    HW132867   2.218   7.122   4.916 -1.7084 -0.9414  1.1227
 7216SOL    HW232868   2.186   7.001   4.811  0.6682  0.4976 -1.3117
 7217SOL     OW32869   9.177   0.933   6.563  0.0545 -0.0420  0.6294
 7217SOL    HW132870   9.096   0.989   6.581 -0.9917 -0.3267 -2.8661
 7217SOL    HW232871   9.171   0.848   6.615 -1.3126  0.4334  1.2763
 7218SOL     OW32872   9.658   2.052   1.578  0.3989  0.0217 -0.4471
 7218SOL    HW132873   9.697   2.144   1.584 -0.5886  0.4311 -0.2691
 7218SOL    HW232874   9.670   2.005   1.665  0.8651  0.0001 -0.5237
 7219SOL     OW32875   1.765   5.763   1.736  0.0332  0.4337  0.0309
 7219SOL    HW132876   1.722   5.795   1.652  0.8466  1.0440 -0.1598
 7219SOL    HW232877   1.773   5.663   1.734 -0.0510  0.4371 -0.5609
 7220SOL     OW32878   1.402   8.396   1.163  0.0120 -0.1963 -0.5087
 7220SOL    HW132879   1.373   8.484   1.126 -0.4155 -1.1500 -2.4677
 7220SOL    HW232880   1.323   8.335   1.171  0.3384 -0.4854  0.6655
 7221SOL     OW32881   7.646   3.661   4.785  0.3514 -0.1009  0.2890
 7221SOL    HW132882   7.573   3.604   4.823 -1.2589  0.7281 -1.5050
 7221SOL    HW232883   7.621   3.758   4.793  1.3323  0.2007 -0.1695
 7222SOL     OW32884   0.465   8.529   1.358 -0.0915 -0.0599 -0.1146
 7222SOL    HW132885   0.380   8.582   1.359 -0.6686 -0.9729  0.3218
 7222SOL    HW232886   0.500   8.520   1.452  1.0386  1.1653 -0.3991
 7223SOL     OW32887   1.269   1.915   5.249 -0.3946 -0.6576  0.3132
 7223SOL    HW132888   1.266   1.877   5.156 -3.0175 -2.5129  1.0801
 7223SOL    HW232889   1.188   1.972   5.263 -0.7864 -1.6009  1.9436
 7224SOL     OW32890   8.141   9.596   4.462 -0.4511 -0.0312 -0.1488
 7224SOL    HW132891   8.220   9.658   4.468 -1.5289  1.4069 -0.5102
 7224SOL    HW232892   8.169   9.504   4.488  1.4088  0.4146 -0.4803
 7225SOL     OW32893   1.498   8.205   4.120 -1.0056 -0.2119 -0.1447
 7225SOL    HW132894   1.508   8.298   4.084 -2.5947 -0.5727 -1.5873
 7225SOL    HW232895   1.589   8.165   4.135 -0.3055  1.8485  1.2566
 7226SOL     OW32896   0.915   0.274   5.652 -0.1329 -0.3563  0.0778
 7226SOL    HW132897   0.853   0.343   5.613 -0.4750 -0.6843  0.0403
 7226SOL    HW232898   0.948   0.214   5.580  0.0225 -0.3471  0.1416
 7227SOL     OW32899   8.732   7.517   3.457  0.2514  0.9351  0.0325
 7227SOL    HW132900   8.793   7.440   3.477 -1.0532 -0.3963 -0.9774
 7227SOL    HW232901   8.781   7.584   3.401  1.1441  0.4169  0.1853
 7228SOL     OW32902   2.473   6.033   6.308  0.1602 -0.3959 -0.0929
 7228SOL    HW132903   2.537   6.023   6.384  0.3883  2.8025  0.2113
 7228SOL    HW232904   2.382   6.055   6.343  0.3996  1.6908 -0.7198
 7229SOL     OW32905   7.450   7.147   0.630 -0.1753 -0.7178 -0.2876
 7229SOL    HW132906   7.439   7.200   0.714 -1.8796 -0.0221 -0.9192
 7229SOL    HW232907   7.463   7.051   0.652 -1.8422 -0.7292  0.7539
 7230SOL     OW32908   9.297   8.456   0.036 -0.6985  0.5730  0.2119
 7230SOL    HW132909   9.251   8.514   0.103  1.7441 -0.2795  2.7488
 7230SOL    HW232910   9.345   8.513  -0.030 -1.7953  1.4353  0.1453
 7231SOL     OW32911   5.085   0.811   1.626  0.4141  0.1656  0.8854
 7231SOL    HW132912   5.136   0.842   1.706 -0.5760  1.7001  0.9370
 7231SOL    HW232913   4.996   0.775   1.655 -0.0767  1.0276  0.4382
 7232SOL     OW32914   6.564   7.230   4.619 -0.3496  0.3553  0.2927
 7232SOL    HW132915   6.521   7.264   4.535  1.3147  1.7805  0.0007
 7232SOL    HW232916   6.657   7.201   4.599 -0.6733 -1.3923  1.2155
 7233SOL     OW32917   1.618   5.887   4.169 -0.4271  0.1782  0.2937
 7233SOL    HW132918   1.713   5.917   4.179  0.0603 -1.6581  1.4672
 7233SOL    HW232919   1.557   5.956   4.210  0.5724  0.1491  1.8623
 7234SOL     OW32920   5.516   1.638   4.591 -0.0253 -1.0325  0.5025
 7234SOL    HW132921   5.427   1.604   4.560 -0.3656  0.1037  0.2399
 7234SOL    HW232922   5.584   1.564   4.584 -0.1154 -0.8448 -2.8565
 7235SOL     OW32923   7.945   2.966   2.937  0.0440  0.4286 -0.3377
 7235SOL    HW132924   7.922   3.042   2.997  2.2775  2.8232 -2.3743
 7235SOL    HW232925   7.995   3.001   2.857  0.4961 -3.1022 -1.6728
 7236SOL     OW32926   2.418   6.091   2.130  0.0137 -0.1502 -0.8609
 7236SOL    HW132927   2.377   6.066   2.218  0.1457 -0.4279 -0.8768
 7236SOL    HW232928   2.507   6.046   2.121 -0.4780 -1.0000 -1.6012
 7237SOL     OW32929   3.079   2.797   2.457 -0.3798  0.5574 -0.3334
 7237SOL    HW132930   3.010   2.858   2.418 -0.0293  0.1423 -1.6060
 7237SOL    HW232931   3.126   2.844   2.532 -2.6307  0.5556  1.1415
 7238SOL     OW32932   0.003   4.701   2.811  0.6597 -0.1306  0.0703
 7238SOL    HW132933  -0.018   4.621   2.868 -1.0693 -0.3752 -0.8865
 7238SOL    HW232934  -0.064   4.773   2.828  0.6747  0.1391 -0.9496
 7239SOL     OW32935   2.577   4.852   0.858  0.1143 -0.4762 -0.2840
 7239SOL    HW132936   2.488   4.893   0.841 -0.3132 -1.8733 -1.5351
 7239SOL    HW232937   2.627   4.908   0.924 -0.5810  1.8194 -1.6368
 7240SOL     OW32938   3.028   4.502   0.242  0.1927 -0.2252  0.0869
 7240SOL    HW132939   3.112   4.489   0.294 -0.5581 -0.2934  1.2980
 7240SOL    HW232940   3.050   4.523   0.147  1.5694 -0.5366  0.3342
 7241SOL     OW32941   8.896   9.900   2.639  0.3004  0.8422 -0.4724
 7241SOL    HW132942   8.909   9.941   2.729 -0.5625 -0.6424  0.3440
 7241SOL    HW232943   8.905   9.800   2.645 -0.4817  0.6641 -1.8879
 7242SOL     OW32944   5.708   8.847   4.021  0.2666 -0.0584 -0.3399
 7242SOL    HW132945   5.788   8.815   4.071  1.0059 -0.2394 -1.6177
 7242SOL    HW232946   5.636   8.872   4.086  1.6098  0.8063  0.8489
 7243SOL     OW32947   6.573   8.348   3.912 -0.1113  0.5718 -0.6933
 7243SOL    HW132948   6.593   8.394   3.999  0.8349  1.5025 -1.3928
 7243SOL    HW232949   6.658   8.317   3.870 -0.4641  0.9985 -1.7482
 7244SOL     OW32950   0.521   5.003   0.025  0.2270  0.1616 -0.1767
 7244SOL    HW132951   0.560   5.009  -0.066 -1.6829  1.9954 -0.9127
 7244SOL    HW232952   0.432   5.050   0.027  0.1620  0.0312  2.5678
 7245SOL     OW32953   4.362   2.516   2.355  0.1274 -0.3470 -0.0197
 7245SOL    HW132954   4.448   2.527   2.405 -0.1413 -1.2803  0.6601
 7245SOL    HW232955   4.329   2.422   2.365 -1.6545  0.3546  0.8352
 7246SOL     OW32956   9.114   4.327   2.337  0.2826 -0.2926  0.3886
 7246SOL    HW132957   9.111   4.259   2.410 -0.3729 -0.3936  0.2680
 7246SOL    HW232958   9.169   4.406   2.367 -0.6149  0.0057  1.2756
 7247SOL     OW32959   4.382   7.286   1.806  0.0451 -0.3110 -0.3837
 7247SOL    HW132960   4.323   7.367   1.810 -0.7766 -0.9239  0.0235
 7247SOL    HW232961   4.327   7.205   1.786  0.6809 -0.9731  0.5220
 7248SOL     OW32962   5.636   9.198   3.339  0.5305 -0.4416 -0.3174
 7248SOL    HW132963   5.711   9.189   3.274  1.4303  1.0607  0.4759
 7248SOL    HW232964   5.672   9.227   3.428 -1.1686  2.4068 -0.4758
 7249SOL     OW32965   2.714   3.197   3.203  0.4137  0.1903 -0.0472
 7249SOL    HW132966   2.617   3.188   3.226  0.6748 -0.0695  1.0051
 7249SOL    HW232967   2.747   3.285   3.237  1.3084 -1.0764  2.4960
 7250SOL     OW32968   7.577   9.731   2.020 -0.2823  0.4859 -0.2581
 7250SOL    HW132969   7.510   9.805   2.027  1.4031  1.9255  1.1350
 7250SOL    HW232970   7.667   9.769   1.999  1.1391 -0.8704  3.0388
 7251SOL     OW32971   6.900   1.630   0.799 -0.5224  0.7232 -0.3937
 7251SOL    HW132972   6.932   1.547   0.844 -0.1186  0.7706 -0.5897
 7251SOL    HW232973   6.880   1.610   0.703  2.8047  1.5890 -1.3391
 7252SOL     OW32974   9.363   7.515   2.765 -0.7213 -0.0356 -0.1733
 7252SOL    HW132975   9.397   7.606   2.788  0.1154 -0.0468 -1.2847
 7252SOL    HW232976   9.330   7.515   2.670 -3.0455 -0.2595  0.6147
 7253SOL     OW32977   8.929   7.472   5.902  0.3985  0.3554 -0.1574
 7253SOL    HW132978   9.027   7.473   5.921  0.9312  1.0858 -2.7519
 7253SOL    HW232979   8.910   7.402   5.833 -0.6581  1.3252 -0.8665
 7254SOL     OW32980   2.027   4.194   5.143 -0.0544  0.0122 -0.2770
 7254SOL    HW132981   1.983   4.222   5.228 -2.6945  1.8659 -2.1746
 7254SOL    HW232982   2.091   4.265   5.113 -0.9820  0.5122 -1.0997
 7255SOL     OW32983   1.302   2.364   0.975 -0.0521 -0.2755  0.0656
 7255SOL    HW132984   1.204   2.356   0.988 -0.0971 -0.3398 -0.3065
 7255SOL    HW232985   1.339   2.434   1.035 -0.5458  0.7680 -0.8346
 7256SOL     OW32986   3.271   4.445   2.173 -0.5383  0.3073 -0.2226
 7256SOL    HW132987   3.274   4.454   2.073  0.6568  2.3038 -0.0410
 7256SOL    HW232988   3.364   4.446   2.209 -0.8785 -2.1362  0.8138
 7257SOL     OW32989   1.856   7.493   4.452  0.2701  0.4566 -0.0685
 7257SOL    HW132990   1.833   7.589   4.464 -0.4343  0.1647  1.0010
 7257SOL    HW232991   1.791   7.450   4.389  1.2866  0.9444 -1.4691
 7258SOL     OW32992   4.049   2.810   6.091 -0.3090 -0.0516  0.2201
 7258SOL    HW132993   4.026   2.901   6.055 -0.3360 -0.7666 -1.6415
 7258SOL    HW232994   4.007   2.740   6.033  1.0738 -1.2786  0.6695
 7259SOL     OW32995   9.400   4.693   5.019  0.8893  0.0553  0.1277
 7259SOL    HW132996   9.448   4.737   5.095  0.5203 -1.2736  1.1275
 7259SOL    HW232997   9.443   4.721   4.933  1.6158  1.1759  0.8387
 7260SOL     OW32998   9.846   5.386   4.746  0.5770 -0.4530  0.6748
 7260SOL    HW132999   9.845   5.290   4.719 -1.6720 -0.5126  0.8385
 7260SOL    HW233000   9.854   5.392   4.846  3.2592 -0.3787  0.4849
 7261SOL     OW33001   4.111   2.276   5.476  0.0417  0.5917  0.4955
 7261SOL    HW133002   4.077   2.363   5.511 -0.4394  0.7041 -0.2358
 7261SOL    HW233003   4.207   2.286   5.448  0.4272  0.4980  1.7738
 7262SOL     OW33004   7.746   7.233   0.051 -0.4192  0.2731  0.4243
 7262SOL    HW133005   7.689   7.201  -0.025 -0.7148  0.6439  0.4898
 7262SOL    HW233006   7.723   7.181   0.133  0.5450 -0.7627  0.0452
 7263SOL     OW33007   3.354   8.126   1.552  0.6901 -1.0881  0.0545
 7263SOL    HW133008   3.342   8.028   1.540  0.6843 -0.9969 -0.7414
 7263SOL    HW233009   3.423   8.159   1.487 -0.2509 -0.3568 -0.5907
 7264SOL     OW33010   8.317   5.655   3.614 -0.0464 -0.8099  0.0389
 7264SOL    HW133011   8.251   5.671   3.540 -2.1365  0.2651  2.0471
 7264SOL    HW233012   8.267   5.629   3.697  1.9016  1.9121  2.1363
 7265SOL     OW33013   8.314   1.998   4.169  0.4011 -0.0136 -0.5507
 7265SOL    HW133014   8.273   1.956   4.088  0.0996  1.5302 -1.2213
 7265SOL    HW233015   8.272   1.960   4.251 -1.2733  0.4102 -1.1989
 7266SOL     OW33016   4.375   8.602   4.669 -0.2354  0.7275  0.3182
 7266SOL    HW133017   4.387   8.505   4.645 -1.5915  0.6237  0.0527
 7266SOL    HW233018   4.449   8.630   4.730  0.0907 -0.5121  0.5136
 7267SOL     OW33019   8.114   6.545   0.376 -0.0755  0.3112 -0.4350
 7267SOL    HW133020   8.214   6.544   0.381  0.0542 -1.6842 -2.5934
 7267SOL    HW233021   8.085   6.554   0.280 -1.9789  1.2522  0.1920
 7268SOL     OW33022   7.211   1.020   4.146 -0.1312  0.0974  0.2917
 7268SOL    HW133023   7.283   1.015   4.077 -1.1194 -0.6856 -0.7072
 7268SOL    HW233024   7.133   0.964   4.117 -0.5196 -0.3171  2.0989
 7269SOL     OW33025   6.645   3.074   4.947 -0.1771  0.1951 -0.0432
 7269SOL    HW133026   6.547   3.058   4.942 -0.4959  1.9492  0.2598
 7269SOL    HW233027   6.669   3.110   5.038  0.7726 -0.4375 -0.0355
 7270SOL     OW33028   9.316   3.608   3.737 -0.0164  0.0440 -0.4979
 7270SOL    HW133029   9.216   3.604   3.728 -0.0113 -0.5581 -0.2662
 7270SOL    HW233030   9.341   3.615   3.833  0.2082 -1.0300 -0.4770
 7271SOL     OW33031   8.082   9.450   3.558  0.0343 -0.0822  0.1207
 7271SOL    HW133032   8.039   9.379   3.614  0.7826 -2.0866 -1.7649
 7271SOL    HW233033   8.171   9.473   3.596 -0.8385  0.9383  1.5793
 7272SOL     OW33034   3.088   2.009   5.796 -0.2327 -0.5378  0.4575
 7272SOL    HW133035   3.092   1.928   5.738  1.0583 -0.6013  0.6089
 7272SOL    HW233036   3.181   2.036   5.821 -0.6485  1.0226  0.3698
 7273SOL     OW33037   8.552   7.728   2.446 -0.2736 -0.3101  0.0772
 7273SOL    HW133038   8.527   7.687   2.358 -1.3338 -2.1288  1.1959
 7273SOL    HW233039   8.489   7.695   2.517 -0.4898  2.4479  1.2262
 7274SOL     OW33040   8.377   7.109   4.924 -0.1516  0.5246  0.2530
 7274SOL    HW133041   8.298   7.050   4.939  0.3300 -0.3022 -0.3590
 7274SOL    HW233042   8.372   7.150   4.834  0.2938  0.1789  0.0670
 7275SOL     OW33043   8.420   5.237   5.536 -0.8081 -0.6736  0.2133
 7275SOL    HW133044   8.360   5.297   5.482 -1.4261 -1.4206  0.0566
 7275SOL    HW233045   8.406   5.143   5.507 -0.3511 -0.9652  0.9513
 7276SOL     OW33046   0.571   7.002   1.747  0.1529 -0.5292  0.0684
 7276SOL    HW133047   0.572   6.968   1.841 -0.1897 -1.6727 -0.3269
 7276SOL    HW233048   0.625   6.941   1.688 -0.7302 -0.5773 -0.7119
 7277SOL     OW33049   2.775   1.626   1.885  0.3291 -0.3224 -0.3321
 7277SOL    HW133050   2.851   1.602   1.945 -0.2750 -0.2407  0.4798
 7277SOL    HW233051   2.716   1.546   1.873 -1.7270  0.6823  2.4325
 7278SOL     OW33052   7.208   3.858   5.140 -0.1745 -0.0567  0.3103
 7278SOL    HW133053   7.220   3.868   5.041  0.1254  1.6029  0.5001
 7278SOL    HW233054   7.275   3.916   5.187 -0.5779 -0.5404  1.4874
 7279SOL     OW33055   9.578   8.636   6.295 -0.1190 -0.4393 -0.0807
 7279SOL    HW133056   9.571   8.733   6.319 -1.4289 -0.4299 -0.5043
 7279SOL    HW233057   9.643   8.625   6.219 -1.6390  0.3607 -1.5218
 7280SOL     OW33058   8.123   3.301   1.890 -0.5894  0.0926 -0.2840
 7280SOL    HW133059   8.204   3.343   1.849 -0.4923  1.4242  1.2319
 7280SOL    HW233060   8.042   3.356   1.870 -0.7449  0.0377  0.1916
 7281SOL     OW33061   1.524   9.825   0.890 -0.2987 -0.6712  0.4247
 7281SOL    HW133062   1.551   9.784   0.803 -0.6884  1.2822 -0.6532
 7281SOL    HW233063   1.593   9.804   0.959  0.9972 -0.6869 -0.8358
 7282SOL     OW33064   8.583   0.257   1.994 -0.3010 -0.0357 -0.3450
 7282SOL    HW133065   8.507   0.192   1.987  0.3099 -0.9113  0.8315
 7282SOL    HW233066   8.599   0.278   2.090  1.4930 -0.5396 -0.5090
 7283SOL     OW33067   5.663   3.036   3.886 -0.0566  0.3291  0.1622
 7283SOL    HW133068   5.639   3.064   3.978  1.1529 -1.7804  1.1507
 7283SOL    HW233069   5.744   2.977   3.888 -0.7607 -0.8041 -2.1109
 7284SOL     OW33070   0.443   0.182   6.219  0.3083 -0.0416  0.4154
 7284SOL    HW133071   0.513   0.251   6.203 -1.0915  1.3318  0.0866
 7284SOL    HW233072   0.461   0.135   6.306  2.2443 -0.4882 -0.2189
 7285SOL     OW33073   7.975   7.528   4.649 -0.3641 -0.2452 -0.5156
 7285SOL    HW133074   8.015   7.534   4.558  0.1750 -0.2966 -0.2791
 7285SOL    HW233075   8.047   7.517   4.717 -0.8481 -1.8006 -0.2256
 7286SOL     OW33076   9.589   7.430   0.098  1.1687 -0.1616  0.3304
 7286SOL    HW133077   9.677   7.404   0.060  0.7370  1.0345 -1.5290
 7286SOL    HW233078   9.580   7.530   0.099 -0.5563 -0.2748 -0.4900
 7287SOL     OW33079   2.654   9.765   2.234  0.0707  0.5305 -0.1399
 7287SOL    HW133080   2.647   9.800   2.328 -1.3146  0.1347 -0.0914
 7287SOL    HW233081   2.568   9.721   2.208  1.0057 -0.8020 -1.0251
 7288SOL     OW33082   2.953   2.785   6.293 -0.2526 -0.0813  0.0817
 7288SOL    HW133083   2.968   2.878   6.259 -0.0719  0.1027  0.6576
 7288SOL    HW233084   2.855   2.770   6.307 -0.1572  0.5658  1.5098
 7289SOL     OW33085   3.024   1.389   6.509 -0.3390  0.1037  0.4527
 7289SOL    HW133086   3.093   1.456   6.481  0.9840 -0.8138  1.4526
 7289SOL    HW233087   3.042   1.302   6.463 -2.2880  0.5286 -1.1506
 7290SOL     OW33088   0.393   3.940   0.764  0.4739 -0.3740 -0.5678
 7290SOL    HW133089   0.398   3.852   0.812 -0.0160  0.7000  1.5062
 7290SOL    HW233090   0.297   3.968   0.756  0.7013  0.5188 -0.2164
 7291SOL     OW33091   1.730   0.433   3.187 -0.0382  0.2544 -0.2383
 7291SOL    HW133092   1.787   0.515   3.178 -0.8073  0.8765  0.5592
 7291SOL    HW233093   1.779   0.363   3.240  0.7279  0.0864 -1.1572
 7292SOL     OW33094   0.177   4.673   5.517 -0.6373  0.0796  0.3179
 7292SOL    HW133095   0.163   4.578   5.489  0.6929 -0.3991  1.2177
 7292SOL    HW233096   0.177   4.732   5.436 -1.3507 -0.7008 -0.2594
 7293SOL     OW33097   4.697   2.362   4.400  0.3251 -0.4425  0.2460
 7293SOL    HW133098   4.700   2.394   4.495  1.7641 -1.7473  0.6542
 7293SOL    HW233099   4.649   2.274   4.396  2.0356 -1.3973  0.0876
 7294SOL     OW33100   8.817   5.928   5.955 -0.0549  0.2635  0.2229
 7294SOL    HW133101   8.841   5.914   5.859  0.6519 -0.0066  0.4350
 7294SOL    HW233102   8.759   5.853   5.986 -0.8739  0.7274 -0.1937
 7295SOL     OW33103   7.761   9.921   0.196 -0.3618  0.1250 -0.0414
 7295SOL    HW133104   7.772   9.825   0.168 -1.8565 -0.2026  0.4243
 7295SOL    HW233105   7.848   9.956   0.230  0.5879 -0.5838 -1.6683
 7296SOL     OW33106   9.981   1.522   2.164  0.4588 -0.2834 -0.4364
 7296SOL    HW133107  10.042   1.526   2.244  0.7356 -1.2180 -0.5970
 7296SOL    HW233108  10.004   1.442   2.109 -1.2772 -0.9555 -0.2030
 7297SOL     OW33109   8.201   7.748   0.611 -0.2759  0.2656 -0.0571
 7297SOL    HW133110   8.268   7.813   0.576 -0.1638  0.4980  0.5714
 7297SOL    HW233111   8.160   7.697   0.536  0.5605  0.1757 -0.4537
 7298SOL     OW33112   5.114   9.973   3.429  0.2993 -0.0736  0.1569
 7298SOL    HW133113   5.059   9.919   3.365  0.8602  0.9178 -1.1931
 7298SOL    HW233114   5.211   9.948   3.418  0.4477  0.4416  0.2860
 7299SOL     OW33115   9.165   2.041   3.317  0.6270  0.3041  0.2503
 7299SOL    HW133116   9.130   1.992   3.397 -0.0541  2.2717  1.1934
 7299SOL    HW233117   9.215   2.122   3.347  1.3734  0.4228 -1.2894
 7300SOL     OW33118   8.471   8.733   0.584  0.0809 -1.3372 -0.1114
 7300SOL    HW133119   8.475   8.698   0.491 -0.6941 -0.7832 -0.3556
 7300SOL    HW233120   8.376   8.754   0.608  0.1826 -2.1281  1.0428
 7301SOL     OW33121   9.284   2.215   4.118 -0.3244  0.3264 -0.9005
 7301SOL    HW133122   9.228   2.142   4.157 -0.7022  0.0764 -1.8837
 7301SOL    HW233123   9.369   2.224   4.170 -1.7418  1.4689  1.3192
 7302SOL     OW33124   9.589   2.922   1.725 -0.1329  0.4586 -0.0567
 7302SOL    HW133125   9.663   2.861   1.697 -0.2463  0.6705 -0.8319
 7302SOL    HW233126   9.508   2.867   1.746 -0.8687  0.4383 -2.7242
 7303SOL     OW33127   7.574   1.141   2.269  0.5041 -0.1767  0.5945
 7303SOL    HW133128   7.505   1.172   2.335  1.3801  1.6093  0.6737
 7303SOL    HW233129   7.532   1.134   2.179  0.4113  1.6693  0.4944
 7304SOL     OW33130   0.468   1.588   2.329 -0.2813 -0.2346 -0.0229
 7304SOL    HW133131   0.475   1.685   2.303  0.3821 -0.1942  0.2763
 7304SOL    HW233132   0.547   1.564   2.386 -0.9340 -0.7083  0.6912
 7305SOL     OW33133   6.329   1.746   6.204 -0.2365  0.1710 -0.1612
 7305SOL    HW133134   6.339   1.714   6.109  1.1213 -2.0414  0.6948
 7305SOL    HW233135   6.244   1.711   6.242  0.0772 -0.3987  0.0086
 7306SOL     OW33136   4.423   3.782   3.423  0.3135 -0.2304 -0.1384
 7306SOL    HW133137   4.363   3.791   3.343 -0.4537 -0.1213  0.4479
 7306SOL    HW233138   4.504   3.728   3.398 -0.0311 -0.3900 -0.9250
 7307SOL     OW33139   3.736   1.293   6.244 -0.2646  0.2129  0.5167
 7307SOL    HW133140   3.784   1.250   6.320 -0.6751  0.7462  1.0864
 7307SOL    HW233141   3.719   1.225   6.172  0.8581 -0.0960  0.5412
 7308SOL     OW33142   1.502   7.548   6.137  0.1839  0.5207  0.7539
 7308SOL    HW133143   1.559   7.628   6.118 -0.2045  0.6343  0.0523
 7308SOL    HW233144   1.539   7.498   6.216  1.1522  0.6906  0.4078
 7309SOL     OW33145   2.743   7.756   5.492  0.2246  0.6809 -0.3820
 7309SOL    HW133146   2.668   7.821   5.480  0.2255  0.6321 -0.6486
 7309SOL    HW233147   2.824   7.804   5.525  0.6018  1.0257 -1.7771
 7310SOL     OW33148   7.038   6.623   4.791  0.5304 -0.2594 -0.2821
 7310SOL    HW133149   6.995   6.652   4.876  0.3876  1.5801 -0.9440
 7310SOL    HW233150   6.997   6.538   4.759 -0.8128  0.1079  0.4476
 7311SOL     OW33151   9.292   4.096   5.779 -0.1441  0.4383 -0.2499
 7311SOL    HW133152   9.199   4.102   5.813 -0.7007 -0.1332 -1.6048
 7311SOL    HW233153   9.339   4.183   5.793 -0.2767  0.1703  2.0789
 7312SOL     OW33154   2.102   8.451   5.576  0.0828 -0.4403 -0.2643
 7312SOL    HW133155   2.075   8.377   5.515 -0.2699  0.3686 -1.1068
 7312SOL    HW233156   2.072   8.538   5.537  1.1218  0.2019  0.3613
 7313SOL     OW33157   9.496   8.331   0.369 -0.0862  0.0707 -0.2305
 7313SOL    HW133158   9.498   8.265   0.293  1.1040 -0.3154  0.1268
 7313SOL    HW233159   9.569   8.398   0.356  1.3706 -1.1317  1.5805
 7314SOL     OW33160   8.747   3.561   1.194 -0.5217  0.1666 -0.3527
 7314SOL    HW133161   8.846   3.559   1.182 -0.7333  1.6007 -2.5776
 7314SOL    HW233162   8.723   3.639   1.252 -0.3041 -0.7419  0.9933
 7315SOL     OW33163   9.645   2.104   5.582  1.6043 -0.3546 -0.0981
 7315SOL    HW133164   9.627   2.032   5.516  1.2753  1.8663 -2.5262
 7315SOL    HW233165   9.651   2.065   5.674 -1.3573 -3.0999 -0.9661
 7316SOL     OW33166   3.454   1.064   0.451  0.2193 -0.0446  0.1534
 7316SOL    HW133167   3.548   1.065   0.419  0.2133 -1.1265  0.1035
 7316SOL    HW233168   3.451   1.032   0.546  0.1091  1.9544  0.8475
 7317SOL     OW33169   9.201   5.262   5.280  0.1890 -0.1151 -0.2336
 7317SOL    HW133170   9.253   5.317   5.215  0.1588  0.2488  0.0472
 7317SOL    HW233171   9.121   5.314   5.311 -0.9506 -1.0654 -1.4794
 7318SOL     OW33172   3.240   8.114   1.798  0.4403 -0.4522 -0.2920
 7318SOL    HW133173   3.293   8.127   1.715  2.5936 -2.0915  0.7695
 7318SOL    HW233174   3.246   8.018   1.827 -2.7454 -0.5638  0.1238
 7319SOL     OW33175   7.520   0.825   5.227  0.4540 -0.3130 -0.4180
 7319SOL    HW133176   7.454   0.809   5.301  1.5020 -0.6878  0.4495
 7319SOL    HW233177   7.508   0.757   5.155 -0.8325  0.2879 -0.7870
 7320SOL     OW33178   3.414   4.213   4.033 -0.5644 -0.7248  0.0014
 7320SOL    HW133179   3.395   4.292   4.092 -4.0005 -1.3117 -0.1773
 7320SOL    HW233180   3.462   4.143   4.085  0.6873  0.6512  0.7382
 7321SOL     OW33181   4.515   2.722   4.852 -0.0442  0.8367 -0.2187
 7321SOL    HW133182   4.594   2.729   4.791  0.8552 -0.6590  0.7425
 7321SOL    HW233183   4.512   2.801   4.913 -0.1731  1.6561 -1.2711
 7322SOL     OW33184   8.609   5.187   1.758  0.3510 -0.1767 -0.1095
 7322SOL    HW133185   8.697   5.144   1.741  0.6208  0.8648 -1.4544
 7322SOL    HW233186   8.552   5.181   1.676 -0.0131  1.0509  0.0401
 7323SOL     OW33187   2.131   8.521   0.861 -0.2170 -0.0717 -0.1154
 7323SOL    HW133188   2.056   8.575   0.899  0.3553 -0.2372  1.2712
 7323SOL    HW233189   2.098   8.428   0.843 -0.7254  0.2461 -0.8715
 7324SOL     OW33190   3.846   4.455   1.513  0.2583 -0.4818 -0.2714
 7324SOL    HW133191   3.853   4.413   1.604  0.3626  1.1232  0.4724
 7324SOL    HW233192   3.788   4.536   1.518  0.1014 -0.4918 -1.6894
 7325SOL     OW33193   3.615   3.950   1.317  0.1036 -0.1738  0.4568
 7325SOL    HW133194   3.628   3.920   1.411  1.2352 -1.4669 -0.0989
 7325SOL    HW233195   3.692   3.920   1.261 -0.9027 -0.0473 -1.0335
 7326SOL     OW33196   8.683   4.666   2.869 -0.4190 -0.3072  0.3161
 7326SOL    HW133197   8.603   4.699   2.819 -0.6167  0.4054  1.1080
 7326SOL    HW233198   8.738   4.608   2.808  0.9213  2.9129 -1.6984
 7327SOL     OW33199   3.846   3.185   1.867 -0.2044 -0.5131 -0.3019
 7327SOL    HW133200   3.755   3.224   1.850 -0.8825 -1.8220  0.2889
 7327SOL    HW233201   3.882   3.146   1.783  0.6609  1.7177 -1.0068
 7328SOL     OW33202   3.838   5.087   5.320 -0.1778  0.0517  0.2881
 7328SOL    HW133203   3.756   5.124   5.364 -0.4728 -0.1340 -0.1066
 7328SOL    HW233204   3.878   5.157   5.261 -0.6864 -0.2302 -0.3902
 7329SOL     OW33205   3.546   5.123   4.959  0.0066 -0.1419  0.3952
 7329SOL    HW133206   3.617   5.170   5.011 -0.9740  1.5479  0.2227
 7329SOL    HW233207   3.471   5.186   4.939 -0.3737 -1.1908 -1.6747
 7330SOL     OW33208   6.965   0.905   4.135 -0.9159 -0.7445  0.3668
 7330SOL    HW133209   6.931   0.866   4.220 -1.0501  1.3476  1.2933
 7330SOL    HW233210   6.922   0.859   4.057 -2.4764 -1.1397  1.4513
 7331SOL     OW33211   5.429   6.422   1.790 -0.4685  0.0295 -0.0409
 7331SOL    HW133212   5.393   6.405   1.882 -3.5590 -0.9359 -1.3511
 7331SOL    HW233213   5.430   6.521   1.772 -0.8425  0.1605  0.6376
 7332SOL     OW33214   4.844   0.851   2.681  0.5530 -0.7365 -0.3718
 7332SOL    HW133215   4.933   0.805   2.682  0.4993 -0.8392 -0.4099
 7332SOL    HW233216   4.791   0.823   2.761  0.9300  0.0525  0.1589
 7333SOL     OW33217   4.212   0.886   6.335 -0.1759 -0.6553 -0.0364
 7333SOL    HW133218   4.270   0.805   6.326  0.4996 -0.1651 -0.1726
 7333SOL    HW233219   4.160   0.900   6.250 -0.1343 -0.8277 -0.0897
 7334SOL     OW33220   3.128   6.225   2.386 -0.4015 -0.0365  0.4610
 7334SOL    HW133221   3.116   6.282   2.305 -0.2057  0.0015  0.4571
 7334SOL    HW233222   3.113   6.280   2.468  0.3958  0.1810  0.4724
 7335SOL     OW33223   0.629   3.654   3.147  0.4734 -0.0304 -0.0667
 7335SOL    HW133224   0.560   3.725   3.162  1.6097  1.2114 -0.6125
 7335SOL    HW233225   0.716   3.684   3.184  1.2948 -0.5539 -1.5150
 7336SOL     OW33226   3.229   9.989   4.739  0.1068 -0.3025 -0.7149
 7336SOL    HW133227   3.218   9.966   4.643  0.6146 -0.3689 -0.7592
 7336SOL    HW233228   3.316   9.953   4.772  0.0405 -0.0789 -0.2931
 7337SOL     OW33229   2.832   4.073   5.269  0.0473 -0.0048 -0.5936
 7337SOL    HW133230   2.885   4.157   5.270 -0.2509  0.1802  1.3768
 7337SOL    HW233231   2.858   4.018   5.188  0.7690  1.6041 -1.4792
 7338SOL     OW33232   1.653   7.821   6.337  0.0930  0.2223 -0.5860
 7338SOL    HW133233   1.570   7.871   6.365 -0.6909 -1.4501  0.1305
 7338SOL    HW233234   1.640   7.783   6.245 -0.5120 -1.2868  0.1142
 7339SOL     OW33235   1.657   6.010   4.735 -0.1902 -0.2699 -0.1531
 7339SOL    HW133236   1.649   6.054   4.824  1.4822  0.3532 -0.2898
 7339SOL    HW233237   1.754   6.000   4.712 -0.5687 -2.6860 -0.7931
 7340SOL     OW33238   8.827   2.592   4.589 -0.1883 -0.5147 -0.3741
 7340SOL    HW133239   8.925   2.577   4.602  0.1491  0.4607 -1.7296
 7340SOL    HW233240   8.812   2.685   4.555 -1.8810  0.7317  3.4850
 7341SOL     OW33241   8.055   5.901   5.038  0.2421 -0.3006  0.4770
 7341SOL    HW133242   8.025   5.953   5.118 -1.5552 -0.4577 -0.0808
 7341SOL    HW233243   8.084   5.965   4.966  0.2128 -0.1282  0.6165
 7342SOL     OW33244   6.322   1.340   5.585  0.1884  0.2809  0.0677
 7342SOL    HW133245   6.303   1.433   5.614 -1.2242  0.3911 -1.1294
 7342SOL    HW233246   6.264   1.276   5.637  1.1047  0.0626  0.8393
 7343SOL     OW33247   1.923   0.435   3.653  0.0341 -0.3045 -0.1118
 7343SOL    HW133248   1.915   0.347   3.607 -0.2509 -0.3053 -0.0666
 7343SOL    HW233249   1.999   0.487   3.614 -1.2541  0.3974 -1.7498
 7344SOL     OW33250   4.045   9.566   1.226  0.0060  0.2875  0.0940
 7344SOL    HW133251   4.080   9.474   1.210 -0.5384  0.2593 -0.9870
 7344SOL    HW233252   4.061   9.592   1.321 -1.9095 -1.8287  1.0436
 7345SOL     OW33253   3.539   8.492   5.670 -0.3146  0.5823 -0.5151
 7345SOL    HW133254   3.550   8.591   5.663  0.0757  0.4514 -2.0069
 7345SOL    HW233255   3.523   8.454   5.579 -1.0486 -0.6624  0.1170
 7346SOL     OW33256   8.395   3.486   3.085 -0.6094  0.1565  0.0708
 7346SOL    HW133257   8.465   3.540   3.131 -0.2553 -1.5041  1.5567
 7346SOL    HW233258   8.324   3.460   3.151 -0.0470 -2.3343 -0.2430
 7347SOL     OW33259   3.782   9.497   1.103  0.3966  0.4510 -0.0508
 7347SOL    HW133260   3.861   9.548   1.138  0.3676 -0.7317  1.8059
 7347SOL    HW233261   3.813   9.427   1.039  0.3733  3.2329 -3.2459
 7348SOL     OW33262   7.668   2.987   0.772 -0.8819  0.0954  0.0184
 7348SOL    HW133263   7.685   2.985   0.870 -1.7520  0.5793  0.1894
 7348SOL    HW233264   7.596   3.053   0.752  0.1706  0.9222 -1.0901
 7349SOL     OW33265   9.331   4.697   6.670  0.7017 -0.4322 -0.3839
 7349SOL    HW133266   9.376   4.609   6.653 -1.3546 -1.2378 -1.9211
 7349SOL    HW233267   9.266   4.716   6.596 -0.1157  1.5755  0.8064
 7350SOL     OW33268   2.793   0.761   4.930  0.1929 -0.5988 -0.4434
 7350SOL    HW133269   2.704   0.758   4.884  0.7862 -0.6789 -1.6031
 7350SOL    HW233270   2.863   0.719   4.871  1.2184  0.5106 -0.0404
 7351SOL     OW33271   0.717   1.346   6.341 -0.0177  0.3009 -0.3126
 7351SOL    HW133272   0.778   1.336   6.420 -2.4380 -1.0914  1.4446
 7351SOL    HW233273   0.653   1.421   6.358 -1.4806 -0.9214 -0.2564
 7352SOL     OW33274   9.038   3.528   3.439  0.0158 -0.0983  0.4599
 7352SOL    HW133275   9.024   3.440   3.395  0.1357 -0.4121  1.0343
 7352SOL    HW233276   8.977   3.536   3.518  1.5676 -0.6342  1.7610
 7353SOL     OW33277   1.086   9.653   6.061  0.0629  0.1263 -0.1095
 7353SOL    HW133278   1.125   9.563   6.040 -0.0327 -0.2135  1.1719
 7353SOL    HW233279   0.992   9.643   6.092  0.6074  0.5104  1.7066
 7354SOL     OW33280   3.602   5.820   5.962  0.3270  0.4380  0.3062
 7354SOL    HW133281   3.643   5.865   5.882 -0.3241  2.3208  1.0132
 7354SOL    HW233282   3.502   5.826   5.957  0.2402 -0.5972  0.6142
 7355SOL     OW33283   9.855   3.541   4.060  0.1743 -0.4991  0.6036
 7355SOL    HW133284   9.839   3.497   3.971  1.1552  0.5045 -0.0896
 7355SOL    HW233285   9.851   3.472   4.132  1.8947 -1.8045 -0.4913
 7356SOL     OW33286   2.700   7.734   4.295  0.7887 -0.0529  0.4811
 7356SOL    HW133287   2.795   7.764   4.296  1.2614 -1.4824 -1.1967
 7356SOL    HW233288   2.679   7.688   4.209 -0.8541 -1.5841  1.6523
 7357SOL     OW33289   0.080   6.190   3.006 -0.6177 -0.3593  0.2696
 7357SOL    HW133290   0.171   6.222   3.031 -0.5930 -0.3888  0.2174
 7357SOL    HW233291   0.026   6.173   3.089 -0.8712  0.5023  0.2888
 7358SOL     OW33292   2.538   9.494   0.654  0.0307  0.2193 -0.0232
 7358SOL    HW133293   2.561   9.438   0.574  0.1206 -0.5116  0.5089
 7358SOL    HW233294   2.472   9.564   0.627  1.1653  0.9146 -1.0591
 7359SOL     OW33295   4.062   0.904   6.631 -0.2174 -0.0988  0.2310
 7359SOL    HW133296   4.139   0.904   6.567 -0.3474 -1.5196  0.0590
 7359SOL    HW233297   4.055   0.994   6.674  1.6602  0.0055  0.3796
 7360SOL     OW33298   9.586   8.579   1.461 -0.3491  0.1181 -0.3742
 7360SOL    HW133299   9.494   8.543   1.474  0.2327 -0.9729  0.8185
 7360SOL    HW233300   9.640   8.513   1.409 -0.4334  1.0865 -1.7393
 7361SOL     OW33301   0.967   8.940   3.625  0.0593  0.0557 -0.0736
 7361SOL    HW133302   0.954   8.922   3.723 -2.3507  0.6860 -0.2506
 7361SOL    HW233303   0.936   8.861   3.572 -0.7621  0.5917 -0.4069
 7362SOL     OW33304   6.695   5.139   0.329 -0.6656  0.0755  0.2820
 7362SOL    HW133305   6.751   5.208   0.375  0.1766 -1.1088  1.0540
 7362SOL    HW233306   6.729   5.124   0.237 -0.4885  0.2740  0.3166
 7363SOL     OW33307   0.196   2.405   1.257  0.1598 -0.0117  0.5127
 7363SOL    HW133308   0.296   2.407   1.255  0.2214 -1.7264  0.7596
 7363SOL    HW233309   0.161   2.406   1.164  0.6668 -5.7486  0.0386
 7364SOL     OW33310   9.308   8.543   5.420  0.0983  0.0901 -0.3158
 7364SOL    HW133311   9.317   8.459   5.473 -1.2466 -0.0281 -0.2511
 7364SOL    HW233312   9.397   8.588   5.412  0.3064  0.2192  2.2537
 7365SOL     OW33313   2.998   0.819   3.773  0.9017 -0.0203 -0.2527
 7365SOL    HW133314   3.056   0.739   3.762 -0.1842 -0.5812 -2.2211
 7365SOL    HW233315   2.964   0.849   3.684 -0.4135  1.3456  0.6607
 7366SOL     OW33316   2.959   3.874   5.535 -0.4076 -0.3103  0.7498
 7366SOL    HW133317   3.004   3.851   5.620 -0.0983  2.3788  1.3552
 7366SOL    HW233318   2.916   3.792   5.496  0.6872 -1.8396  2.7193
 7367SOL     OW33319   0.552   2.379   0.517 -0.3045  0.3209  0.4289
 7367SOL    HW133320   0.491   2.456   0.498 -1.3879 -0.7052 -0.3626
 7367SOL    HW233321   0.594   2.348   0.432 -0.6223 -0.5791  0.6000
 7368SOL     OW33322   7.490   3.793   0.314  0.4049  0.0554 -0.9136
 7368SOL    HW133323   7.531   3.710   0.352 -0.4715 -0.5958 -1.3563
 7368SOL    HW233324   7.480   3.862   0.385  0.7400 -0.3797 -0.4448
 7369SOL     OW33325   7.619   2.781   3.811 -0.1892 -0.0601  0.1024
 7369SOL    HW133326   7.691   2.849   3.825 -1.2309  1.1431 -0.2413
 7369SOL    HW233327   7.618   2.754   3.714 -1.1534  1.0574 -0.2190
 7370SOL     OW33328   7.603   9.017   4.575  0.1008  0.3203 -0.2765
 7370SOL    HW133329   7.538   9.046   4.505 -0.2489  1.6179  0.5680
 7370SOL    HW233330   7.555   9.008   4.663  0.4902 -1.4769 -0.2211
 7371SOL     OW33331   9.826   1.529   0.854  1.0737 -0.0373 -0.1367
 7371SOL    HW133332   9.818   1.471   0.935  1.2469 -0.5550 -0.4844
 7371SOL    HW233333   9.814   1.473   0.772  3.8667 -0.1018 -0.5626
 7372SOL     OW33334   2.643   6.161   4.315  0.2540  0.0693  0.2972
 7372SOL    HW133335   2.716   6.096   4.337  1.1329  1.2459  0.9458
 7372SOL    HW233336   2.674   6.224   4.244 -1.1417 -1.1548 -1.4588
 7373SOL     OW33337   7.564   0.491   0.756  0.2716  0.0435  0.6179
 7373SOL    HW133338   7.522   0.580   0.737 -0.6157 -0.1228  1.7616
 7373SOL    HW233339   7.662   0.504   0.773  0.0322  0.9025  1.4155
 7374SOL     OW33340   1.572   8.504   5.135 -0.4113  0.0481 -0.1542
 7374SOL    HW133341   1.657   8.476   5.089 -1.5156 -0.1035 -2.1706
 7374SOL    HW233342   1.585   8.500   5.234  1.9282  0.0090 -0.4239
 7375SOL     OW33343   8.733   7.641   1.430  0.1632  0.3197  0.7814
 7375SOL    HW133344   8.681   7.638   1.345  0.1893 -0.3506  0.7861
 7375SOL    HW233345   8.703   7.720   1.484 -1.4245 -0.4864  1.1306
 7376SOL     OW33346   3.825   3.716   3.640 -0.3358  0.1099  0.7116
 7376SOL    HW133347   3.892   3.784   3.666  1.0392 -1.1408  0.4991
 7376SOL    HW233348   3.865   3.625   3.648 -2.5899 -0.7840  2.3801
 7377SOL     OW33349   1.414   9.247   5.015 -0.2270  0.1226  0.4052
 7377SOL    HW133350   1.457   9.329   4.977 -1.1927  0.5432  0.1989
 7377SOL    HW233351   1.460   9.220   5.100  1.1910 -0.1301 -0.4294
 7378SOL     OW33352   9.797   2.787   0.147  0.2098 -0.2177 -0.0501
 7378SOL    HW133353   9.812   2.695   0.111 -0.2910  0.1134 -1.1148
 7378SOL    HW233354   9.727   2.784   0.219  1.8274 -1.0097  1.5231
 7379SOL     OW33355   8.725   5.038   3.100  0.0715  0.0664  0.3956
 7379SOL    HW133356   8.702   5.114   3.040 -1.3236  0.4038  1.3179
 7379SOL    HW233357   8.675   5.048   3.186 -0.0765 -1.8658  0.5500
 7380SOL     OW33358   3.887   0.360   1.520 -0.1647  0.8885 -0.3573
 7380SOL    HW133359   3.983   0.386   1.508  1.0750 -2.4179  1.8429
 7380SOL    HW233360   3.860   0.298   1.447 -0.1566  0.6283 -0.1403
 7381SOL     OW33361   2.690   0.894   5.379  0.1642 -0.7952 -0.0580
 7381SOL    HW133362   2.742   0.846   5.308  0.7954  0.3200 -0.3579
 7381SOL    HW233363   2.742   0.973   5.410 -1.4826  0.4922 -0.5433
 7382SOL     OW33364   7.545   6.773   5.170  0.3806 -0.0697 -0.2126
 7382SOL    HW133365   7.479   6.704   5.143  0.7051  0.4175 -2.4236
 7382SOL    HW233366   7.538   6.791   5.268 -1.3930 -1.4292 -0.0735
 7383SOL     OW33367   1.469   0.762   2.955 -0.0091  0.0729  0.5616
 7383SOL    HW133368   1.401   0.733   2.888 -1.8812  2.6306  1.2627
 7383SOL    HW233369   1.456   0.710   3.040 -0.6528  0.0710  0.4647
 7384SOL     OW33370   9.516   6.194   3.045  0.0206  0.0728  0.0766
 7384SOL    HW133371   9.558   6.281   3.017 -1.0053  0.7058  0.4892
 7384SOL    HW233372   9.570   6.154   3.119 -1.3024  1.9758  2.1308
 7385SOL     OW33373   2.464   0.915   3.559 -0.3347 -0.4085  0.0273
 7385SOL    HW133374   2.489   0.819   3.573  1.4261 -0.0338 -0.4679
 7385SOL    HW233375   2.525   0.956   3.492 -1.5435  0.8752 -0.3025
 7386SOL     OW33376   3.504   5.380   4.722  0.5621 -0.2217 -0.1424
 7386SOL    HW133377   3.465   5.329   4.645  0.9214 -0.0513 -0.4399
 7386SOL    HW233378   3.468   5.344   4.808  1.3335 -1.4468 -0.3129
 7387SOL     OW33379   9.447   2.568   1.203 -0.5212  0.1807 -0.4040
 7387SOL    HW133380   9.511   2.574   1.126  1.8248 -0.9199  1.3993
 7387SOL    HW233381   9.472   2.636   1.272 -0.7602 -0.8233  0.6912
 7388SOL     OW33382   6.785   9.417   1.886  0.0271  0.0916  0.4455
 7388SOL    HW133383   6.755   9.502   1.843  0.4740  0.1879  0.3178
 7388SOL    HW233384   6.853   9.437   1.956  0.8752 -0.2272 -0.2664
 7389SOL     OW33385   5.572   8.287   3.640 -0.2859  0.0233 -0.1114
 7389SOL    HW133386   5.538   8.351   3.571 -1.0171 -1.1754 -0.8759
 7389SOL    HW233387   5.672   8.295   3.646 -0.2347  0.2622 -1.1782
 7390SOL     OW33388   5.895   0.886   1.758 -0.3322 -0.2010 -0.1010
 7390SOL    HW133389   5.877   0.928   1.669 -1.7647  1.7552  1.0431
 7390SOL    HW233390   5.926   0.956   1.822  0.6853 -1.5796  0.9456
 7391SOL     OW33391   8.892   9.262   4.858  0.9024  0.3422 -0.0674
 7391SOL    HW133392   8.913   9.214   4.773  0.0278  0.1914 -0.1994
 7391SOL    HW233393   8.838   9.344   4.837  1.3478  0.7281  0.2725
 7392SOL     OW33394   6.677   9.504   3.411 -0.1304  0.9764 -0.5230
 7392SOL    HW133395   6.634   9.502   3.501 -2.0737  0.1996 -1.4434
 7392SOL    HW233396   6.684   9.410   3.376 -1.3455  1.4508 -2.0748
 7393SOL     OW33397   9.612   6.108   1.681  0.0529 -0.9291 -0.0931
 7393SOL    HW133398   9.644   6.034   1.622 -0.7980 -0.4886 -1.1382
 7393SOL    HW233399   9.635   6.088   1.776 -0.4246 -2.6708 -0.3231
 7394SOL     OW33400   1.634   0.307   4.732  0.1636  0.0543  0.2032
 7394SOL    HW133401   1.561   0.291   4.665  0.5762  1.8771 -0.7204
 7394SOL    HW233402   1.606   0.272   4.822 -2.0235  1.0842 -0.0560
 7395SOL     OW33403   4.396   0.194   4.812  0.2643  0.3868  0.1281
 7395SOL    HW133404   4.412   0.225   4.718  1.1624 -0.7105 -0.0838
 7395SOL    HW233405   4.469   0.132   4.840 -0.7668 -0.4463  1.0385
 7396SOL     OW33406   2.654   0.722   1.123 -0.5643  0.1161  0.5103
 7396SOL    HW133407   2.714   0.667   1.066  0.0100  0.9220  0.3317
 7396SOL    HW233408   2.660   0.690   1.218 -1.7342 -1.4032  0.0985
 7397SOL     OW33409   4.556   9.222   5.296 -0.1667  0.0881  0.1891
 7397SOL    HW133410   4.560   9.136   5.245  1.9956 -1.0932  2.2622
 7397SOL    HW233411   4.635   9.278   5.272  0.3596 -0.0732  1.4841
 7398SOL     OW33412   8.818   5.234   6.100  0.5606  0.3278  0.3668
 7398SOL    HW133413   8.759   5.153   6.104  2.6073 -1.1944  0.9494
 7398SOL    HW233414   8.880   5.233   6.178  1.8007  1.5485 -0.5874
 7399SOL     OW33415   7.211   0.171   1.180 -0.2533  0.0368  0.1391
 7399SOL    HW133416   7.289   0.137   1.129  0.4245  0.2769  0.9982
 7399SOL    HW233417   7.148   0.218   1.118  0.5509  0.3205 -0.4718
 7400SOL     OW33418   2.155   3.454   4.091 -0.2968  0.1272  0.5972
 7400SOL    HW133419   2.140   3.552   4.073 -0.0640  0.1916  0.7470
 7400SOL    HW233420   2.073   3.416   4.133 -1.0138 -0.1392 -1.0230
 7401SOL     OW33421   9.808   0.468   2.511  0.2467  0.3740 -0.6329
 7401SOL    HW133422   9.864   0.393   2.546  0.5874  0.2070 -1.5436
 7401SOL    HW233423   9.725   0.432   2.470 -0.4872  0.6141  0.6014
 7402SOL     OW33424   0.674   4.264   1.428 -0.0539  0.4992 -0.4104
 7402SOL    HW133425   0.628   4.189   1.380 -0.8629  0.4407  0.4256
 7402SOL    HW233426   0.711   4.229   1.514  0.8927  0.7276 -0.7243
 7403SOL     OW33427   0.481   9.801   3.337  0.3274  0.0008  0.1933
 7403SOL    HW133428   0.401   9.858   3.352  1.3074  1.6101 -0.5534
 7403SOL    HW233429   0.481   9.768   3.242  1.2325  1.1003 -0.1945
 7404SOL     OW33430   9.233   9.828   4.466  0.3645  0.2133  0.8766
 7404SOL    HW133431   9.233   9.864   4.372  0.7544  2.2528  1.6217
 7404SOL    HW233432   9.140   9.803   4.492  0.1023  0.5244  0.2505
 7405SOL     OW33433   2.175   4.955   2.650 -0.4014 -0.9773 -0.4200
 7405SOL    HW133434   2.146   4.970   2.744  1.8508  1.0584 -0.0016
 7405SOL    HW233435   2.251   4.890   2.648  1.5009  1.1928 -0.5000
 7406SOL     OW33436   1.962   7.256   0.365  0.0103  0.4059  0.3314
 7406SOL    HW133437   1.965   7.157   0.357 -0.8218  0.3022  1.3268
 7406SOL    HW233438   2.055   7.292   0.374  0.1057 -0.5901  3.6910
 7407SOL     OW33439   4.603   9.659   2.484  0.3351  0.4915 -0.3193
 7407SOL    HW133440   4.583   9.747   2.440  1.2670  1.1213  0.4931
 7407SOL    HW233441   4.691   9.665   2.532 -0.0472 -0.5908  0.5290
 7408SOL     OW33442   9.559   1.048   3.700 -0.3415  0.0062  0.0457
 7408SOL    HW133443   9.605   1.099   3.628  0.7281 -0.3572  0.4620
 7408SOL    HW233444   9.467   1.021   3.670  0.1154 -0.1728 -1.1811
 7409SOL     OW33445   6.034   9.542   2.817 -0.1813 -0.3701 -0.1524
 7409SOL    HW133446   6.009   9.477   2.745  0.8304  1.2126 -1.9676
 7409SOL    HW233447   6.132   9.560   2.813 -0.7552  2.8617 -1.0604
 7410SOL     OW33448   7.523   2.997   1.476  0.3022  0.6320 -0.2127
 7410SOL    HW133449   7.538   2.949   1.562 -0.8337  1.2382  0.3316
 7410SOL    HW233450   7.425   3.003   1.457  0.4433  2.1967 -0.5647
 7411SOL     OW33451   1.483   3.943   5.089 -0.1681  0.5689  0.1976
 7411SOL    HW133452   1.406   3.983   5.040 -0.6790  0.1660  0.6610
 7411SOL    HW233453   1.451   3.908   5.177  0.1234 -1.4120 -0.4471
 7412SOL     OW33454   3.340   1.210   6.301  0.4509  0.5272  0.0950
 7412SOL    HW133455   3.243   1.204   6.280 -0.2560 -1.1556  3.4611
 7412SOL    HW233456   3.352   1.260   6.387  2.5029  0.3248 -0.0516
 7413SOL     OW33457   9.164   4.138   2.528 -0.0362  0.2007 -0.6864
 7413SOL    HW133458   9.241   4.074   2.536  0.6260  1.1099  0.3673
 7413SOL    HW233459   9.128   4.157   2.619 -0.1475  1.4249 -0.9821
 7414SOL     OW33460   3.170   1.708   0.768 -0.0510 -0.9498  0.2547
 7414SOL    HW133461   3.172   1.658   0.682 -0.3562 -0.2053 -0.1855
 7414SOL    HW233462   3.250   1.768   0.773  0.0748 -1.1441  0.5798
 7415SOL     OW33463   7.949   0.631   5.142 -0.0614  0.1649  0.8794
 7415SOL    HW133464   8.029   0.655   5.197  0.3894  0.2801  0.1737
 7415SOL    HW233465   7.974   0.564   5.073 -1.1215 -1.6736  2.2323
 7416SOL     OW33466   1.799   3.086   1.884 -0.0168 -0.4079  0.1074
 7416SOL    HW133467   1.801   3.106   1.786  1.6241 -0.5960  0.0964
 7416SOL    HW233468   1.764   3.165   1.934 -2.7581 -0.9926 -0.7725
 7417SOL     OW33469   9.010   4.065   4.676  0.4110 -0.6035 -0.3690
 7417SOL    HW133470   9.022   3.982   4.621  1.1368  0.2813 -1.5737
 7417SOL    HW233471   9.095   4.117   4.676  0.0293  0.0179  0.5875
 7418SOL     OW33472   8.651   3.675   5.242  0.0810  1.0015 -0.0425
 7418SOL    HW133473   8.646   3.667   5.142  1.7562  1.8323 -0.2125
 7418SOL    HW233474   8.560   3.665   5.281 -0.8099  2.1133 -1.7714
 7419SOL     OW33475   2.577   6.671   0.627  0.0355  0.1951 -0.3780
 7419SOL    HW133476   2.538   6.744   0.684  1.4579 -0.4824  1.4894
 7419SOL    HW233477   2.630   6.712   0.552 -1.4625  1.0849 -0.9803
 7420SOL     OW33478   1.037   0.681   0.314 -0.3877 -0.4452  0.0266
 7420SOL    HW133479   0.998   0.687   0.406 -1.7094 -0.9291 -0.4808
 7420SOL    HW233480   0.963   0.674   0.247  0.5625 -0.1985 -1.0698
 7421SOL     OW33481   7.252   1.570   2.807  0.3356  0.1411  0.2468
 7421SOL    HW133482   7.304   1.498   2.853  0.5633 -1.5177 -2.4520
 7421SOL    HW233483   7.173   1.595   2.862  1.1238 -1.0717  1.9616
 7422SOL     OW33484   0.973   4.667   3.804 -0.0304  0.3927 -0.3110
 7422SOL    HW133485   0.893   4.710   3.846 -2.0135 -2.0917 -1.4253
 7422SOL    HW233486   1.021   4.613   3.872 -2.1797 -2.1181 -0.7176
 7423SOL     OW33487   0.837   0.934   3.058  0.1176  0.2552 -0.4285
 7423SOL    HW133488   0.828   1.012   2.997  0.2266  0.9218  0.3944
 7423SOL    HW233489   0.746   0.907   3.091  0.4100  2.6176  2.4652
 7424SOL     OW33490   7.104   9.710   4.182  0.0014  0.4222  0.2953
 7424SOL    HW133491   7.015   9.677   4.215  0.1974 -0.2429  0.1831
 7424SOL    HW233492   7.130   9.658   4.100  1.3370 -0.6859  1.3844
 7425SOL     OW33493   1.913   6.128   3.986  0.1893  0.1382  0.3252
 7425SOL    HW133494   1.931   6.220   4.019 -0.3756  0.6588 -0.7912
 7425SOL    HW233495   1.926   6.062   4.060  1.0680  1.0659  0.9984
 7426SOL     OW33496   1.492   6.242   1.376  0.1035  0.1197 -0.5009
 7426SOL    HW133497   1.400   6.237   1.338  0.6271 -3.3922 -1.4667
 7426SOL    HW233498   1.490   6.213   1.472  0.1918  0.1443 -0.4912
 7427SOL     OW33499   8.198   3.483   0.427  0.1016 -0.3637 -0.1314
 7427SOL    HW133500   8.137   3.524   0.358 -0.3899 -1.6220 -0.4555
 7427SOL    HW233501   8.248   3.407   0.387  1.0101 -0.0991  0.4769
 7428SOL     OW33502   6.580   2.190   3.567  0.5511  0.2929 -0.2574
 7428SOL    HW133503   6.653   2.256   3.586  0.1494  0.5462  0.4157
 7428SOL    HW233504   6.621   2.105   3.533  1.0537  0.9764 -1.4209
 7429SOL     OW33505   1.667   9.084   4.741 -0.4311 -0.2966  0.2960
 7429SOL    HW133506   1.759   9.045   4.740 -0.3286 -0.0599  0.3955
 7429SOL    HW233507   1.652   9.138   4.658 -0.4507 -0.2688  0.3179
 7430SOL     OW33508   8.377   0.380   4.287 -0.3050  0.0409 -0.3907
 7430SOL    HW133509   8.406   0.461   4.236 -1.1909  1.1729  0.8922
 7430SOL    HW233510   8.357   0.306   4.222  2.8549  0.0232 -1.4765
 7431SOL     OW33511   8.179   3.503   5.790  0.4514 -0.1648 -0.1680
 7431SOL    HW133512   8.193   3.434   5.719  2.0090 -2.0239  1.8774
 7431SOL    HW233513   8.118   3.467   5.861 -1.0265  1.6344 -0.4765
 7432SOL     OW33514   0.376   0.891   3.182 -0.2094  0.0314  0.4743
 7432SOL    HW133515   0.457   0.858   3.133 -1.1898  1.5151 -2.2900
 7432SOL    HW233516   0.293   0.858   3.136 -1.1645  1.9526  0.7448
 7433SOL     OW33517   1.901   3.635   6.207 -0.0664 -0.4303 -0.4892
 7433SOL    HW133518   1.805   3.640   6.234  0.3017  0.4767  0.7068
 7433SOL    HW233519   1.917   3.697   6.130 -0.1092  0.6321  0.3460
 7434SOL     OW33520   0.645   6.100   1.826 -0.3087 -0.1315  0.1975
 7434SOL    HW133521   0.736   6.096   1.867 -0.2508  1.5259  0.2650
 7434SOL    HW233522   0.637   6.029   1.756  1.3196  0.2250 -0.3681
 7435SOL     OW33523   4.117   0.118   3.751 -0.0899  1.0884  0.1933
 7435SOL    HW133524   4.061   0.035   3.740  1.3855  0.1954 -0.8154
 7435SOL    HW233525   4.075   0.193   3.700 -0.5877  0.5324 -0.2277
 7436SOL     OW33526   3.285   2.180   2.452 -0.1430 -0.0631  0.1612
 7436SOL    HW133527   3.244   2.165   2.542  2.9670  0.6684  1.7611
 7436SOL    HW233528   3.269   2.275   2.424 -0.9264 -0.2345 -0.0096
 7437SOL     OW33529   7.423   6.072   5.983 -0.0809  0.3006 -0.2740
 7437SOL    HW133530   7.492   6.062   5.912  1.9556 -1.7990  1.8790
 7437SOL    HW233531   7.357   5.998   5.976  1.2299 -1.0390  1.1321
 7438SOL     OW33532   0.956   4.167   3.880 -0.0255 -0.2196 -0.2942
 7438SOL    HW133533   0.900   4.136   3.958  0.1394  0.4120  0.0793
 7438SOL    HW233534   0.935   4.262   3.860 -1.0935 -0.7869 -1.9470
 7439SOL     OW33535   9.012   0.960   3.184  0.0046  0.0638 -0.2046
 7439SOL    HW133536   8.947   0.992   3.253 -0.5170  0.1666 -0.7437
 7439SOL    HW233537   9.065   1.038   3.150 -1.9845  0.5637 -2.2764
 7440SOL     OW33538   4.729   8.368   1.854 -0.1099  0.2236  0.0287
 7440SOL    HW133539   4.672   8.290   1.830 -0.4520  0.5347 -0.1718
 7440SOL    HW233540   4.825   8.344   1.842 -0.1737 -0.4376  0.7853
 7441SOL     OW33541   7.579   0.892   4.443  0.2833 -0.0126  0.1566
 7441SOL    HW133542   7.640   0.868   4.368 -0.0964  1.8004 -0.7605
 7441SOL    HW233543   7.484   0.884   4.414  0.0802 -1.8032  1.2540
 7442SOL     OW33544   0.667   7.956   3.553 -0.3987 -0.5084 -0.3895
 7442SOL    HW133545   0.602   7.929   3.483  0.0844 -0.1728 -0.9740
 7442SOL    HW233546   0.621   8.013   3.621  0.0863  2.9944 -2.8475
 7443SOL     OW33547   0.542   4.015   3.770 -0.0158  0.3462 -0.6893
 7443SOL    HW133548   0.470   4.067   3.723  1.9168  1.3511 -2.6731
 7443SOL    HW233549   0.604   3.976   3.702  2.0185  0.5789  0.9765
 7444SOL     OW33550   1.419   9.988   2.155  0.0317 -0.4017 -0.5239
 7444SOL    HW133551   1.353   9.922   2.191 -0.7044 -0.0197 -1.1634
 7444SOL    HW233552   1.383  10.081   2.167  1.0821 -0.0980  0.4219
 7445SOL     OW33553   2.863   3.782   0.222 -0.4405  0.4886 -0.1013
 7445SOL    HW133554   2.871   3.683   0.209 -1.6341  0.5584 -1.4013
 7445SOL    HW233555   2.948   3.826   0.191 -0.0220 -0.0941  0.2015
 7446SOL     OW33556   4.797   9.001   5.028 -0.0338  0.1154  0.9389
 7446SOL    HW133557   4.727   8.995   5.099 -0.5815 -0.7450  0.3364
 7446SOL    HW233558   4.887   9.011   5.071 -0.3746 -0.2443  1.7459
 7447SOL     OW33559   8.291   8.322   3.763  0.1144 -0.0494  0.1111
 7447SOL    HW133560   8.277   8.353   3.669 -0.3541  0.7607  0.4416
 7447SOL    HW233561   8.311   8.402   3.821  0.3555 -0.5396  0.7058
 7448SOL     OW33562   1.445   1.613   2.699  0.0568  0.2529  0.2572
 7448SOL    HW133563   1.449   1.581   2.794 -0.7982  1.5389  0.7300
 7448SOL    HW233564   1.510   1.560   2.644 -0.3240 -1.3482  1.3040
 7449SOL     OW33565   0.448   5.594   5.122  0.1076 -0.6121  0.5528
 7449SOL    HW133566   0.443   5.599   5.222  0.5455  0.7982  0.5240
 7449SOL    HW233567   0.360   5.622   5.083  1.0382  2.4936  0.4999
 7450SOL     OW33568   1.833   3.077   4.314 -0.1939  0.2023 -0.4383
 7450SOL    HW133569   1.907   3.074   4.248 -0.1984 -0.5501 -0.4145
 7450SOL    HW233570   1.857   3.020   4.393 -0.9734 -0.3936 -0.6245
 7451SOL     OW33571   6.428   9.637   3.298 -0.6135  0.2008  0.0106
 7451SOL    HW133572   6.479   9.582   3.363 -1.1927 -0.7143 -0.3019
 7451SOL    HW233573   6.435   9.734   3.323  0.6114  0.0151  0.4112
 7452SOL     OW33574   9.777   7.643   5.026 -0.1620 -0.4321  0.3156
 7452SOL    HW133575   9.711   7.714   5.052  0.1110 -0.7988  2.0554
 7452SOL    HW233576   9.860   7.652   5.080  0.4807 -1.1440 -0.5309
 7453SOL     OW33577   7.446   9.607   0.371  0.4037 -0.3176 -0.0134
 7453SOL    HW133578   7.502   9.603   0.288  0.2972  0.8416 -0.1400
 7453SOL    HW233579   7.449   9.699   0.409 -0.3725 -0.5870  0.7095
 7454SOL     OW33580   4.146   1.541   0.332 -0.2174 -0.3802 -0.0139
 7454SOL    HW133581   4.112   1.583   0.247  1.6569  2.6546  0.6245
 7454SOL    HW233582   4.117   1.596   0.410  1.5313 -0.7653  0.9505
 7455SOL     OW33583   8.197   0.263   2.067 -0.2349  1.0591 -0.2031
 7455SOL    HW133584   8.207   0.218   2.156 -0.1441  1.8396  0.1886
 7455SOL    HW233585   8.102   0.255   2.036  0.3177 -1.6575 -1.3772
 7456SOL     OW33586   5.159   1.712   0.468  0.1171  0.6891 -0.8453
 7456SOL    HW133587   5.102   1.782   0.511  0.5203  0.4896  0.0065
 7456SOL    HW233588   5.216   1.754   0.397  2.3839  1.7363  1.5197
 7457SOL     OW33589   7.333   3.342   0.153  0.4971  0.1476  0.4129
 7457SOL    HW133590   7.283   3.294   0.225 -2.4423  0.5153 -1.3067
 7457SOL    HW233591   7.311   3.440   0.157  1.7420  0.4546  0.1212
 7458SOL     OW33592   7.108   5.377   0.411  0.0778 -0.1818 -0.6179
 7458SOL    HW133593   7.205   5.356   0.422  0.1071 -0.0410 -0.6151
 7458SOL    HW233594   7.090   5.409   0.318  0.2321  0.9237 -0.2714
 7459SOL     OW33595   9.622   1.493   4.258 -0.0451  0.4483  0.1525
 7459SOL    HW133596   9.692   1.426   4.234  0.4093  1.3901 -1.2536
 7459SOL    HW233597   9.665   1.582   4.276 -0.8414  0.9497 -0.3867
 7460SOL     OW33598   1.452   9.141   1.929  0.1545  0.0548  0.1621
 7460SOL    HW133599   1.529   9.130   1.866 -0.1818 -0.4670 -0.1614
 7460SOL    HW233600   1.443   9.059   1.985 -0.5669 -0.1597 -0.2581
 7461SOL     OW33601   7.346   6.019   0.614 -0.3646  0.5576 -0.5011
 7461SOL    HW133602   7.287   5.946   0.579 -0.7252  0.6802 -0.1559
 7461SOL    HW233603   7.329   6.031   0.712 -2.2968  2.9476 -1.0833
 7462SOL     OW33604   9.971   2.097   4.964  0.3922  0.3179  0.4657
 7462SOL    HW133605   9.879   2.097   5.004  0.0864 -0.8354 -0.2114
 7462SOL    HW233606  10.004   2.192   4.956 -1.6153  0.9149 -1.2780
 7463SOL     OW33607   7.817   0.750   1.826  0.2525  0.5650 -0.2384
 7463SOL    HW133608   7.724   0.766   1.859 -0.1564 -1.5355 -0.3153
 7463SOL    HW233609   7.867   0.836   1.824 -1.7316  1.7388 -0.3154
 7464SOL     OW33610   3.968   1.830   2.671 -0.2374 -0.1090 -0.6727
 7464SOL    HW133611   3.941   1.751   2.615 -1.6143  0.2441 -0.5379
 7464SOL    HW233612   4.021   1.894   2.616  0.8102 -1.0906 -0.8080
 7465SOL     OW33613   2.818   4.029   4.804 -0.6508  0.2623 -0.1806
 7465SOL    HW133614   2.739   3.997   4.751  0.7879  0.2176 -2.3218
 7465SOL    HW233615   2.829   4.128   4.792  0.2401  0.1006 -0.7365
 7466SOL     OW33616   4.064   0.689   1.539  0.8378  0.6365  0.1413
 7466SOL    HW133617   4.054   0.683   1.439  1.1308  0.2620  0.1343
 7466SOL    HW233618   3.973   0.694   1.581  0.7030  0.3673 -0.1159
 7467SOL     OW33619   6.753   5.467   0.684 -0.5825 -0.1794  0.4999
 7467SOL    HW133620   6.762   5.447   0.782 -1.1254 -0.8316  0.4174
 7467SOL    HW233621   6.690   5.544   0.672 -1.9258 -1.2615  0.5615
 7468SOL     OW33622   3.457   7.415   1.605 -0.0254 -0.0150  0.6662
 7468SOL    HW133623   3.426   7.349   1.674 -2.1110 -0.6953 -0.8478
 7468SOL    HW233624   3.379   7.469   1.574  1.3397  1.9141  0.5540
 7469SOL     OW33625   7.348   7.595   5.277 -0.0845 -0.5360 -0.4851
 7469SOL    HW133626   7.425   7.570   5.219 -0.5154 -0.0916 -1.2587
 7469SOL    HW233627   7.300   7.673   5.237 -0.6344 -0.4906  0.2538
 7470SOL     OW33628   4.659   9.231   6.721 -0.4143 -0.3402  0.1095
 7470SOL    HW133629   4.669   9.263   6.816 -1.2010  0.2473  0.0073
 7470SOL    HW233630   4.694   9.301   6.659  1.0376 -1.1584 -0.0031
 7471SOL     OW33631   1.790   1.310   2.306  0.1295 -0.2289  0.8888
 7471SOL    HW133632   1.701   1.329   2.349 -0.2345 -0.5279  0.2830
 7471SOL    HW233633   1.776   1.248   2.229  0.4748  1.8840 -0.9312
 7472SOL     OW33634   2.064   0.066   4.707  0.0015  0.1245  0.1173
 7472SOL    HW133635   2.039  -0.029   4.688 -0.3681  0.5238 -1.4350
 7472SOL    HW233636   1.990   0.127   4.677  0.5103  0.9487  0.5161
 7473SOL     OW33637   2.756   9.179   1.235  0.0306 -0.2749 -0.2326
 7473SOL    HW133638   2.716   9.201   1.146 -0.6198  0.3302  0.2076
 7473SOL    HW233639   2.785   9.263   1.281  1.9052 -0.7112 -0.5797
 7474SOL     OW33640   0.169   9.775   5.589 -0.2334 -0.2581  0.3725
 7474SOL    HW133641   0.269   9.766   5.591 -0.3820 -2.2113 -0.0725
 7474SOL    HW233642   0.127   9.685   5.592 -2.0020  0.5266  0.1591
 7475SOL     OW33643   9.794   4.518   4.503  0.2619 -0.9674  0.3384
 7475SOL    HW133644   9.728   4.511   4.429 -0.6582 -1.5834  1.1976
 7475SOL    HW233645   9.784   4.441   4.565  1.2879 -0.6739  0.8954
 7476SOL     OW33646   9.324   7.587   3.824  0.3524 -0.2592 -0.1649
 7476SOL    HW133647   9.284   7.602   3.915 -0.9705 -1.7869 -0.4779
 7476SOL    HW233648   9.368   7.498   3.822  0.3474 -0.2399 -1.0577
 7477SOL     OW33649   2.079   1.440   1.574  0.0046  0.5213 -0.4115
 7477SOL    HW133650   2.045   1.524   1.615  0.1861  0.1174  0.5707
 7477SOL    HW233651   2.017   1.364   1.595  2.0296 -0.4673  2.3891
 7478SOL     OW33652   8.781   0.949   6.570  0.0854 -0.0128  0.5640
 7478SOL    HW133653   8.842   1.028   6.563  1.3235 -1.0773 -1.2418
 7478SOL    HW233654   8.818   0.885   6.637  0.5275 -0.2906  0.0569
 7479SOL     OW33655   0.439   0.590   2.508  0.4045 -0.1296 -0.3554
 7479SOL    HW133656   0.480   0.569   2.419  1.2547 -2.3687  0.5227
 7479SOL    HW233657   0.488   0.666   2.550  1.6228 -0.6888 -0.7267
 7480SOL     OW33658   9.184   1.936   5.760 -0.4816 -0.3790 -0.3050
 7480SOL    HW133659   9.197   1.866   5.830  1.6373  0.2023 -0.0745
 7480SOL    HW233660   9.215   1.901   5.672 -1.7654 -0.5870 -0.6892
 7481SOL     OW33661   3.997   3.943   1.592  0.6949  0.3092 -0.2680
 7481SOL    HW133662   4.006   4.018   1.527  2.6973 -0.3701 -0.7969
 7481SOL    HW233663   4.081   3.935   1.646  1.4530 -3.0144 -1.8238
 7482SOL     OW33664   6.983   4.183   1.458 -0.1077  0.0197 -0.2037
 7482SOL    HW133665   6.946   4.098   1.498 -0.5162  0.7726  1.0388
 7482SOL    HW233666   7.083   4.180   1.461 -0.1212  1.4253  3.8624
 7483SOL     OW33667   2.724   6.461   0.723  0.0542 -0.3221  0.3059
 7483SOL    HW133668   2.650   6.509   0.677  1.3895  0.4608 -1.0569
 7483SOL    HW233669   2.793   6.526   0.752  0.8850 -1.1980  0.3235
 7484SOL     OW33670   4.599   3.050   2.077 -0.1588 -0.2986 -0.1824
 7484SOL    HW133671   4.688   3.007   2.094 -0.3203 -0.0286  1.3922
 7484SOL    HW233672   4.537   2.983   2.036  1.3106  0.0053 -3.0499
 7485SOL     OW33673   9.115   3.008   2.518 -0.6719  0.1575  0.5098
 7485SOL    HW133674   9.016   3.014   2.511 -0.5768  0.2858 -0.9324
 7485SOL    HW233675   9.155   3.098   2.502 -0.3537  0.2388  1.7552
 7486SOL     OW33676   7.064   9.914   1.582  0.2415  0.0823 -0.7839
 7486SOL    HW133677   7.099   9.824   1.558 -0.5689 -0.5619  0.3669
 7486SOL    HW233678   7.014   9.952   1.504 -0.8361 -1.2003 -0.7536
 7487SOL     OW33679   0.877   2.567   4.460 -0.0971  0.3346 -0.2795
 7487SOL    HW133680   0.846   2.472   4.464  1.8876 -0.3102  0.1570
 7487SOL    HW233681   0.954   2.574   4.396  1.5087  1.1413  1.6900
 7488SOL     OW33682   6.973   9.808   3.746  0.1067  0.1579  0.1284
 7488SOL    HW133683   6.947   9.711   3.741  0.4499  0.1346 -1.6432
 7488SOL    HW233684   7.036   9.829   3.671 -1.4675  2.1831 -0.6695
 7489SOL     OW33685   3.916   5.272   2.388  0.1784 -0.2037 -0.4196
 7489SOL    HW133686   3.930   5.244   2.293 -0.7753 -1.4657 -0.2011
 7489SOL    HW233687   3.840   5.336   2.393  0.6203  0.3321 -0.5846
 7490SOL     OW33688   7.709   8.376   2.950  0.4426 -0.3129 -0.4614
 7490SOL    HW133689   7.630   8.401   3.006  2.9352 -0.1690  3.1475
 7490SOL    HW233690   7.762   8.458   2.928  1.5829 -0.8254  0.3204
 7491SOL     OW33691   3.406   3.566   3.180  0.3288  0.6323  0.2083
 7491SOL    HW133692   3.499   3.529   3.192  0.2587 -0.1371 -1.5426
 7491SOL    HW233693   3.378   3.555   3.085 -0.8524  2.5715  0.3225
 7492SOL     OW33694   3.897   2.665   2.666  0.1863 -0.1892 -0.3994
 7492SOL    HW133695   3.861   2.758   2.675  0.8384  0.0891 -0.6301
 7492SOL    HW233696   3.996   2.669   2.653  0.3707 -0.9714  0.7040
 7493SOL     OW33697   1.361   4.656   0.145 -0.0456 -0.2361  0.1501
 7493SOL    HW133698   1.374   4.729   0.078  0.3189 -0.7230 -0.3132
 7493SOL    HW233699   1.450   4.615   0.167 -0.1423  0.0471  1.0716
 7494SOL     OW33700   6.454   9.119   4.221  0.2585  0.1150  0.3484
 7494SOL    HW133701   6.394   9.140   4.143  2.0824 -1.2097 -1.4783
 7494SOL    HW233702   6.486   9.024   4.213  0.0787 -0.2006  3.0111
 7495SOL     OW33703   0.359   0.343   5.932 -0.3237  0.7266 -0.0865
 7495SOL    HW133704   0.402   0.406   5.997  0.4890  1.0871 -0.9592
 7495SOL    HW233705   0.400   0.252   5.941  1.4552  1.3399 -1.6976
 7496SOL     OW33706   9.307   7.836   4.407  0.1300 -0.0008 -0.0276
 7496SOL    HW133707   9.375   7.780   4.454 -0.7774 -0.9366  0.2040
 7496SOL    HW233708   9.265   7.899   4.472  0.4469  0.2631 -0.0756
 7497SOL     OW33709   3.090   7.833   2.519 -0.0520  0.0047 -0.1279
 7497SOL    HW133710   3.163   7.852   2.584  0.3656  2.2435 -1.1784
 7497SOL    HW233711   3.011   7.795   2.566  0.1476  1.8278  1.7402
 7498SOL     OW33712   4.703   4.712   0.273  0.4141 -0.2661  0.2512
 7498SOL    HW133713   4.640   4.753   0.339 -0.4081  1.9245 -1.8336
 7498SOL    HW233714   4.796   4.740   0.293  0.0468  1.2486 -0.1513
 7499SOL     OW33715   9.699   0.613   3.680  0.4046 -0.1911 -0.1787
 7499SOL    HW133716   9.775   0.548   3.674 -0.1259 -0.9027  0.6617
 7499SOL    HW233717   9.735   0.706   3.682  1.1712 -0.4607 -1.4065
 7500SOL     OW33718   8.004   4.365   3.669  0.1253  0.1285 -0.4309
 7500SOL    HW133719   7.977   4.443   3.612  1.5767  1.3412  0.5173
 7500SOL    HW233720   7.959   4.371   3.758 -2.0421 -1.7026 -1.3200
 7501SOL     OW33721   1.446   4.339   3.183  0.1517  0.2967 -0.0875
 7501SOL    HW133722   1.408   4.323   3.092  0.1856  0.6074 -0.1567
 7501SOL    HW233723   1.489   4.254   3.216 -0.5592 -0.0401 -0.0225
 7502SOL     OW33724   7.033   5.564   6.094  0.2264 -0.5301 -0.1999
 7502SOL    HW133725   7.080   5.645   6.127  1.6282 -1.3012 -0.2830
 7502SOL    HW233726   7.091   5.516   6.028  0.5621 -3.0826  1.8525
 7503SOL     OW33727   0.673   3.619   4.850  0.5134 -0.8115 -0.1916
 7503SOL    HW133728   0.649   3.613   4.947 -0.5904 -0.9047 -0.4722
 7503SOL    HW233729   0.593   3.647   4.797  0.9838 -1.2448 -1.1441
 7504SOL     OW33730   5.470   4.096   0.304 -0.8661  0.4895  0.1285
 7504SOL    HW133731   5.529   4.146   0.368  0.2150 -0.4244 -0.1267
 7504SOL    HW233732   5.468   3.999   0.330 -1.9986  0.4556 -0.0678
 7505SOL     OW33733   9.079   9.423   3.499  0.5558 -0.1595  0.5073
 7505SOL    HW133734   8.990   9.404   3.457  0.3961  0.2943  0.6298
 7505SOL    HW233735   9.140   9.462   3.430 -0.4340  2.7529  1.1916
 7506SOL     OW33736   1.840   9.373   2.339 -0.2183 -0.7867 -0.5837
 7506SOL    HW133737   1.930   9.332   2.328  0.6269  0.9806 -0.4468
 7506SOL    HW233738   1.794   9.379   2.251  0.8694  0.6677 -1.0649
 7507SOL     OW33739   6.562   0.987   3.560 -0.0045  0.0369  0.3298
 7507SOL    HW133740   6.462   0.992   3.560 -0.0225 -0.0540 -1.6187
 7507SOL    HW233741   6.593   0.942   3.644 -1.6337 -0.8503  0.4790
 7508SOL     OW33742   9.251   6.686   0.866  0.1036 -0.8094 -0.4335
 7508SOL    HW133743   9.190   6.759   0.835 -1.5671 -0.2876  3.7439
 7508SOL    HW233744   9.215   6.597   0.837 -0.3653 -0.2535 -1.5682
 7509SOL     OW33745   7.228   6.515   5.011 -0.4221 -0.5482  0.2521
 7509SOL    HW133746   7.153   6.564   4.966 -0.4774  1.5073  2.4665
 7509SOL    HW233747   7.195   6.427   5.045 -1.2525 -0.5939 -0.6367
 7510SOL     OW33748   4.315   8.281   1.838  0.3621 -0.2474  0.2180
 7510SOL    HW133749   4.398   8.242   1.799  0.9947 -1.5018  2.7210
 7510SOL    HW233750   4.287   8.361   1.784  1.9591 -1.0815 -1.9158
 7511SOL     OW33751   8.250   1.473   4.008  0.3215  0.1405  0.4520
 7511SOL    HW133752   8.264   1.571   3.994 -0.4759  0.4396  1.6565
 7511SOL    HW233753   8.297   1.445   4.092  0.1469 -0.4078  0.3652
 7512SOL     OW33754   8.643   3.344   6.267  0.0949 -0.8230  0.3194
 7512SOL    HW133755   8.593   3.416   6.315  0.9899 -0.2463  0.4104
 7512SOL    HW233756   8.592   3.316   6.186 -0.1220  0.1346  0.1172
 7513SOL     OW33757   1.634   1.508   0.812 -0.1603  0.5175 -0.3605
 7513SOL    HW133758   1.577   1.427   0.798  1.6985 -1.6487  3.7117
 7513SOL    HW233759   1.699   1.517   0.736 -1.1839 -1.1050 -1.4483
 7514SOL     OW33760   9.082   0.530   5.823 -0.0105 -0.0939 -0.4652
 7514SOL    HW133761   9.116   0.598   5.889 -0.0036  0.1453 -0.7130
 7514SOL    HW233762   8.989   0.502   5.848 -0.9538  1.8213 -1.7338
 7515SOL     OW33763   1.976   3.657   6.496  0.4367 -0.5172  0.2662
 7515SOL    HW133764   1.946   3.637   6.403  1.3998  0.4611 -0.2589
 7515SOL    HW233765   2.039   3.735   6.495 -0.5049  0.3022  1.8652
 7516SOL     OW33766   7.601   1.552   5.365 -0.1652 -0.4891 -0.3847
 7516SOL    HW133767   7.686   1.569   5.415 -0.5137  1.1301 -0.3116
 7516SOL    HW233768   7.558   1.640   5.341 -0.2660 -1.2389 -3.0751
 7517SOL     OW33769   1.275   8.515   3.043  0.5911 -0.0189  0.2093
 7517SOL    HW133770   1.374   8.513   3.061  0.7997  0.0031 -0.9177
 7517SOL    HW233771   1.241   8.421   3.036  0.8027 -0.0290 -0.8148
 7518SOL     OW33772   9.737   9.389   6.751  0.0386 -0.0536  0.0642
 7518SOL    HW133773   9.642   9.408   6.775  0.2978 -1.0167  1.9401
 7518SOL    HW233774   9.770   9.310   6.803  2.3925  1.3293  0.7682
 7519SOL     OW33775   0.130   6.100   2.256  0.7404  0.4319  0.0612
 7519SOL    HW133776   0.133   6.129   2.161 -0.8990  0.6186  0.0522
 7519SOL    HW233777   0.216   6.056   2.280  1.8228  1.9147 -1.0080
 7520SOL     OW33778   2.602   1.730   6.070  0.2317 -0.3366  0.0932
 7520SOL    HW133779   2.538   1.781   6.011  0.8886 -0.8265 -1.0553
 7520SOL    HW233780   2.553   1.654   6.113  0.3490 -1.5383 -1.8636
 7521SOL     OW33781   4.687   3.272   2.655  0.4911 -0.4305 -0.0706
 7521SOL    HW133782   4.703   3.343   2.587  2.1565  0.1287  0.8645
 7521SOL    HW233783   4.714   3.306   2.745 -0.7232 -1.5111  0.7250
 7522SOL     OW33784   9.826   7.622   3.311  0.0645 -0.1307  0.2091
 7522SOL    HW133785   9.738   7.664   3.288 -0.0364 -0.5477 -0.1634
 7522SOL    HW233786   9.813   7.554   3.383  0.4737  1.6079  1.9894
 7523SOL     OW33787   9.916   0.663   3.234 -0.0492  0.4602 -0.2320
 7523SOL    HW133788   9.952   0.672   3.141 -1.4954 -0.2448 -0.8794
 7523SOL    HW233789   9.820   0.689   3.235  0.0111  0.6678  1.1253
 7524SOL     OW33790   8.825   2.310   6.104 -0.3794 -0.4234 -0.3167
 7524SOL    HW133791   8.842   2.283   6.199  0.2781  1.9390  0.2499
 7524SOL    HW233792   8.911   2.309   6.053 -0.5133 -0.3584 -0.5463
 7525SOL     OW33793   0.228   0.048   2.011  0.0133  0.2439  0.2811
 7525SOL    HW133794   0.189   0.140   1.998  2.2976  0.6707 -4.7152
 7525SOL    HW233795   0.328   0.055   2.016  0.1830 -1.9303  0.2678
 7526SOL     OW33796   9.309   0.705   5.346 -0.2171  0.3461  0.1233
 7526SOL    HW133797   9.289   0.610   5.321  0.7989  0.3474 -0.7356
 7526SOL    HW233798   9.312   0.761   5.264  0.8518  0.8032  0.4680
 7527SOL     OW33799   5.638   5.907   0.437 -0.0189  0.7836 -0.1785
 7527SOL    HW133800   5.561   5.844   0.452  1.5809 -0.3879  3.8996
 7527SOL    HW233801   5.647   5.926   0.339 -2.5670 -2.7671 -1.2133
 7528SOL     OW33802   8.852   9.275   0.475  0.2865  0.2401 -0.4675
 7528SOL    HW133803   8.934   9.259   0.530  0.2631  0.8660 -0.2453
 7528SOL    HW233804   8.833   9.194   0.419  0.0690 -0.5491  0.7459
 7529SOL     OW33805   1.192   8.562   1.722  0.0540  0.5363 -0.6078
 7529SOL    HW133806   1.172   8.652   1.761  0.5673 -0.1103  1.2191
 7529SOL    HW233807   1.290   8.545   1.729  0.0032 -0.0149 -1.2736
 7530SOL     OW33808   0.054   9.702   2.140 -0.6229 -0.0880 -0.1643
 7530SOL    HW133809  -0.027   9.667   2.186  1.5796 -1.5757  2.8169
 7530SOL    HW233810   0.096   9.630   2.085 -1.0410  0.5508 -1.3521
 7531SOL     OW33811   5.089   0.440   4.733  0.1366 -0.6053  0.0532
 7531SOL    HW133812   5.058   0.515   4.676  0.1827 -0.8918 -0.3492
 7531SOL    HW233813   5.022   0.424   4.806  0.7902  0.7201  0.9645
 7532SOL     OW33814   5.635   2.746   3.314  0.6024  0.1762 -0.3184
 7532SOL    HW133815   5.730   2.764   3.289  1.1114 -1.3940  0.4277
 7532SOL    HW233816   5.595   2.682   3.249  0.2805  0.2554 -0.2013
 7533SOL     OW33817   4.084   8.253   2.210 -0.2782  0.4775 -0.3556
 7533SOL    HW133818   4.109   8.181   2.275 -2.8961 -0.0243  0.1743
 7533SOL    HW233819   4.051   8.212   2.125 -0.7488  1.0569 -0.4608
 7534SOL     OW33820   8.183   8.836   3.684 -0.0113  0.5341 -0.2317
 7534SOL    HW133821   8.201   8.748   3.726 -0.9132 -0.0121 -0.9506
 7534SOL    HW233822   8.087   8.840   3.655  0.2650  1.3656 -1.0747
 7535SOL     OW33823   2.181   5.609   3.978  0.2751  0.0538  0.5167
 7535SOL    HW133824   2.096   5.637   3.933  0.5511  0.6572  0.3596
 7535SOL    HW233825   2.258   5.622   3.915  0.2856 -2.1707  0.0306
 7536SOL     OW33826   7.044   3.320   0.637 -0.0606 -0.3910  0.1641
 7536SOL    HW133827   7.059   3.265   0.555  0.5923  0.6601 -0.4303
 7536SOL    HW233828   7.029   3.259   0.715 -1.0587 -1.4032 -0.7915
 7537SOL     OW33829   9.724   1.018   5.537  0.0699 -0.1335 -0.3361
 7537SOL    HW133830   9.661   0.949   5.575  0.1861  0.0326  0.1679
 7537SOL    HW233831   9.690   1.109   5.559 -0.7316 -0.0007 -2.0451
 7538SOL     OW33832   7.744   8.719   5.356  0.4463 -0.1332  0.1199
 7538SOL    HW133833   7.836   8.757   5.364  0.5170 -0.3318  0.2746
 7538SOL    HW233834   7.726   8.659   5.435 -0.0601  0.4292  0.4384
 7539SOL     OW33835   6.989   4.884   6.218 -0.2092  0.8768  0.3346
 7539SOL    HW133836   6.894   4.853   6.216 -0.3449  1.3507 -1.5023
 7539SOL    HW233837   6.994   4.974   6.261 -0.3470  0.1385  1.9489
 7540SOL     OW33838   1.323   2.653   0.819  0.1430  0.3455  0.6312
 7540SOL    HW133839   1.378   2.581   0.775  0.8058  2.0408 -1.3719
 7540SOL    HW233840   1.312   2.730   0.756 -3.0055  0.8274  1.6854
 7541SOL     OW33841   8.841   6.836   3.190 -0.3820  0.0878  0.2446
 7541SOL    HW133842   8.830   6.850   3.092 -2.2790 -0.9068  0.2900
 7541SOL    HW233843   8.884   6.748   3.207 -0.1970  0.1901  0.2997
 7542SOL     OW33844   7.034   9.503   4.822 -0.2838 -0.0930 -0.4762
 7542SOL    HW133845   6.936   9.522   4.820 -0.4892 -1.1819 -1.2181
 7542SOL    HW233846   7.085   9.589   4.818 -1.1944  0.3916 -1.8427
 7543SOL     OW33847   1.149   8.012   5.675 -0.0436  0.1301 -0.4266
 7543SOL    HW133848   1.073   7.946   5.675 -0.5017  0.5725  2.2341
 7543SOL    HW233849   1.147   8.065   5.591 -2.2694 -0.3674 -0.7262
 7544SOL     OW33850   0.732   8.097   6.193  0.0124  0.0152  0.2231
 7544SOL    HW133851   0.638   8.128   6.180  0.5042  2.1679  1.5969
 7544SOL    HW233852   0.783   8.109   6.108 -0.4842  0.5667  0.0007
 7545SOL     OW33853   9.709   9.904   4.738  0.2116  0.5604 -0.6712
 7545SOL    HW133854   9.639   9.893   4.667  0.6257  0.2985 -1.0388
 7545SOL    HW233855   9.750   9.815   4.758  1.5219  0.9482 -1.5625
 7546SOL     OW33856   2.150   0.484   1.066 -0.2830  0.1456 -0.1671
 7546SOL    HW133857   2.232   0.449   1.112 -1.1914 -0.4939  0.9836
 7546SOL    HW233858   2.126   0.573   1.106 -0.3167  0.2097 -0.3288
 7547SOL     OW33859   1.084   7.067   3.198  0.6256  0.0259 -0.0056
 7547SOL    HW133860   1.125   7.117   3.275 -0.5996  0.5416  0.3395
 7547SOL    HW233861   1.007   7.012   3.232 -0.4759  0.9321 -0.9754
 7548SOL     OW33862   5.215   7.766   3.074  0.1572 -0.0813  0.1243
 7548SOL    HW133863   5.257   7.751   2.984 -1.6447 -3.4671 -0.2183
 7548SOL    HW233864   5.126   7.812   3.062  0.1506 -0.0701  0.2161
 7549SOL     OW33865   0.521   0.305   0.902  0.2274  0.1365  0.0664
 7549SOL    HW133866   0.429   0.268   0.914  0.8030 -1.5839 -0.6643
 7549SOL    HW233867   0.581   0.234   0.862  2.0442  0.9744  1.2307
 7550SOL     OW33868   2.899   2.561   0.619 -0.0722 -0.1752  0.4186
 7550SOL    HW133869   2.981   2.606   0.584 -0.7144  0.0016 -0.9279
 7550SOL    HW233870   2.902   2.463   0.598 -0.4836 -0.0595 -0.2189
 7551SOL     OW33871   3.815   7.169   0.564 -0.4793  0.9880  0.0504
 7551SOL    HW133872   3.782   7.261   0.545  2.1001  1.6566 -1.4448
 7551SOL    HW233873   3.864   7.168   0.651  2.2779  1.8418 -1.4193
 7552SOL     OW33874   4.308   4.557   1.586  0.0501  0.5887 -0.3660
 7552SOL    HW133875   4.244   4.556   1.509 -1.7554  2.6194  1.0256
 7552SOL    HW233876   4.374   4.631   1.574  0.8488 -0.1876 -0.7900
 7553SOL     OW33877   3.831   0.824   2.662  0.4760  0.0459 -0.0162
 7553SOL    HW133878   3.846   0.905   2.606 -0.2810 -0.6342 -1.2415
 7553SOL    HW233879   3.743   0.832   2.709 -0.0427 -0.4556 -0.8757
 7554SOL     OW33880   9.648   6.376   3.810 -0.3751  0.3047 -0.2045
 7554SOL    HW133881   9.580   6.345   3.744 -0.6217  1.2233 -0.3837
 7554SOL    HW233882   9.654   6.310   3.885 -0.2859 -0.6050 -1.0010
 7555SOL     OW33883   3.072   9.134   1.192  0.3006 -0.5404 -0.2048
 7555SOL    HW133884   3.081   9.152   1.290 -0.6025 -0.6322 -0.1028
 7555SOL    HW233885   3.017   9.207   1.150 -2.5760 -2.4781  0.0435
 7556SOL     OW33886   5.010   0.983   3.222 -0.1759 -1.0450  0.4840
 7556SOL    HW133887   5.031   1.048   3.296  0.4907 -1.5400  0.7385
 7556SOL    HW233888   5.051   0.894   3.244 -0.4629 -1.3490 -0.2139
 7557SOL     OW33889   9.576   3.175   0.183 -0.3447  0.1448  0.6142
 7557SOL    HW133890   9.654   3.136   0.134 -0.3806  0.4567  0.3034
 7557SOL    HW233891   9.492   3.149   0.135 -0.4747 -0.6984  1.2909
 7558SOL     OW33892   0.657   5.122   0.362  0.2306  0.0873  0.3501
 7558SOL    HW133893   0.749   5.158   0.348  0.9674 -1.8844 -0.1212
 7558SOL    HW233894   0.591   5.175   0.308  1.1779  1.1260  0.2082
 7559SOL     OW33895   3.011   4.569   6.188 -0.2080 -0.9995 -0.4563
 7559SOL    HW133896   3.003   4.647   6.251  3.1094 -0.6756 -0.3849
 7559SOL    HW233897   2.939   4.576   6.119 -1.2559  0.9845  0.7775
 7560SOL     OW33898   1.901   7.057   5.311 -0.6569  0.7006 -0.1265
 7560SOL    HW133899   1.828   7.017   5.256 -0.2854  1.4262 -1.1814
 7560SOL    HW233900   1.990   7.032   5.272 -0.3820  1.0488  0.2675
 7561SOL     OW33901   8.859   8.545   3.618 -0.8646  0.1938 -0.0389
 7561SOL    HW133902   8.839   8.577   3.710 -1.8518 -0.8746  0.1337
 7561SOL    HW233903   8.787   8.574   3.556 -0.5455  0.3362 -0.3439
 7562SOL     OW33904   7.543   0.320   6.703  0.1281 -0.1392  0.3256
 7562SOL    HW133905   7.477   0.388   6.736  1.0279  0.2519  1.3410
 7562SOL    HW233906   7.499   0.263   6.634 -1.5188 -0.3813  1.5361
 7563SOL     OW33907   9.430   6.597   2.094 -0.0804 -0.5388  0.2867
 7563SOL    HW133908   9.420   6.689   2.132 -2.5300 -0.4580 -0.5081
 7563SOL    HW233909   9.524   6.566   2.108 -0.0407  0.7901  3.4139
 7564SOL     OW33910   3.419   5.462   3.784 -0.3113  0.4421 -0.7370
 7564SOL    HW133911   3.410   5.561   3.788  0.5228  0.5023 -0.4503
 7564SOL    HW233912   3.427   5.433   3.688 -1.0737  0.6025 -0.8517
 7565SOL     OW33913   3.258   9.569   6.538 -0.0988  0.2985 -0.3505
 7565SOL    HW133914   3.278   9.638   6.469  2.7403  0.5678  0.6606
 7565SOL    HW233915   3.322   9.492   6.528 -2.1547 -1.4385 -0.4402
 7566SOL     OW33916   3.017   7.490   1.847  0.1417  0.0020 -0.3802
 7566SOL    HW133917   2.950   7.530   1.910 -0.0253  0.0673 -0.5948
 7566SOL    HW233918   2.984   7.502   1.753  0.3832 -0.1035 -0.4775
 7567SOL     OW33919   9.213   5.800   1.660  0.2474 -0.3778  0.3617
 7567SOL    HW133920   9.206   5.705   1.690 -0.6184  0.1039  1.7739
 7567SOL    HW233921   9.209   5.805   1.561 -1.1042 -1.7162  0.3389
 7568SOL     OW33922   9.316   9.234   2.222 -0.7331 -0.1895  0.2966
 7568SOL    HW133923   9.297   9.136   2.227 -0.6461 -0.2115  0.2027
 7568SOL    HW233924   9.406   9.252   2.262 -0.1486 -0.3325 -0.9131
 7569SOL     OW33925   4.090   4.546   2.425  0.3974 -0.1814  0.3589
 7569SOL    HW133926   4.160   4.490   2.469 -0.4930  0.0838  2.1902
 7569SOL    HW233927   4.017   4.487   2.390  0.3836 -0.3188  0.6103
 7570SOL     OW33928   8.885   5.135   4.464  0.3936 -0.7340  0.1480
 7570SOL    HW133929   8.800   5.165   4.421  1.0551 -3.1674 -3.0671
 7570SOL    HW233930   8.864   5.068   4.536 -0.4184 -1.3703 -0.6713
 7571SOL     OW33931   0.459   1.297   1.817  1.0765  0.2932 -0.1779
 7571SOL    HW133932   0.443   1.344   1.904  0.0961 -2.5610  1.2666
 7571SOL    HW233933   0.548   1.252   1.819 -0.0287 -1.9358  0.4182
 7572SOL     OW33934   4.836   5.779   2.902 -0.4324  0.0239 -0.0288
 7572SOL    HW133935   4.861   5.808   2.810 -1.4389 -1.7912 -0.8940
 7572SOL    HW233936   4.737   5.788   2.914 -0.2802  0.4420  0.9437
 7573SOL     OW33937   7.648   6.030   2.945  0.4449 -0.5352  0.7306
 7573SOL    HW133938   7.718   6.037   2.874  0.8324 -1.1422  1.0500
 7573SOL    HW233939   7.575   5.970   2.914 -0.1781  0.4725  0.2067
 7574SOL     OW33940   7.592   3.756   2.150 -0.6572  0.3699  0.4802
 7574SOL    HW133941   7.630   3.708   2.229 -1.3404  1.3592  1.4199
 7574SOL    HW233942   7.529   3.696   2.101  0.0211 -0.3567  0.4943
 7575SOL     OW33943   5.194   9.870   1.013 -0.1565  0.2463 -0.4677
 7575SOL    HW133944   5.208   9.968   1.000 -0.6588  0.6795  2.1244
 7575SOL    HW233945   5.096   9.850   1.018 -0.0756 -0.4873 -1.6460
 7576SOL     OW33946   0.871   3.016   4.555  0.0406 -0.5477 -0.8098
 7576SOL    HW133947   0.905   2.922   4.564 -0.0386 -0.4569  0.4835
 7576SOL    HW233948   0.907   3.071   4.630 -0.3770  0.3253 -1.2496
 7577SOL     OW33949   6.311   1.490   4.942 -0.7331 -0.1264 -0.6698
 7577SOL    HW133950   6.302   1.548   4.862 -1.7865 -0.6379 -0.9321
 7577SOL    HW233951   6.408   1.479   4.965 -0.5707  3.4739  0.6799
 7578SOL     OW33952   0.138   7.729   6.032  0.0437 -0.0980  0.0022
 7578SOL    HW133953   0.222   7.764   6.073 -0.5048  0.8037  0.3614
 7578SOL    HW233954   0.158   7.644   5.983  1.0855 -0.1021  0.4239
 7579SOL     OW33955   1.276   4.851   1.955  0.3493  0.0970 -1.1602
 7579SOL    HW133956   1.190   4.834   2.005 -0.0874 -1.0961 -2.3086
 7579SOL    HW233957   1.351   4.803   2.001  0.4481  1.2208 -0.0969
 7580SOL     OW33958   3.757   0.568   2.566 -0.5162 -0.0639 -0.1888
 7580SOL    HW133959   3.675   0.611   2.527 -2.1605 -1.2346  1.8768
 7580SOL    HW233960   3.814   0.638   2.609 -1.1874  0.5697 -0.3219
 7581SOL     OW33961   0.887   0.432   0.404 -0.0738  0.0770  0.1480
 7581SOL    HW133962   0.895   0.512   0.464  1.0868 -0.3799  0.6123
 7581SOL    HW233963   0.948   0.443   0.325  1.1707 -0.9893  0.9437
 7582SOL     OW33964   8.767   8.304   4.445  0.9233  0.1892  0.0600
 7582SOL    HW133965   8.680   8.279   4.403  0.3703 -0.0050  1.2896
 7582SOL    HW233966   8.840   8.245   4.409  0.1638 -1.1067  0.6027
 7583SOL     OW33967   5.901   9.281   4.264 -0.3870  0.5136 -0.0107
 7583SOL    HW133968   5.802   9.286   4.254 -0.4380 -0.5000 -0.0527
 7583SOL    HW233969   5.924   9.238   4.351 -0.0012 -0.5799 -0.6418
 7584SOL     OW33970   2.788   4.565   0.394 -0.2679 -0.2786 -0.0403
 7584SOL    HW133971   2.705   4.608   0.361  0.7284  2.3766  0.8085
 7584SOL    HW233972   2.846   4.540   0.317 -0.2491  1.1679 -0.5033
 7585SOL     OW33973   3.785   6.096   3.128  0.4355 -0.1840 -0.2083
 7585SOL    HW133974   3.756   6.190   3.144  1.7792  0.3422 -0.8234
 7585SOL    HW233975   3.734   6.034   3.189  0.4421  1.0480  1.0605
 7586SOL     OW33976   3.291   9.456   4.062  0.0725 -0.1780 -0.6110
 7586SOL    HW133977   3.293   9.473   4.160 -0.4067 -0.8143 -0.4884
 7586SOL    HW233978   3.383   9.466   4.024  0.0604  1.2761 -0.3085
 7587SOL     OW33979   8.338   9.977   0.840 -0.0375 -0.4387 -0.2783
 7587SOL    HW133980   8.277   9.963   0.918  0.4063 -1.2886 -0.0840
 7587SOL    HW233981   8.395  10.058   0.857  0.6113 -1.0823  0.6280
 7588SOL     OW33982   9.636   1.273   0.765 -0.1900 -0.4146  0.0872
 7588SOL    HW133983   9.574   1.239   0.836  0.0396 -1.5623 -0.2493
 7588SOL    HW233984   9.714   1.211   0.756  1.1100  1.1231  0.6338
 7589SOL     OW33985   4.938   3.294   3.940 -0.4009  0.2806  0.3176
 7589SOL    HW133986   4.974   3.289   4.034  2.1323  0.2241 -0.6161
 7589SOL    HW233987   4.997   3.242   3.879 -1.7297  0.7630 -1.4291
 7590SOL     OW33988   0.831   5.329   4.579  0.0690 -0.0455 -0.1308
 7590SOL    HW133989   0.745   5.290   4.547  1.2536 -0.8441 -2.4308
 7590SOL    HW233990   0.902   5.259   4.579  0.6276  0.4746  2.2640
 7591SOL     OW33991   2.251   4.294   2.190 -0.0512 -0.5828  0.3431
 7591SOL    HW133992   2.304   4.273   2.273 -2.1855 -1.1061  1.5995
 7591SOL    HW233993   2.269   4.389   2.163 -0.1487 -0.0658  2.0380
 7592SOL     OW33994   4.006   6.666   2.553 -0.4749 -0.0817 -0.3341
 7592SOL    HW133995   3.966   6.576   2.537  2.4733 -1.1488 -2.2141
 7592SOL    HW233996   4.053   6.667   2.641 -0.3559 -0.4353 -0.3966
 7593SOL     OW33997   3.528   9.006   0.234  0.0873 -0.5099  0.6861
 7593SOL    HW133998   3.549   8.912   0.208  0.0969 -0.8911  2.0164
 7593SOL    HW233999   3.554   9.021   0.329 -2.4454  0.0284  1.3353
 7594SOL     OW34000   1.197   8.061   5.379 -0.6386 -0.4429  0.0562
 7594SOL    HW134001   1.284   8.028   5.343  0.0723  0.8717  0.5449
 7594SOL    HW234002   1.126   7.992   5.363  0.6913 -1.9808  0.5848
 7595SOL     OW34003   1.080   1.835   4.778  0.1760 -0.0035 -0.3859
 7595SOL    HW134004   1.007   1.900   4.759  0.2982  0.7515  1.6685
 7595SOL    HW234005   1.045   1.742   4.771 -0.3280  0.2885 -1.9658
 7596SOL     OW34006   2.569   8.192   0.483 -0.4941  0.3247  0.0388
 7596SOL    HW134007   2.586   8.184   0.385 -1.0716  2.5356 -0.2723
 7596SOL    HW234008   2.488   8.249   0.498 -1.6275 -1.6999  1.7519
 7597SOL     OW34009   7.803   7.835   1.444  1.1949 -0.1726  0.3025
 7597SOL    HW134010   7.803   7.932   1.419 -0.6315 -0.3589 -0.5042
 7597SOL    HW234011   7.716   7.813   1.489  1.3366 -1.5831 -0.1158
 7598SOL     OW34012   7.949   7.316   0.473 -0.1397  0.8452  0.3419
 7598SOL    HW134013   7.864   7.278   0.509 -0.2664 -0.4869 -1.3161
 7598SOL    HW234014   8.027   7.274   0.519 -0.3413  2.7023  2.4937
 7599SOL     OW34015   8.827   9.542   0.095 -0.2150  0.0176 -0.2985
 7599SOL    HW134016   8.798   9.507   0.006  1.5305 -0.7815 -0.5863
 7599SOL    HW234017   8.758   9.519   0.164 -1.0423 -0.3601 -1.2342
 7600SOL     OW34018   0.412   7.590   6.725  0.1292 -0.2647  0.1337
 7600SOL    HW134019   0.320   7.628   6.733  0.4617  0.5356  0.2247
 7600SOL    HW234020   0.477   7.652   6.770  0.8588 -0.2445 -0.9277
 7601SOL     OW34021   2.230   6.087   0.444 -0.1520  0.0706  0.3648
 7601SOL    HW134022   2.207   5.992   0.425  0.8012  0.0612 -0.7866
 7601SOL    HW234023   2.329   6.099   0.439 -0.3317  1.3125 -0.4271
 7602SOL     OW34024   1.756   7.281   6.615 -0.0993  0.1842  0.1675
 7602SOL    HW134025   1.794   7.218   6.548  0.7566  1.2101 -0.3311
 7602SOL    HW234026   1.656   7.277   6.613 -0.0485 -1.1763  0.1744
 7603SOL     OW34027   4.989   3.291   3.560 -0.1071 -0.1445 -0.0767
 7603SOL    HW134028   4.890   3.292   3.568 -0.2018  0.4584 -1.3390
 7603SOL    HW234029   5.016   3.249   3.473  0.7378 -0.0261  0.1152
 7604SOL     OW34030   8.553   8.329   5.767  0.2917  0.7969 -0.2745
 7604SOL    HW134031   8.575   8.235   5.743  0.6509  1.0959 -1.1508
 7604SOL    HW234032   8.570   8.344   5.864  2.3390  0.5592 -0.5889
 7605SOL     OW34033   1.886   6.521   2.554  0.1599 -0.6912 -0.0939
 7605SOL    HW134034   1.843   6.562   2.474  0.0246 -0.1374  0.2623
 7605SOL    HW234035   1.985   6.515   2.540  0.4631  1.8503  0.7713
 7606SOL     OW34036   8.688   7.029   0.331 -0.6053 -0.1041 -0.5045
 7606SOL    HW134037   8.617   6.960   0.347  0.6685 -1.4972 -0.8458
 7606SOL    HW234038   8.683   7.060   0.236 -2.0514  1.2939 -0.0054
 7607SOL     OW34039   8.347   2.971   2.689  0.3628 -0.0477 -0.5311
 7607SOL    HW134040   8.295   2.889   2.665  0.5479 -0.5847  0.8531
 7607SOL    HW234041   8.354   3.031   2.609 -0.9135 -0.7640 -1.1957
 7608SOL     OW34042   1.040   2.398   5.659 -0.3496  0.4566  0.1359
 7608SOL    HW134043   1.123   2.440   5.696  0.1631  0.8173 -1.3865
 7608SOL    HW234044   1.015   2.319   5.715  1.0215  0.3360  0.6023
 7609SOL     OW34045   6.209   1.049   2.629  0.6590  0.7402 -0.2745
 7609SOL    HW134046   6.190   1.140   2.667 -0.1258  0.5452 -0.1935
 7609SOL    HW234047   6.308   1.037   2.619  0.8934  0.7073  1.9010
 7610SOL     OW34048   2.691   8.855   5.759  0.0923  0.2893  0.0123
 7610SOL    HW134049   2.663   8.762   5.733 -1.1376  0.3589  1.0638
 7610SOL    HW234050   2.789   8.855   5.782 -0.1464 -0.9707  1.0504
 7611SOL     OW34051   8.622   0.784   4.323 -0.3855  0.0908 -0.0228
 7611SOL    HW134052   8.530   0.770   4.359 -0.6402 -0.3441 -0.8331
 7611SOL    HW234053   8.616   0.825   4.232  0.2760  2.6276  1.0276
 7612SOL     OW34054   1.629   3.181   4.013  0.0548  0.2820  0.6294
 7612SOL    HW134055   1.616   3.278   4.034 -0.4136  0.3580  0.0110
 7612SOL    HW234056   1.540   3.137   4.004  0.2505 -0.7235  3.1759
 7613SOL     OW34057   7.979   2.106   4.160 -0.3993  0.5795 -0.1575
 7613SOL    HW134058   7.913   2.051   4.210 -0.3929 -0.2638 -1.0456
 7613SOL    HW234059   7.933   2.185   4.120 -0.2375  1.7317  1.8638
 7614SOL     OW34060   0.611   9.346   2.237 -0.0255  0.3442 -0.2746
 7614SOL    HW134061   0.556   9.273   2.195  1.1429 -0.8868  0.3232
 7614SOL    HW234062   0.582   9.359   2.332  0.3960  0.0124 -0.0990
 7615SOL     OW34063   7.799   5.830   5.880 -0.3306  0.1911 -0.4055
 7615SOL    HW134064   7.781   5.736   5.911  1.4967  0.2522  0.8953
 7615SOL    HW234065   7.782   5.894   5.954  0.1198  0.7199 -0.7523
 7616SOL     OW34066   2.397   7.852   1.077 -0.2173  0.0764  0.0142
 7616SOL    HW134067   2.380   7.794   1.156  1.6671 -0.0691  0.3560
 7616SOL    HW234068   2.385   7.948   1.103  1.0687  0.0726  0.7026
 7617SOL     OW34069   8.923   9.836   5.532  0.1523 -0.9035 -0.0254
 7617SOL    HW134070   8.885   9.919   5.490 -0.8294 -1.5184 -0.3664
 7617SOL    HW234071   8.967   9.860   5.619 -2.1409 -0.3556  1.0242
 7618SOL     OW34072   3.150   0.130   1.267  0.0461  0.0150 -0.0057
 7618SOL    HW134073   3.067   0.132   1.323  1.3227  0.6941  1.9110
 7618SOL    HW234074   3.185   0.223   1.256  0.3292 -0.2211 -1.1860
 7619SOL     OW34075   3.213   5.379   5.638  0.0472 -0.2928  0.2122
 7619SOL    HW134076   3.190   5.303   5.577 -0.6354  0.5977 -0.6609
 7619SOL    HW234077   3.182   5.358   5.730 -0.4535 -0.9246 -0.0937
 7620SOL     OW34078   1.266   6.186   0.744 -0.4855  0.2026  0.2821
 7620SOL    HW134079   1.335   6.247   0.783  0.9537 -0.6002 -0.9396
 7620SOL    HW234080   1.289   6.091   0.767 -0.3616 -0.1765 -1.3462
 7621SOL     OW34081   4.779   9.828   3.971  0.1721  0.3279  0.2052
 7621SOL    HW134082   4.818   9.884   3.898  0.8858  0.0938  0.4006
 7621SOL    HW234083   4.688   9.796   3.943  0.7097 -0.3204 -0.8733
 7622SOL     OW34084   2.976   6.490   0.221 -0.2338 -0.0555  0.3412
 7622SOL    HW134085   3.003   6.573   0.271  1.0802 -0.6937  0.7198
 7622SOL    HW234086   2.896   6.449   0.264 -1.7723  1.7833 -0.6815
 7623SOL     OW34087   8.922   4.495   5.613 -0.5205 -0.0480  0.0564
 7623SOL    HW134088   8.859   4.486   5.691 -0.8784 -1.8744 -0.4267
 7623SOL    HW234089   8.930   4.407   5.566  1.5554  0.4469 -0.5585
 7624SOL     OW34090   0.025   4.764   1.672  0.2876 -0.1172 -0.4076
 7624SOL    HW134091   0.093   4.813   1.726  0.1059 -1.2316  0.8598
 7624SOL    HW234092   0.042   4.665   1.679 -1.6300 -0.4311  0.1601
 7625SOL     OW34093   3.830   3.122   0.961  0.0975  0.5677  0.1628
 7625SOL    HW134094   3.748   3.098   1.013  0.3068 -0.4084  0.0660
 7625SOL    HW234095   3.824   3.081   0.870  1.4560 -0.9846  0.7369
 7626SOL     OW34096   1.036   5.355   0.020  0.6300  0.1590  0.2795
 7626SOL    HW134097   1.112   5.307   0.064 -0.0694  0.5700  1.9791
 7626SOL    HW234098   0.965   5.289  -0.006 -0.7169  0.3109  3.3935
 7627SOL     OW34099   3.220   7.840   3.695 -1.0845 -0.0572  0.0334
 7627SOL    HW134100   3.256   7.920   3.745 -1.6128  0.5822 -0.5981
 7627SOL    HW234101   3.271   7.828   3.610 -1.0646 -0.3397  0.0855
 7628SOL     OW34102   0.951   7.793   0.628 -0.2084  0.1324  0.2956
 7628SOL    HW134103   1.020   7.864   0.618 -1.2670  1.1933  0.4378
 7628SOL    HW234104   0.974   7.735   0.706  1.4469 -0.5942 -0.7199
 7629SOL     OW34105   0.817   8.811   4.541 -0.2873  0.1385 -0.3929
 7629SOL    HW134106   0.754   8.810   4.463  0.2432  0.6533 -0.8300
 7629SOL    HW234107   0.845   8.905   4.560 -0.8404  0.0739  0.7705
 7630SOL     OW34108   3.098   7.489   4.203  0.0788 -0.1555 -0.3021
 7630SOL    HW134109   3.069   7.438   4.122 -0.7427  0.1627 -0.2085
 7630SOL    HW234110   3.197   7.501   4.200  0.0566 -0.1382 -1.2648
 7631SOL     OW34111   8.499   0.685   2.071 -0.2538  0.3018  0.2295
 7631SOL    HW134112   8.421   0.664   2.131 -0.2954  1.4487  0.5913
 7631SOL    HW234113   8.580   0.636   2.104 -0.9661 -1.4878 -0.5814
 7632SOL     OW34114   9.064   8.670   0.142  0.1302 -0.5698 -0.2293
 7632SOL    HW134115   9.093   8.610   0.217 -1.3763 -0.0535  0.7989
 7632SOL    HW234116   9.020   8.616   0.071  0.8870 -0.9770 -0.3871
 7633SOL     OW34117   3.898   4.702   4.354 -0.8252 -0.3792 -0.4224
 7633SOL    HW134118   3.812   4.749   4.373 -0.5190 -0.4422  1.1635
 7633SOL    HW234119   3.960   4.764   4.306 -1.5045 -0.1229 -0.9812
 7634SOL     OW34120   2.856   3.994   0.731 -0.6865  0.1863  0.3870
 7634SOL    HW134121   2.886   3.988   0.826  1.4454 -1.5435 -0.3448
 7634SOL    HW234122   2.868   3.905   0.687 -3.0643  0.5584 -1.1190
 7635SOL     OW34123   2.835   5.863   6.169 -0.0862 -0.1948  0.0035
 7635SOL    HW134124   2.756   5.825   6.217  0.4758 -1.8558 -0.3421
 7635SOL    HW234125   2.824   5.850   6.070  0.1938  0.4261 -0.1154
 7636SOL     OW34126   7.601   2.259   0.755  0.3523  0.2914  0.4062
 7636SOL    HW134127   7.564   2.169   0.779  0.9017  0.0909  0.4975
 7636SOL    HW234128   7.693   2.248   0.718  0.8705  0.9226  1.4904
 7637SOL     OW34129   9.897   8.062   3.471  0.5113  0.3302 -0.5968
 7637SOL    HW134130   9.834   7.996   3.431  0.1867  1.4157 -1.8827
 7637SOL    HW234131   9.849   8.146   3.494  1.1862  0.6077 -0.1690
 7638SOL     OW34132   8.487   3.984   2.870 -0.7787 -0.2459 -0.0730
 7638SOL    HW134133   8.399   4.029   2.859 -0.7906 -0.1995  0.2087
 7638SOL    HW234134   8.509   3.977   2.968 -0.3324  0.0192 -0.1517
 7639SOL     OW34135   3.919   8.710   5.013  0.0650  0.5719  0.0005
 7639SOL    HW134136   3.933   8.802   5.050  0.7291  0.1010  0.9639
 7639SOL    HW234137   3.990   8.691   4.945  0.0744  0.6873 -0.0226
 7640SOL     OW34138   4.212   5.115   1.233  0.5773 -0.8189 -0.3025
 7640SOL    HW134139   4.228   5.107   1.331  0.3065  0.0044 -0.1908
 7640SOL    HW234140   4.291   5.156   1.188 -0.5586  1.8846  0.0480
 7641SOL     OW34141   5.118   7.220   2.454 -0.1585  0.2056 -0.5570
 7641SOL    HW134142   5.026   7.219   2.415  0.3761 -1.0219 -1.8453
 7641SOL    HW234143   5.112   7.220   2.554 -1.5491  0.7439 -0.6315
 7642SOL     OW34144   2.458   3.719   3.211  0.1898  0.3559  0.2816
 7642SOL    HW134145   2.433   3.623   3.229 -0.4808  0.2688 -1.0599
 7642SOL    HW234146   2.406   3.753   3.133 -0.4131  2.1868  1.4456
 7643SOL     OW34147   9.357   5.618   0.330  0.6120 -0.0233  0.2240
 7643SOL    HW134148   9.432   5.666   0.284  1.0923 -0.1998  0.8155
 7643SOL    HW234149   9.374   5.519   0.327  1.7200  0.0528  2.5853
 7644SOL     OW34150   8.884   6.320   3.027  0.1542  0.3364 -0.0071
 7644SOL    HW134151   8.955   6.382   3.062  3.1838 -2.0924 -1.6823
 7644SOL    HW234152   8.857   6.256   3.100  1.1941 -0.0657  0.0283
 7645SOL     OW34153   8.918   3.312   4.288  0.0128  0.5432  0.3763
 7645SOL    HW134154   9.002   3.332   4.238 -0.1209 -3.7169 -1.7530
 7645SOL    HW234155   8.840   3.351   4.238  0.4348  2.1208  0.9110
 7646SOL     OW34156   6.588   7.877   3.536  0.5796  0.0827  0.0497
 7646SOL    HW134157   6.606   7.917   3.446  0.8939  0.5095  0.2990
 7646SOL    HW234158   6.629   7.786   3.541  3.3135  1.3084  0.8381
 7647SOL     OW34159   5.495   2.360   2.228  0.2260 -0.3517  0.7983
 7647SOL    HW134160   5.420   2.376   2.164  1.0705  1.3576  0.2032
 7647SOL    HW234161   5.458   2.329   2.315 -0.9128 -3.1432 -0.6283
 7648SOL     OW34162   3.607   7.342   1.245 -0.7854 -0.3099  0.1935
 7648SOL    HW134163   3.607   7.412   1.174 -0.2114 -0.4778  0.0242
 7648SOL    HW234164   3.522   7.290   1.241 -0.6964 -0.4023 -0.4555
 7649SOL     OW34165   3.178   7.699   0.132  0.0990  0.4864 -0.1527
 7649SOL    HW134166   3.124   7.755   0.069  0.3967 -0.1376 -0.9788
 7649SOL    HW234167   3.253   7.754   0.169 -0.8548  1.2349  0.6740
 7650SOL     OW34168   0.408   7.318   5.172  0.2790  0.6306  0.0430
 7650SOL    HW134169   0.418   7.313   5.272  2.5227  1.2738 -0.1182
 7650SOL    HW234170   0.396   7.414   5.145  1.6639  0.6692 -0.4555
 7651SOL     OW34171   4.315   6.271   2.153  0.0767 -0.2864 -0.0178
 7651SOL    HW134172   4.308   6.363   2.191 -0.0831 -0.2991 -0.0154
 7651SOL    HW234173   4.229   6.222   2.167 -0.3181  0.0340 -1.2325
 7652SOL     OW34174   8.169   6.805   1.437 -0.5865 -0.3791  0.1308
 7652SOL    HW134175   8.244   6.740   1.433 -0.3121 -0.0466 -0.2175
 7652SOL    HW234176   8.116   6.790   1.520 -0.3397 -0.8406  0.2060
 7653SOL     OW34177   7.729   7.672   5.347 -0.0772 -0.2649 -0.4997
 7653SOL    HW134178   7.702   7.662   5.443 -0.1912 -0.6938 -0.5743
 7653SOL    HW234179   7.661   7.627   5.289  1.2181 -2.1089 -0.6444
 7654SOL     OW34180   7.163   2.084   6.339 -0.2691  0.1801 -0.1039
 7654SOL    HW134181   7.078   2.083   6.391  1.7886 -1.4631  3.3998
 7654SOL    HW234182   7.167   2.003   6.280  0.5625 -1.9675  2.7807
 7655SOL     OW34183   3.351   1.425   3.854 -0.2268 -0.0105 -0.2648
 7655SOL    HW134184   3.294   1.433   3.773  0.0337 -1.5751 -0.6214
 7655SOL    HW234185   3.309   1.360   3.918 -0.0430  0.6268  0.5188
 7656SOL     OW34186   4.875   7.642   4.123  0.6963  0.1051  0.2092
 7656SOL    HW134187   4.913   7.687   4.042 -0.6879  2.2136  0.6921
 7656SOL    HW234188   4.937   7.654   4.200  1.3221 -0.6509 -0.1640
 7657SOL     OW34189   2.729   7.580   2.455 -0.4197 -0.3784 -0.4821
 7657SOL    HW134190   2.793   7.534   2.394  0.8100  0.4213  0.1929
 7657SOL    HW234191   2.649   7.521   2.469  1.2305 -2.4573  0.5653
 7658SOL     OW34192   7.461   6.660   3.558  0.7151  0.6756  0.8963
 7658SOL    HW134193   7.438   6.661   3.655 -1.7194 -1.8725  0.4076
 7658SOL    HW234194   7.557   6.636   3.547  0.8480  0.3347  2.6426
 7659SOL     OW34195   8.761   0.140   3.099  0.1085 -0.1292  0.4895
 7659SOL    HW134196   8.798   0.218   3.150 -0.3758  1.5020 -1.5984
 7659SOL    HW234197   8.665   0.158   3.075 -0.0814 -1.4834  0.2101
 7660SOL     OW34198   1.036   6.871   0.696  0.0880  0.3655  0.2907
 7660SOL    HW134199   1.057   6.956   0.744  0.6210  0.8665 -0.7978
 7660SOL    HW234200   1.004   6.803   0.761  1.7593  0.7082  1.5093
 7661SOL     OW34201   8.611   8.228   5.390 -0.0944  0.2612  0.0342
 7661SOL    HW134202   8.558   8.292   5.334  1.7318 -0.3332 -2.4787
 7661SOL    HW234203   8.689   8.276   5.432  0.3343  0.0501 -0.5141
 7662SOL     OW34204   4.081   3.906   0.166  0.0630 -0.1909 -0.0830
 7662SOL    HW134205   4.095   3.871   0.073  0.0492 -1.4520  0.3793
 7662SOL    HW234206   4.007   3.855   0.210 -1.4244  1.8630 -0.1318
 7663SOL     OW34207   1.211   2.574   2.762  1.0340 -0.4051 -0.5233
 7663SOL    HW134208   1.199   2.590   2.860  0.0099  1.8681 -0.9971
 7663SOL    HW234209   1.304   2.540   2.746  1.1811 -0.9112  1.2406
 7664SOL     OW34210   3.353   2.629   6.570 -0.4166 -0.1918  0.6392
 7664SOL    HW134211   3.338   2.633   6.471 -0.3826 -2.9745  0.4720
 7664SOL    HW234212   3.447   2.656   6.591 -0.3734  0.2430 -0.0963
 7665SOL     OW34213   4.174   1.193   1.427 -0.2408  0.0188 -0.0785
 7665SOL    HW134214   4.195   1.272   1.369  1.9096 -0.4921 -0.0389
 7665SOL    HW234215   4.257   1.137   1.438 -0.8023 -0.2668  2.9271
 7666SOL     OW34216   1.438   0.303   0.839 -0.2347 -0.4884  0.0585
 7666SOL    HW134217   1.366   0.234   0.828 -0.1524 -0.5258 -0.2464
 7666SOL    HW234218   1.419   0.358   0.921 -0.7563 -0.3248 -0.1675
 7667SOL     OW34219   1.623   8.952   2.410  0.1006  0.3739 -0.4004
 7667SOL    HW134220   1.570   8.899   2.476 -0.1461  0.7914 -0.2573
 7667SOL    HW234221   1.563   9.022   2.369  0.3475  0.3583 -0.7897
 7668SOL     OW34222   2.767   6.043   1.467 -0.0275  0.0495  0.3820
 7668SOL    HW134223   2.861   6.010   1.477  0.7791  2.0894 -0.2906
 7668SOL    HW234224   2.742   6.046   1.370 -0.3126  0.8028  0.4766
 7669SOL     OW34225   8.178   4.694   2.416 -0.3144  0.3413 -0.2320
 7669SOL    HW134226   8.274   4.689   2.443 -0.3549 -0.2782 -0.1982
 7669SOL    HW234227   8.121   4.707   2.497 -0.5643 -2.9978  0.2192
 7670SOL     OW34228   1.832   9.240   0.576  0.1859 -0.1537 -0.0389
 7670SOL    HW134229   1.881   9.156   0.551 -0.4806 -0.8643  0.9524
 7670SOL    HW234230   1.738   9.235   0.541  0.5450  0.8049 -1.1692
 7671SOL     OW34231   5.400   9.887   4.519 -0.1457  0.7810 -0.4415
 7671SOL    HW134232   5.329   9.850   4.459 -1.5779  2.3509  0.2273
 7671SOL    HW234233   5.467   9.936   4.463  0.3772 -0.6277 -1.0711
 7672SOL     OW34234   0.501   0.643   4.515  0.2025 -0.6332  0.1315
 7672SOL    HW134235   0.459   0.610   4.600 -0.1744  1.2085  0.6877
 7672SOL    HW234236   0.530   0.738   4.527  0.1296 -0.3454 -1.8105
 7673SOL     OW34237   8.551   0.813   5.099  0.0562  0.2242 -0.2633
 7673SOL    HW134238   8.586   0.729   5.057  1.0803  1.4801 -1.9667
 7673SOL    HW234239   8.452   0.817   5.088 -0.0714 -0.9836  0.2873
 7674SOL     OW34240   2.392   8.139   0.788 -0.4091  0.4270 -0.0690
 7674SOL    HW134241   2.439   8.069   0.735 -0.3262 -0.0645  0.6552
 7674SOL    HW234242   2.390   8.225   0.735 -0.2929 -0.0441 -0.8420
 7675SOL     OW34243   1.539   2.156   3.153  0.0322  0.9553 -0.0907
 7675SOL    HW134244   1.606   2.115   3.215 -0.8813 -0.9307 -0.3020
 7675SOL    HW234245   1.464   2.195   3.205 -1.0474 -1.1878  0.0087
 7676SOL     OW34246   0.173   7.152   2.986 -0.3030 -0.2390 -0.0290
 7676SOL    HW134247   0.186   7.166   2.887  0.7976  3.9602  0.6121
 7676SOL    HW234248   0.076   7.134   3.004 -0.7208  0.1043 -1.7720
 7677SOL     OW34249   0.797   2.293   4.449  0.1144  0.5387  0.0747
 7677SOL    HW134250   0.866   2.239   4.497  0.9423 -0.0955 -1.7911
 7677SOL    HW234251   0.776   2.250   4.361  1.0636  3.4519 -1.6223
 7678SOL     OW34252   9.940   8.708   0.114  0.3880  0.3027  0.8379
 7678SOL    HW134253   9.853   8.742   0.149 -1.1394 -1.2867 -1.2730
 7678SOL    HW234254   9.932   8.611   0.092  1.3766  1.0413 -3.2898
 7679SOL     OW34255   1.310   4.440   5.774  0.3552 -0.1440 -0.0956
 7679SOL    HW134256   1.310   4.534   5.739  0.4789  0.2598  0.9543
 7679SOL    HW234257   1.359   4.380   5.711  0.1810  0.4792 -0.8266
 7680SOL     OW34258   1.368   9.576   0.866  0.1996 -0.3929 -0.0232
 7680SOL    HW134259   1.271   9.563   0.886  1.3123 -1.4588  5.5083
 7680SOL    HW234260   1.393   9.672   0.878  0.3137 -0.5737  1.2903
 7681SOL     OW34261   1.106   1.260   4.552 -0.4526 -0.0103  0.0313
 7681SOL    HW134262   1.034   1.328   4.534 -1.5683 -1.1154  0.2803
 7681SOL    HW234263   1.130   1.261   4.649 -1.2324 -0.7125  0.2343
 7682SOL     OW34264   2.085   4.224   4.346  0.2584  0.0757  0.1187
 7682SOL    HW134265   2.051   4.317   4.335  0.5358  0.1111 -0.4942
 7682SOL    HW234266   2.015   4.159   4.317 -0.2544  0.0609  1.3616
 7683SOL     OW34267   7.867   0.262   3.904  0.2319 -0.4077 -0.6234
 7683SOL    HW134268   7.825   0.297   3.988  1.2865  2.3135 -1.1706
 7683SOL    HW234269   7.841   0.166   3.891 -1.0524 -0.4729  2.0703
 7684SOL     OW34270   0.800   7.572   4.286  0.4028  0.2235 -0.0823
 7684SOL    HW134271   0.825   7.665   4.313 -0.2078 -0.1458  1.7723
 7684SOL    HW234272   0.717   7.544   4.333 -0.5876 -0.5216 -2.2124
 7685SOL     OW34273   8.980   5.197   2.054  0.5813 -0.6643  0.2811
 7685SOL    HW134274   8.997   5.099   2.050 -0.4489 -0.8727  0.8034
 7685SOL    HW234275   8.998   5.230   2.147  0.2969 -0.4782  0.2699
 7686SOL     OW34276   2.087   3.593   3.280 -0.2968 -0.1542 -0.0534
 7686SOL    HW134277   2.045   3.555   3.198 -0.7557  0.6546 -0.1981
 7686SOL    HW234278   2.036   3.674   3.310  0.9170  0.6253 -0.0197
 7687SOL     OW34279   1.807   3.091   2.430 -0.2797 -0.0179 -0.0265
 7687SOL    HW134280   1.876   3.039   2.381 -1.4295 -1.5370 -0.0655
 7687SOL    HW234281   1.851   3.149   2.500  1.0469 -0.5648 -0.4107
 7688SOL     OW34282   7.272   0.067   2.385  0.3409  0.1756  0.5761
 7688SOL    HW134283   7.291   0.133   2.312  1.2201 -1.1315 -0.3896
 7688SOL    HW234284   7.322  -0.018   2.367 -2.1807 -1.4015  0.8609
 7689SOL     OW34285   9.726   3.637   2.467 -0.0848  0.0797 -0.3559
 7689SOL    HW134286   9.730   3.575   2.545 -0.4675 -0.2349 -0.5888
 7689SOL    HW234287   9.819   3.670   2.446  0.1048 -0.3415 -0.1808
 7690SOL     OW34288   8.472   6.114   3.056  0.9075 -0.3364 -0.2873
 7690SOL    HW134289   8.453   6.208   3.084 -2.1259 -1.2712  1.0035
 7690SOL    HW234290   8.515   6.064   3.131  2.5718  0.0020 -0.9916
 7691SOL     OW34291   0.433   6.555   4.863 -0.3421 -0.0215 -0.3726
 7691SOL    HW134292   0.449   6.599   4.774 -2.1552 -0.0396 -0.7256
 7691SOL    HW234293   0.432   6.625   4.935 -1.3004  0.2928 -0.6862
 7692SOL     OW34294   3.859   9.093   0.697  0.1654 -0.1290 -0.1340
 7692SOL    HW134295   3.767   9.117   0.728 -0.1569  0.4660 -1.5261
 7692SOL    HW234296   3.888   9.008   0.742 -1.2586 -0.5872 -0.0443
 7693SOL     OW34297   0.244   5.186   4.264  0.1879  0.0749 -0.2396
 7693SOL    HW134298   0.290   5.269   4.295 -1.5807  0.9784  0.0267
 7693SOL    HW234299   0.236   5.188   4.164 -0.0986  0.3718 -0.2131
 7694SOL     OW34300   7.610   4.683   0.380 -0.1796 -0.3880  0.2542
 7694SOL    HW134301   7.707   4.692   0.356 -0.0059 -2.3322  0.1240
 7694SOL    HW234302   7.576   4.770   0.415  2.2341 -0.3125  2.5471
 7695SOL     OW34303   6.882   9.296   3.502  0.0879 -0.2378  0.1062
 7695SOL    HW134304   6.892   9.286   3.403  0.8541  1.6682 -0.0299
 7695SOL    HW234305   6.921   9.383   3.530 -2.1197  0.2317  1.8013
 7696SOL     OW34306   6.086   1.066   1.857  0.1531 -0.0095 -0.3123
 7696SOL    HW134307   6.168   1.059   1.912  0.9981  0.5744 -1.4726
 7696SOL    HW234308   6.110   1.098   1.765 -0.9962 -2.4997 -1.5249
 7697SOL     OW34309   4.137   1.800   3.299  0.9748 -0.5583  0.0048
 7697SOL    HW134310   4.225   1.823   3.341  0.5058 -0.4087  0.9156
 7697SOL    HW234311   4.082   1.882   3.289  0.2565 -0.8919  1.0501
 7698SOL     OW34312   7.942   2.194   5.466 -0.4800  0.4754  0.4347
 7698SOL    HW134313   7.869   2.224   5.527 -1.4179  1.0428 -0.9583
 7698SOL    HW234314   8.031   2.213   5.508 -1.1142 -0.6407  2.3317
 7699SOL     OW34315   7.001   9.767   1.815  0.0812  0.2962 -0.1341
 7699SOL    HW134316   7.041   9.678   1.796 -0.3404  0.0012  0.3489
 7699SOL    HW234317   7.021   9.830   1.740  1.3794  0.1315  0.0656
 7700SOL     OW34318   2.258   1.112   4.942 -0.1621  0.0608  0.3063
 7700SOL    HW134319   2.269   1.108   5.042 -2.2505 -0.3379  0.5453
 7700SOL    HW234320   2.306   1.034   4.901  1.9606  1.0428  0.8556
 7701SOL     OW34321   2.136   2.014   6.429 -0.3751  0.4838 -0.8788
 7701SOL    HW134322   2.058   2.015   6.491 -1.0810  2.3700 -1.7371
 7701SOL    HW234323   2.145   1.924   6.387 -0.3551 -0.5726  1.3529
 7702SOL     OW34324   0.173   2.413   3.691  0.3948 -0.2769  0.1188
 7702SOL    HW134325   0.110   2.389   3.616  1.2697  0.9933 -1.0513
 7702SOL    HW234326   0.141   2.497   3.735  1.3553  0.5002 -0.6261
 7703SOL     OW34327   3.675   6.333   3.166 -0.1544  0.4690  0.6265
 7703SOL    HW134328   3.640   6.349   3.258  0.3553  0.2611  0.8547
 7703SOL    HW234329   3.600   6.340   3.101 -0.4685  0.8838  1.0283
 7704SOL     OW34330   4.460   1.029   6.284 -0.0620  0.4105 -0.1240
 7704SOL    HW134331   4.374   0.993   6.319  1.1246 -2.3405  0.1814
 7704SOL    HW234332   4.457   1.033   6.184  0.2436 -1.9873 -0.2632
 7705SOL     OW34333   8.706   0.948   2.394 -0.0710  0.3225 -0.1837
 7705SOL    HW134334   8.711   0.920   2.299  1.6826  0.0775 -0.0422
 7705SOL    HW234335   8.696   0.867   2.452 -0.5014  0.4211 -0.1195
 7706SOL     OW34336   5.480   7.612   2.016 -0.1855  0.2424  0.1331
 7706SOL    HW134337   5.386   7.591   2.043  1.1920 -1.4181  3.9982
 7706SOL    HW234338   5.527   7.655   2.092  1.7890  2.5392 -2.3029
 7707SOL     OW34339   2.433   7.988   0.043 -0.1889 -0.2196  0.0161
 7707SOL    HW134340   2.433   8.014  -0.053  0.5194 -0.5850 -0.0869
 7707SOL    HW234341   2.414   7.890   0.052  1.2698 -0.4998  0.1474
 7708SOL     OW34342   9.974   4.085   2.622 -0.8269 -0.7113  1.0221
 7708SOL    HW134343   9.972   4.080   2.722  1.4364 -0.9959  1.0940
 7708SOL    HW234344   9.924   4.166   2.591 -0.4376  0.0990  2.4765
 7709SOL     OW34345   4.547   9.361   4.279 -0.5625  0.3062 -0.1761
 7709SOL    HW134346   4.603   9.389   4.201 -0.3858 -0.0851 -0.1958
 7709SOL    HW234347   4.484   9.434   4.304 -0.8338  0.3149 -0.8804
 7710SOL     OW34348   4.227   4.116   3.178  0.0877 -0.3965  0.2382
 7710SOL    HW134349   4.194   4.170   3.255 -1.0450 -0.6454 -0.0615
 7710SOL    HW234350   4.198   4.158   3.092  2.7447  0.7937 -0.1245
 7711SOL     OW34351   0.404   5.510   1.616  0.0912  0.3462 -0.6557
 7711SOL    HW134352   0.502   5.507   1.637 -0.1852  2.3909  1.1892
 7711SOL    HW234353   0.390   5.492   1.519  2.3522  0.6574 -1.0793
 7712SOL     OW34354   3.183   0.256   0.861 -0.6327  0.1750  0.0057
 7712SOL    HW134355   3.124   0.262   0.781 -0.9756  0.2915  0.2656
 7712SOL    HW234356   3.128   0.228   0.940 -0.4743  0.9673  0.4019
 7713SOL     OW34357   1.576   6.921   6.127 -0.2332 -0.7271  1.1067
 7713SOL    HW134358   1.560   7.020   6.136  0.1709 -0.6517  1.0014
 7713SOL    HW234359   1.499   6.872   6.166  0.1077 -0.3809  2.2344
 7714SOL     OW34360   8.054   6.747   3.185  0.5052  0.4856  0.1107
 7714SOL    HW134361   8.025   6.665   3.135 -2.2842  0.7250  1.2323
 7714SOL    HW234362   7.996   6.759   3.265  2.8084  1.9333  1.6274
 7715SOL     OW34363   2.728   5.348   5.979  0.0129  0.0855  0.2954
 7715SOL    HW134364   2.740   5.254   5.945  1.0983  0.4823 -0.4283
 7715SOL    HW234365   2.652   5.391   5.931 -0.4137 -0.3813  0.5451
 7716SOL     OW34366   0.431   0.587   1.757 -0.1903  0.0903  0.0368
 7716SOL    HW134367   0.421   0.500   1.804  0.1467  0.1148  0.1549
 7716SOL    HW234368   0.446   0.571   1.660 -1.1754  0.0476 -0.1119
 7717SOL     OW34369   5.114   1.119   5.574 -0.4915  0.4210 -0.1329
 7717SOL    HW134370   5.068   1.197   5.617 -1.9631 -0.1918 -0.5825
 7717SOL    HW234371   5.112   1.130   5.475  0.6285  0.5405 -0.1537
 7718SOL     OW34372   2.689   6.999   5.633  0.1309  0.0857  0.6857
 7718SOL    HW134373   2.617   6.939   5.667 -0.7755  0.3721 -0.6785
 7718SOL    HW234374   2.720   7.059   5.707 -2.3711  1.2649  0.8250
 7719SOL     OW34375   9.498   2.388   2.986  0.6441 -0.5087 -0.0770
 7719SOL    HW134376   9.408   2.362   2.951  0.9119 -1.9328  0.2880
 7719SOL    HW234377   9.567   2.325   2.951  1.1844 -0.7859  1.4829
 7720SOL     OW34378   5.100   1.331   2.610  0.1977  0.0354 -0.1235
 7720SOL    HW134379   5.003   1.331   2.584  0.0461  0.6810  0.4318
 7720SOL    HW234380   5.119   1.253   2.669  0.1239 -0.3579 -0.6121
 7721SOL     OW34381   2.343   8.184   4.386  0.9238 -0.1005  0.2976
 7721SOL    HW134382   2.398   8.101   4.379 -0.6713 -1.1009 -0.8648
 7721SOL    HW234383   2.298   8.201   4.298  1.4540  2.1526  0.4356
 7722SOL     OW34384   4.719   3.346   2.933 -0.0889 -0.0362  0.7748
 7722SOL    HW134385   4.777   3.395   2.997  0.7377 -1.3489  1.0596
 7722SOL    HW234386   4.629   3.330   2.974 -0.0517  0.4022  1.0303
 7723SOL     OW34387   4.947   1.753   2.665  0.1171  0.0624 -0.4366
 7723SOL    HW134388   4.981   1.685   2.731  0.7303 -0.3471 -1.1735
 7723SOL    HW234389   5.000   1.747   2.581  2.5021  3.8175  0.6650
 7724SOL     OW34390   9.041   7.555   3.784  0.4007  0.2492 -0.7955
 7724SOL    HW134391   9.112   7.488   3.765  0.3575  0.2654 -1.0246
 7724SOL    HW234392   9.025   7.611   3.702 -0.4264 -0.2696 -0.9999
 7725SOL     OW34393   9.122   7.134   5.607  0.1975  0.4777  0.4884
 7725SOL    HW134394   9.203   7.168   5.558  0.3156 -0.9218 -0.3336
 7725SOL    HW234395   9.083   7.057   5.556 -1.1720  0.6199  1.3147
 7726SOL     OW34396   1.442   4.500   6.578 -0.1998 -0.6400  0.5575
 7726SOL    HW134397   1.377   4.429   6.552 -0.8576  0.2526 -0.2827
 7726SOL    HW234398   1.531   4.460   6.596 -0.6894 -1.7319  0.5694
 7727SOL     OW34399   9.156   4.954   3.203 -0.2916  0.4318 -0.2802
 7727SOL    HW134400   9.088   4.897   3.158  1.7899 -0.8780 -1.8472
 7727SOL    HW234401   9.110   5.026   3.256 -2.8539 -0.3460 -1.3913
 7728SOL     OW34402   0.564   6.267   5.230  0.3156  0.0533  0.5104
 7728SOL    HW134403   0.522   6.194   5.285 -0.6729  0.6224  0.5156
 7728SOL    HW234404   0.493   6.314   5.177  0.9021  1.2543  0.7847
 7729SOL     OW34405   2.444   9.182   4.790 -0.6774 -0.1708 -0.0771
 7729SOL    HW134406   2.482   9.236   4.714 -0.0399  0.7168  0.8559
 7729SOL    HW234407   2.361   9.226   4.823 -0.7703 -0.3728 -0.0441
 7730SOL     OW34408   7.275   6.834   4.105 -0.0596  0.0077  0.0828
 7730SOL    HW134409   7.361   6.783   4.099 -0.5822 -0.8336 -0.3463
 7730SOL    HW234410   7.294   6.928   4.134  0.9171 -0.4106  0.8372
 7731SOL     OW34411   7.119   3.012   0.800  0.1242 -0.1017 -0.1249
 7731SOL    HW134412   7.219   3.011   0.802  0.1249  0.1544 -0.0122
 7731SOL    HW234413   7.083   2.928   0.842  0.2995 -0.5374 -0.8273
 7732SOL     OW34414   8.609   2.288   6.664  0.3008  0.2418 -0.2831
 7732SOL    HW134415   8.674   2.337   6.605  0.6347  3.3605  2.5592
 7732SOL    HW234416   8.647   2.280   6.756 -2.3733  0.0638  0.8299
 7733SOL     OW34417   6.968   0.997   0.935 -0.1788 -0.1980  0.4611
 7733SOL    HW134418   6.979   0.954   1.024  1.2065 -2.1275 -0.6115
 7733SOL    HW234419   7.058   1.022   0.898 -0.6165 -0.8312 -1.0640
 7734SOL     OW34420   7.985   9.241   3.954 -0.0416  0.0936 -0.5179
 7734SOL    HW134421   8.007   9.258   4.050  2.1917  0.3785 -1.0408
 7734SOL    HW234422   8.061   9.271   3.896 -2.1447  1.7494 -2.5531
 7735SOL     OW34423   4.383   8.711   3.728  0.2005  0.5069  0.1136
 7735SOL    HW134424   4.378   8.693   3.826  2.1372  1.4927  0.4078
 7735SOL    HW234425   4.476   8.695   3.696 -0.1935  1.1614 -1.3798
 7736SOL     OW34426   8.822   8.627   2.828  0.0320 -0.1320 -0.2251
 7736SOL    HW134427   8.851   8.535   2.855  1.5895  0.8732  1.6469
 7736SOL    HW234428   8.724   8.638   2.849 -0.6925 -2.0430 -2.4289
 7737SOL     OW34429   0.877   7.859   3.709  0.4043  0.2564 -0.0563
 7737SOL    HW134430   0.812   7.871   3.635 -0.5475 -1.0807  0.5609
 7737SOL    HW234431   0.965   7.900   3.683 -0.5341  1.6703 -1.0578
 7738SOL     OW34432   5.479   9.650   2.009 -0.4510  0.2120 -0.0936
 7738SOL    HW134433   5.525   9.575   2.055  0.5845  1.2576  0.6136
 7738SOL    HW234434   5.506   9.651   1.913 -0.8432 -0.6020 -0.2175
 7739SOL     OW34435   9.614   5.577   3.332  0.1923  0.1732 -0.0342
 7739SOL    HW134436   9.707   5.604   3.310 -0.4688  1.1595 -1.6912
 7739SOL    HW234437   9.572   5.535   3.252 -1.6119  2.0247 -0.0892
 7740SOL     OW34438   1.058   3.884   4.458  0.5890  0.0605 -0.0038
 7740SOL    HW134439   1.093   3.842   4.374  0.4677 -0.0630  0.0073
 7740SOL    HW234440   1.113   3.854   4.536  1.6409  1.3728 -0.2451
 7741SOL     OW34441   8.390   2.657   5.076  0.4822 -0.5018 -0.4166
 7741SOL    HW134442   8.343   2.725   5.132 -0.2208 -0.3699 -1.1538
 7741SOL    HW234443   8.395   2.689   4.981 -0.5607 -1.7917 -0.9362
 7742SOL     OW34444   4.241   4.363   3.617  0.4587  0.4150  0.0827
 7742SOL    HW134445   4.255   4.459   3.642 -0.0290  0.2355  1.0659
 7742SOL    HW234446   4.327   4.313   3.628  0.8765  0.8776 -1.0697
 7743SOL     OW34447   8.911   8.189   1.876 -0.6303 -0.3708 -0.2834
 7743SOL    HW134448   8.985   8.253   1.858 -1.1186 -0.1133 -1.4246
 7743SOL    HW234449   8.939   8.124   1.947  0.4311  0.1317 -0.2367
 7744SOL     OW34450   1.626   5.196   3.816  0.0715 -0.0054  0.1845
 7744SOL    HW134451   1.694   5.258   3.777  3.7518 -2.4874  2.3323
 7744SOL    HW234452   1.571   5.245   3.884  1.1166  1.5371 -0.0667
 7745SOL     OW34453   8.590   6.132   6.578 -0.1632  0.1266  0.1425
 7745SOL    HW134454   8.635   6.052   6.619 -0.7899  0.2634  1.1268
 7745SOL    HW234455   8.558   6.193   6.651 -3.0177 -0.5657 -0.4461
 7746SOL     OW34456   1.628   3.760   3.210  0.0303 -0.4780 -0.3398
 7746SOL    HW134457   1.582   3.700   3.145 -0.5484 -0.7627  0.3355
 7746SOL    HW234458   1.670   3.836   3.160 -0.4366 -0.6761 -1.0450
 7747SOL     OW34459   1.517   1.631   6.268 -0.3337 -0.6814 -0.6921
 7747SOL    HW134460   1.597   1.619   6.209  1.2396  0.0656  1.2166
 7747SOL    HW234461   1.452   1.557   6.252 -0.1300 -0.2823 -3.5900
 7748SOL     OW34462   8.215   1.892   2.175  0.1324  0.0812  0.0251
 7748SOL    HW134463   8.159   1.809   2.177  0.8141 -0.3758  3.3390
 7748SOL    HW234464   8.304   1.871   2.137 -0.3851 -0.2384 -1.0179
 7749SOL     OW34465   8.669   0.980   5.923 -0.1004 -0.1877 -0.2336
 7749SOL    HW134466   8.601   1.006   5.992 -0.9648 -0.7406 -0.8714
 7749SOL    HW234467   8.623   0.959   5.837  0.9460  0.0939 -0.8680
 7750SOL     OW34468   6.681   2.045   4.666  0.6136 -0.0016 -0.3092
 7750SOL    HW134469   6.702   2.033   4.569  2.4000 -1.2214  0.2033
 7750SOL    HW234470   6.764   2.032   4.720 -0.4423  0.2666  1.4224
 7751SOL     OW34471   0.106   2.741   0.376 -0.1326 -0.5050  0.5939
 7751SOL    HW134472   0.048   2.660   0.362 -2.4468  1.0374  1.0538
 7751SOL    HW234473   0.052   2.823   0.360  2.3032  0.9782 -0.2400
 7752SOL     OW34474   9.895   8.804   2.515  0.2678 -0.0792 -0.4605
 7752SOL    HW134475   9.989   8.811   2.484  0.5609 -0.5670  0.3147
 7752SOL    HW234476   9.891   8.754   2.602 -0.7436 -0.4036 -0.6792
 7753SOL     OW34477   4.672   5.924   0.747 -0.2601  0.0655  0.1308
 7753SOL    HW134478   4.613   5.845   0.764  0.1522 -0.2655  0.0130
 7753SOL    HW234479   4.618   5.996   0.704 -0.6771 -0.0856  0.3963
 7754SOL     OW34480   0.959   4.934   5.246 -0.1113  0.0131  0.8153
 7754SOL    HW134481   1.019   4.878   5.302  1.6412  2.2221  1.2411
 7754SOL    HW234482   0.909   4.998   5.305 -0.7279  0.1266  0.1776
 7755SOL     OW34483   7.147   0.245   3.779  0.5278 -0.3025  0.1977
 7755SOL    HW134484   7.217   0.315   3.774  0.0097  0.1333 -1.1877
 7755SOL    HW234485   7.087   0.263   3.857 -0.0542  1.2194 -0.5991
 7756SOL     OW34486   8.102   8.813   2.096 -0.0785  0.0772 -0.6149
 7756SOL    HW134487   8.096   8.727   2.046 -1.3203  0.9280 -1.9870
 7756SOL    HW234488   8.119   8.795   2.193 -1.7402 -1.7802 -0.6409
 7757SOL     OW34489   6.697   1.500   4.202  0.2227  0.1729 -0.2475
 7757SOL    HW134490   6.776   1.472   4.147  0.5770  0.2360  0.2352
 7757SOL    HW234491   6.618   1.443   4.177 -0.0208  1.2092 -1.9245
 7758SOL     OW34492   2.206   4.808   4.888  0.3923 -0.5016 -0.0918
 7758SOL    HW134493   2.138   4.756   4.835 -1.6403 -1.3444  3.1676
 7758SOL    HW234494   2.296   4.766   4.876 -0.0365 -0.8229 -2.5952
 7759SOL     OW34495   8.262   2.942   0.601  0.2136 -0.0812 -0.0104
 7759SOL    HW134496   8.229   2.891   0.521 -1.8086  1.1442 -0.0104
 7759SOL    HW234497   8.278   3.037   0.575  1.1846 -0.0531  0.6651
 7760SOL     OW34498   8.263   0.804   0.860  0.0892  0.3538  0.2128
 7760SOL    HW134499   8.363   0.818   0.860 -0.0316  1.2671 -0.3494
 7760SOL    HW234500   8.241   0.719   0.814  0.7296 -0.7401  1.8905
 7761SOL     OW34501   9.796   9.245   2.736  0.2031  0.0629  0.1946
 7761SOL    HW134502   9.779   9.179   2.809  0.5650 -0.6949 -0.4068
 7761SOL    HW234503   9.722   9.313   2.735 -0.6098 -0.8074  0.2787
 7762SOL     OW34504   1.861   3.860   1.676 -0.4495 -0.4782  0.1268
 7762SOL    HW134505   1.791   3.909   1.728 -0.7059 -0.6797 -0.0264
 7762SOL    HW234506   1.893   3.918   1.601 -2.8770 -1.6365 -1.8659
 7763SOL     OW34507   4.432   3.791   1.672 -0.0478  0.5119  0.1780
 7763SOL    HW134508   4.370   3.751   1.740 -0.5801 -1.1821 -1.2544
 7763SOL    HW234509   4.508   3.729   1.656  0.6835  1.4312  0.0547
 7764SOL     OW34510   3.239   4.734   6.567 -0.7149  0.1539  0.3490
 7764SOL    HW134511   3.185   4.744   6.483  2.2303  1.6201 -1.4621
 7764SOL    HW234512   3.263   4.825   6.601  1.5194 -0.4761  0.4863
 7765SOL     OW34513   0.090   4.877   6.732  0.1085 -0.3772  0.7706
 7765SOL    HW134514   0.177   4.923   6.750 -0.6110  0.8521  1.1337
 7765SOL    HW234515   0.101   4.816   6.654  0.7268  1.4331 -0.5949
 7766SOL     OW34516   4.394   1.114   3.042  0.7916  0.1281 -0.2619
 7766SOL    HW134517   4.384   1.028   3.092  0.8454 -0.0873 -0.6223
 7766SOL    HW234518   4.314   1.131   2.986  0.2603  0.9061  0.7090
 7767SOL     OW34519   3.837   0.578   1.705  0.3178  0.6104 -0.5291
 7767SOL    HW134520   3.744   0.602   1.678 -0.2821 -1.3751 -0.2674
 7767SOL    HW234521   3.863   0.491   1.663  2.2646  1.4134 -1.0456
 7768SOL     OW34522   9.354   3.590   5.843 -0.2106  0.4357  0.2944
 7768SOL    HW134523   9.335   3.535   5.925 -0.1467  2.2036  1.5280
 7768SOL    HW234524   9.294   3.669   5.841 -0.3621  0.3005 -1.5117
 7769SOL     OW34525   8.411   4.886   1.219 -0.1967  0.0579  0.7746
 7769SOL    HW134526   8.397   4.828   1.139  0.9684  0.5553  0.2000
 7769SOL    HW234527   8.322   4.912   1.257 -0.7428 -0.8788  0.1540
 7770SOL     OW34528   9.039   6.733   5.316  0.1528 -0.2379 -0.5703
 7770SOL    HW134529   8.979   6.653   5.313  0.6338 -0.5862 -0.9163
 7770SOL    HW234530   8.986   6.815   5.291 -1.0817  0.0394  2.6476
 7771SOL     OW34531   4.017   0.098   4.505  0.9314  0.5893  0.0768
 7771SOL    HW134532   3.938   0.054   4.548  1.5544 -0.3746  0.2403
 7771SOL    HW234533   4.092   0.032   4.497  1.2281  1.0973 -1.4171
 7772SOL     OW34534   2.203   7.260   0.034 -0.2361 -0.0679  0.0456
 7772SOL    HW134535   2.280   7.230   0.090 -0.1711 -0.0167 -0.0163
 7772SOL    HW234536   2.134   7.187   0.029 -0.1037 -0.1852 -0.0612
 7773SOL     OW34537   1.013   0.756   1.874 -0.2045 -0.1922 -0.4134
 7773SOL    HW134538   0.920   0.790   1.890 -0.2371 -0.3026 -0.3660
 7773SOL    HW234539   1.013   0.694   1.796 -0.5173 -1.6437  0.7021
 7774SOL     OW34540   9.498   9.530   3.930 -0.3750 -0.1295  0.3003
 7774SOL    HW134541   9.429   9.529   3.858 -0.9316 -0.4261  0.8407
 7774SOL    HW234542   9.457   9.501   4.017  0.8593 -2.2583  0.2202
 7775SOL     OW34543   0.973   4.927   3.699 -0.2256  0.7258 -0.3503
 7775SOL    HW134544   1.000   4.927   3.603  1.0071  1.6529 -0.0229
 7775SOL    HW234545   0.969   4.832   3.733 -1.0573  0.3799 -1.4151
 7776SOL     OW34546   6.626   2.782   5.081  0.9009 -0.5929  0.0866
 7776SOL    HW134547   6.659   2.831   5.000  0.8870 -0.9760 -0.1545
 7776SOL    HW234548   6.688   2.706   5.101 -0.4578 -2.0304 -1.0696
 7777SOL     OW34549   1.079   0.544   0.683  0.3071  0.4179  0.9418
 7777SOL    HW134550   1.160   0.599   0.702 -0.5132  0.6726  3.9164
 7777SOL    HW234551   1.099   0.448   0.703 -0.5152  0.6670  3.1106
 7778SOL     OW34552   8.227   5.368   0.621  0.3767 -0.6585 -0.4363
 7778SOL    HW134553   8.229   5.294   0.688 -0.0431 -2.1404 -2.0189
 7778SOL    HW234554   8.132   5.397   0.607  0.4328 -0.5650 -0.6206
 7779SOL     OW34555   9.612   2.269   4.523 -0.1491  0.5924  0.1084
 7779SOL    HW134556   9.710   2.258   4.505 -0.1021  0.4628  0.4470
 7779SOL    HW234557   9.565   2.183   4.503  0.1070  0.0038  2.0233
 7780SOL     OW34558   0.228   0.196   1.680  0.1215 -0.1338 -0.5528
 7780SOL    HW134559   0.190   0.236   1.764 -1.6881 -0.9790 -0.9286
 7780SOL    HW234560   0.212   0.098   1.680  0.5582 -0.2133 -1.6490
 7781SOL     OW34561   5.359   4.622   0.175  0.7722  0.1413  0.3250
 7781SOL    HW134562   5.270   4.615   0.130  1.3135 -2.6200 -0.4334
 7781SOL    HW234563   5.346   4.648   0.271 -0.8824 -0.3949  0.2611
 7782SOL     OW34564   6.782   9.676   2.204 -0.2857 -0.7030 -0.1003
 7782SOL    HW134565   6.861   9.707   2.150 -0.6906  0.7176  0.0959
 7782SOL    HW234566   6.792   9.579   2.225 -0.0424 -1.2534 -2.6072
 7783SOL     OW34567   8.700   4.174   4.228  0.6751 -0.0728  0.4429
 7783SOL    HW134568   8.766   4.181   4.303  0.4092 -2.4090  0.9420
 7783SOL    HW234569   8.630   4.106   4.252 -1.6255  1.9751 -0.2957
 7784SOL     OW34570   4.035   9.037   4.246 -0.0100  0.5737  0.0083
 7784SOL    HW134571   4.078   9.055   4.157 -1.4412  1.2973 -0.5517
 7784SOL    HW234572   4.079   8.958   4.289  3.2122  2.4533  0.3408
 7785SOL     OW34573   4.740   0.571   5.219 -0.1820 -0.4629  0.0028
 7785SOL    HW134574   4.787   0.659   5.226 -0.1321 -0.4869 -0.0243
 7785SOL    HW234575   4.806   0.501   5.189 -0.6300 -0.1449 -1.7659
 7786SOL     OW34576   8.487   4.363   5.709 -0.1685  0.2587 -0.3043
 7786SOL    HW134577   8.409   4.396   5.762 -0.1392  0.2510 -0.2560
 7786SOL    HW234578   8.471   4.378   5.612 -0.0882  0.5573 -0.2729
 7787SOL     OW34579   8.050   9.846   3.268  0.2799 -0.3029  0.0578
 7787SOL    HW134580   8.033   9.821   3.363 -0.9788 -1.0854 -0.3703
 7787SOL    HW234581   7.977   9.906   3.236  1.2960  0.8956 -0.0826
 7788SOL     OW34582   5.210   1.438   5.389  0.2943 -0.0442 -0.0880
 7788SOL    HW134583   5.164   1.350   5.384  0.8099 -0.3418  0.3252
 7788SOL    HW234584   5.272   1.439   5.468 -0.4069  1.0227  0.4668
 7789SOL     OW34585   9.492   4.496   2.966  0.2475 -0.7599  0.2738
 7789SOL    HW134586   9.534   4.506   3.057 -1.7839  1.1966  1.0412
 7789SOL    HW234587   9.401   4.455   2.976 -0.0415 -0.3977 -0.8747
 7790SOL     OW34588   3.182   3.155   0.400 -0.1781 -0.0915  0.5495
 7790SOL    HW134589   3.268   3.126   0.359 -0.6838  0.2805 -0.7759
 7790SOL    HW234590   3.119   3.077   0.404  0.0311 -0.2393  1.0564
 7791SOL     OW34591   9.366   0.120   5.736 -0.4952  0.3376  0.2589
 7791SOL    HW134592   9.400   0.211   5.713 -0.1073  1.1735  3.7906
 7791SOL    HW234593   9.302   0.126   5.812 -1.9562 -2.1778 -0.6984
 7792SOL     OW34594   2.835   7.193   0.425 -0.3965 -0.0155 -0.4937
 7792SOL    HW134595   2.783   7.268   0.383  0.4500  1.4243  0.9861
 7792SOL    HW234596   2.930   7.221   0.438 -0.2527 -1.0517  0.8115
 7793SOL     OW34597   3.085   5.051   3.783 -0.1314  0.3471  0.4377
 7793SOL    HW134598   2.989   5.068   3.805 -0.0118  0.9640  0.5106
 7793SOL    HW234599   3.140   5.129   3.815  0.2869  0.3582 -0.3118
 7794SOL     OW34600   4.967   0.498   0.949  0.2058 -0.1640  0.3874
 7794SOL    HW134601   4.991   0.483   0.853  0.9590 -1.6065  0.7951
 7794SOL    HW234602   4.963   0.597   0.967  0.7667  0.1132 -0.9528
 7795SOL     OW34603   8.476   1.271   5.281 -0.1464 -0.6020 -0.1132
 7795SOL    HW134604   8.414   1.218   5.340  0.8753 -2.2404 -0.4604
 7795SOL    HW234605   8.564   1.224   5.276  0.6630  0.9711 -0.7574
 7796SOL     OW34606   2.702   3.533   1.456  0.4520 -0.5791  0.3437
 7796SOL    HW134607   2.741   3.559   1.544 -0.6988 -1.3577  1.0902
 7796SOL    HW234608   2.685   3.435   1.454 -1.1704 -0.3074 -0.0687
 7797SOL     OW34609   4.577   0.733   5.470  0.2083 -0.1888 -0.2968
 7797SOL    HW134610   4.538   0.818   5.435 -0.9248 -0.6186 -0.0914
 7797SOL    HW234611   4.505   0.664   5.479  0.3973 -0.0375  3.0889
 7798SOL     OW34612   4.057   4.997   6.714  0.1469 -0.0829 -0.4548
 7798SOL    HW134613   4.087   4.925   6.777 -1.3139  2.1989  3.0417
 7798SOL    HW234614   4.128   5.013   6.646  1.7040 -2.8579  0.4274
 7799SOL     OW34615   3.278   4.637   3.925 -0.2219 -0.1577 -0.2758
 7799SOL    HW134616   3.361   4.692   3.934 -0.4978  0.4067 -1.1025
 7799SOL    HW234617   3.294   4.565   3.858 -0.1747 -0.4834  0.0860
 7800SOL     OW34618   3.111   2.842   3.511  0.6287 -0.1651 -0.2240
 7800SOL    HW134619   3.100   2.893   3.425  1.7523 -0.2082 -0.4140
 7800SOL    HW234620   3.031   2.856   3.569  0.0676  0.2543 -1.0836
 7801SOL     OW34621   4.587   1.493   2.726 -0.0804 -0.1442 -0.4051
 7801SOL    HW134622   4.496   1.453   2.718 -0.5235  0.5053  1.2100
 7801SOL    HW234623   4.586   1.564   2.796  1.6289 -0.0214 -0.4888
 7802SOL     OW34624   9.044   4.104   4.186 -0.1296  0.7147 -0.3047
 7802SOL    HW134625   9.059   4.178   4.120  0.5996  0.1236 -0.8004
 7802SOL    HW234626   9.131   4.062   4.209 -0.5323  0.0822  0.0671
 7803SOL     OW34627   2.656   9.733   5.279 -0.0696 -0.2892 -0.2858
 7803SOL    HW134628   2.596   9.736   5.359 -1.3029 -2.8509 -1.0421
 7803SOL    HW234629   2.737   9.788   5.296 -1.6850  1.5910  1.5621
 7804SOL     OW34630   6.627   3.221   2.960  0.3033  0.1180  0.4676
 7804SOL    HW134631   6.704   3.218   3.024  0.1275  1.4224  0.7593
 7804SOL    HW234632   6.549   3.266   3.004 -1.0782 -2.3752  0.6375
 7805SOL     OW34633   8.100   7.784   6.572  0.5179  0.9773 -0.2232
 7805SOL    HW134634   8.004   7.802   6.553  0.6763  1.0027 -1.0174
 7805SOL    HW234635   8.141   7.737   6.494  0.7953 -0.3285  0.6983
 7806SOL     OW34636   9.106   1.015   4.965 -0.4448 -0.2607  0.0815
 7806SOL    HW134637   9.134   1.061   4.882 -1.8493  0.8352  0.1815
 7806SOL    HW234638   9.092   1.082   5.038 -0.6595 -1.0371  0.7763
 7807SOL     OW34639   9.704   0.519   0.418 -0.0576  0.3256  0.2275
 7807SOL    HW134640   9.699   0.619   0.422 -1.2295  0.2048  2.4944
 7807SOL    HW234641   9.614   0.482   0.397  0.7168 -0.2269 -2.2913
 7808SOL     OW34642   3.221   0.993   5.933  0.0956 -0.8019 -0.1827
 7808SOL    HW134643   3.233   1.043   5.847 -1.6564 -0.2975 -0.1396
 7808SOL    HW234644   3.223   0.895   5.914  1.3010 -0.7158 -0.5700
 7809SOL     OW34645   4.329   1.925   5.072  0.5727 -0.3898  0.2947
 7809SOL    HW134646   4.385   1.999   5.035  0.3478 -0.4248 -0.1285
 7809SOL    HW234647   4.236   1.933   5.035  0.0205  0.2719  1.7947
 7810SOL     OW34648   5.561   8.920   2.029 -0.4011 -0.1496  0.1940
 7810SOL    HW134649   5.470   8.957   2.013 -1.1965 -3.0965 -2.5105
 7810SOL    HW234650   5.554   8.838   2.087  0.5613 -0.2028  0.2446
 7811SOL     OW34651   8.853   3.929   4.287  0.1841 -0.0210  0.1987
 7811SOL    HW134652   8.905   4.004   4.245 -0.4372  0.1806 -0.2158
 7811SOL    HW234653   8.769   3.966   4.326  0.4334 -0.3190  1.0300
 7812SOL     OW34654   9.700   4.058   2.952  0.2384 -0.2011 -0.5384
 7812SOL    HW134655   9.622   4.005   2.918  0.5810 -0.2104 -1.3092
 7812SOL    HW234656   9.696   4.150   2.914 -0.3184  0.3223  0.7448
 7813SOL     OW34657   3.551   4.665   3.600  0.1518  0.2029 -0.3900
 7813SOL    HW134658   3.573   4.761   3.582  1.6969 -0.2064 -0.7830
 7813SOL    HW234659   3.531   4.653   3.697 -2.3453  1.3335 -0.7269
 7814SOL     OW34660   7.642   0.550   1.553 -0.0920 -0.0771 -0.0145
 7814SOL    HW134661   7.684   0.614   1.489  0.8491 -0.7519 -0.0760
 7814SOL    HW234662   7.711   0.519   1.619 -0.7227 -0.4423  0.4765
 7815SOL     OW34663   2.065   6.695   3.788  0.2287 -0.2399 -0.5313
 7815SOL    HW134664   2.140   6.676   3.850  0.0050 -1.1740 -0.5426
 7815SOL    HW234665   2.098   6.688   3.693 -0.1964 -2.0973 -0.5644
 7816SOL     OW34666   2.049   7.679   3.797 -0.7587  0.4023  0.3947
 7816SOL    HW134667   2.041   7.615   3.873 -1.4980  1.1057  0.9140
 7816SOL    HW234668   2.145   7.691   3.773 -0.5990 -0.6945  0.4618
 7817SOL     OW34669   9.111   9.730   6.479 -0.1185  0.1322 -0.2090
 7817SOL    HW134670   9.185   9.778   6.432 -0.3875  0.5181 -0.2446
 7817SOL    HW234671   9.030   9.726   6.421 -0.1483 -0.2296 -0.1445
 7818SOL     OW34672   9.987   4.042   2.903  0.1574  0.0332  0.1002
 7818SOL    HW134673   9.888   4.043   2.919 -0.0417 -1.7098 -0.9229
 7818SOL    HW234674  10.022   3.950   2.915  1.5855  0.5433 -0.0406
 7819SOL     OW34675   8.483   8.350   0.820 -0.8461  0.4152 -0.0304
 7819SOL    HW134676   8.550   8.281   0.846 -0.4970  0.8443  0.2318
 7819SOL    HW234677   8.527   8.441   0.823 -0.4747  0.3744 -3.2264
 7820SOL     OW34678   6.648   1.178   2.149 -0.2713 -0.2951  0.3243
 7820SOL    HW134679   6.567   1.203   2.096  0.3132  1.8987  0.4218
 7820SOL    HW234680   6.631   1.195   2.246  0.2678  0.0491  0.3587
 7821SOL     OW34681   7.294   6.711   6.041 -0.4751  0.0935 -0.0323
 7821SOL    HW134682   7.196   6.720   6.020  0.0261 -0.9352 -3.0574
 7821SOL    HW234683   7.341   6.671   5.962  2.0495 -1.4426  2.2004
 7822SOL     OW34684   1.548   9.737   1.314  0.1540  0.0070  0.0938
 7822SOL    HW134685   1.612   9.806   1.279 -0.2557  0.2934 -0.1005
 7822SOL    HW234686   1.588   9.693   1.394  1.2482 -0.9029 -0.9307
 7823SOL     OW34687   7.382   4.036   5.310  0.3187 -0.2083  0.5787
 7823SOL    HW134688   7.473   4.027   5.352 -0.3490 -0.6745  1.9314
 7823SOL    HW234689   7.342   4.124   5.337 -0.4294 -0.8444  1.5228
 7824SOL     OW34690   1.108   3.422   2.025 -0.7086  0.1620 -0.3978
 7824SOL    HW134691   1.022   3.427   2.076 -1.3252 -1.2296 -1.2754
 7824SOL    HW234692   1.097   3.470   1.938 -0.6229 -0.1103 -0.5573
 7825SOL     OW34693   2.678   1.069   6.064 -0.1382  0.0309 -0.5455
 7825SOL    HW134694   2.600   1.053   6.002 -1.3012 -0.9858  1.1470
 7825SOL    HW234695   2.761   1.080   6.010 -1.2505 -0.1182 -2.3334
 7826SOL     OW34696   8.507   8.239   4.278  0.2334  0.2893  0.0947
 7826SOL    HW134697   8.550   8.175   4.214 -0.5619  0.9887 -1.1589
 7826SOL    HW234698   8.486   8.191   4.364  1.5669 -0.5869 -0.0515
 7827SOL     OW34699   6.694   6.839   4.752 -0.4188  0.1866 -0.3835
 7827SOL    HW134700   6.651   6.783   4.823  0.2022 -1.4062 -1.2363
 7827SOL    HW234701   6.627   6.857   4.680 -0.9884  1.6342  0.4717
 7828SOL     OW34702   9.850   5.268   3.868 -0.6011 -0.4577  0.1777
 7828SOL    HW134703   9.887   5.283   3.776 -2.4103  0.5400 -0.4040
 7828SOL    HW234704   9.865   5.173   3.895  1.6906 -0.2634 -0.3414
 7829SOL     OW34705   0.266   9.989   2.780 -0.0199  0.3449  0.0736
 7829SOL    HW134706   0.355  10.034   2.769 -0.5534  1.3442 -0.2374
 7829SOL    HW234707   0.194  10.058   2.781 -0.9543 -0.5925 -1.4986
 7830SOL     OW34708   3.277   0.174   3.832  0.2565 -0.2452  0.1487
 7830SOL    HW134709   3.272   0.091   3.776  0.1602 -1.0174  1.2878
 7830SOL    HW234710   3.185   0.207   3.851  0.3001  0.2365 -0.4650
 7831SOL     OW34711   3.759   4.379   1.240 -0.5381 -0.3620  0.0510
 7831SOL    HW134712   3.802   4.418   1.321 -2.1686 -0.0725  0.7929
 7831SOL    HW234713   3.760   4.445   1.166  1.0496 -0.6631 -0.2122
 7832SOL     OW34714   3.359   2.738   3.301  0.8249  0.3261 -0.1168
 7832SOL    HW134715   3.344   2.639   3.303  0.9722  0.3016 -0.1811
 7832SOL    HW234716   3.379   2.767   3.208  0.5664  0.4499 -0.1315
 7833SOL     OW34717   0.888   5.072   6.430  0.3244  0.6279  0.3083
 7833SOL    HW134718   0.902   5.143   6.361 -1.1742 -0.6797 -1.3964
 7833SOL    HW234719   0.791   5.047   6.432  0.8399 -1.4136  0.8401
 7834SOL     OW34720   3.780   1.300   1.886 -0.0619  0.2908  0.1361
 7834SOL    HW134721   3.790   1.201   1.875 -0.0202  0.2689  0.3768
 7834SOL    HW234722   3.783   1.323   1.983 -0.1824  0.5163  0.0858
 7835SOL     OW34723   7.769   3.802   6.297 -0.6515 -0.5781  0.0461
 7835SOL    HW134724   7.835   3.870   6.265 -1.4631 -0.7419 -2.0396
 7835SOL    HW234725   7.807   3.711   6.284  0.1401 -0.5886  2.1753
 7836SOL     OW34726   6.915   0.645   6.405  0.0966  0.2011 -0.2319
 7836SOL    HW134727   6.851   0.704   6.454  1.8955  2.0141  0.0164
 7836SOL    HW234728   6.975   0.598   6.470 -1.2581 -1.8818 -0.4325
 7837SOL     OW34729   1.970   6.676   4.243  0.2190  0.1031  0.4148
 7837SOL    HW134730   1.982   6.598   4.182  0.7698  1.8863 -1.8117
 7837SOL    HW234731   1.876   6.678   4.277 -0.6253  0.1469 -1.8815
 7838SOL     OW34732   3.427   4.423   0.130  0.1848  0.1530  0.0300
 7838SOL    HW134733   3.527   4.420   0.136  0.1810  0.4508  0.2599
 7838SOL    HW234734   3.398   4.386   0.042  0.4857 -0.1587  0.0620
 7839SOL     OW34735   0.995   7.215   0.474  0.2877  0.3570 -0.3484
 7839SOL    HW134736   0.991   7.303   0.426 -1.2155  0.0731 -0.7764
 7839SOL    HW234737   0.904   7.175   0.477  0.7351 -0.5947  0.9793
 7840SOL     OW34738   0.518   8.269   3.055  0.1591  0.3176  0.1276
 7840SOL    HW134739   0.511   8.354   3.004 -0.4511  1.1033  1.4826
 7840SOL    HW234740   0.599   8.271   3.114 -0.8419  0.7468  1.5269
 7841SOL     OW34741   2.833   8.509   6.250  0.4468 -0.7424  0.0618
 7841SOL    HW134742   2.917   8.479   6.205 -0.1888 -2.5017  0.0094
 7841SOL    HW234743   2.773   8.555   6.184  1.3539  0.5366  0.1038
 7842SOL     OW34744   2.843   8.850   1.892  0.2378  0.4429 -0.2451
 7842SOL    HW134745   2.763   8.795   1.914  1.8801 -1.0880  2.1912
 7842SOL    HW234746   2.911   8.792   1.846  0.2935  1.5278 -1.5553
 7843SOL     OW34747   8.928   7.143   6.042  0.1074 -0.1554  1.0655
 7843SOL    HW134748   8.999   7.092   5.994  1.0100  1.8722  0.2071
 7843SOL    HW234749   8.965   7.230   6.075 -1.7790  0.6188  1.2269
 7844SOL     OW34750   2.640   0.155   2.805  0.7198 -0.0287 -0.2168
 7844SOL    HW134751   2.593   0.243   2.803  0.2478 -0.2438  0.9196
 7844SOL    HW234752   2.703   0.152   2.883  1.9604 -0.0891 -1.2011
 7845SOL     OW34753   8.709   7.020   3.781 -0.1602 -0.1993  0.1324
 7845SOL    HW134754   8.617   6.991   3.809 -0.2579  1.5479  1.6702
 7845SOL    HW234755   8.758   7.058   3.859  1.9840 -1.3017 -0.6155
 7846SOL     OW34756   0.245   1.765   3.946 -0.4261  0.0380 -0.1418
 7846SOL    HW134757   0.253   1.761   3.846 -1.9761 -0.7592 -0.2460
 7846SOL    HW234758   0.148   1.768   3.971 -0.0473 -0.1467  1.3646
 7847SOL     OW34759   8.186   5.181   0.822  0.3357  0.4926 -0.1858
 7847SOL    HW134760   8.250   5.121   0.869  0.8818  0.6962 -0.6608
 7847SOL    HW234761   8.106   5.129   0.793 -0.2241  0.4605  1.3815
 7848SOL     OW34762   1.841   5.436   4.586 -0.1432 -0.1662  1.5791
 7848SOL    HW134763   1.926   5.457   4.633  0.3434 -0.5442  0.8815
 7848SOL    HW234764   1.792   5.521   4.566  2.1609  0.4604 -1.8744
 7849SOL     OW34765   5.197   0.401   3.711  0.2782  0.5012 -0.2457
 7849SOL    HW134766   5.274   0.341   3.734  1.0615  1.5907  0.0036
 7849SOL    HW234767   5.230   0.480   3.659 -0.7924  0.5640 -0.8593
 7850SOL     OW34768   5.272   9.656   3.260  0.1992  0.8180 -0.3258
 7850SOL    HW134769   5.339   9.605   3.206 -2.6413 -2.2717 -1.1303
 7850SOL    HW234770   5.191   9.675   3.204 -1.5193  0.3532  1.9075
 7851SOL     OW34771   7.728   7.605   4.364 -0.9468  0.0214 -0.1959
 7851SOL    HW134772   7.710   7.671   4.291 -0.8678  1.0542  0.7081
 7851SOL    HW234773   7.723   7.650   4.453  1.8362 -0.5479  0.3211
 7852SOL     OW34774   7.192   9.047   4.160 -0.2544 -0.1561  0.6664
 7852SOL    HW134775   7.164   8.992   4.239  0.1155 -2.5375 -0.8080
 7852SOL    HW234776   7.292   9.049   4.154 -0.2094  1.8409  1.4537
 7853SOL     OW34777   8.519   4.691   1.700  0.0409 -0.7141  0.5099
 7853SOL    HW134778   8.458   4.768   1.719 -0.5164 -0.4980 -1.9280
 7853SOL    HW234779   8.465   4.612   1.672  0.6752 -1.7089  2.0446
 7854SOL     OW34780   8.845   0.076   5.434  0.2411 -0.3581  0.4986
 7854SOL    HW134781   8.895   0.133   5.499  1.5926 -0.2306 -0.6150
 7854SOL    HW234782   8.776   0.131   5.387 -0.6463 -0.4196  1.7172
 7855SOL     OW34783   3.653   2.233   6.012  0.6050  0.3418  0.4351
 7855SOL    HW134784   3.701   2.241   6.100 -1.1470  1.6567  1.3093
 7855SOL    HW234785   3.669   2.142   5.973 -0.7964 -1.2674  3.4498
 7856SOL     OW34786   7.217   6.006   5.695  0.5879  0.3734  0.2039
 7856SOL    HW134787   7.305   5.975   5.658 -0.2894 -0.4636 -1.2461
 7856SOL    HW234788   7.206   5.971   5.788  1.1241 -0.8302 -0.1736
 7857SOL     OW34789   7.321   3.476   4.074  0.2401  0.3957 -0.1201
 7857SOL    HW134790   7.369   3.414   4.012  0.5898  0.5726 -0.0281
 7857SOL    HW234791   7.385   3.545   4.107 -0.5612  1.8806 -1.6228
 7858SOL     OW34792   2.809   5.474   5.663 -0.3730  0.2111 -0.3523
 7858SOL    HW134793   2.830   5.386   5.620 -0.7014  0.0869 -0.2595
 7858SOL    HW234794   2.714   5.498   5.645 -0.0202  1.0077 -1.1804
 7859SOL     OW34795   9.019   3.974   3.338 -0.4050  0.2186 -0.3955
 7859SOL    HW134796   9.071   3.942   3.418  1.0669  1.9899 -0.6040
 7859SOL    HW234797   8.996   3.897   3.280  1.2746 -0.7159  0.1419
 7860SOL     OW34798   9.383   4.524   4.445 -0.0930  0.3541 -0.7963
 7860SOL    HW134799   9.462   4.503   4.387  0.8138  1.5378  0.0028
 7860SOL    HW234800   9.331   4.600   4.406  1.8114  2.6983  1.0890
 7861SOL     OW34801   7.587   6.940   1.494  0.1778  0.2539  0.4394
 7861SOL    HW134802   7.659   6.920   1.427 -1.1877  0.7206 -1.1889
 7861SOL    HW234803   7.573   7.038   1.499 -1.6681  0.0533 -0.6604
 7862SOL     OW34804   1.481   7.595   5.306 -0.1187 -0.2437 -0.2370
 7862SOL    HW134805   1.511   7.659   5.235  2.1493 -0.7603  0.2332
 7862SOL    HW234806   1.387   7.567   5.287 -0.0450  0.7546 -2.2279
 7863SOL     OW34807   1.529   8.516   2.729  0.0915 -0.7149  0.1118
 7863SOL    HW134808   1.619   8.515   2.686 -0.9419  0.7095 -2.1734
 7863SOL    HW234809   1.534   8.468   2.817  2.9716 -0.9618 -0.1266
 7864SOL     OW34810   2.554   8.920   2.192 -0.1418  0.2303  0.1064
 7864SOL    HW134811   2.584   8.826   2.175 -1.5241 -0.2208  0.0969
 7864SOL    HW234812   2.610   8.983   2.139 -0.3956 -0.7288 -1.3409
 7865SOL     OW34813   8.477   9.880   4.145 -0.1895 -0.5760 -0.4373
 7865SOL    HW134814   8.530   9.801   4.175 -0.0776 -0.8405 -1.3300
 7865SOL    HW234815   8.406   9.850   4.081 -0.2579  0.0180 -0.6392
 7866SOL     OW34816   7.537   3.540   0.405 -0.3238 -0.1789  0.1651
 7866SOL    HW134817   7.447   3.545   0.449 -0.4831  0.8034 -0.2546
 7866SOL    HW234818   7.607   3.569   0.470 -0.1689 -2.1342  0.8862
 7867SOL     OW34819   0.249   5.960   5.056 -0.3819 -0.3902 -0.4417
 7867SOL    HW134820   0.187   5.960   4.978  1.1952 -0.4421 -1.7355
 7867SOL    HW234821   0.343   5.977   5.024  0.3396 -0.7478  1.4029
 7868SOL     OW34822   5.472   1.304   3.329  0.1076  0.3085 -0.1831
 7868SOL    HW134823   5.496   1.374   3.262 -1.5282  0.5450 -0.5386
 7868SOL    HW234824   5.455   1.217   3.282 -0.3389  0.2955  0.0045
 7869SOL     OW34825   7.094   6.914   5.309  0.1745  0.0147  0.0098
 7869SOL    HW134826   7.104   6.996   5.252  0.5080 -1.0569 -1.4916
 7869SOL    HW234827   7.012   6.923   5.366 -0.3536  0.9405 -0.8810
 7870SOL     OW34828   5.249   0.710   3.790 -0.1186  0.2850  0.3676
 7870SOL    HW134829   5.254   0.809   3.800 -0.0900  0.2302  0.9181
 7870SOL    HW234830   5.283   0.684   3.700 -1.6436  0.9117 -0.4083
 7871SOL     OW34831   3.136   1.703   3.506  0.1886 -0.6647 -0.0947
 7871SOL    HW134832   3.180   1.699   3.416  1.0099 -0.5453  0.3005
 7871SOL    HW234833   3.056   1.763   3.500  1.6883  1.4048 -0.1456
 7872SOL     OW34834   4.723   6.214   2.398  0.4945  0.0027 -0.1093
 7872SOL    HW134835   4.670   6.232   2.315 -0.5434  0.4844  0.6379
 7872SOL    HW234836   4.725   6.297   2.455 -3.1361 -1.6742  2.7112
 7873SOL     OW34837   1.627   4.026   2.389  0.1117  1.0184  0.0690
 7873SOL    HW134838   1.588   3.935   2.373 -1.1823  1.3494  1.2731
 7873SOL    HW234839   1.594   4.089   2.319  1.7797  0.3684 -1.3502
 7874SOL     OW34840   7.224   8.182   5.206  0.4634 -0.7455 -0.2439
 7874SOL    HW134841   7.316   8.202   5.171  0.7745 -2.4151 -0.3902
 7874SOL    HW234842   7.169   8.141   5.133 -0.2576 -0.1997 -0.0134
 7875SOL     OW34843   2.053   8.965   3.725 -0.2190 -0.5032  0.1550
 7875SOL    HW134844   2.128   8.904   3.701  1.4076  0.6959  2.0055
 7875SOL    HW234845   2.075   9.013   3.810 -0.7518  3.8320 -2.0236
 7876SOL     OW34846   0.246   8.055   1.413 -0.5145  0.1816 -0.3868
 7876SOL    HW134847   0.297   7.986   1.465 -0.9089  0.8689  0.9385
 7876SOL    HW234848   0.311   8.111   1.361  0.1172  1.0427  1.2848
 7877SOL     OW34849   1.609   3.428   3.745 -0.2104 -0.6155 -0.4397
 7877SOL    HW134850   1.596   3.336   3.709  2.2986 -2.3197  2.7320
 7877SOL    HW234851   1.572   3.432   3.838  1.8386  0.8422  0.3402
 7878SOL     OW34852   8.985   8.138   4.351  0.1960 -0.2659 -0.0887
 7878SOL    HW134853   8.969   8.201   4.274 -0.3833  1.3238  1.3103
 7878SOL    HW234854   8.938   8.052   4.333 -0.8635  0.4827 -1.0237
 7879SOL     OW34855   5.793   0.473   5.163 -0.4677  0.1195 -0.4200
 7879SOL    HW134856   5.772   0.376   5.149 -1.9410  0.0934  1.7817
 7879SOL    HW234857   5.891   0.483   5.182 -0.0511 -0.7619 -2.0626
 7880SOL     OW34858   2.498   0.896   0.455  0.2746 -0.1240  0.3110
 7880SOL    HW134859   2.487   0.797   0.444  0.6972 -0.1916  0.4755
 7880SOL    HW234860   2.408   0.938   0.469 -0.1509 -0.1743 -2.1019
 7881SOL     OW34861   9.678   0.802   5.296  0.2946  0.0781 -0.3209
 7881SOL    HW134862   9.738   0.859   5.240  1.0472 -1.3841 -1.0128
 7881SOL    HW234863   9.733   0.741   5.353 -0.5131 -2.2346 -1.9454
 7882SOL     OW34864   9.894   3.315   2.841 -0.0875  0.4947 -0.3173
 7882SOL    HW134865   9.864   3.378   2.769 -1.9927  1.5511  1.3574
 7882SOL    HW234866   9.990   3.332   2.861  0.0569  1.2403 -1.5352
 7883SOL     OW34867   9.749   5.484   0.239  0.7668  0.3365 -0.0757
 7883SOL    HW134868   9.809   5.437   0.303  0.9734  0.9784  0.2079
 7883SOL    HW234869   9.744   5.581   0.263 -0.5899  0.2443  0.0758
 7884SOL     OW34870   9.903   9.671   1.746 -0.2872  0.4398 -0.1325
 7884SOL    HW134871   9.932   9.742   1.811  1.1184  0.2891 -0.5830
 7884SOL    HW234872   9.977   9.604   1.735 -1.8764 -1.5264  0.8628
 7885SOL     OW34873   8.752   2.390   0.379  0.2414  0.0318 -0.0456
 7885SOL    HW134874   8.719   2.483   0.362 -1.7902 -1.0115 -1.9556
 7885SOL    HW234875   8.761   2.376   0.478  0.0999  2.0839  0.2903
 7886SOL     OW34876   4.431   2.233   2.708  0.0426 -0.3656  0.6567
 7886SOL    HW134877   4.407   2.212   2.803  1.2818  1.3747  1.3938
 7886SOL    HW234878   4.350   2.267   2.660 -0.1177  0.8270  1.7336
 7887SOL     OW34879   6.622   7.864   3.901  0.5560  0.0635  0.1570
 7887SOL    HW134880   6.690   7.907   3.842  1.9381 -0.7619  1.1219
 7887SOL    HW234881   6.542   7.923   3.907  0.9750  0.8281 -1.3824
 7888SOL     OW34882   3.647   7.577   1.755 -0.3124 -0.0574 -0.2348
 7888SOL    HW134883   3.734   7.577   1.705 -0.8376  2.6200 -1.2617
 7888SOL    HW234884   3.581   7.518   1.708  0.0592  0.2216 -1.1165
 7889SOL     OW34885   8.786   1.985   5.787 -0.0447  0.1294 -0.3273
 7889SOL    HW134886   8.864   2.012   5.729 -1.3298  1.4009 -1.5005
 7889SOL    HW234887   8.748   2.066   5.831 -1.2777 -0.3528 -0.4955
 7890SOL     OW34888   7.689   2.720   6.554 -0.5828  0.2266 -0.6679
 7890SOL    HW134889   7.707   2.787   6.626  0.2417 -0.5393 -0.1510
 7890SOL    HW234890   7.623   2.653   6.588 -1.2349  0.6351 -1.1079
 7891SOL     OW34891   9.072   5.497   2.465 -0.2085 -0.4663 -0.5990
 7891SOL    HW134892   9.047   5.504   2.561 -2.0431  0.0029 -1.0766
 7891SOL    HW234893   9.171   5.491   2.456  0.0845  1.2962  1.2109
 7892SOL     OW34894   0.411   7.717   1.316  0.3138  0.1768 -0.2380
 7892SOL    HW134895   0.315   7.716   1.287  0.5263  0.9118 -0.9507
 7892SOL    HW234896   0.421   7.774   1.397  0.5966  2.2544 -1.7111
 7893SOL     OW34897   3.954   4.397   1.858 -0.3954  0.7138 -0.1382
 7893SOL    HW134898   3.939   4.371   1.953 -1.4040 -0.2947 -0.5510
 7893SOL    HW234899   3.873   4.445   1.824 -1.4855 -1.9350 -1.4623
 7894SOL     OW34900   0.778   3.747   2.149  0.2906 -0.3793 -0.3668
 7894SOL    HW134901   0.742   3.836   2.123 -0.3636 -0.6227 -0.3067
 7894SOL    HW234902   0.703   3.681   2.156  0.6594 -0.7085  0.5248
 7895SOL     OW34903   9.239   2.829   2.286 -0.0819 -0.2777 -0.2352
 7895SOL    HW134904   9.236   2.842   2.385 -0.5510  0.2299 -0.3116
 7895SOL    HW234905   9.146   2.836   2.249 -0.0114 -1.2457 -0.6129
 7896SOL     OW34906   7.919   1.787   3.606 -0.7800 -0.2171  0.5026
 7896SOL    HW134907   7.970   1.798   3.521 -1.6058 -1.4912 -0.1679
 7896SOL    HW234908   7.922   1.692   3.636  0.5954  0.4472  2.6166
 7897SOL     OW34909   0.628   9.139   1.875  0.5301  0.4404  0.1180
 7897SOL    HW134910   0.633   9.044   1.844  0.6222  0.1001  1.1550
 7897SOL    HW234911   0.572   9.144   1.957  1.1808  1.1663  0.5194
 7898SOL     OW34912   1.213   3.936   0.983 -0.4874  0.1809  0.0522
 7898SOL    HW134913   1.297   3.974   0.943  0.3586 -1.7281 -0.0503
 7898SOL    HW234914   1.134   3.975   0.937  0.4342 -0.5498 -2.2091
 7899SOL     OW34915   2.579   7.916   6.045 -0.4325  0.1188 -0.1773
 7899SOL    HW134916   2.647   7.925   6.117 -0.2508 -0.1020 -0.3223
 7899SOL    HW234917   2.584   7.824   6.006 -1.3219 -0.1525  0.3291
 7900SOL     OW34918   8.560   0.557   1.516 -0.4470 -0.0375  0.0588
 7900SOL    HW134919   8.563   0.464   1.553  0.9547 -0.1529 -0.3202
 7900SOL    HW234920   8.465   0.584   1.502 -0.8498 -1.6283 -0.3588
 7901SOL     OW34921   9.866   9.166   1.538 -0.4704  0.1290  0.0781
 7901SOL    HW134922   9.852   9.265   1.543 -0.6926  0.0159  1.7421
 7901SOL    HW234923   9.954   9.148   1.494  0.0250  1.0809  0.6553
 7902SOL     OW34924   7.053   1.203   0.628 -0.1788  0.1828  0.1220
 7902SOL    HW134925   7.046   1.188   0.727  0.2563 -1.4083 -0.0641
 7902SOL    HW234926   6.998   1.282   0.602 -0.0765  0.7813  1.6793
 7903SOL     OW34927   5.836   0.636   2.983  0.1434  0.0596 -0.3021
 7903SOL    HW134928   5.907   0.582   2.939 -0.0326 -0.6573  0.2926
 7903SOL    HW234929   5.774   0.674   2.914  0.3341 -0.3976 -0.7191
 7904SOL     OW34930   9.660   3.020   1.013  0.0220 -0.1407 -0.9161
 7904SOL    HW134931   9.709   3.067   0.939 -1.9478  0.5492 -1.8082
 7904SOL    HW234932   9.660   3.077   1.095  0.1180  0.1504 -1.1191
 7905SOL     OW34933   4.630   2.128   2.555 -0.0350  0.4338 -0.1306
 7905SOL    HW134934   4.555   2.151   2.618 -0.5484  0.7146 -0.8385
 7905SOL    HW234935   4.619   2.180   2.471  2.0776  2.0193  0.5294
 7906SOL     OW34936   2.915   3.200   5.467 -0.1680 -0.7011 -0.4708
 7906SOL    HW134937   2.991   3.205   5.532 -0.8201  2.3176  0.0965
 7906SOL    HW234938   2.867   3.113   5.479 -0.3941 -0.1166  3.1827
 7907SOL     OW34939   3.638   3.951   6.596  0.8934  0.2595 -0.1122
 7907SOL    HW134940   3.681   3.861   6.608  1.0198  0.4900  1.2922
 7907SOL    HW234941   3.546   3.949   6.636  1.3557  1.0903  1.0218
 7908SOL     OW34942   9.408   6.988   6.433  0.0735 -0.5490 -0.1159
 7908SOL    HW134943   9.398   6.929   6.513 -1.5016 -0.3140 -0.1339
 7908SOL    HW234944   9.491   6.961   6.383  0.7033 -1.1374  1.2013
 7909SOL     OW34945   9.487   5.556   2.827 -0.3498  0.0458 -0.1475
 7909SOL    HW134946   9.461   5.647   2.794  1.4411  0.1404 -1.3473
 7909SOL    HW234947   9.504   5.496   2.749 -0.5674 -1.0493  0.6388
 7910SOL     OW34948   1.586   1.170   3.494 -0.1535  0.0478  0.3241
 7910SOL    HW134949   1.644   1.181   3.413  1.6547 -0.0173  1.5807
 7910SOL    HW234950   1.532   1.086   3.485  1.0045 -0.6549 -0.2431
 7911SOL     OW34951   7.754   8.775   5.693  0.2055 -0.2075 -0.2776
 7911SOL    HW134952   7.834   8.800   5.639  1.1205  1.8938  1.9486
 7911SOL    HW234953   7.728   8.681   5.673  1.7486 -0.1294 -2.8172
 7912SOL     OW34954   7.328   2.899   1.887 -0.1248 -1.2445 -0.9584
 7912SOL    HW134955   7.257   2.842   1.845 -0.2122 -0.7484 -1.5028
 7912SOL    HW234956   7.285   2.976   1.934 -0.0681 -2.2260  0.7235
 7913SOL     OW34957   8.449   0.204   0.922 -0.3965  0.0794 -0.1368
 7913SOL    HW134958   8.443   0.299   0.894 -1.7942 -0.0456 -0.3017
 7913SOL    HW234959   8.524   0.193   0.987 -2.2770  1.9707  2.4719
 7914SOL     OW34960   7.932   6.823   4.857  0.5810  0.1295 -0.7582
 7914SOL    HW134961   7.933   6.723   4.861  1.7975  0.2087  1.7645
 7914SOL    HW234962   7.837   6.855   4.850  0.1279 -1.1680 -0.6206
 7915SOL     OW34963   4.905   0.098   1.210  0.0276  0.5427 -0.2546
 7915SOL    HW134964   4.952   0.096   1.299 -0.3091 -0.3822 -0.0883
 7915SOL    HW234965   4.890   0.193   1.183  2.4526  0.8635 -0.5662
 7916SOL     OW34966   1.286   9.369   2.174  0.0669  0.1344  0.3252
 7916SOL    HW134967   1.322   9.321   2.254 -0.2967 -1.2423 -0.3198
 7916SOL    HW234968   1.341   9.451   2.156 -0.0427  0.6306  2.1649
 7917SOL     OW34969   1.043   3.394   4.224 -0.3153 -0.0719 -0.6352
 7917SOL    HW134970   0.962   3.398   4.282  1.8995  0.0625  2.6565
 7917SOL    HW234971   1.081   3.301   4.226  0.1764  0.1113 -1.2623
 7918SOL     OW34972   2.025   4.663   4.718  0.3406 -0.0264 -0.2115
 7918SOL    HW134973   1.959   4.645   4.791  1.3648  0.4394  0.8297
 7918SOL    HW234974   2.059   4.576   4.681  0.9259 -0.2589  0.8674
 7919SOL     OW34975   9.126   7.112   4.631 -0.4777 -0.3885 -0.6397
 7919SOL    HW134976   9.151   7.101   4.728  2.2614  1.2949 -1.1120
 7919SOL    HW234977   9.207   7.097   4.574 -1.9227 -0.6706 -2.6610
 7920SOL     OW34978   2.259   8.844   4.551  0.4983  0.1833  0.4925
 7920SOL    HW134979   2.161   8.850   4.566  0.4398  1.7090 -0.3813
 7920SOL    HW234980   2.307   8.866   4.636  0.0923 -1.6780  1.2254
 7921SOL     OW34981   5.988   0.712   4.686  0.1601 -0.1495  0.3383
 7921SOL    HW134982   6.027   0.675   4.601 -1.1094 -0.4663 -0.1110
 7921SOL    HW234983   5.994   0.812   4.685  2.0231 -0.2347  0.7951
 7922SOL     OW34984   3.127   3.919   0.193  0.3264  0.0850 -0.4439
 7922SOL    HW134985   3.178   3.842   0.232  0.3706  0.2750 -0.1210
 7922SOL    HW234986   3.164   4.005   0.229 -0.5480  0.2059  0.1884
 7923SOL     OW34987   8.804   1.505   2.924  0.0391  0.1717 -0.5205
 7923SOL    HW134988   8.746   1.479   3.001  1.6652  0.5771  0.8649
 7923SOL    HW234989   8.752   1.566   2.863 -0.2241  2.6331  2.0485
 7924SOL     OW34990   4.560   9.377   5.536 -0.2231  0.0738  0.5671
 7924SOL    HW134991   4.547   9.319   5.617  1.4474  0.4824  1.1571
 7924SOL    HW234992   4.562   9.321   5.454  0.4056 -0.5966  1.0377
 7925SOL     OW34993   8.913   6.830   2.352 -0.4669 -0.3408 -0.3332
 7925SOL    HW134994   8.850   6.762   2.388 -0.6716  0.5999  1.1237
 7925SOL    HW234995   8.902   6.916   2.402  2.1424 -0.2347  0.1572
 7926SOL     OW34996   2.884   6.204   1.681 -0.2317  0.2628 -0.6032
 7926SOL    HW134997   2.935   6.156   1.610 -0.0965  2.3032 -1.9323
 7926SOL    HW234998   2.879   6.147   1.763 -1.2244 -2.5355 -2.5368
 7927SOL     OW34999   0.572   8.234   5.905  0.0272 -0.8156  0.4945
 7927SOL    HW135000   0.538   8.198   5.992 -1.2771 -2.0377 -0.5011
 7927SOL    HW235001   0.656   8.287   5.921  0.7704 -2.4864  2.2577
 7928SOL     OW35002   9.587   4.194   3.471  0.4360  0.0818 -0.2643
 7928SOL    HW135003   9.636   4.115   3.434 -2.8460 -3.1307  1.9404
 7928SOL    HW235004   9.511   4.217   3.412  0.0963  0.2245  0.2239
 7929SOL     OW35005   7.632   7.905   2.632  0.3752 -0.0128 -0.4126
 7929SOL    HW135006   7.707   7.971   2.642 -0.7963  1.0797  1.3785
 7929SOL    HW235007   7.612   7.893   2.535  2.1136  0.5461 -0.8604
 7930SOL     OW35008   3.252   2.878   0.274  0.1243 -0.1822 -0.0205
 7930SOL    HW135009   3.224   2.900   0.180  2.7833 -2.0053 -1.2911
 7930SOL    HW235010   3.317   2.946   0.307  0.2542 -0.3151 -0.0036
 7931SOL     OW35011   0.876   8.086   2.188 -0.0239 -0.2509  0.4828
 7931SOL    HW135012   0.853   8.064   2.282  1.2918 -1.1459  0.6110
 7931SOL    HW235013   0.975   8.076   2.174 -0.1142  0.4663 -0.8307
 7932SOL     OW35014   4.388   0.081   3.163 -0.2627 -0.3896 -0.3018
 7932SOL    HW135015   4.295   0.055   3.138 -0.8558  1.1940  0.1976
 7932SOL    HW235016   4.427   0.012   3.223 -1.5269 -0.5249  0.3751
 7933SOL     OW35017   5.018   1.212   0.415 -0.0363 -0.3993 -0.1505
 7933SOL    HW135018   5.060   1.193   0.503 -0.2982 -0.5423 -0.0570
 7933SOL    HW235019   4.938   1.153   0.402 -0.6655  0.4058  0.0027
 7934SOL     OW35020   0.026   5.373   2.515  0.2325  0.1485 -0.3725
 7934SOL    HW135021   0.106   5.407   2.565  2.2449 -0.3187 -3.2162
 7934SOL    HW235022  -0.011   5.446   2.458 -1.3270  0.3255  0.8360
 7935SOL     OW35023   3.594   2.573   3.025 -0.3233  0.0153 -0.5780
 7935SOL    HW135024   3.609   2.496   3.087  1.6090 -0.7773 -1.9841
 7935SOL    HW235025   3.668   2.577   2.958 -2.0949  1.1499 -2.5354
 7936SOL     OW35026   7.424   7.091   4.527  0.1680  0.4981 -0.4730
 7936SOL    HW135027   7.498   7.087   4.594  0.5560  1.3514 -0.8442
 7936SOL    HW235028   7.409   7.187   4.500 -1.0186  0.3176 -0.4492
 7937SOL     OW35029   3.415   4.240   0.488  0.3688  0.0633 -0.6089
 7937SOL    HW135030   3.399   4.338   0.488 -1.6739 -0.2366 -0.1197
 7937SOL    HW235031   3.359   4.197   0.559  0.7326 -1.5162 -1.2524
 7938SOL     OW35032   1.484   6.986   1.619 -0.1932  0.5929  0.4367
 7938SOL    HW135033   1.550   6.950   1.553  0.1185  0.8264  0.6219
 7938SOL    HW235034   1.448   6.910   1.673 -2.5345 -0.0068 -1.8498
 7939SOL     OW35035   2.546   2.257   0.530 -0.3420  0.0573 -0.2677
 7939SOL    HW135036   2.526   2.335   0.590 -3.2170 -0.3811 -0.5850
 7939SOL    HW235037   2.513   2.173   0.571  0.6651 -0.7092 -0.9805
 7940SOL     OW35038   8.167   1.801   5.951  0.5802 -0.1399 -0.3329
 7940SOL    HW135039   8.081   1.761   5.983  0.1288 -0.3204 -1.7627
 7940SOL    HW235040   8.167   1.899   5.969 -0.6748  0.1669 -1.9138
 7941SOL     OW35041   5.881   1.192   4.487 -0.0885 -0.1805 -0.3034
 7941SOL    HW135042   5.827   1.247   4.423  0.6367  0.0909 -0.6969
 7941SOL    HW235043   5.823   1.160   4.561 -0.6261  0.7519 -0.3056
 7942SOL     OW35044   3.953   7.004   2.730  0.4230  0.4992 -0.2848
 7942SOL    HW135045   3.978   7.061   2.808 -0.5780 -1.7619  1.7064
 7942SOL    HW235046   4.009   6.921   2.730 -1.5782 -0.8672 -0.3071
 7943SOL     OW35047   4.031   3.530   0.441  0.9922  0.3710  0.2553
 7943SOL    HW135048   3.960   3.567   0.380  0.9551  1.5943  1.0242
 7943SOL    HW235049   4.052   3.436   0.414  1.3817  1.0664 -2.0143
 7944SOL     OW35050   1.834   0.524   1.855  0.2514  0.3468  0.0676
 7944SOL    HW135051   1.817   0.426   1.850  0.3547  0.3587 -0.5416
 7944SOL    HW235052   1.851   0.550   1.950 -0.3154 -0.1335  0.3041
 7945SOL     OW35053   6.538   1.304   1.354 -0.6052  0.1342 -0.0863
 7945SOL    HW135054   6.527   1.293   1.453 -1.5684 -0.1087 -0.2196
 7945SOL    HW235055   6.572   1.397   1.335  0.1359 -0.0113  0.5034
 7946SOL     OW35056   2.860   9.911   4.222 -0.1815  0.0652 -0.3384
 7946SOL    HW135057   2.796   9.977   4.182  0.5145  1.4075  0.7039
 7946SOL    HW235058   2.859   9.919   4.322 -0.2725 -1.6988 -0.1797
 7947SOL     OW35059   1.125   4.063   6.474 -0.5066 -0.4819 -0.1545
 7947SOL    HW135060   1.059   3.995   6.441 -0.8582 -0.5198  0.6083
 7947SOL    HW235061   1.176   4.100   6.397 -1.7718 -0.0962 -0.8283
 7948SOL     OW35062   2.784   1.608   4.939  0.3020 -0.0128 -0.5562
 7948SOL    HW135063   2.687   1.625   4.918 -0.1681 -1.1126  0.6852
 7948SOL    HW235064   2.800   1.627   5.036  0.5952 -2.9877  0.0059
 7949SOL     OW35065   0.621   1.737   5.827  0.4417  0.0850 -0.0399
 7949SOL    HW135066   0.598   1.825   5.868 -0.1207 -0.7104  1.3582
 7949SOL    HW235067   0.626   1.667   5.897 -2.4295 -1.6909 -1.4962
 7950SOL     OW35068   3.035   0.181   0.016 -0.1884  0.1382  0.4616
 7950SOL    HW135069   3.036   0.229   0.104 -1.0237  0.4275  0.3163
 7950SOL    HW235070   2.957   0.211  -0.038 -0.1614 -0.6645 -0.0370
 7951SOL     OW35071   9.243   7.865   1.522 -0.0014  0.5471  0.3062
 7951SOL    HW135072   9.194   7.935   1.573  1.2492  0.9437  0.9777
 7951SOL    HW235073   9.240   7.886   1.424 -1.2712  0.4942  0.3262
 7952SOL     OW35074   7.711   6.557   3.532 -0.2011  0.3195 -0.0178
 7952SOL    HW135075   7.710   6.474   3.587  1.7403 -0.8763 -1.7186
 7952SOL    HW235076   7.800   6.602   3.539  0.2342 -0.0701 -2.4319
 7953SOL     OW35077   4.521   0.508   2.307 -0.0839 -0.0215  0.3041
 7953SOL    HW135078   4.601   0.560   2.338 -0.1046 -0.2054  0.6769
 7953SOL    HW235079   4.454   0.569   2.266  0.9368 -0.0586 -1.4768
 7954SOL     OW35080   5.537   0.945   4.409  0.5360  0.1640 -0.2643
 7954SOL    HW135081   5.577   0.924   4.498 -0.9213  2.0899  0.8693
 7954SOL    HW235082   5.476   0.870   4.381 -0.4949  0.4280  1.2498
 7955SOL     OW35083   7.623   9.308   3.612  0.1135  0.0258 -0.0936
 7955SOL    HW135084   7.668   9.308   3.702  1.3174 -0.3398 -0.6800
 7955SOL    HW235085   7.578   9.396   3.597  0.3137  0.2621  0.6739
 7956SOL     OW35086   1.665   9.531   4.127 -0.0734  0.2547 -0.1773
 7956SOL    HW135087   1.717   9.502   4.207 -0.2610  0.6205  0.0748
 7956SOL    HW235088   1.691   9.624   4.102 -0.7635  0.5147  0.0778
 7957SOL     OW35089   8.372   7.389   5.042  0.7121 -0.1546  0.6872
 7957SOL    HW135090   8.386   7.386   5.141  0.7804 -0.6968  0.6615
 7957SOL    HW235091   8.366   7.296   5.006  0.7660  0.0409  0.1693
 7958SOL     OW35092   4.961   4.954   1.752 -0.0117  0.0669 -0.2682
 7958SOL    HW135093   5.009   5.042   1.755  0.0473  0.0522 -0.6842
 7958SOL    HW235094   4.881   4.963   1.692 -0.6235  0.1394  0.5615
 7959SOL     OW35095   2.919   2.386   5.441 -0.1760 -0.2249 -0.4277
 7959SOL    HW135096   2.879   2.371   5.351  1.0672 -0.3341 -0.9697
 7959SOL    HW235097   2.856   2.353   5.511 -1.3885  0.3578 -1.2301
 7960SOL     OW35098   8.303   4.934   4.184  0.0469 -0.5102 -0.2468
 7960SOL    HW135099   8.286   5.029   4.211  0.3750 -0.6933  0.6147
 7960SOL    HW235100   8.378   4.896   4.238 -0.2787 -1.3544 -0.3669
 7961SOL     OW35101   0.757   9.586   4.740 -0.2547 -0.7614 -0.0872
 7961SOL    HW135102   0.762   9.579   4.640  0.5177  1.2452 -0.2006
 7961SOL    HW235103   0.844   9.620   4.776 -1.0146 -0.0652  1.1365
 7962SOL     OW35104   7.502   8.400   3.526  0.2354  0.2762  0.0316
 7962SOL    HW135105   7.543   8.392   3.436 -0.4863  0.2636 -0.2995
 7962SOL    HW235106   7.531   8.323   3.583 -0.3085 -0.4003 -0.5951
 7963SOL     OW35107   2.455   6.554   1.663 -0.2080 -0.8035 -0.4673
 7963SOL    HW135108   2.544   6.517   1.687  1.5317  1.8217 -2.6359
 7963SOL    HW235109   2.386   6.517   1.726  2.5409 -1.9978  1.9725
 7964SOL     OW35110   9.792   7.241   3.523 -0.7580 -0.3703 -0.6866
 7964SOL    HW135111   9.778   7.142   3.523  0.5134 -0.5619  0.4832
 7964SOL    HW235112   9.730   7.283   3.456 -0.7008 -2.0307 -1.8142
 7965SOL     OW35113   8.188   9.964   3.060 -0.1456  0.0826 -0.0507
 7965SOL    HW135114   8.286   9.957   3.079 -0.3202 -2.3725  0.1083
 7965SOL    HW235115   8.138   9.906   3.124 -1.7658  1.7541  0.2288
 7966SOL     OW35116   9.841   9.983   6.476  0.5975 -0.3508  0.0245
 7966SOL    HW135117   9.902   9.915   6.434  1.1799 -0.4984  1.0900
 7966SOL    HW235118   9.748   9.946   6.480  0.8742 -1.0177  0.4215
 7967SOL     OW35119   8.212   7.021   0.037  0.5307 -0.2336  0.6134
 7967SOL    HW135120   8.219   6.922   0.050 -0.9001 -0.3201  0.8719
 7967SOL    HW235121   8.293   7.054  -0.011 -0.0508 -1.8951 -1.6172
 7968SOL     OW35122   4.335   8.344   4.561  0.0898 -0.5279 -0.0077
 7968SOL    HW135123   4.250   8.393   4.538 -0.1028  0.8078  3.3774
 7968SOL    HW235124   4.313   8.249   4.584 -0.3813 -0.3801  0.1526
 7969SOL     OW35125   8.913   0.496   1.007  0.4371 -0.7150  0.1417
 7969SOL    HW135126   8.975   0.516   0.931  0.0662 -0.4689 -0.0969
 7969SOL    HW235127   8.945   0.542   1.089  2.1477 -2.8364  0.7275
 7970SOL     OW35128   8.753   8.672   0.175  0.1354 -0.3206 -0.5433
 7970SOL    HW135129   8.729   8.594   0.118  1.3118 -0.3876 -0.9654
 7970SOL    HW235130   8.852   8.673   0.190  0.0886  0.9030 -0.2583
 7971SOL     OW35131   7.561   6.097   5.281  0.2249  0.3640 -0.0918
 7971SOL    HW135132   7.610   6.052   5.206  0.0793 -3.6399  2.0840
 7971SOL    HW235133   7.604   6.073   5.368 -1.9767  1.6887  1.4125
 7972SOL     OW35134   3.401   5.426   1.887  0.1910  0.1689  0.0472
 7972SOL    HW135135   3.439   5.353   1.830 -0.1959 -0.8160  1.0431
 7972SOL    HW235136   3.465   5.503   1.889  0.8646 -0.3694 -0.5305
 7973SOL     OW35137   7.328   0.836   5.458 -0.0315 -0.1165 -0.1321
 7973SOL    HW135138   7.261   0.909   5.446 -1.9957 -1.7443  0.5688
 7973SOL    HW235139   7.410   0.873   5.502 -0.3015  1.9747 -1.3230
 7974SOL     OW35140   4.780   4.526   3.788  0.5580 -0.9432 -0.2009
 7974SOL    HW135141   4.761   4.615   3.830  0.6328 -0.7990 -0.4718
 7974SOL    HW235142   4.848   4.537   3.716 -0.0095 -1.0908 -0.7596
 7975SOL     OW35143   2.841   5.834   5.029  0.3238  0.4373  0.6429
 7975SOL    HW135144   2.885   5.758   5.076  0.5464 -1.0712 -1.9528
 7975SOL    HW235145   2.910   5.890   4.983 -0.1911 -0.2670 -1.0146
 7976SOL     OW35146   1.652   9.534   0.455 -0.6657  0.4201  0.8410
 7976SOL    HW135147   1.664   9.437   0.479 -0.0356  0.3979  0.4537
 7976SOL    HW235148   1.575   9.543   0.392  1.1862 -0.2346 -1.5932
 7977SOL     OW35149   3.014   5.336   0.142 -0.4263  0.2443  0.3568
 7977SOL    HW135150   3.060   5.259   0.185 -1.2257 -0.8599 -0.7346
 7977SOL    HW235151   3.058   5.421   0.171  0.7351 -0.6345  1.2322
 7978SOL     OW35152   3.126   6.658   5.224 -0.4572  0.5067  0.1583
 7978SOL    HW135153   3.085   6.710   5.149 -0.4983  0.2598  0.0065
 7978SOL    HW235154   3.224   6.678   5.229 -0.4667  0.5734  0.0791
 7979SOL     OW35155   1.420   8.568   5.642 -0.1891  0.2842  0.1864
 7979SOL    HW135156   1.478   8.568   5.561 -1.0907 -3.6896 -0.5301
 7979SOL    HW235157   1.476   8.589   5.723  2.0969 -2.4087 -0.6088
 7980SOL     OW35158   9.570   9.052   6.636  0.0205 -0.0431 -0.1564
 7980SOL    HW135159   9.643   9.063   6.703  0.3640 -0.3374 -0.4737
 7980SOL    HW235160   9.481   9.056   6.681  0.2302  0.4481  0.2142
 7981SOL     OW35161   5.558   2.026   3.937  0.2441 -0.4288  0.0332
 7981SOL    HW135162   5.627   1.954   3.935  0.2370 -0.5454  2.6876
 7981SOL    HW235163   5.602   2.115   3.924  0.2779 -0.8208 -3.0198
 7982SOL     OW35164   6.827   1.733   2.642 -0.2341 -0.5046 -0.1199
 7982SOL    HW135165   6.754   1.801   2.649  0.1059 -0.0915 -0.5641
 7982SOL    HW235166   6.789   1.641   2.652 -0.6257 -0.2242  0.9981
 7983SOL     OW35167   8.957   3.402   1.407  0.1945 -0.2453  0.2896
 7983SOL    HW135168   8.863   3.390   1.438  0.4710  0.5531  1.4597
 7983SOL    HW235169   9.017   3.342   1.460  0.5109  0.2127  0.4543
 7984SOL     OW35170   7.982   2.802   3.408  0.2833 -0.5455  0.1862
 7984SOL    HW135171   8.062   2.803   3.467 -1.1910 -0.2525  2.2373
 7984SOL    HW235172   7.969   2.892   3.368 -0.0114 -0.1182  1.2345
 7985SOL     OW35173   2.081   7.183   6.393  0.1980 -0.3646 -0.5585
 7985SOL    HW135174   1.982   7.185   6.383  0.2834  1.4893 -1.1747
 7985SOL    HW235175   2.118   7.275   6.385  1.7680 -0.6953  2.1257
 7986SOL     OW35176   0.386   4.842   3.280 -0.1967 -0.1296  0.1912
 7986SOL    HW135177   0.320   4.882   3.343  0.5247 -0.6311  1.2938
 7986SOL    HW235178   0.443   4.914   3.240  0.2516  0.0823  1.1825
 7987SOL     OW35179   6.117   1.786   4.631 -0.3464 -0.4718  0.0713
 7987SOL    HW135180   6.075   1.711   4.682  1.0822 -1.7882 -0.6575
 7987SOL    HW235181   6.080   1.787   4.538  0.3044 -0.8732 -0.2002
 7988SOL     OW35182   1.428   6.207   5.995 -0.2822 -0.5222  0.0958
 7988SOL    HW135183   1.346   6.210   5.938 -0.6832 -2.2485  0.5606
 7988SOL    HW235184   1.508   6.186   5.939 -0.5361 -1.3120  0.0366
 7989SOL     OW35185   2.237   5.829   6.728  0.4542 -0.5506 -0.2923
 7989SOL    HW135186   2.273   5.736   6.719 -1.8998 -1.5292  0.0446
 7989SOL    HW235187   2.142   5.831   6.697 -0.2864  1.2282  1.9776
 7990SOL     OW35188   6.839   0.475   4.155  0.2849 -0.1333  0.3394
 7990SOL    HW135189   6.785   0.429   4.225 -0.2613 -0.3818 -0.2434
 7990SOL    HW235190   6.786   0.549   4.114  0.1262 -0.8453 -0.7410
 7991SOL     OW35191   2.093   0.068   6.425 -0.3164 -0.2509  0.2771
 7991SOL    HW135192   2.168   0.005   6.403 -0.7166 -1.1113  1.3160
 7991SOL    HW235193   2.131   0.159   6.442  0.5487 -0.7484  1.1034
 7992SOL     OW35194   5.682   0.877   1.239 -0.3700  0.0801  0.3674
 7992SOL    HW135195   5.643   0.835   1.321  0.6337 -0.9005  0.3505
 7992SOL    HW235196   5.630   0.847   1.159 -0.6295  0.1219  0.5192
 7993SOL     OW35197   9.771   1.621   6.695  0.2566 -0.3162 -0.1889
 7993SOL    HW135198   9.869   1.638   6.711  0.3705 -0.1469 -1.0455
 7993SOL    HW235199   9.721   1.632   6.781  0.8307  0.8035  0.0111
 7994SOL     OW35200   6.628   1.136   4.391 -0.1726  0.0152  0.8560
 7994SOL    HW135201   6.706   1.149   4.330 -0.1103  1.9000  1.3310
 7994SOL    HW235202   6.606   1.222   4.437 -1.5755 -0.8667  1.8773
 7995SOL     OW35203   0.613   4.713   5.026  0.0458 -0.0329 -0.1260
 7995SOL    HW135204   0.589   4.798   4.979  0.2665  0.5972  0.8770
 7995SOL    HW235205   0.705   4.684   4.999 -0.5726 -0.7285 -1.5470
 7996SOL     OW35206   3.788   0.732   3.294 -0.4549  0.2121 -0.5820
 7996SOL    HW135207   3.694   0.707   3.271 -0.0273 -1.9003 -0.1445
 7996SOL    HW235208   3.795   0.745   3.393 -0.7267  2.4483 -0.8188
 7997SOL     OW35209   2.314   1.082   5.627  0.1783  0.2117 -0.1093
 7997SOL    HW135210   2.257   1.022   5.683 -1.2724  1.3811 -0.3109
 7997SOL    HW235211   2.376   1.026   5.572 -1.9957 -1.2135 -1.2026
 7998SOL     OW35212   6.392   1.223   2.332 -0.2638  0.5477 -0.1070
 7998SOL    HW135213   6.314   1.161   2.340 -1.2534  1.9159  1.0194
 7998SOL    HW235214   6.367   1.313   2.366  0.5608  2.1207 -3.4938
 7999SOL     OW35215   3.866   1.348   2.648 -0.0721 -0.1235  0.1086
 7999SOL    HW135216   3.950   1.403   2.648 -0.6911  0.8421 -0.3145
 7999SOL    HW235217   3.836   1.334   2.554  0.6501 -2.1007  0.1556
 8000SOL     OW35218   4.434   1.086   1.429 -0.2854 -0.0468 -0.5354
 8000SOL    HW135219   4.394   1.081   1.337 -0.1974  1.6892 -0.6823
 8000SOL    HW235220   4.518   1.031   1.432 -1.4851 -1.9433 -0.8405
 8001SOL     OW35221   3.143   5.221   6.675 -0.1589  0.3515  0.1067
 8001SOL    HW135222   3.119   5.261   6.763 -0.7898  1.5191 -0.5721
 8001SOL    HW235223   3.195   5.288   6.621 -0.4568 -0.0585 -0.7070
 8002SOL     OW35224   4.823   0.398   6.190  0.4222  0.1837 -0.1274
 8002SOL    HW135225   4.782   0.472   6.243 -2.2647 -1.4397  0.1491
 8002SOL    HW235226   4.819   0.421   6.093  0.0533  0.6290 -0.0084
 8003SOL     OW35227   6.268   0.902   3.554  0.5980  0.0903  0.0545
 8003SOL    HW135228   6.176   0.903   3.593  0.7194  0.7377  0.3397
 8003SOL    HW235229   6.298   0.807   3.542  0.0465 -0.1235  0.3245
 8004SOL     OW35230   8.173   5.825   0.746 -0.1415 -0.6181  0.1245
 8004SOL    HW135231   8.120   5.907   0.725  1.3048 -0.2001 -2.0283
 8004SOL    HW235232   8.230   5.842   0.827 -0.7386  0.0708  0.4061
 8005SOL     OW35233   8.911   0.241   5.686 -0.0018 -0.2462 -0.3862
 8005SOL    HW135234   8.908   0.335   5.721  0.2771  0.6887 -2.7501
 8005SOL    HW235235   8.986   0.192   5.729  0.8236  1.1135 -0.2315
 8006SOL     OW35236   4.215   0.769   3.597  0.0743  0.0182  0.3393
 8006SOL    HW135237   4.194   0.671   3.596 -0.0002  0.0357  0.2345
 8006SOL    HW235238   4.136   0.820   3.630  0.1000  0.0464  0.3556
 8007SOL     OW35239   9.289   4.527   3.732  0.0298 -0.5381 -0.1676
 8007SOL    HW135240   9.236   4.560   3.654  0.1655  0.0046 -0.0346
 8007SOL    HW235241   9.382   4.562   3.726 -0.4671  1.1259  1.2391
 8008SOL     OW35242   4.253   1.023   5.181 -0.4220 -0.6311  0.4430
 8008SOL    HW135243   4.156   1.003   5.192 -0.8447  0.2462 -1.4644
 8008SOL    HW235244   4.297   0.948   5.131 -0.2850 -0.6676  0.6192
 8009SOL     OW35245   1.514   9.046   1.446 -1.1305 -0.2134  0.1430
 8009SOL    HW135246   1.467   9.132   1.468 -0.0881  1.3441 -3.2782
 8009SOL    HW235247   1.469   8.971   1.493 -3.1739  1.9891  1.8510
 8010SOL     OW35248   2.923   7.867   3.633 -0.0137 -0.4347  0.3419
 8010SOL    HW135249   3.022   7.850   3.632  0.1916  0.7133 -0.3102
 8010SOL    HW235250   2.874   7.784   3.608  0.8063 -0.9006  0.2746
 8011SOL     OW35251   7.667   0.620   2.098  0.1495  0.6943 -0.2144
 8011SOL    HW135252   7.721   0.666   2.168 -1.2917 -1.2850  2.3032
 8011SOL    HW235253   7.629   0.687   2.034  1.2419  2.5619  1.0685
 8012SOL     OW35254   9.604   5.827   2.200 -0.0246  0.2073  0.2743
 8012SOL    HW135255   9.683   5.771   2.178 -0.0625  0.5119 -0.6415
 8012SOL    HW235256   9.616   5.866   2.291 -0.3500 -1.8934  1.2494
 8013SOL     OW35257   9.474   9.775   0.589 -0.6529  0.2484  0.3243
 8013SOL    HW135258   9.506   9.783   0.494 -1.0517  0.2631  0.1919
 8013SOL    HW235259   9.398   9.711   0.593  0.2911 -0.8595  0.8590
 8014SOL     OW35260   2.845   8.647   0.082  0.2138 -0.1971 -0.3322
 8014SOL    HW135261   2.927   8.591   0.092 -0.1895 -0.9137 -0.9641
 8014SOL    HW235262   2.867   8.729   0.028  0.6506 -0.0840  0.0184
 8015SOL     OW35263   9.295   5.366   4.522  0.1294 -0.3072  0.0029
 8015SOL    HW135264   9.371   5.429   4.502  1.3576 -2.2221 -1.4959
 8015SOL    HW235265   9.274   5.313   4.440 -1.1688 -1.5783  1.1448
 8016SOL     OW35266   2.103   9.677   5.523 -0.0553  0.0922 -0.1805
 8016SOL    HW135267   2.189   9.721   5.495  0.1558 -0.8101 -0.9499
 8016SOL    HW235268   2.042   9.746   5.562  1.1763  0.6777  0.7649
 8017SOL     OW35269   2.623   0.193   2.123  0.0696  0.7709  0.2021
 8017SOL    HW135270   2.558   0.120   2.100  0.4685  0.9306 -1.4983
 8017SOL    HW235271   2.684   0.161   2.195  0.9282 -1.0046 -1.2516
 8018SOL     OW35272   3.737   8.238   5.729 -0.1879  0.2708 -0.2401
 8018SOL    HW135273   3.657   8.266   5.782 -0.7343 -0.3352 -0.7293
 8018SOL    HW235274   3.813   8.301   5.747 -0.7318  0.7716  0.3334
 8019SOL     OW35275   3.956   3.403   2.179 -0.1092  0.0769 -0.5143
 8019SOL    HW135276   4.050   3.391   2.210 -0.4591 -0.8148  0.2039
 8019SOL    HW235277   3.905   3.318   2.192 -0.7787  0.2812 -1.7351
 8020SOL     OW35278   8.820   9.239   2.169  0.1592 -0.5053  0.3771
 8020SOL    HW135279   8.863   9.260   2.257 -0.0411  0.0777  0.3414
 8020SOL    HW235280   8.728   9.204   2.183  0.7095 -1.9591  0.4636
 8021SOL     OW35281   1.418   0.669   3.217  0.6894 -0.2086 -0.2248
 8021SOL    HW135282   1.491   0.671   3.285 -0.8217  0.1406  1.4294
 8021SOL    HW235283   1.338   0.718   3.253 -0.7727 -1.6285 -1.4935
 8022SOL     OW35284   8.564   7.230   3.124  0.4345  0.2727  0.7687
 8022SOL    HW135285   8.555   7.191   3.216  0.1024 -0.8993  0.2467
 8022SOL    HW235286   8.661   7.236   3.100  0.4764 -0.7707  0.6385
 8023SOL     OW35287   4.362   4.681   6.743 -0.8444 -0.2390 -0.5359
 8023SOL    HW135288   4.367   4.772   6.784  1.8754 -0.1840 -0.8873
 8023SOL    HW235289   4.369   4.689   6.644 -1.5630 -0.7933 -0.6374
 8024SOL     OW35290   7.820   8.172   5.945  0.0330  0.1170  0.1064
 8024SOL    HW135291   7.783   8.114   6.018 -3.1858  0.8601 -0.8504
 8024SOL    HW235292   7.871   8.116   5.880 -0.8449 -1.2200  0.5637
 8025SOL     OW35293   4.964   8.613   3.901 -0.0112 -0.0674 -0.0739
 8025SOL    HW135294   4.970   8.572   3.810 -0.4897  1.4415 -0.7922
 8025SOL    HW235295   5.046   8.589   3.954  0.0851 -1.2625 -0.7613
 8026SOL     OW35296   3.253   2.060   0.614  0.3733 -0.1428 -0.0715
 8026SOL    HW135297   3.242   1.990   0.543 -0.0455  0.0526 -0.1958
 8026SOL    HW235298   3.164   2.094   0.643  0.5405 -0.2620  0.5943
 8027SOL     OW35299   0.329   8.794   0.005 -0.6426  0.4481 -0.7703
 8027SOL    HW135300   0.322   8.735  -0.075 -2.1084  1.8471 -1.6981
 8027SOL    HW235301   0.388   8.872  -0.017 -0.4705  0.4647 -0.2532
 8028SOL     OW35302   2.035   7.431   3.943 -0.0764 -0.0141  0.1412
 8028SOL    HW135303   2.109   7.430   4.011  1.0801 -0.2567 -1.0978
 8028SOL    HW235304   2.046   7.353   3.881 -1.7316 -0.3989  0.3031
 8029SOL     OW35305   1.685   0.443   6.729 -0.3314 -0.0633  0.3666
 8029SOL    HW135306   1.638   0.494   6.657 -2.8098  0.4343  2.2918
 8029SOL    HW235307   1.766   0.495   6.759  0.8511 -0.3732 -2.1343
 8030SOL     OW35308   9.104   0.405   1.876 -0.3175  0.1370  0.3811
 8030SOL    HW135309   9.028   0.399   1.940  1.7514  0.8049  3.0187
 8030SOL    HW235310   9.173   0.336   1.899  1.1794  1.4328 -0.1254
 8031SOL     OW35311   1.626   9.303   2.743 -0.0737  0.3735  0.4463
 8031SOL    HW135312   1.602   9.291   2.840 -0.9522  0.1762  0.2098
 8031SOL    HW235313   1.665   9.218   2.708  0.9121  0.6720  0.8161
 8032SOL     OW35314   8.897   2.892   3.702  0.2373 -0.5582  0.1952
 8032SOL    HW135315   8.975   2.914   3.643  0.5597  0.8643  1.1310
 8032SOL    HW235316   8.929   2.870   3.794 -0.4200 -0.6611  0.4023
 8033SOL     OW35317   5.240   9.004   1.768  0.6860 -0.4741 -0.2316
 8033SOL    HW135318   5.217   8.963   1.856 -1.1032 -2.1264 -1.4068
 8033SOL    HW235319   5.308   8.947   1.721 -0.6866 -1.3222 -1.2296
 8034SOL     OW35320   7.625   9.028   2.641 -0.3248 -0.2705 -0.3156
 8034SOL    HW135321   7.589   9.112   2.682  1.4275  0.7081 -0.7175
 8034SOL    HW235322   7.619   9.035   2.541 -0.0993 -0.5820 -0.3509
 8035SOL     OW35323   9.861   1.963   1.135 -0.6776  0.2422  0.5481
 8035SOL    HW135324   9.790   1.965   1.206 -2.0139  1.0167 -0.7789
 8035SOL    HW235325   9.828   1.910   1.057 -0.7066  2.4424 -0.9756
 8036SOL     OW35326   9.912   9.547   0.430  0.1824  0.0898  0.3038
 8036SOL    HW135327   9.831   9.495   0.402  0.5370 -1.1713  1.6149
 8036SOL    HW235328   9.986   9.529   0.365  0.3670 -1.2040  0.8598
 8037SOL     OW35329   1.366   7.152   1.204  0.3630 -0.0090 -0.4158
 8037SOL    HW135330   1.461   7.131   1.229 -0.1786 -0.0707  1.7550
 8037SOL    HW235331   1.325   7.073   1.160  0.7650 -0.6817  0.3871
 8038SOL     OW35332   2.062   6.329   2.846  0.0906  0.0207  0.8663
 8038SOL    HW135333   2.112   6.275   2.778  2.6446  0.8193  2.0508
 8038SOL    HW235334   2.093   6.303   2.938 -2.5038 -0.2339  1.7120
 8039SOL     OW35335   0.048   0.446   5.313  0.0648 -0.1076  0.1845
 8039SOL    HW135336   0.043   0.382   5.390 -0.9328 -0.0845  0.1468
 8039SOL    HW235337   0.015   0.536   5.342 -0.1826 -0.0620 -0.2326
 8040SOL     OW35338   8.095   7.396   3.342 -0.4695  0.2017  0.7922
 8040SOL    HW135339   8.073   7.446   3.427 -0.9632  1.8460 -0.2756
 8040SOL    HW235340   8.011   7.367   3.298 -0.2238 -0.3457  0.6903
 8041SOL     OW35341   1.026   5.962   2.361 -0.2825 -0.5520  0.0425
 8041SOL    HW135342   1.004   5.865   2.356 -0.0636 -0.5918 -0.1457
 8041SOL    HW235343   0.970   6.005   2.431 -0.6159 -0.7500 -0.1001
 8042SOL     OW35344   7.913   7.281   5.791  0.0284 -0.3679  0.0910
 8042SOL    HW135345   7.882   7.359   5.846 -1.8437 -1.7298  1.0502
 8042SOL    HW235346   7.843   7.257   5.724  0.9334 -0.7180 -0.7370
 8043SOL     OW35347   1.433   2.513   0.172  0.3266  0.0277 -0.3958
 8043SOL    HW135348   1.434   2.587   0.105 -0.6112  1.2195  0.8776
 8043SOL    HW235349   1.499   2.533   0.244  1.2949 -1.2218 -0.9053
 8044SOL     OW35350   8.802   7.651   6.421 -0.3918  0.1681 -0.2163
 8044SOL    HW135351   8.896   7.619   6.431 -0.4410  0.4368  1.1947
 8044SOL    HW235352   8.800   7.731   6.360  0.3434  0.4166  0.0829
 8045SOL     OW35353   2.110   1.765   6.186 -0.6965  0.4821  0.5408
 8045SOL    HW135354   2.073   1.676   6.159  0.9535 -0.3175  0.8935
 8045SOL    HW235355   2.188   1.752   6.247 -1.1244  2.1970  1.4797
 8046SOL     OW35356  10.000   4.368   0.530  0.2451  0.0497 -0.4427
 8046SOL    HW135357   9.920   4.313   0.556 -0.7818  0.5424 -2.4834
 8046SOL    HW235358  10.015   4.440   0.598 -1.1097  0.0209 -0.0984
 8047SOL     OW35359   9.699   4.010   1.423 -0.1142 -0.2250 -0.0424
 8047SOL    HW135360   9.697   4.032   1.520 -1.0812  0.2216 -0.1543
 8047SOL    HW235361   9.629   3.941   1.403  0.6448 -0.9301 -0.2725
 8048SOL     OW35362   4.051   0.743   5.301  0.1254 -0.5558  0.1458
 8048SOL    HW135363   4.008   0.653   5.307 -2.2765  0.5240 -0.2428
 8048SOL    HW235364   4.090   0.767   5.391 -1.5762 -0.8525  0.9816
 8049SOL     OW35365   9.775   9.413   4.008  0.4619  0.0890 -0.4097
 8049SOL    HW135366   9.737   9.479   4.072  1.3833  0.1482  0.0827
 8049SOL    HW235367   9.716   9.406   3.927  0.3198  1.4317 -0.4202
 8050SOL     OW35368   4.003   1.231   6.503 -0.1151 -0.5999 -0.1188
 8050SOL    HW135369   4.029   1.267   6.414 -1.3497 -0.3764 -0.3949
 8050SOL    HW235370   3.912   1.192   6.498  0.1386 -1.3275  0.8495
 8051SOL     OW35371   5.599   4.586   0.667 -0.4513 -0.3294  0.0914
 8051SOL    HW135372   5.636   4.550   0.753 -0.4676  0.5060  0.4500
 8051SOL    HW235373   5.553   4.673   0.685  1.6999  1.1124 -1.1861
 8052SOL     OW35374   0.777   5.463   4.834 -0.3423 -0.1106  0.4137
 8052SOL    HW135375   0.796   5.411   4.751  0.5180  0.6339  0.1363
 8052SOL    HW235376   0.836   5.431   4.908 -1.9133 -1.5636  1.0736
 8053SOL     OW35377   8.945   9.452   1.083 -0.4516 -0.2922  0.5354
 8053SOL    HW135378   8.934   9.353   1.092 -1.0178 -0.2129  0.7393
 8053SOL    HW235379   8.864   9.491   1.038 -0.5421  0.1633  1.0796
 8054SOL     OW35380   5.003   9.071   5.458 -0.6420 -0.1034  0.2016
 8054SOL    HW135381   4.961   9.162   5.461  1.0470  0.7235 -0.4146
 8054SOL    HW235382   5.091   9.073   5.506 -1.0099 -1.6400  0.9559
 8055SOL     OW35383   1.524   1.345   4.177 -0.3630  0.3281  0.0718
 8055SOL    HW135384   1.513   1.429   4.124 -0.0575  0.5143  0.3018
 8055SOL    HW235385   1.621   1.328   4.194 -0.3158 -0.9689 -1.3998
 8056SOL     OW35386   8.701   8.881   2.571  0.1295 -0.4324  0.3756
 8056SOL    HW135387   8.609   8.913   2.547  0.0807  1.0671  2.4913
 8056SOL    HW235388   8.755   8.869   2.487 -2.1918 -1.9895 -0.9379
 8057SOL     OW35389   1.012   1.619   3.400 -0.6903  0.0026  0.0654
 8057SOL    HW135390   0.990   1.547   3.466 -0.3406 -0.3248 -0.1776
 8057SOL    HW235391   1.032   1.578   3.311 -1.4538  0.4606 -0.3222
 8058SOL     OW35392   0.842   4.945   4.272 -0.3690 -0.7288 -0.1223
 8058SOL    HW135393   0.816   5.038   4.247  0.5826  0.0462  1.6766
 8058SOL    HW235394   0.940   4.932   4.259  0.0229 -0.5461  2.3075
 8059SOL     OW35395   9.258   1.856   1.195  0.6686 -0.4704  0.5682
 8059SOL    HW135396   9.220   1.786   1.256 -0.2125  0.4823  1.1353
 8059SOL    HW235397   9.242   1.947   1.235  1.4356  0.0762 -0.3525
 8060SOL     OW35398   5.617   7.465   4.570  0.3692  0.0362  0.3269
 8060SOL    HW135399   5.584   7.553   4.537  0.4973 -0.4537 -1.1230
 8060SOL    HW235400   5.539   7.404   4.588  0.3276  0.0679  0.2518
 8061SOL     OW35401   7.705   7.466   4.071 -0.4540  0.1620  0.0028
 8061SOL    HW135402   7.625   7.414   4.100  0.3298 -0.1768  1.5693
 8061SOL    HW235403   7.767   7.406   4.020 -1.2972  0.4914 -1.4579
 8062SOL     OW35404   3.110   5.927   3.812 -0.0208 -0.2713  0.1561
 8062SOL    HW135405   3.120   5.933   3.713  3.2481 -0.7299  0.4104
 8062SOL    HW235406   3.024   5.882   3.834 -1.3347  0.8627 -2.4319
 8063SOL     OW35407   7.404   3.609   0.654  0.0666  0.3959  0.4680
 8063SOL    HW135408   7.502   3.618   0.634 -0.1459  0.9338 -0.3571
 8063SOL    HW235409   7.382   3.661   0.737  0.1628  1.7855 -0.3435
 8064SOL     OW35410   1.180   5.058   1.261  0.1074 -0.0732 -0.1741
 8064SOL    HW135411   1.169   5.013   1.172 -2.2612  1.3584 -0.6584
 8064SOL    HW235412   1.260   5.118   1.258 -0.7773  1.0495 -1.8182
 8065SOL     OW35413   9.868   2.849   0.995 -0.0178 -0.2670  0.4385
 8065SOL    HW135414   9.778   2.890   0.999 -0.1458 -0.4977 -0.0075
 8065SOL    HW235415   9.909   2.848   1.087 -1.7365 -2.9607  1.2235
 8066SOL     OW35416   3.516   0.018   0.937 -0.0475  0.1903  0.9887
 8066SOL    HW135417   3.506   0.069   1.023  1.4410 -1.1082  1.9633
 8066SOL    HW235418   3.432  -0.033   0.919 -0.1988  0.0975  1.9393
 8067SOL     OW35419   1.503   8.607   6.633  0.3473  1.3419  0.1867
 8067SOL    HW135420   1.444   8.684   6.606 -0.7790  1.0790  1.8687
 8067SOL    HW235421   1.597   8.640   6.643 -0.3243  2.7761  2.0487
 8068SOL     OW35422   9.807   3.887   3.158 -0.6781 -0.3501  0.2694
 8068SOL    HW135423   9.785   3.949   3.082  0.1684 -0.4664 -0.0865
 8068SOL    HW235424   9.763   3.799   3.143 -0.7141 -0.2940  0.0346
 8069SOL     OW35425   1.268   3.155   0.596  0.0229 -0.1189  0.1570
 8069SOL    HW135426   1.287   3.064   0.633  0.5073  0.6283  1.7547
 8069SOL    HW235427   1.339   3.219   0.626 -0.2167  0.7576 -1.1039
 8070SOL     OW35428   2.783   8.462   6.637  0.3212 -0.7659  0.1387
 8070SOL    HW135429   2.792   8.531   6.709  2.1241 -1.4525  0.6053
 8070SOL    HW235430   2.773   8.508   6.549  0.3727  0.0919  0.5770
 8071SOL     OW35431   0.303   4.930   2.542 -0.3261 -0.9985  0.2607
 8071SOL    HW135432   0.228   4.868   2.518 -1.2767  0.2912 -0.1490
 8071SOL    HW235433   0.322   4.922   2.640 -0.9131 -1.4328  0.3464
 8072SOL     OW35434   1.311   0.255   2.158 -0.1736  0.1270  0.4660
 8072SOL    HW135435   1.378   0.278   2.087 -0.0373  0.5341  0.7213
 8072SOL    HW235436   1.225   0.302   2.140 -0.8579 -1.5084 -0.6408
 8073SOL     OW35437   9.078   0.525   6.661  0.2640 -0.8730  0.4161
 8073SOL    HW135438   9.169   0.490   6.639 -0.1603 -0.5424 -1.9229
 8073SOL    HW235439   9.086   0.605   6.721  1.4698 -1.2447  0.7576
 8074SOL     OW35440   0.659   4.396   6.195 -0.4579 -0.0312  0.3070
 8074SOL    HW135441   0.625   4.369   6.105  0.2912 -2.7500  0.8031
 8074SOL    HW235442   0.582   4.421   6.254 -1.0918 -0.0876 -0.4981
 8075SOL     OW35443   9.912   5.145   6.234 -0.5737  0.5364  0.1506
 8075SOL    HW135444   9.860   5.091   6.168  0.8328 -1.8947  0.9610
 8075SOL    HW235445   9.979   5.201   6.186 -0.8237  0.1894 -0.6029
 8076SOL     OW35446   6.629   9.823   5.142 -0.2642 -0.2642 -0.4033
 8076SOL    HW135447   6.597   9.821   5.048  1.8935 -0.3572 -1.1555
 8076SOL    HW235448   6.721   9.862   5.146 -0.4794  0.1077  1.7085
 8077SOL     OW35449   8.461   0.344   0.375  0.2701  0.4173  0.0414
 8077SOL    HW135450   8.546   0.294   0.394  1.4404  2.3684  0.1528
 8077SOL    HW235451   8.403   0.343   0.457  0.2332 -0.8296  0.0061
 8078SOL     OW35452   6.783   8.249   3.717 -0.4837  0.0720  0.2534
 8078SOL    HW135453   6.790   8.152   3.691  2.8409  0.3695 -0.1795
 8078SOL    HW235454   6.708   8.291   3.665 -1.3324 -2.0181 -0.3014
 8079SOL     OW35455   0.599   2.085   1.952 -0.0397 -0.3090  0.2175
 8079SOL    HW135456   0.582   2.180   1.980 -0.2151 -0.3470  0.2442
 8079SOL    HW235457   0.685   2.053   1.992  0.5668  0.1948 -0.6922
 8080SOL     OW35458   0.025   3.348   4.712 -0.0336  0.1956 -0.3470
 8080SOL    HW135459  -0.039   3.305   4.776 -0.7035  0.9635 -0.4988
 8080SOL    HW235460   0.063   3.278   4.651 -0.8463 -0.2336 -0.3588
 8081SOL     OW35461   8.564   5.740   5.997  0.1916 -0.2011 -0.1552
 8081SOL    HW135462   8.515   5.812   5.948  1.8297 -0.0649 -1.6865
 8081SOL    HW235463   8.540   5.651   5.958  2.6821  0.0261 -2.3683
 8082SOL     OW35464   7.518   1.694   4.385  0.3389 -0.5474 -0.4951
 8082SOL    HW135465   7.419   1.694   4.398  0.2260  1.6504 -1.2218
 8082SOL    HW235466   7.542   1.624   4.317 -0.9038  0.0712 -1.5908
 8083SOL     OW35467   6.454   9.269   5.207 -0.2292  0.4752 -0.0135
 8083SOL    HW135468   6.458   9.354   5.155  1.1055 -0.1497 -0.9715
 8083SOL    HW235469   6.544   9.225   5.206 -1.3252 -1.8832 -1.1705
 8084SOL     OW35470   4.323   1.396   6.669  0.0626 -0.3022  0.6854
 8084SOL    HW135471   4.352   1.301   6.677 -0.2406 -0.4830 -0.2675
 8084SOL    HW235472   4.247   1.403   6.604 -0.0202  0.5734  0.8601
 8085SOL     OW35473   9.198   8.476   0.327 -0.1386  0.8869  0.7530
 8085SOL    HW135474   9.262   8.401   0.339 -0.5462  0.5257  0.6644
 8085SOL    HW235475   9.221   8.550   0.391 -1.6041 -0.5577  2.9999
 8086SOL     OW35476   2.175   5.228   2.589 -0.2872 -0.3135  0.7904
 8086SOL    HW135477   2.185   5.256   2.685 -0.9719 -0.1160  0.8119
 8086SOL    HW235478   2.169   5.128   2.584  2.7282 -0.5371  0.6607
 8087SOL     OW35479   8.316   4.782   4.772  0.9722 -0.1138 -0.3729
 8087SOL    HW135480   8.264   4.783   4.857  0.5165 -0.8174 -0.6362
 8087SOL    HW235481   8.269   4.839   4.704  0.7042 -0.5003 -0.5143
 8088SOL     OW35482   7.877   0.466   1.698 -0.1037  0.2643  0.2656
 8088SOL    HW135483   7.927   0.542   1.740 -0.1735  0.6887 -0.4072
 8088SOL    HW235484   7.930   0.382   1.708  1.6227  1.0197 -2.0165
 8089SOL     OW35485   1.909   6.617   3.465  0.1304 -0.9169 -0.5244
 8089SOL    HW135486   1.838   6.600   3.533 -0.5187  1.1788 -0.6736
 8089SOL    HW235487   1.933   6.530   3.421 -0.5065 -2.0609  1.2886
 8090SOL     OW35488   4.275   3.421   5.541  0.4190  0.3613 -0.1773
 8090SOL    HW135489   4.223   3.465   5.614 -1.4296 -0.5290 -0.9292
 8090SOL    HW235490   4.348   3.365   5.581 -0.9096 -0.5473  1.0397
 8091SOL     OW35491   4.842   2.054   0.518 -0.3314 -0.0319  0.2329
 8091SOL    HW135492   4.779   2.024   0.446  1.0194  0.3906 -1.1526
 8091SOL    HW235493   4.880   1.974   0.564  1.5045 -0.4701 -1.9283
 8092SOL     OW35494   1.912   4.017   0.096 -0.5786  0.5144 -0.4012
 8092SOL    HW135495   1.923   3.948   0.167  2.0616  0.2809 -0.9549
 8092SOL    HW235496   1.948   4.105   0.128  0.6715  0.3988 -1.4031
 8093SOL     OW35497   1.422   6.724   4.180  0.2610 -0.0078  0.7390
 8093SOL    HW135498   1.360   6.715   4.259 -1.1169 -2.0022 -0.4953
 8093SOL    HW235499   1.455   6.633   4.155  2.4146  0.8768  0.3426
 8094SOL     OW35500   3.087   0.294   3.578 -0.0298  0.7603 -0.5874
 8094SOL    HW135501   3.104   0.263   3.484  0.1377 -2.7829  0.5384
 8094SOL    HW235502   3.005   0.249   3.613 -0.4613  2.5657  0.7708
 8095SOL     OW35503   1.351   9.451   6.186 -0.2373  0.3511  0.7213
 8095SOL    HW135504   1.372   9.492   6.097  1.5691 -2.3291 -0.1655
 8095SOL    HW235505   1.313   9.520   6.247  0.1356  2.6476 -1.5682
 8096SOL     OW35506   1.019   6.580   5.620  0.0377 -0.1060  0.5936
 8096SOL    HW135507   0.955   6.522   5.570  0.7562  0.4004 -0.9225
 8096SOL    HW235508   1.011   6.561   5.718 -0.0085 -2.4835  0.1542
 8097SOL     OW35509   3.030   0.001   2.876 -0.3152 -0.1447  0.0182
 8097SOL    HW135510   3.126   0.025   2.895 -0.2723  0.9695 -1.5113
 8097SOL    HW235511   2.970   0.064   2.925 -0.2579 -0.2722  0.2515
 8098SOL     OW35512   0.757   5.219   3.100 -0.0352  0.8150  0.0990
 8098SOL    HW135513   0.783   5.193   3.007 -2.8476 -0.2736 -0.4369
 8098SOL    HW235514   0.791   5.151   3.165  0.4432  0.6380 -0.3411
 8099SOL     OW35515   9.460   0.491   4.961 -0.5595  1.4780 -0.4912
 8099SOL    HW135516   9.461   0.487   4.861  0.6868  2.4268 -0.5361
 8099SOL    HW235517   9.549   0.462   4.996 -1.8617 -1.5151  0.4868
 8100SOL     OW35518   9.302   9.773   1.230  0.0511  0.3300 -0.2076
 8100SOL    HW135519   9.350   9.755   1.144  0.8107 -2.8277  0.8014
 8100SOL    HW235520   9.203   9.767   1.215  0.1858 -0.6836 -0.7926
 8101SOL     OW35521   4.583   0.616   6.201  0.5404 -0.0312  0.3696
 8101SOL    HW135522   4.559   0.579   6.291  1.6520  0.9329  1.0786
 8101SOL    HW235523   4.516   0.585   6.133  0.1645 -1.4544  1.3631
 8102SOL     OW35524   7.826   2.800   0.172 -0.3921  0.2617  0.2979
 8102SOL    HW135525   7.874   2.791   0.260  1.0025 -1.2856 -0.5933
 8102SOL    HW235526   7.890   2.834   0.103 -1.3767  1.0710 -0.2269
 8103SOL     OW35527   3.525   2.943   1.290 -0.2325  0.3360 -0.0080
 8103SOL    HW135528   3.589   2.923   1.364 -1.1938 -1.3720  0.3951
 8103SOL    HW235529   3.449   2.997   1.326  0.0448  0.7739 -0.0777
 8104SOL     OW35530   8.269   1.585   6.297 -0.3274  0.1419 -0.2539
 8104SOL    HW135531   8.261   1.684   6.284 -1.3595 -0.0175 -0.8372
 8104SOL    HW235532   8.282   1.541   6.208 -0.5996 -0.3177 -0.0649
 8105SOL     OW35533   3.519   8.256   3.023 -0.2623 -0.9024 -0.3100
 8105SOL    HW135534   3.492   8.165   2.989  0.3597 -1.3397  0.3611
 8105SOL    HW235535   3.439   8.316   3.023 -1.3205 -2.2603  1.8587
 8106SOL     OW35536   2.641   9.296   5.799 -0.3584  0.1611  0.1992
 8106SOL    HW135537   2.550   9.320   5.766 -0.3301 -0.5704 -0.4186
 8106SOL    HW235538   2.706   9.300   5.723  0.4622  2.3457  0.9654
 8107SOL     OW35539   0.569   1.793   0.013 -0.4189  0.3267 -0.5203
 8107SOL    HW135540   0.627   1.856  -0.039  0.9397  0.0492  0.6148
 8107SOL    HW235541   0.476   1.830   0.018  0.0851  1.6719 -0.8412
 8108SOL     OW35542   2.482   1.112   2.725  0.3905 -0.3647  0.1780
 8108SOL    HW135543   2.420   1.137   2.800  2.1232 -0.0676  1.5288
 8108SOL    HW235544   2.562   1.066   2.761  0.5804 -1.5337 -1.6501
 8109SOL     OW35545   0.157   0.354   3.363  0.0469  0.1763 -0.3995
 8109SOL    HW135546   0.061   0.340   3.339 -0.0836  0.9834 -0.3717
 8109SOL    HW235547   0.214   0.287   3.316 -0.6547 -1.0846  0.5336
 8110SOL     OW35548   6.005   1.435   0.615  0.4522  0.0963  0.2944
 8110SOL    HW135549   6.017   1.336   0.619 -0.1468  0.0257  0.4285
 8110SOL    HW235550   6.082   1.480   0.661  0.7647 -0.3038  0.1616
 8111SOL     OW35551   1.991   1.658   5.450  0.0541  0.4891 -0.1086
 8111SOL    HW135552   1.924   1.649   5.523 -0.5273 -0.3979 -0.7431
 8111SOL    HW235553   2.079   1.623   5.481 -0.4376 -0.7975 -0.1511
 8112SOL     OW35554   2.323   1.281   1.589 -0.5516  0.8687 -0.1886
 8112SOL    HW135555   2.226   1.305   1.588 -0.6846  0.3469 -2.6339
 8112SOL    HW235556   2.336   1.193   1.544  1.0108  0.7054  0.5483
 8113SOL     OW35557   8.429   1.263   0.044 -0.0193 -0.1698 -0.6022
 8113SOL    HW135558   8.364   1.340   0.041  2.0127  1.6213  0.1088
 8113SOL    HW235559   8.433   1.220  -0.046 -2.3432 -0.4689 -0.6040
 8114SOL     OW35560   8.288   5.241   4.718 -0.1566  0.1041 -0.7552
 8114SOL    HW135561   8.244   5.194   4.795 -1.1974  1.3046 -0.5879
 8114SOL    HW235562   8.341   5.318   4.752  1.1663 -0.6630 -1.0660
 8115SOL     OW35563   8.030   3.782   6.635 -0.1844 -0.4408  0.3575
 8115SOL    HW135564   7.962   3.853   6.615 -1.7348 -2.5102 -2.0165
 8115SOL    HW235565   7.986   3.692   6.634  2.3433 -1.7318  0.0518
 8116SOL     OW35566   7.247   1.887   5.146  0.4867 -0.0996  0.2399
 8116SOL    HW135567   7.280   1.964   5.201  0.6331  0.2204 -0.2960
 8116SOL    HW235568   7.325   1.835   5.111  0.3817 -0.8325  1.0802
 8117SOL     OW35569   9.213   8.745   3.720 -0.3886  0.3015  0.0653
 8117SOL    HW135570   9.311   8.763   3.712 -0.3248  0.3498  0.8960
 8117SOL    HW235571   9.162   8.819   3.676 -0.0508 -0.0262 -0.9032
 8118SOL     OW35572   9.159   7.898   6.422  0.2146 -0.5038  0.4462
 8118SOL    HW135573   9.190   7.988   6.392 -0.5173 -0.4044 -0.0445
 8118SOL    HW235574   9.103   7.907   6.504 -0.0077 -0.4828  0.2951
 8119SOL     OW35575   1.692   4.741   2.751 -0.5553  0.3002 -0.4823
 8119SOL    HW135576   1.678   4.815   2.685 -0.7511  1.4798  0.8633
 8119SOL    HW235577   1.666   4.654   2.709 -3.0243  1.3135 -1.1726
 8120SOL     OW35578   9.324   0.777   6.121 -0.0105  0.0471  0.2032
 8120SOL    HW135579   9.293   0.805   6.030  0.8364 -0.7704 -0.3543
 8120SOL    HW235580   9.345   0.679   6.119  2.5516  0.5449  0.5524
 8121SOL     OW35581   0.610   1.672   4.755  0.0289 -0.2015 -0.2323
 8121SOL    HW135582   0.634   1.768   4.749  0.0211 -0.1098  1.1649
 8121SOL    HW235583   0.676   1.624   4.813 -0.0960 -0.9899 -0.7302
 8122SOL     OW35584   2.722   8.679   5.393 -0.4324 -0.4279 -0.3570
 8122SOL    HW135585   2.759   8.753   5.449 -0.5850 -2.1031  2.0230
 8122SOL    HW235586   2.782   8.663   5.315  2.0800 -0.8155  1.5772
 8123SOL     OW35587   2.034   5.857   2.407  0.1236 -0.3212 -0.2672
 8123SOL    HW135588   2.105   5.793   2.379 -0.0233 -0.7880  0.4091
 8123SOL    HW235589   1.999   5.830   2.497  0.5213  1.0855  0.3286
 8124SOL     OW35590   7.101   0.153   6.555  0.3904  0.2083 -0.2202
 8124SOL    HW135591   7.086   0.141   6.457 -2.2128 -0.9582  0.2735
 8124SOL    HW235592   7.016   0.182   6.599  1.3958  0.2728  1.7699
 8125SOL     OW35593   9.065   9.880   2.172 -0.5460  0.6822  0.6686
 8125SOL    HW135594   9.066   9.913   2.077  0.5198  3.4226  1.5754
 8125SOL    HW235595   9.149   9.830   2.190 -1.2745 -0.8874 -0.1353
 8126SOL     OW35596   8.920   9.501   4.282 -0.2198 -0.0377 -0.5499
 8126SOL    HW135597   8.948   9.457   4.197  0.4131 -1.5434  0.4231
 8126SOL    HW235598   8.855   9.443   4.330 -0.5124  0.7631  0.0334
 8127SOL     OW35599   3.170   8.030   6.416  0.3795  0.5340  0.4983
 8127SOL    HW135600   3.160   8.124   6.385 -0.8579 -0.1535 -1.3206
 8127SOL    HW235601   3.214   7.976   6.344  0.8984 -0.3242  1.4461
 8128SOL     OW35602   4.443   6.949   3.070 -0.5922 -0.2754  0.4520
 8128SOL    HW135603   4.414   6.859   3.102 -1.2054 -0.3181 -0.2275
 8128SOL    HW235604   4.458   7.009   3.149 -1.8513 -0.4630  0.8528
 8129SOL     OW35605   3.296   8.476   3.997 -0.1038 -0.0316 -0.1241
 8129SOL    HW135606   3.218   8.467   4.059 -0.1401 -2.3769 -0.4411
 8129SOL    HW235607   3.268   8.529   3.916 -0.7875  0.8343  0.6674
 8130SOL     OW35608   9.755   7.574   2.806  0.0241  0.4149  0.3757
 8130SOL    HW135609   9.688   7.648   2.812 -0.3487  0.0649  0.5819
 8130SOL    HW235610   9.729   7.500   2.869  0.9588  0.5557  0.9427
 8131SOL     OW35611   8.915   6.256   3.307 -0.4949  0.3846 -0.6132
 8131SOL    HW135612   8.920   6.332   3.372 -0.5666  0.5497 -0.7989
 8131SOL    HW235613   8.848   6.189   3.339  0.3431 -0.1196  0.0923
 8132SOL     OW35614   3.434   5.051   5.479  0.3598  0.0938  0.5195
 8132SOL    HW135615   3.406   5.021   5.570 -0.0523 -0.3637  0.2396
 8132SOL    HW235616   3.524   5.095   5.485 -0.1912  1.1493  1.3449
 8133SOL     OW35617   0.464   3.646   1.537 -0.2369  0.3803 -0.0117
 8133SOL    HW135618   0.429   3.572   1.595  0.9193  0.2574  0.5651
 8133SOL    HW235619   0.490   3.610   1.448  0.1953  0.1067  0.2219
 8134SOL     OW35620   2.405   6.860   2.545 -0.6521 -0.5365  0.9733
 8134SOL    HW135621   2.422   6.795   2.618  2.4464 -1.1100 -0.1762
 8134SOL    HW235622   2.468   6.937   2.553 -0.5016 -0.4277 -0.8652
 8135SOL     OW35623   8.229   6.802   0.744 -0.4035 -0.2692 -0.3173
 8135SOL    HW135624   8.189   6.870   0.806 -0.3659  0.8639 -1.5069
 8135SOL    HW235625   8.207   6.710   0.777 -0.5240  0.3107  1.2711
 8136SOL     OW35626   0.631   2.935   3.221  0.1162  0.4699 -0.4585
 8136SOL    HW135627   0.641   2.857   3.159 -1.8409  0.1071 -0.3599
 8136SOL    HW235628   0.671   3.016   3.179 -0.1937 -0.0112 -1.7188
 8137SOL     OW35629   1.875   5.537   2.715  0.2519  0.0097  0.2758
 8137SOL    HW135630   1.852   5.634   2.703 -2.0186 -0.3085  1.6407
 8137SOL    HW235631   1.919   5.503   2.632  0.3623  2.0099 -0.5234
 8138SOL     OW35632   1.593   6.201   6.226  0.0882 -0.1011 -0.1272
 8138SOL    HW135633   1.520   6.218   6.293  0.5558  0.5393  0.2224
 8138SOL    HW235634   1.553   6.169   6.140 -0.5273 -0.8213  0.4157
 8139SOL     OW35635   1.412   8.653   5.004 -0.1942  0.2016 -0.0074
 8139SOL    HW135636   1.344   8.686   5.069 -0.3884  0.9685 -0.5912
 8139SOL    HW235637   1.478   8.595   5.051 -0.2588  0.8427  0.8874
 8140SOL     OW35638   7.970   4.658   4.693 -0.2215 -0.3084 -0.3852
 8140SOL    HW135639   8.059   4.612   4.695 -0.0335  0.0831  0.1814
 8140SOL    HW235640   7.951   4.689   4.600  1.1311  1.3454 -0.1356
 8141SOL     OW35641   8.924   5.667   0.472  0.0620 -0.4505  0.5345
 8141SOL    HW135642   8.942   5.601   0.545  0.4288  0.3155  1.1508
 8141SOL    HW235643   8.993   5.656   0.400  1.2289  0.4550  1.4842
 8142SOL     OW35644   1.240   7.277   5.381 -0.1058  0.2404 -0.3782
 8142SOL    HW135645   1.215   7.187   5.417 -0.5921  0.2874 -0.5980
 8142SOL    HW235646   1.337   7.293   5.398 -0.3484  0.3110  1.0187
 8143SOL     OW35647   6.280   9.813   4.660  0.1829  0.1783  0.0948
 8143SOL    HW135648   6.271   9.738   4.725  2.4088  0.7530  1.1013
 8143SOL    HW235649   6.249   9.782   4.570 -2.0882 -0.8887  1.2019
 8144SOL     OW35650   6.269   0.715   4.927 -0.0472  0.6645  0.5309
 8144SOL    HW135651   6.179   0.755   4.912 -0.5427 -0.7710 -0.4702
 8144SOL    HW235652   6.338   0.788   4.930 -1.2903  1.8167  1.8698
 8145SOL     OW35653   8.984   2.518   1.764 -0.0476  0.1588 -0.0528
 8145SOL    HW135654   9.043   2.438   1.773  1.5404  1.2409 -0.4927
 8145SOL    HW235655   8.974   2.562   1.853 -0.2134 -0.0318  0.0237
 8146SOL     OW35656   0.140   9.262   2.909 -0.6291 -0.1183 -0.7394
 8146SOL    HW135657   0.204   9.186   2.903 -1.4614 -0.8980 -0.0368
 8146SOL    HW235658   0.110   9.289   2.818 -0.1357 -0.4747 -1.0042
 8147SOL     OW35659   7.388   1.041   5.672  0.0838 -0.5039 -0.3461
 8147SOL    HW135660   7.408   1.136   5.693  0.3045 -0.4429 -0.8180
 8147SOL    HW235661   7.308   1.011   5.723 -0.4933  0.1818 -0.8415
 8148SOL     OW35662   1.088   0.809   2.324  0.0203 -0.2149  0.2040
 8148SOL    HW135663   1.084   0.729   2.383 -1.2607 -1.2350 -1.2009
 8148SOL    HW235664   1.032   0.883   2.363 -0.0224 -0.5311  0.7401
 8149SOL     OW35665   8.643   2.665   4.823  0.5395 -0.2729 -0.4911
 8149SOL    HW135666   8.671   2.672   4.727  0.7324 -0.5119 -0.4502
 8149SOL    HW235667   8.632   2.757   4.860 -0.7506 -0.1604 -1.0954
 8150SOL     OW35668   2.264   0.410   3.474 -0.0473  0.1341  0.5687
 8150SOL    HW135669   2.220   0.484   3.526  1.7807  1.9156 -0.3320
 8150SOL    HW235670   2.249   0.424   3.377  0.1580 -0.7799  0.4028
 8151SOL     OW35671   8.044   2.622   1.950 -0.0449 -0.1353 -0.2190
 8151SOL    HW135672   8.003   2.674   2.024  0.5749 -1.1312  0.8450
 8151SOL    HW235673   7.972   2.589   1.889 -1.0450 -3.0686  2.4138
 8152SOL     OW35674   0.147   6.527   5.133 -0.2698 -0.3365  0.6632
 8152SOL    HW135675   0.083   6.561   5.202 -1.6387  1.8579 -1.6060
 8152SOL    HW235676   0.098   6.509   5.048  1.9322  0.4023 -0.8206
 8153SOL     OW35677   7.979   6.677   0.149  0.2017  0.1739 -0.1344
 8153SOL    HW135678   7.964   6.679   0.050 -0.1572  2.3724 -0.0523
 8153SOL    HW235679   7.898   6.637   0.194 -0.1729  0.3631 -0.6377
 8154SOL     OW35680   4.175   5.853   0.214  0.1533 -0.4201 -0.3915
 8154SOL    HW135681   4.272   5.835   0.201  0.3578 -0.5894  1.2809
 8154SOL    HW235682   4.136   5.890   0.130  1.8678  0.5288 -0.7810
 8155SOL     OW35683   2.893   6.674   1.675  0.4977 -0.0402  0.0861
 8155SOL    HW135684   2.841   6.596   1.710  0.0317  0.1577 -0.1630
 8155SOL    HW235685   2.952   6.645   1.601 -0.7797  0.1192 -1.0160
 8156SOL     OW35686   8.400   6.051   5.334  0.0723  0.1452 -0.1540
 8156SOL    HW135687   8.362   6.136   5.296 -0.1015 -0.0990 -0.5237
 8156SOL    HW235688   8.457   6.073   5.413  0.3134  0.6418 -0.4619
 8157SOL     OW35689   4.127   9.995   3.097 -0.1541 -0.6863 -0.2853
 8157SOL    HW135690   4.168  10.030   3.013 -1.3089  1.3098 -0.0456
 8157SOL    HW235691   4.100   9.899   3.083  0.1616 -0.5448 -2.0052
 8158SOL     OW35692   3.544   1.375   6.426 -0.5629  0.0111 -0.1121
 8158SOL    HW135693   3.595   1.325   6.357 -0.8292 -0.3296 -0.0623
 8158SOL    HW235694   3.607   1.432   6.480 -0.5037  1.1852 -1.3899
 8159SOL     OW35695   1.252   4.578   2.954  0.0581 -0.3266 -0.0750
 8159SOL    HW135696   1.309   4.646   2.908  1.5544 -1.4838  0.0189
 8159SOL    HW235697   1.277   4.574   3.051  0.3002 -1.3131 -0.1710
 8160SOL     OW35698   8.889   3.303   3.056  1.2246  0.3010  0.1319
 8160SOL    HW135699   8.803   3.275   3.097 -0.1721  2.8189 -0.9903
 8160SOL    HW235700   8.959   3.309   3.128  0.0196 -0.0075  1.3552
 8161SOL     OW35701   4.108   1.305   6.262 -0.3208  0.5371 -0.0391
 8161SOL    HW135702   4.111   1.368   6.184  2.5314  0.8532  0.2501
 8161SOL    HW235703   4.198   1.303   6.305 -1.6193 -0.3242  2.7151
 8162SOL     OW35704   2.887   8.223   2.106 -0.6597  0.0957  0.1982
 8162SOL    HW135705   2.857   8.167   2.029  1.1520 -0.6840  0.0577
 8162SOL    HW235706   2.972   8.187   2.144 -0.2104  1.9221  1.0052
 8163SOL     OW35707   6.134   1.291   4.681  0.0056 -0.0722 -0.5323
 8163SOL    HW135708   6.066   1.238   4.732 -0.3052  0.8610  0.0285
 8163SOL    HW235709   6.224   1.248   4.690 -0.2788 -0.6180 -0.2609
 8164SOL     OW35710   4.771   4.259   0.613 -0.3380 -0.3119  0.6722
 8164SOL    HW135711   4.739   4.307   0.532 -0.7433 -0.6981  0.6015
 8164SOL    HW235712   4.869   4.276   0.626 -1.0721  3.0618  2.3937
 8165SOL     OW35713   3.625   5.902   1.814 -0.8471 -0.2091  0.3648
 8165SOL    HW135714   3.635   5.973   1.884  0.3039 -0.0986  0.0870
 8165SOL    HW235715   3.550   5.927   1.752 -0.6064  0.6358  0.4152
 8166SOL     OW35716   7.366   7.761   5.765 -0.0220  0.4337 -0.5586
 8166SOL    HW135717   7.373   7.684   5.828  0.4712  1.3596  0.5224
 8166SOL    HW235718   7.273   7.767   5.731  0.3551 -1.8098 -2.1531
 8167SOL     OW35719   7.327   4.339   5.379 -0.1724  0.4679  0.1869
 8167SOL    HW135720   7.251   4.403   5.365  1.2489  2.0431 -0.5894
 8167SOL    HW235721   7.356   4.342   5.474 -0.5287  0.4988  0.2954
 8168SOL     OW35722   0.305   7.756   2.098 -0.0660  0.6638  0.0394
 8168SOL    HW135723   0.285   7.815   2.019  0.4673 -0.1455 -0.7092
 8168SOL    HW235724   0.404   7.745   2.107 -0.1989 -2.2418 -1.4531
 8169SOL     OW35725   4.081   6.764   2.328  0.0430 -0.1785  0.4015
 8169SOL    HW135726   4.002   6.740   2.272 -0.4571  0.1803  0.9468
 8169SOL    HW235727   4.067   6.730   2.421 -0.4693  1.8077  1.0703
 8170SOL     OW35728   3.174   0.647   2.996  0.2879 -0.4826  0.3006
 8170SOL    HW135729   3.084   0.662   2.956  0.3883 -0.8626 -0.0754
 8170SOL    HW235730   3.221   0.735   3.007  1.3055 -0.5673 -2.8863
 8171SOL     OW35731   6.852   0.758   2.714  0.1654  0.6787  0.1780
 8171SOL    HW135732   6.866   0.672   2.764  0.3982  0.2474 -0.6281
 8171SOL    HW235733   6.756   0.766   2.687 -0.0288  1.0584  0.9469
 8172SOL     OW35734   1.828   7.741   2.054 -0.1512 -0.2221 -0.3915
 8172SOL    HW135735   1.743   7.772   2.096  0.0484 -1.7104  1.1401
 8172SOL    HW235736   1.847   7.647   2.082  2.2601  0.2680 -0.2972
 8173SOL     OW35737   1.157   8.037   2.256 -0.3449 -0.2589  0.0168
 8173SOL    HW135738   1.136   7.957   2.200 -0.7752  0.6126 -1.0799
 8173SOL    HW235739   1.251   8.030   2.290 -0.1973 -0.9610 -0.5284
 8174SOL     OW35740   7.998   2.640   6.533  0.1031  0.0741 -0.1200
 8174SOL    HW135741   8.015   2.560   6.477  1.8220 -0.5595  1.2407
 8174SOL    HW235742   7.913   2.684   6.505 -0.9600 -2.3281 -0.7424
 8175SOL     OW35743   5.265   2.406   4.137  0.2797  0.3596  0.0258
 8175SOL    HW135744   5.250   2.386   4.040  0.8990 -0.8420  0.1712
 8175SOL    HW235745   5.347   2.462   4.147 -0.3935  1.4152 -0.2212
 8176SOL     OW35746   6.439   1.303   5.337  0.6535  0.3541  0.1400
 8176SOL    HW135747   6.407   1.326   5.428  0.5117  1.6801 -0.2449
 8176SOL    HW235748   6.520   1.245   5.344 -0.1823 -0.7389  1.1015
 8177SOL     OW35749   9.903   5.453   5.644  0.4282 -0.7694  0.1594
 8177SOL    HW135750   9.987   5.471   5.694  0.6288  0.6494 -0.6625
 8177SOL    HW235751   9.841   5.531   5.654  0.7465 -0.1583 -2.3245
 8178SOL     OW35752   8.796   5.802   5.362 -0.1687 -0.1631  0.1415
 8178SOL    HW135753   8.885   5.789   5.320  0.7631  1.4787  1.5352
 8178SOL    HW235754   8.776   5.726   5.424  0.7114 -0.0357  0.5874
 8179SOL     OW35755   8.706   5.513   2.574  0.6476  0.3383  0.5637
 8179SOL    HW135756   8.691   5.444   2.503  1.0079  1.0024 -0.1585
 8179SOL    HW235757   8.697   5.604   2.535 -0.5184  0.7049  1.6784
 8180SOL     OW35758   1.517   4.146   0.102 -0.0961  0.3046  0.7172
 8180SOL    HW135759   1.512   4.050   0.073 -0.0873  0.7642 -0.8697
 8180SOL    HW235760   1.430   4.191   0.081  0.4419  1.0267  0.0164
 8181SOL     OW35761   9.125   1.949   3.623  0.5094 -0.1680  0.0579
 8181SOL    HW135762   9.100   2.006   3.702  2.6654  1.3548 -0.3013
 8181SOL    HW235763   9.213   1.905   3.641  0.6792 -0.3614 -1.2264
 8182SOL     OW35764   0.347   1.847   2.280 -0.2376 -0.0012  0.0062
 8182SOL    HW135765   0.428   1.897   2.310  2.4875 -5.0303  1.6934
 8182SOL    HW235766   0.334   1.860   2.182  0.9580  3.0998  0.2155
 8183SOL     OW35767   9.496   3.641   4.379 -0.0525 -0.0503 -0.0285
 8183SOL    HW135768   9.520   3.559   4.430 -0.2503  0.8488  1.5452
 8183SOL    HW235769   9.572   3.667   4.319  0.3495 -0.8761  0.1226
 8184SOL     OW35770   4.686   1.333   0.605  0.0683 -0.7432  0.2372
 8184SOL    HW135771   4.598   1.379   0.601  1.0846  1.5718  2.5192
 8184SOL    HW235772   4.739   1.354   0.523 -0.5380 -0.0058  0.0293
 8185SOL     OW35773   9.595   1.655   1.998 -0.2217 -0.3212  0.2985
 8185SOL    HW135774   9.639   1.606   1.923 -0.9778 -2.1088  0.9997
 8185SOL    HW235775   9.651   1.646   2.080 -1.1753 -1.4115  0.8379
 8186SOL     OW35776   2.763   4.516   6.399  0.0918 -0.3539  0.3367
 8186SOL    HW135777   2.771   4.417   6.413  0.4664 -0.9731 -3.7640
 8186SOL    HW235778   2.843   4.549   6.349 -0.8225  1.7508  0.2085
 8187SOL     OW35779   2.504   2.416   3.440 -0.1631  0.2307  0.1870
 8187SOL    HW135780   2.489   2.498   3.496  0.4150  1.3003 -1.2118
 8187SOL    HW235781   2.420   2.393   3.391  0.0352  0.6972 -0.3667
 8188SOL     OW35782   1.482   0.287   1.468 -0.1883  0.4414  0.1202
 8188SOL    HW135783   1.502   0.366   1.527 -0.8175 -0.6482  1.8295
 8188SOL    HW235784   1.556   0.221   1.475  0.8752  1.3516 -2.1792
 8189SOL     OW35785   6.084   0.822   1.504 -0.1601 -0.1394 -0.1374
 8189SOL    HW135786   6.094   0.730   1.543 -0.0561 -0.5907 -1.1917
 8189SOL    HW235787   6.161   0.879   1.532  0.7265 -0.9214 -0.9251
 8190SOL     OW35788   0.222   8.012   0.062 -0.5065 -0.4752  0.6590
 8190SOL    HW135789   0.222   8.073   0.141  1.2065 -0.7484  0.8925
 8190SOL    HW235790   0.275   8.053  -0.012  1.4016 -2.0202  1.1181
 8191SOL     OW35791   9.328   8.287   4.418 -0.2205 -0.2886 -0.1545
 8191SOL    HW135792   9.411   8.291   4.473 -0.3026 -0.2307 -0.0353
 8191SOL    HW235793   9.260   8.229   4.464  0.7046 -2.5416 -1.5270
 8192SOL     OW35794   6.253   0.536   1.962 -0.0744 -0.4040 -0.8374
 8192SOL    HW135795   6.281   0.443   1.982  0.6342 -0.0128  0.0158
 8192SOL    HW235796   6.153   0.541   1.956 -0.0712 -1.3844 -1.7702
 8193SOL     OW35797   0.437   2.906   2.894 -0.3071  0.1285 -0.6640
 8193SOL    HW135798   0.536   2.920   2.881 -0.2214  0.0378 -0.1041
 8193SOL    HW235799   0.422   2.822   2.946 -0.6698  0.2675 -0.5437
 8194SOL     OW35800   4.433   2.130   0.539 -0.1685 -0.3613 -0.3085
 8194SOL    HW135801   4.349   2.183   0.552  0.4960  0.8756 -0.9710
 8194SOL    HW235802   4.409   2.034   0.525 -1.4610 -0.0604 -0.2759
 8195SOL     OW35803   6.809   8.401   2.925  0.7274  0.4915 -0.1520
 8195SOL    HW135804   6.736   8.332   2.921  1.9581 -0.9114  1.1704
 8195SOL    HW235805   6.768   8.492   2.925 -1.0555 -0.2821  0.6781
 8196SOL     OW35806   7.526   7.196   1.600  0.2503 -1.2918 -0.4752
 8196SOL    HW135807   7.501   7.135   1.675 -0.4676 -1.8159 -1.1317
 8196SOL    HW235808   7.606   7.249   1.626 -0.7473 -0.5360  1.1712
 8197SOL     OW35809   3.261   3.826   4.204 -0.1866 -0.3732  0.2970
 8197SOL    HW135810   3.229   3.886   4.131 -0.5500 -0.2704  0.5414
 8197SOL    HW235811   3.275   3.880   4.288  1.6696 -0.2015 -0.0945
 8198SOL     OW35812   9.175   9.106   2.859  0.1836 -0.1408  0.3001
 8198SOL    HW135813   9.272   9.083   2.850  0.0722 -0.7605  0.6266
 8198SOL    HW235814   9.122   9.057   2.789 -0.0273 -0.6847  0.8359
 8199SOL     OW35815   8.918   3.782   1.528  0.6768 -0.3537 -0.0807
 8199SOL    HW135816   8.898   3.861   1.586  1.0243 -0.0097 -0.4283
 8199SOL    HW235817   8.835   3.754   1.480  0.3765 -0.6714  0.6207
 8200SOL     OW35818   3.165   8.067   1.037 -0.3314  0.6072 -0.8690
 8200SOL    HW135819   3.110   8.146   1.064 -2.3243 -0.3692 -1.9695
 8200SOL    HW235820   3.120   7.983   1.069  1.1756 -0.1627 -0.7066
 8201SOL     OW35821   4.579   7.323   2.981  0.3154  0.0455  0.0142
 8201SOL    HW135822   4.623   7.346   2.894 -1.8260 -1.4527 -1.5016
 8201SOL    HW235823   4.585   7.225   2.997 -0.4611  0.1377  0.9217
 8202SOL     OW35824   8.669   9.669   2.318  0.0900  0.3024  0.2376
 8202SOL    HW135825   8.654   9.632   2.410  1.7272 -1.3129 -0.1107
 8202SOL    HW235826   8.721   9.753   2.323  0.5991 -0.0430  0.7634
 8203SOL     OW35827   5.080   7.536   2.669  0.1043 -0.1423 -0.7839
 8203SOL    HW135828   5.177   7.560   2.670 -0.0401  0.4748  1.2678
 8203SOL    HW235829   5.034   7.585   2.594  1.3755 -0.4740 -1.7844
 8204SOL     OW35830   8.788   6.493   6.270  0.0826 -0.0904 -0.0120
 8204SOL    HW135831   8.690   6.493   6.293  0.0539  2.8855  0.0932
 8204SOL    HW235832   8.798   6.495   6.170 -0.0159  0.7505 -0.0152
 8205SOL     OW35833   6.905   6.603   5.358 -0.1050  0.1716 -0.1822
 8205SOL    HW135834   6.817   6.650   5.350 -0.1448 -0.2832 -2.8476
 8205SOL    HW235835   6.901   6.516   5.309  0.8568 -1.3427  2.3486
 8206SOL     OW35836   7.162   2.981   3.989  1.2513  0.3178 -0.2894
 8206SOL    HW135837   7.238   2.956   3.930  3.0175  1.3911  1.4597
 8206SOL    HW235838   7.197   3.027   4.071 -1.3673  2.0150 -0.0612
 8207SOL     OW35839   7.571   9.571   4.367 -0.3171  0.0153 -0.3495
 8207SOL    HW135840   7.538   9.642   4.304 -1.1199  0.9079  1.0579
 8207SOL    HW235841   7.519   9.575   4.452  2.4255  0.4744  1.3567
 8208SOL     OW35842   4.264   6.661   0.745  0.2210  0.1957  0.0809
 8208SOL    HW135843   4.165   6.650   0.743  0.4000 -1.7734  0.8688
 8208SOL    HW235844   4.302   6.642   0.655  0.0994 -1.6370  0.3900
 8209SOL     OW35845   0.876   8.378   0.852 -0.3416 -0.2236  0.0835
 8209SOL    HW135846   0.903   8.281   0.850 -1.4493 -0.5273 -1.4068
 8209SOL    HW235847   0.858   8.405   0.946 -0.2716 -1.5505  0.4969
 8210SOL     OW35848   8.145   9.458   2.348  0.1976 -0.8660 -0.4807
 8210SOL    HW135849   8.192   9.374   2.374  0.3112 -0.5616  0.3223
 8210SOL    HW235850   8.186   9.496   2.265  0.3831 -1.4093 -0.6348
 8211SOL     OW35851   1.454   2.333   4.337 -0.7178  0.0381  0.4740
 8211SOL    HW135852   1.383   2.400   4.357 -0.5826 -0.1173  1.5150
 8211SOL    HW235853   1.452   2.261   4.407 -0.4155 -0.6724 -0.2481
 8212SOL     OW35854   8.923   7.779   4.190 -0.2670 -0.1932  0.2725
 8212SOL    HW135855   8.928   7.690   4.146  1.1188  0.6370 -1.2713
 8212SOL    HW235856   9.010   7.827   4.179 -1.5262  2.0048 -0.2980
 8213SOL     OW35857   1.710   3.036   1.102 -0.1623  0.0667  0.0268
 8213SOL    HW135858   1.776   3.111   1.106 -0.3065  0.2911 -1.6360
 8213SOL    HW235859   1.745   2.964   1.041 -1.6903  0.4278 -1.2925
 8214SOL     OW35860   8.644   8.432   6.230  0.0864 -0.0522 -0.1132
 8214SOL    HW135861   8.701   8.479   6.298 -1.1059  0.8636  0.2785
 8214SOL    HW235862   8.581   8.370   6.277  0.0357 -0.2635 -0.4584
 8215SOL     OW35863   0.917   7.265   3.066 -1.0386  0.2136 -0.3156
 8215SOL    HW135864   0.843   7.263   2.998 -1.0370 -0.1416 -0.3101
 8215SOL    HW235865   0.955   7.173   3.076 -1.3086  0.1775  0.4603
 8216SOL     OW35866   6.696   2.020   4.389  0.0812 -0.1575  0.4963
 8216SOL    HW135867   6.662   1.934   4.353  2.1064 -0.4401 -0.8182
 8216SOL    HW235868   6.639   2.095   4.356  0.8058 -0.6002 -1.8579
 8217SOL     OW35869   8.318   3.865   3.300  0.1391  0.1723 -0.2091
 8217SOL    HW135870   8.371   3.926   3.241  0.6673 -0.2609 -0.1847
 8217SOL    HW235871   8.222   3.867   3.272 -0.1069  2.1033  0.6991
 8218SOL     OW35872   2.643   9.218   0.974 -0.2474  0.0602 -0.0381
 8218SOL    HW135873   2.556   9.267   0.966  0.6881  1.8550  0.3946
 8218SOL    HW235874   2.628   9.120   0.960 -2.6681  0.0754  2.0059
 8219SOL     OW35875   0.084   0.838   6.444 -0.0157 -0.1509  0.7435
 8219SOL    HW135876   0.172   0.837   6.492  0.3260  0.0296  0.1316
 8219SOL    HW235877   0.096   0.800   6.353 -0.1940  1.4644  0.0252
 8220SOL     OW35878   3.394   2.608   4.596 -0.2769 -0.0702  0.3556
 8220SOL    HW135879   3.378   2.662   4.514  0.1526 -0.0534  0.2831
 8220SOL    HW235880   3.456   2.658   4.658 -1.0556  0.1739  0.9460
 8221SOL     OW35881   9.994   5.236   5.492  0.0914 -0.5817  0.0783
 8221SOL    HW135882   9.911   5.181   5.482 -0.1429 -0.2571  0.2375
 8221SOL    HW235883   9.972   5.321   5.540  0.6246 -0.7528  0.6183
 8222SOL     OW35884   1.266   9.336   1.918  0.1457  0.1948  0.2276
 8222SOL    HW135885   1.334   9.263   1.909  0.8269  0.8682 -0.2323
 8222SOL    HW235886   1.256   9.360   2.015  0.4321 -0.0411  0.3183
 8223SOL     OW35887   2.400   3.145   4.493  0.1231 -0.4507 -1.0409
 8223SOL    HW135888   2.312   3.186   4.468 -0.0859 -0.7921 -0.8727
 8223SOL    HW235889   2.468   3.217   4.508 -0.0347 -0.2007 -1.5251
 8224SOL     OW35890   2.381   2.736   0.943 -0.5007 -0.2469  0.2543
 8224SOL    HW135891   2.290   2.714   0.978  0.0840 -2.2485  0.5742
 8224SOL    HW235892   2.384   2.719   0.845 -0.5666  0.1172  0.1898
 8225SOL     OW35893   6.890   4.877   6.646  0.2114  0.2495  0.7439
 8225SOL    HW135894   6.845   4.813   6.709 -0.8764  1.0385  0.7886
 8225SOL    HW235895   6.968   4.832   6.603 -1.6112 -1.7670 -0.5958
 8226SOL     OW35896   7.664   1.899   1.341 -0.2683  0.2388 -0.3462
 8226SOL    HW135897   7.747   1.910   1.395 -0.7375 -0.2661  0.4933
 8226SOL    HW235898   7.656   1.975   1.276 -1.7811  3.0999  3.0485
 8227SOL     OW35899   2.240   7.218   5.122 -0.8331  0.2063  0.6717
 8227SOL    HW135900   2.221   7.314   5.105 -2.2449 -0.1874 -0.0312
 8227SOL    HW235901   2.332   7.209   5.161  0.0781  1.6587 -1.0426
 8228SOL     OW35902   1.122   7.220   4.122  0.1726  0.1737  0.2590
 8228SOL    HW135903   1.152   7.310   4.090 -2.4833 -0.0082 -3.1363
 8228SOL    HW235904   1.044   7.231   4.183  1.3070  0.2624  1.6982
 8229SOL     OW35905   4.006   3.788   4.291  0.1348  0.4658 -0.1339
 8229SOL    HW135906   4.064   3.788   4.372  1.3656  1.7380 -0.9960
 8229SOL    HW235907   4.055   3.830   4.215 -1.3891  0.2353 -1.2648
 8230SOL     OW35908   1.980   2.056   3.253 -0.4012 -0.1505  0.2597
 8230SOL    HW135909   1.952   1.988   3.186 -0.2626 -0.9820  1.0419
 8230SOL    HW235910   1.978   2.016   3.345  2.4768  0.0002  0.4329
 8231SOL     OW35911   2.028   9.565   1.867 -0.5957  0.5024 -0.8653
 8231SOL    HW135912   2.103   9.596   1.926 -0.3273 -0.4766 -0.6767
 8231SOL    HW235913   1.945   9.616   1.890 -0.5651 -0.0668  0.5797
 8232SOL     OW35914   8.306   5.191   4.270 -0.4848 -0.0405 -0.0836
 8232SOL    HW135915   8.343   5.197   4.362 -1.2439  0.3508  0.2011
 8232SOL    HW235916   8.350   5.260   4.212  0.0979 -0.3854 -0.0538
 8233SOL     OW35917   1.432   8.912   2.089 -0.1017  0.5061  0.1915
 8233SOL    HW135918   1.515   8.856   2.094  0.7983  1.9655  2.6891
 8233SOL    HW235919   1.354   8.858   2.122  0.4521  0.1522  0.9392
 8234SOL     OW35920   1.814   8.409   0.589 -0.6227 -0.5400 -0.0929
 8234SOL    HW135921   1.774   8.474   0.654 -2.2111 -1.0530 -0.5441
 8234SOL    HW235922   1.880   8.351   0.636 -0.1213  0.5726  0.5837
 8235SOL     OW35923   0.598   3.680   4.107 -0.6267  0.0637 -0.3172
 8235SOL    HW135924   0.667   3.686   4.180 -0.2710 -1.2393 -0.5213
 8235SOL    HW235925   0.552   3.768   4.097 -0.3006  0.4180  1.1154
 8236SOL     OW35926   4.712   4.357   2.351  0.8234  0.1569  0.3580
 8236SOL    HW135927   4.721   4.353   2.252 -1.5130  1.8660  0.0367
 8236SOL    HW235928   4.703   4.265   2.388  0.6857 -0.4242 -1.1217
 8237SOL     OW35929   9.044   0.401   1.603 -0.1607  0.3648 -0.1405
 8237SOL    HW135930   9.065   0.396   1.701  1.0776 -0.9961 -0.4563
 8237SOL    HW235931   9.043   0.496   1.574 -3.2595  0.9819  1.7543
 8238SOL     OW35932   5.927   8.281   3.992  0.9270  1.0411 -0.3823
 8238SOL    HW135933   5.892   8.343   3.921  1.6540 -0.4837 -2.1272
 8238SOL    HW235934   5.963   8.198   3.948 -0.4510 -0.8222  1.9529
 8239SOL     OW35935   4.151   0.521   2.038 -0.2270  0.3739  0.5679
 8239SOL    HW135936   4.194   0.606   2.007 -0.2191  0.2883  0.3406
 8239SOL    HW235937   4.146   0.520   2.138 -0.9259  0.9841  0.5371
 8240SOL     OW35938   7.825   4.190   5.430  0.1867 -0.2392 -0.5096
 8240SOL    HW135939   7.803   4.286   5.415 -0.7876 -0.3517  0.0916
 8240SOL    HW235940   7.855   4.177   5.524 -1.9014 -0.8761  0.0943
 8241SOL     OW35941   3.347   8.733   3.310 -0.2253  0.3471 -0.4076
 8241SOL    HW135942   3.286   8.723   3.231  0.9660  0.9291 -1.4147
 8241SOL    HW235943   3.422   8.667   3.302 -1.1112 -0.8775  1.2079
 8242SOL     OW35944   8.827   8.507   5.622 -0.3313  0.4095  0.8092
 8242SOL    HW135945   8.858   8.419   5.588  1.1419  0.4240  2.0681
 8242SOL    HW235946   8.859   8.580   5.561 -1.0952  0.1269  0.0630
 8243SOL     OW35947   8.032   8.455   2.425 -0.4994  0.4923 -0.0423
 8243SOL    HW135948   7.966   8.503   2.482 -0.3945  0.3349  0.2108
 8243SOL    HW235949   8.001   8.456   2.330 -0.5886  0.9016 -0.0108
 8244SOL     OW35950   0.423   0.678   5.957 -0.3487  0.1888  0.4807
 8244SOL    HW135951   0.471   0.761   5.929  1.2669 -0.5490  0.9770
 8244SOL    HW235952   0.380   0.636   5.877  1.1627  0.0442 -0.2861
 8245SOL     OW35953   7.745   0.161   6.708  0.0133 -0.2469  0.6333
 8245SOL    HW135954   7.697   0.245   6.734 -1.1529 -0.8219  0.3670
 8245SOL    HW235955   7.725   0.090   6.775  0.6531 -0.4320  0.6232
 8246SOL     OW35956   0.480   3.196   6.386 -0.0492 -0.1653 -0.5158
 8246SOL    HW135957   0.565   3.156   6.351 -0.1278  0.2935 -1.2426
 8246SOL    HW235958   0.446   3.264   6.321 -0.2891  0.5814  0.3791
 8247SOL     OW35959   4.067   1.102   0.589 -0.3095 -0.3510 -0.2711
 8247SOL    HW135960   3.986   1.154   0.616 -0.0243  0.5289 -1.0693
 8247SOL    HW235961   4.135   1.107   0.663  0.8789  2.9227 -1.4632
 8248SOL     OW35962   2.256   7.757   0.002 -0.3779  0.3061 -0.1376
 8248SOL    HW135963   2.212   7.787  -0.082 -1.2571  0.1616  0.2666
 8248SOL    HW235964   2.210   7.676   0.038  0.8474 -0.4475 -0.2420
 8249SOL     OW35965   6.545   9.814   3.502  0.0686 -0.1007 -0.0569
 8249SOL    HW135966   6.635   9.851   3.483  0.2260  0.6646  2.0662
 8249SOL    HW235967   6.552   9.746   3.575 -1.2238  0.7447  0.8677
 8250SOL     OW35968   2.224   8.133   3.379  0.2969 -0.5001  0.2753
 8250SOL    HW135969   2.191   8.088   3.462  0.0290 -2.0170 -0.6313
 8250SOL    HW235970   2.297   8.078   3.339  0.6106  0.3668 -0.3367
 8251SOL     OW35971   7.246   4.150   1.477  0.3048 -0.2565  0.5402
 8251SOL    HW135972   7.283   4.198   1.556 -0.5028  1.5473 -0.1385
 8251SOL    HW235973   7.282   4.056   1.474  1.1117 -0.0283  2.4630
 8252SOL     OW35974   8.556   4.950   2.528  0.5663 -0.3747  0.0121
 8252SOL    HW135975   8.504   4.989   2.452 -1.6109 -1.9814  0.6338
 8252SOL    HW235976   8.580   5.023   2.592  0.1987  0.6028 -0.9478
 8253SOL     OW35977   8.788   5.150   5.819 -0.1520 -0.4917 -0.5398
 8253SOL    HW135978   8.691   5.174   5.812 -0.6577 -1.3165  2.9729
 8253SOL    HW235979   8.830   5.200   5.895  2.0015 -0.7446 -1.5298
 8254SOL     OW35980   3.441   6.031   5.612  0.1864  0.3560  0.4550
 8254SOL    HW135981   3.398   5.969   5.546 -0.0758 -0.1249  1.0733
 8254SOL    HW235982   3.454   5.984   5.699  1.5561  0.6444  0.4167
 8255SOL     OW35983   4.848   0.306   2.793 -0.1418 -0.0949 -0.5768
 8255SOL    HW135984   4.801   0.376   2.738  0.0088 -0.3039 -0.9729
 8255SOL    HW235985   4.848   0.219   2.743  0.5109 -0.1396 -0.5017
 8256SOL     OW35986   2.034   9.258   5.860 -0.1110 -0.3352  0.0434
 8256SOL    HW135987   1.998   9.265   5.953 -1.1385 -1.5783 -0.2519
 8256SOL    HW235988   2.044   9.350   5.822 -0.7742  0.1328  0.9675
 8257SOL     OW35989   0.978   9.676   2.647  0.3614 -0.4596 -0.1225
 8257SOL    HW135990   1.020   9.763   2.623  1.9882 -1.5708 -1.4119
 8257SOL    HW235991   0.916   9.689   2.725 -0.8567  2.1980 -1.4626
 8258SOL     OW35992   9.922   4.788   0.181 -0.1042  0.5317 -0.8385
 8258SOL    HW135993   9.969   4.724   0.243  1.2667  1.3428 -1.0126
 8258SOL    HW235994   9.988   4.823   0.114 -1.1660  1.0741 -1.6025
 8259SOL     OW35995   4.143   0.560   2.320 -0.0741  0.4019 -0.2920
 8259SOL    HW135996   4.045   0.548   2.334  0.2033 -0.7070  0.7125
 8259SOL    HW235997   4.176   0.637   2.375 -0.2464  0.3082 -0.0600
 8260SOL     OW35998   2.127   4.763   6.297 -0.3063 -0.5197  0.1636
 8260SOL    HW135999   2.051   4.698   6.296  0.1169 -1.0141 -1.9335
 8260SOL    HW236000   2.158   4.780   6.203 -0.5815  2.9411  0.6181
 8261SOL     OW36001   6.942   2.089   5.774 -0.1299  0.0973 -0.4624
 8261SOL    HW136002   6.975   2.094   5.680 -0.3907  2.3226 -0.4569
 8261SOL    HW236003   6.973   2.169   5.825 -1.1387 -0.4027  0.9835
 8262SOL     OW36004   3.075   2.362   0.121 -0.0074 -1.1621  0.4329
 8262SOL    HW136005   3.137   2.440   0.128 -1.3151  0.1476 -1.7101
 8262SOL    HW236006   3.002   2.371   0.189 -1.4606  0.7933 -1.2995
 8263SOL     OW36007   0.117   4.353   4.566  0.2828  0.3009  0.4050
 8263SOL    HW136008   0.133   4.376   4.662  1.9883 -0.7032  0.3868
 8263SOL    HW236009   0.143   4.257   4.551 -0.5882  0.2699 -0.9185
 8264SOL     OW36010   4.591   5.822   2.731  0.2764 -0.4383 -0.2175
 8264SOL    HW136011   4.660   5.884   2.694 -1.3078  1.1780 -0.5532
 8264SOL    HW236012   4.548   5.864   2.812 -0.1989 -1.4901  0.0859
 8265SOL     OW36013   8.233   9.893   4.654 -0.5531  0.3021  0.3778
 8265SOL    HW136014   8.147   9.909   4.605 -1.7336 -0.9587  2.0020
 8265SOL    HW236015   8.280   9.980   4.666 -1.8895  1.0995 -0.0020
 8266SOL     OW36016   6.948   7.679   2.827 -0.0836 -0.2521  0.0052
 8266SOL    HW136017   6.976   7.736   2.750 -0.5655  0.8193  0.6043
 8266SOL    HW236018   7.007   7.598   2.832 -0.1363 -0.3909 -1.5522
 8267SOL     OW36019   7.336   0.489   6.753 -0.1151 -0.1021 -0.4681
 8267SOL    HW136020   7.369   0.519   6.842 -2.0756 -1.1018  0.6537
 8267SOL    HW236021   7.292   0.566   6.706  1.0121  0.4525 -0.6183
 8268SOL     OW36022   1.107   1.315   2.190 -0.2773  0.0213 -0.3045
 8268SOL    HW136023   1.183   1.354   2.136  0.8283 -1.1991  0.3443
 8268SOL    HW236024   1.085   1.224   2.156 -2.6215  1.0170 -1.5800
 8269SOL     OW36025   1.159   9.491   4.778 -0.3131  0.4186  0.0530
 8269SOL    HW136026   1.194   9.411   4.729  0.2815  0.2878  0.6791
 8269SOL    HW236027   1.153   9.470   4.875 -0.9060  0.8785  0.1176
 8270SOL     OW36028   2.071   1.333   5.903  0.0564  0.1192 -0.3443
 8270SOL    HW136029   2.165   1.315   5.933 -0.4768 -1.6444  0.3111
 8270SOL    HW236030   2.010   1.265   5.942 -1.3440  0.5583 -1.7214
 8271SOL     OW36031   0.838   7.283   5.672 -0.1013  0.2231 -0.5610
 8271SOL    HW136032   0.914   7.283   5.606  1.7116  0.3957  1.4582
 8271SOL    HW236033   0.821   7.376   5.703  1.3831 -0.2461  1.7617
 8272SOL     OW36034   2.762   1.675   4.512 -0.4151 -0.0925 -0.5133
 8272SOL    HW136035   2.815   1.732   4.575 -0.2054 -2.8712  1.9433
 8272SOL    HW236036   2.735   1.729   4.433 -0.8538  3.5908  2.0349
 8273SOL     OW36037   0.652   0.384   1.141  0.6804  0.0698 -0.1177
 8273SOL    HW136038   0.639   0.483   1.155 -1.3578 -0.2281  0.3104
 8273SOL    HW236039   0.600   0.355   1.061 -0.1093 -0.9408  0.7477
 8274SOL     OW36040   4.285   7.424   2.619 -0.0892  0.6389 -0.0298
 8274SOL    HW136041   4.217   7.450   2.687 -0.8742 -1.9855  0.2437
 8274SOL    HW236042   4.375   7.419   2.662 -0.2918  0.7886  0.4096
 8275SOL     OW36043   4.588   4.166   3.970 -0.0010  0.4401  0.3423
 8275SOL    HW136044   4.578   4.076   4.012 -0.7710 -1.2725 -3.3098
 8275SOL    HW236045   4.678   4.172   3.926 -0.4398  1.0045 -0.4733
 8276SOL     OW36046   6.085   4.278   1.014 -0.2281 -0.1265 -0.2685
 8276SOL    HW136047   5.996   4.284   1.060  0.1069  1.1440  0.2344
 8276SOL    HW236048   6.071   4.259   0.917 -1.1103  1.4303 -0.4616
 8277SOL     OW36049   7.932   7.649   3.855  0.1723  0.3766 -0.2918
 8277SOL    HW136050   7.936   7.704   3.771 -0.4056 -1.1503 -1.3366
 8277SOL    HW236051   7.894   7.560   3.834  0.5469 -0.2197  1.5163
 8278SOL     OW36052   3.997   7.231   3.271 -0.3655 -0.3038  0.1118
 8278SOL    HW136053   4.016   7.135   3.250 -0.4565 -0.4619  0.7581
 8278SOL    HW236054   3.936   7.237   3.350 -2.4112  0.2220 -1.4678
 8279SOL     OW36055   0.657   4.921   1.953  0.1060  0.2863  0.0990
 8279SOL    HW136056   0.606   4.995   1.909 -1.9889 -0.8447  0.5828
 8279SOL    HW236057   0.683   4.853   1.885 -2.1259 -0.8848  0.3739
 8280SOL     OW36058   2.652   3.119   2.537  0.3746  0.0962 -0.2418
 8280SOL    HW136059   2.690   3.134   2.628 -2.1557 -0.0733  0.8784
 8280SOL    HW236060   2.671   3.198   2.479  1.3913  0.5037  0.6256
 8281SOL     OW36061   4.245   9.443   6.300 -0.4408 -0.4730 -0.0942
 8281SOL    HW136062   4.194   9.364   6.333  0.3379 -1.2459 -0.7281
 8281SOL    HW236063   4.329   9.453   6.352 -0.8087  0.3018  0.3768
 8282SOL     OW36064   8.119   4.621   6.323  0.0796  0.2660 -0.0444
 8282SOL    HW136065   8.025   4.587   6.330 -0.0694  0.9587  1.5973
 8282SOL    HW236066   8.120   4.718   6.345  1.4442 -0.1669  1.9906
 8283SOL     OW36067   7.418   9.793   3.542  0.7963 -0.0705  0.0025
 8283SOL    HW136068   7.475   9.859   3.493 -1.2470  0.6307 -1.5097
 8283SOL    HW236069   7.322   9.819   3.532  0.1301 -1.7907  1.6562
 8284SOL     OW36070   2.210   5.622   2.406  0.1708  0.3241 -0.4046
 8284SOL    HW136071   2.234   5.601   2.311  0.3309 -1.0417 -0.0770
 8284SOL    HW236072   2.269   5.570   2.467 -0.1360  0.9647  0.4467
 8285SOL     OW36073   2.442   1.706   4.533 -0.3722  0.6025  0.4843
 8285SOL    HW136074   2.397   1.723   4.620 -1.9432 -1.7596  0.1588
 8285SOL    HW236075   2.531   1.665   4.548  0.5213  2.6454  1.0243
 8286SOL     OW36076   9.818   2.161   6.387 -0.1573  0.1619 -0.5343
 8286SOL    HW136077   9.859   2.073   6.367  0.0976  0.5219 -1.6171
 8286SOL    HW236078   9.772   2.197   6.306  0.9707  1.6823 -0.5262
 8287SOL     OW36079   3.232   6.504   5.696  0.2096  1.0407 -0.5723
 8287SOL    HW136080   3.213   6.494   5.599 -0.5382 -4.5182 -0.0090
 8287SOL    HW236081   3.314   6.451   5.720 -0.1334  1.5972  1.9622
 8288SOL     OW36082   9.696   5.311   2.361 -0.0439 -0.4389  0.0258
 8288SOL    HW136083   9.683   5.379   2.433  1.9454 -0.8881  0.8451
 8288SOL    HW236084   9.783   5.264   2.375 -0.8797 -2.4024 -1.1545
 8289SOL     OW36085   6.852   1.534   4.425  0.2192 -0.6188 -0.5584
 8289SOL    HW136086   6.802   1.490   4.350 -0.5999  1.4117 -1.2392
 8289SOL    HW236087   6.915   1.602   4.387  0.7408 -0.4918  0.5276
 8290SOL     OW36088   3.208   1.314   5.370  0.7512  0.0599  0.4289
 8290SOL    HW136089   3.157   1.290   5.288  2.3310 -0.1569 -0.5181
 8290SOL    HW236090   3.253   1.402   5.358  0.4965  0.3154  1.2986
 8291SOL     OW36091   3.022   8.311   6.194  1.0802  0.1223  0.2008
 8291SOL    HW136092   3.095   8.374   6.168  0.5620 -0.2116 -2.1390
 8291SOL    HW236093   2.969   8.286   6.114  0.1969 -1.9465  1.3865
 8292SOL     OW36094   4.918   1.119   2.733  0.0452 -0.3261 -0.0952
 8292SOL    HW136095   4.956   1.117   2.825 -2.4737 -1.7302  0.9707
 8292SOL    HW236096   4.911   1.026   2.697 -1.5925 -0.0405 -0.5684
 8293SOL     OW36097   2.486   4.757   6.732  0.1153  0.1976 -0.5645
 8293SOL    HW136098   2.424   4.834   6.743 -0.7916 -0.1308 -2.9169
 8293SOL    HW236099   2.495   4.735   6.634 -0.1062 -3.0191  0.0827
 8294SOL     OW36100   0.477   2.440   1.823  0.1941  0.3115  0.4824
 8294SOL    HW136101   0.431   2.430   1.735 -0.3392  0.7074  0.7121
 8294SOL    HW236102   0.421   2.496   1.884 -0.6182 -1.9864  1.9288
 8295SOL     OW36103   2.179   7.843   6.504 -0.0567 -0.3186  0.3422
 8295SOL    HW136104   2.277   7.821   6.502  0.2782  1.1380  0.0989
 8295SOL    HW236105   2.137   7.814   6.419  0.9472  2.4681 -1.1522
 8296SOL     OW36106   6.247   5.523   0.146  0.2663 -0.0962 -0.2034
 8296SOL    HW136107   6.307   5.444   0.157  1.3271  0.7653  0.3153
 8296SOL    HW236108   6.162   5.508   0.197  0.8905 -0.4603  0.7455
 8297SOL     OW36109   0.878   5.354   3.588  1.0515  0.4529 -0.4731
 8297SOL    HW136110   0.932   5.312   3.661  0.2899 -0.3090 -0.3370
 8297SOL    HW236111   0.824   5.284   3.542 -0.1835  1.2559 -0.2923
 8298SOL     OW36112   3.420   7.675   3.908 -0.0734 -0.3873  0.0292
 8298SOL    HW136113   3.383   7.661   3.816 -3.4437  1.6889  1.0046
 8298SOL    HW236114   3.455   7.768   3.916 -0.8079 -0.1972  1.1747
 8299SOL     OW36115   8.394   7.062   1.126 -0.1119 -0.0096  0.1086
 8299SOL    HW136116   8.459   7.127   1.086 -0.8832  0.3936 -0.5050
 8299SOL    HW236117   8.319   7.047   1.062  0.0452 -1.4969  0.2529
 8300SOL     OW36118   7.870   1.730   4.517 -0.4759  0.4373 -0.0464
 8300SOL    HW136119   7.954   1.707   4.565 -0.1785  1.3248 -0.1268
 8300SOL    HW236120   7.815   1.791   4.574  0.9461  3.3962 -1.7135
 8301SOL     OW36121   4.094   2.415   1.469  0.0909 -0.2367 -0.0172
 8301SOL    HW136122   4.040   2.451   1.545  0.0254  1.6397 -0.9247
 8301SOL    HW236123   4.035   2.402   1.389  0.6883  0.4491 -0.5762
 8302SOL     OW36124   0.877   2.530   2.904 -0.5318  0.0326  0.0670
 8302SOL    HW136125   0.860   2.584   2.822  0.8978 -1.1966 -1.0631
 8302SOL    HW236126   0.974   2.532   2.927 -0.4087 -2.1808 -0.1086
 8303SOL     OW36127   3.092   0.076   4.949  0.2530 -0.1692  0.1959
 8303SOL    HW136128   3.143   0.056   4.866  0.6014  1.6952 -0.0491
 8303SOL    HW236129   3.121   0.014   5.022  0.0018 -1.7495 -1.0273
 8304SOL     OW36130   2.922   0.093   1.473 -0.1002 -0.4849  0.3268
 8304SOL    HW136131   2.827   0.121   1.462  0.3269  0.5718 -0.8134
 8304SOL    HW236132   2.925  -0.002   1.506 -1.5512 -1.4003 -2.0226
 8305SOL     OW36133   3.284   3.090   1.289  0.1530  0.0469 -0.2540
 8305SOL    HW136134   3.222   3.077   1.366 -2.6628  0.7466 -2.3325
 8305SOL    HW236135   3.301   3.188   1.277 -0.0752 -0.0058 -1.0142
 8306SOL     OW36136   0.063   1.921   1.451  0.4536  0.1615  0.4914
 8306SOL    HW136137  -0.002   1.917   1.527  1.8838  0.5302  1.7628
 8306SOL    HW236138   0.078   2.016   1.424  1.8186  0.2205  1.4104
 8307SOL     OW36139   0.344   0.921   0.261 -0.4677  0.4547 -0.3273
 8307SOL    HW136140   0.375   0.974   0.181  0.6856  1.3927  0.7156
 8307SOL    HW236141   0.358   0.824   0.243  2.5976  0.7985 -0.1656
 8308SOL     OW36142   4.480   5.951   1.021  0.3700 -0.1782  0.0968
 8308SOL    HW136143   4.439   5.946   0.930 -1.4158 -1.0931  0.9120
 8308SOL    HW236144   4.571   5.991   1.015 -0.8305  2.3855 -1.7376
 8309SOL     OW36145   9.958   9.266   6.214 -0.3126  0.1398  0.1976
 8309SOL    HW136146   9.991   9.350   6.257 -0.2319 -0.2567  0.9131
 8309SOL    HW236147  10.004   9.187   6.256 -0.1014 -0.2347 -0.7344
 8310SOL     OW36148   0.265   8.018   5.760 -0.0135 -0.5008  0.5235
 8310SOL    HW136149   0.359   7.994   5.737 -0.7250 -1.7232 -1.1677
 8310SOL    HW236150   0.251   8.116   5.745  0.1868 -0.8375 -2.1790
 8311SOL     OW36151   3.066   8.205   2.723  0.5635 -0.5542  0.4075
 8311SOL    HW136152   3.031   8.197   2.629 -0.5250 -1.0148  0.8399
 8311SOL    HW236153   3.044   8.296   2.758 -2.3321 -1.6144  1.4924
 8312SOL     OW36154   0.367   1.952   2.018 -0.6353  0.1199 -0.3199
 8312SOL    HW136155   0.434   2.009   1.971 -0.6721  0.0443 -0.4677
 8312SOL    HW236156   0.275   1.984   1.996 -0.6154  1.1261  1.0499
 8313SOL     OW36157   7.641   2.243   4.113 -0.3051  0.5561  0.2798
 8313SOL    HW136158   7.641   2.146   4.137  0.0850  0.3566 -0.5339
 8313SOL    HW236159   7.589   2.257   4.029  0.8507  0.8526 -0.3933
 8314SOL     OW36160   7.563   5.110   1.160 -0.3730 -0.2945 -0.1980
 8314SOL    HW136161   7.580   5.166   1.241  0.1267  0.1005 -0.5696
 8314SOL    HW236162   7.643   5.113   1.100 -1.0322  0.0570 -1.0733
 8315SOL     OW36163   1.066   5.927   3.764 -0.9508 -0.4261  0.0182
 8315SOL    HW136164   1.132   5.985   3.813 -0.6990 -0.6391 -0.0679
 8315SOL    HW236165   1.075   5.833   3.796 -1.6278 -0.3541  0.4390
 8316SOL     OW36166   7.041   1.701   1.567  0.1840  0.0106  0.1877
 8316SOL    HW136167   7.134   1.687   1.601 -0.1915 -0.2290  1.1168
 8316SOL    HW236168   7.039   1.781   1.507  0.9235  0.2005  0.4190
 8317SOL     OW36169   5.627   9.210   3.919  0.3176  0.5874 -0.1127
 8317SOL    HW136170   5.572   9.170   3.846  0.0280 -0.4935  0.6849
 8317SOL    HW236171   5.626   9.310   3.910 -0.1295  0.4901 -1.2793
 8318SOL     OW36172   2.361   8.227   2.482  0.4946  0.3795 -1.0465
 8318SOL    HW136173   2.369   8.196   2.387 -0.2503  1.0246 -1.3198
 8318SOL    HW236174   2.298   8.167   2.531 -0.3557  0.9973 -1.3774
 8319SOL     OW36175   4.112   0.846   0.456 -0.3243  0.2033  0.3187
 8319SOL    HW136176   4.179   0.789   0.504  1.0992  1.0556 -0.6461
 8319SOL    HW236177   4.078   0.917   0.518  0.8076  0.7221  0.3537
 8320SOL     OW36178   3.178   1.147   3.602  0.7844 -0.0055 -0.4154
 8320SOL    HW136179   3.181   1.105   3.693 -1.8908  0.7343  0.0479
 8320SOL    HW236180   3.215   1.240   3.607 -0.7404  0.5875  0.2736
 8321SOL     OW36181   9.392   2.146   0.585 -0.1053  0.4233  0.1747
 8321SOL    HW136182   9.447   2.167   0.504  0.8885  0.8993  0.9669
 8321SOL    HW236183   9.301   2.186   0.575 -0.2458 -0.1637 -1.0342
 8322SOL     OW36184   5.503   8.103   4.334  0.0293  0.2620 -0.1554
 8322SOL    HW136185   5.508   8.093   4.434 -2.4901 -1.0136 -0.1120
 8322SOL    HW236186   5.566   8.039   4.292  0.8189  0.5214  0.6116
 8323SOL     OW36187   3.856   5.572   1.106  0.6189 -0.2976  0.3005
 8323SOL    HW136188   3.897   5.599   1.018 -1.1471  1.7131  0.0549
 8323SOL    HW236189   3.776   5.514   1.089  1.1678 -1.1809  0.6629
 8324SOL     OW36190   7.171   1.177   4.776  0.7397  0.4643 -0.2478
 8324SOL    HW136191   7.080   1.136   4.771  0.1952  1.5453  0.5139
 8324SOL    HW236192   7.166   1.271   4.742  1.6986  0.3343 -0.7536
 8325SOL     OW36193   2.968   5.095   1.712 -0.0137 -0.0631  0.8179
 8325SOL    HW136194   2.983   5.190   1.738  1.4770  0.0696 -0.4834
 8325SOL    HW236195   2.882   5.063   1.753 -0.3522  1.7150  1.5568
 8326SOL     OW36196   3.049   4.422   3.967  0.6661  0.2876  0.0513
 8326SOL    HW136197   3.039   4.389   3.873  0.2508  0.0977  0.1601
 8326SOL    HW236198   3.060   4.344   4.029  0.1358  0.3731  0.2539
 8327SOL     OW36199   9.215   6.044   6.676 -1.1135  0.5308  0.6114
 8327SOL    HW136200   9.237   6.097   6.595  0.7545  0.4487  1.0361
 8327SOL    HW236201   9.223   5.946   6.656  1.7621  0.5448  1.5032
 8328SOL     OW36202   6.259   0.976   5.243  0.2656 -0.2119  0.2426
 8328SOL    HW136203   6.338   1.033   5.222 -1.3543  1.2740 -2.0773
 8328SOL    HW236204   6.220   1.005   5.331  1.2035  0.2870  0.5051
 8329SOL     OW36205   8.052   8.247   2.580  0.2517 -0.4427  0.6067
 8329SOL    HW136206   8.100   8.269   2.665  0.9177 -1.4630  0.5132
 8329SOL    HW236207   8.058   8.324   2.516 -0.1702  0.2899  1.4451
 8330SOL     OW36208   2.652   8.308   2.194  0.3863  0.1246 -0.3254
 8330SOL    HW136209   2.584   8.250   2.150  1.3156 -0.1782 -1.3927
 8330SOL    HW236210   2.742   8.289   2.155  1.0607  0.6276  0.9599
 8331SOL     OW36211   4.467   2.092   1.153  0.1690 -0.0977 -0.3430
 8331SOL    HW136212   4.554   2.058   1.188 -0.9692  0.0650  2.8192
 8331SOL    HW236213   4.397   2.021   1.162 -0.6003  0.6444 -0.4250
 8332SOL     OW36214   1.424   2.258   3.844 -0.3221 -0.0446 -0.3240
 8332SOL    HW136215   1.510   2.236   3.799  0.1531  1.8650 -0.3906
 8332SOL    HW236216   1.401   2.187   3.910  0.4877 -1.3635 -1.4291
 8333SOL     OW36217   6.736   1.350   2.441 -0.2681  0.0248  0.2058
 8333SOL    HW136218   6.747   1.419   2.512 -1.2326  0.2201  0.1829
 8333SOL    HW236219   6.676   1.277   2.474  0.7037 -0.7767  0.2096
 8334SOL     OW36220   1.189   4.963   6.690  0.1776 -0.6320  0.4230
 8334SOL    HW136221   1.269   4.903   6.692  0.5919 -0.0594  1.2679
 8334SOL    HW236222   1.196   5.030   6.763 -1.1860 -0.7089  0.6362
 8335SOL     OW36223   3.450   1.136   5.275  0.1301 -0.2014  0.5153
 8335SOL    HW136224   3.504   1.188   5.209  0.4140  1.9807  2.4070
 8335SOL    HW236225   3.369   1.188   5.302 -0.1445 -1.1782  1.6542
 8336SOL     OW36226   6.635   0.575   2.463  0.1813 -0.6473  0.3417
 8336SOL    HW136227   6.615   0.585   2.365  1.8543 -0.4816  0.0080
 8336SOL    HW236228   6.721   0.525   2.474  0.3118 -0.1161  1.7281
 8337SOL     OW36229   0.662   9.915   6.025 -0.4343 -0.4808 -0.7360
 8337SOL    HW136230   0.635   9.837   5.968  2.0803 -1.8585 -0.1165
 8337SOL    HW236231   0.632   9.900   6.119  1.5061 -1.5398 -0.2593
 8338SOL     OW36232   3.596   9.012   2.751 -0.4883 -0.3492 -0.2275
 8338SOL    HW136233   3.677   9.040   2.699  0.3662  0.5711  1.5600
 8338SOL    HW236234   3.595   8.913   2.761  0.4661 -0.3549 -0.1625
 8339SOL     OW36235   2.750   1.640   3.740  0.0029  0.4174 -0.0833
 8339SOL    HW136236   2.846   1.614   3.729  0.7865  2.7553  0.6984
 8339SOL    HW236237   2.746   1.728   3.787 -2.5010  0.9642 -1.2602
 8340SOL     OW36238   6.972   8.635   3.522 -0.2999 -0.5297  0.1812
 8340SOL    HW136239   6.935   8.551   3.484  0.4577 -0.8082  0.0444
 8340SOL    HW236240   6.899   8.689   3.562 -1.0996 -0.2821 -1.5815
 8341SOL     OW36241   4.158   3.965   4.670  0.1742  0.2603 -0.6290
 8341SOL    HW136242   4.196   3.882   4.628 -2.5697  0.0117 -2.7908
 8341SOL    HW236243   4.219   4.042   4.653  1.2455 -0.7137 -1.2856
 8342SOL     OW36244   7.673   1.581   1.357  0.3654 -0.0722 -0.1743
 8342SOL    HW136245   7.576   1.559   1.347  0.4816 -0.8101  0.3653
 8342SOL    HW236246   7.694   1.662   1.302 -1.2922  2.1740  2.3674
 8343SOL     OW36247   3.565   4.793   0.762 -0.3977 -0.4907 -0.3745
 8343SOL    HW136248   3.645   4.837   0.803 -1.0217  0.9741 -0.6865
 8343SOL    HW236249   3.484   4.816   0.815 -1.0480  0.5315 -1.7687
 8344SOL     OW36250   5.026   6.473   1.664 -0.8778  0.3124 -0.6501
 8344SOL    HW136251   4.940   6.421   1.666 -0.6825  0.0515  2.8737
 8344SOL    HW236252   5.103   6.410   1.673 -0.4880  0.8745 -0.0412
 8345SOL     OW36253   8.731   4.231   5.315 -0.4541  0.3710  0.1605
 8345SOL    HW136254   8.752   4.146   5.266 -2.6145 -0.2117  0.1779
 8345SOL    HW236255   8.729   4.214   5.413 -3.2189 -0.1687  0.0653
 8346SOL     OW36256   0.971   6.668   6.535  0.1688  0.1884 -0.4932
 8346SOL    HW136257   1.014   6.654   6.446  0.6753 -1.1533 -0.0616
 8346SOL    HW236258   0.889   6.610   6.542  0.4989 -0.2040  0.1538
 8347SOL     OW36259   4.334   9.595   3.391  0.2761  0.2030 -1.0400
 8347SOL    HW136260   4.398   9.519   3.403  0.7270  0.6998 -0.2524
 8347SOL    HW236261   4.277   9.579   3.310 -1.9619 -2.6199  1.0235
 8348SOL     OW36262   4.661   4.551   6.566  0.0024  0.8510  0.7720
 8348SOL    HW136263   4.669   4.651   6.562  0.9132  0.7536 -0.1741
 8348SOL    HW236264   4.659   4.522   6.662  2.0017  1.6321  1.0896
 8349SOL     OW36265   6.909   0.298   3.304 -0.0343 -0.6290  0.8202
 8349SOL    HW136266   6.943   0.309   3.397  0.3416  0.4084  0.5647
 8349SOL    HW236267   6.826   0.353   3.292 -0.5241 -1.3597  0.7605
 8350SOL     OW36268   9.010   9.377   6.498 -0.3797 -0.5604 -0.0275
 8350SOL    HW136269   8.975   9.315   6.427  1.5430  0.2311 -1.7150
 8350SOL    HW236270   8.933   9.421   6.545 -1.7047 -2.1315 -0.6945
 8351SOL     OW36271   6.577   0.316   0.987 -0.2816 -0.3028  0.7572
 8351SOL    HW136272   6.597   0.219   0.969 -0.2337 -0.3689  1.1651
 8351SOL    HW236273   6.491   0.323   1.038 -1.4826 -0.0008 -1.2698
 8352SOL     OW36274   6.646   9.412   4.768 -0.0188 -0.5845 -0.0221
 8352SOL    HW136275   6.697   9.326   4.763 -0.8251 -1.0485 -0.4181
 8352SOL    HW236276   6.689   9.473   4.834  0.0741 -1.6241  0.8775
 8353SOL     OW36277   6.767   2.404   3.650 -0.4199  0.3359  0.1157
 8353SOL    HW136278   6.835   2.478   3.655 -1.0388  0.9373 -0.3791
 8353SOL    HW236279   6.798   2.327   3.706  0.7096  0.5799 -0.1638
 8354SOL     OW36280   3.094   8.463   4.182  0.2428  0.2052 -0.5765
 8354SOL    HW136281   3.034   8.413   4.119  1.1862 -1.1474 -0.4122
 8354SOL    HW236282   3.099   8.414   4.269 -0.2805  1.5614  0.2383
 8355SOL     OW36283   1.198   1.817   0.221  0.2427  0.3495 -0.1291
 8355SOL    HW136284   1.099   1.826   0.234  0.4851  0.1335  2.1811
 8355SOL    HW236285   1.242   1.905   0.238  0.4553  0.4004 -0.9613
 8356SOL     OW36286   2.283   6.385   1.804 -0.3187 -0.4522 -0.0782
 8356SOL    HW136287   2.238   6.333   1.732  1.3048 -0.7476 -0.9098
 8356SOL    HW236288   2.364   6.334   1.836 -0.1763  0.3695  0.9042
 8357SOL     OW36289   0.502   4.371   1.818 -0.2403  0.4787 -0.1209
 8357SOL    HW136290   0.547   4.420   1.893 -0.0353 -0.1692  0.1773
 8357SOL    HW236291   0.503   4.429   1.736  2.8939 -0.2482 -0.6685
 8358SOL     OW36292   9.557   0.590   3.902 -0.0696  0.7250  0.1085
 8358SOL    HW136293   9.618   0.583   3.823 -0.2179  0.6258  0.0011
 8358SOL    HW236294   9.522   0.499   3.925 -1.6238  1.0186 -0.9813
 8359SOL     OW36295   4.875   1.051   5.187  0.2750  0.2280  0.4632
 8359SOL    HW136296   4.963   1.066   5.141  0.5082  0.0148  0.8363
 8359SOL    HW236297   4.845   1.136   5.230  0.1746  0.3659  0.1233
 8360SOL     OW36298   1.142   8.414   5.844  0.7653  0.1334 -0.1743
 8360SOL    HW136299   1.219   8.351   5.834  0.6852 -0.1007  0.6512
 8360SOL    HW236300   1.157   8.495   5.787  1.7364  0.2068  0.1767
 8361SOL     OW36301   2.461   7.696   0.457  0.2622 -0.3110 -0.3859
 8361SOL    HW136302   2.402   7.737   0.387 -0.4207  0.8693  0.8416
 8361SOL    HW236303   2.408   7.684   0.541  1.5657  0.0700  0.4999
 8362SOL     OW36304   0.274   3.730   5.081  0.5799  0.0655  0.1509
 8362SOL    HW136305   0.245   3.775   4.996 -1.4055  0.9660  1.2701
 8362SOL    HW236306   0.364   3.688   5.067 -1.3965 -3.3631 -3.7050
 8363SOL     OW36307   5.360   1.458   2.257 -0.2630 -0.0410  0.4458
 8363SOL    HW136308   5.333   1.434   2.164 -0.4651  0.0892  0.4723
 8363SOL    HW236309   5.370   1.375   2.311 -2.1893  0.0131  0.8838
 8364SOL     OW36310   1.539   8.464   0.723 -0.0813  0.4332 -0.0865
 8364SOL    HW136311   1.514   8.539   0.785  1.3375  1.3011 -0.5529
 8364SOL    HW236312   1.463   8.446   0.661 -0.5933  1.2104  0.2964
 8365SOL     OW36313   4.550   5.686   0.829  0.1825 -0.0282 -0.2412
 8365SOL    HW136314   4.634   5.659   0.782 -0.1409 -0.2050 -0.7297
 8365SOL    HW236315   4.515   5.608   0.881  0.4355  0.1096  0.1385
 8366SOL     OW36316   1.183   0.765   3.330 -0.0521 -0.1487  0.3215
 8366SOL    HW136317   1.160   0.843   3.389  1.9639  0.1123  0.8061
 8366SOL    HW236318   1.182   0.681   3.385 -0.3129 -0.1986  0.2395
 8367SOL     OW36319   0.569   2.612   2.277 -0.3196 -0.2576  0.2284
 8367SOL    HW136320   0.522   2.642   2.360  0.2767  0.2961  0.3742
 8367SOL    HW236321   0.576   2.513   2.277  2.8658 -0.1201  2.6574
 8368SOL     OW36322   4.358   9.149   3.558  0.1643 -0.1597  0.1015
 8368SOL    HW136323   4.425   9.202   3.506 -1.4438  0.5143 -1.3460
 8368SOL    HW236324   4.318   9.207   3.630 -0.6669  0.2223 -0.6566
 8369SOL     OW36325   9.370   5.126   2.727  0.2635 -0.0635  0.6614
 8369SOL    HW136326   9.301   5.190   2.760  0.7501  0.3011  0.9891
 8369SOL    HW236327   9.417   5.084   2.805 -1.0916 -1.9742  0.4640
 8370SOL     OW36328   5.482   7.222   1.532 -0.8670 -0.3296 -0.1369
 8370SOL    HW136329   5.429   7.187   1.609 -0.2692 -0.3550  0.2667
 8370SOL    HW236330   5.569   7.172   1.526  0.0134  1.1246  0.4701
 8371SOL     OW36331   2.080   3.230   5.217 -0.1502  0.2284 -0.1320
 8371SOL    HW136332   2.105   3.317   5.174  0.9135  0.6999  1.3718
 8371SOL    HW236333   2.033   3.248   5.303  0.3273 -0.6790  0.3291
 8372SOL     OW36334   0.531   1.979   4.272  0.0893  0.1839 -0.3675
 8372SOL    HW136335   0.514   2.065   4.223  0.5917  0.1291 -0.6369
 8372SOL    HW236336   0.460   1.966   4.341  1.0384  1.7223  0.9227
 8373SOL     OW36337   0.340   5.212   0.609  0.4908  0.1714  0.0377
 8373SOL    HW136338   0.247   5.249   0.598  0.7440  0.7501 -0.2318
 8373SOL    HW236339   0.335   5.115   0.631 -0.1599 -0.2242 -1.7155
 8374SOL     OW36340   8.625   3.520   3.505  0.5905 -0.2083  0.3057
 8374SOL    HW136341   8.550   3.557   3.561  0.2887  0.5800 -0.6093
 8374SOL    HW236342   8.644   3.426   3.533  0.7529  0.3150  2.0584
 8375SOL     OW36343   4.013   8.295   3.223 -0.1305 -0.4945  0.4540
 8375SOL    HW136344   4.012   8.389   3.190 -0.2470 -0.2754  1.0823
 8375SOL    HW236345   3.991   8.293   3.320 -0.5138 -1.2039  0.3590
 8376SOL     OW36346   3.622   0.790   1.878  0.2318 -0.1474  0.2252
 8376SOL    HW136347   3.558   0.740   1.937  0.5201 -0.1662  0.5196
 8376SOL    HW236348   3.645   0.732   1.799  0.4811 -0.4352  0.5102
 8377SOL     OW36349   0.987   5.997   0.945 -0.3881  0.4886 -0.2628
 8377SOL    HW136350   1.062   6.000   1.011 -0.4171 -0.6533 -0.1677
 8377SOL    HW236351   1.013   5.939   0.868 -0.2361  2.0492 -1.4185
 8378SOL     OW36352   8.392   2.916   5.826  0.0197  0.2013 -0.3711
 8378SOL    HW136353   8.296   2.902   5.800 -0.0522 -0.1028  0.0588
 8378SOL    HW236354   8.423   3.005   5.791 -0.7816  0.8375  0.4886
 8379SOL     OW36355   1.659   2.710   1.682 -0.3246 -0.0571  0.2771
 8379SOL    HW136356   1.733   2.647   1.659 -0.9482 -1.1139  1.0623
 8379SOL    HW236357   1.672   2.797   1.635  0.8762 -0.5746 -0.3615
 8380SOL     OW36358   4.858   5.367   3.193 -0.5487 -0.0304  0.4832
 8380SOL    HW136359   4.763   5.362   3.164  0.0322  0.0455 -1.5273
 8380SOL    HW236360   4.884   5.462   3.210 -1.6733 -0.3030  4.0966
 8381SOL     OW36361   9.652   8.209   5.426  0.0150 -0.2940 -0.1467
 8381SOL    HW136362   9.664   8.259   5.512  1.4408  0.6808 -0.8941
 8381SOL    HW236363   9.687   8.116   5.437  0.1258 -0.1940  0.3689
 8382SOL     OW36364   8.931   4.534   4.541  0.4482 -0.5917  0.3072
 8382SOL    HW136365   8.978   4.478   4.473 -0.0652 -1.0806  0.3597
 8382SOL    HW236366   8.911   4.624   4.502  3.2047  0.3486  0.9037
 8383SOL     OW36367   8.857   8.648   4.442 -0.2129  0.3952 -0.5233
 8383SOL    HW136368   8.802   8.608   4.369 -0.4843 -1.1358  0.4980
 8383SOL    HW236369   8.849   8.748   4.439 -2.2125  0.2335 -1.0229
 8384SOL     OW36370   1.624   8.606   0.956  0.2777  0.1459 -0.5124
 8384SOL    HW136371   1.648   8.540   1.027 -0.4833  0.7616  0.3438
 8384SOL    HW236372   1.707   8.637   0.909  1.0029  0.9339  1.2114
 8385SOL     OW36373   2.483   1.506   0.172  0.4745  0.1101 -0.0808
 8385SOL    HW136374   2.576   1.530   0.147  0.7607 -1.9675 -1.1211
 8385SOL    HW236375   2.426   1.503   0.090 -0.2907  0.3942  0.4297
 8386SOL     OW36376   3.469   4.426   5.372 -0.5838  0.4473  0.0914
 8386SOL    HW136377   3.533   4.502   5.383 -0.3710  0.3666 -0.5433
 8386SOL    HW236378   3.520   4.344   5.345 -1.0034  0.5128 -0.9486
 8387SOL     OW36379   0.202   8.720   5.833  0.0367 -0.1367 -0.2381
 8387SOL    HW136380   0.150   8.803   5.856  0.4609  0.2006 -0.4871
 8387SOL    HW236381   0.206   8.660   5.912 -0.5177 -0.0490 -0.1400
 8388SOL     OW36382   0.521   8.834   2.434  0.0996  0.2851 -0.0691
 8388SOL    HW136383   0.542   8.927   2.464 -0.1869  0.1085  0.6964
 8388SOL    HW236384   0.574   8.769   2.488  0.1422 -0.0084 -0.4618
 8389SOL     OW36385   3.151   3.657   6.559 -0.1052 -0.2973  0.2208
 8389SOL    HW136386   3.077   3.647   6.493  1.4589  2.2468 -2.0557
 8389SOL    HW236387   3.149   3.749   6.597  0.2101 -1.1191  2.2498
 8390SOL     OW36388   2.485   7.158   1.834  0.5352  0.0002 -0.2508
 8390SOL    HW136389   2.557   7.227   1.849  0.8453  0.1807 -2.4428
 8390SOL    HW236390   2.500   7.114   1.746 -2.5151  0.5949 -1.1023
 8391SOL     OW36391   7.101   4.931   0.704  0.5603  0.6876  0.8986
 8391SOL    HW136392   7.015   4.879   0.703  0.4868  0.8010  1.1582
 8391SOL    HW236393   7.090   5.012   0.761  0.9852  0.4516  1.3222
 8392SOL     OW36394   3.946   1.076   1.311 -0.1130  0.2751  0.1650
 8392SOL    HW136395   4.021   1.106   1.369  0.1949  0.1689 -0.1772
 8392SOL    HW236396   3.862   1.072   1.365  0.3241 -0.5868  0.7972
 8393SOL     OW36397   2.871   2.264   0.854 -0.2696 -0.3568 -0.2097
 8393SOL    HW136398   2.894   2.349   0.805 -1.7380 -0.2596 -0.7718
 8393SOL    HW236399   2.918   2.187   0.811  0.5843  0.0990 -0.0861
 8394SOL     OW36400   3.173   0.608   3.802  0.2413  0.9747  0.3356
 8394SOL    HW136401   3.180   0.531   3.866 -0.5827 -0.6085 -1.4599
 8394SOL    HW236402   3.191   0.577   3.709  1.2803  3.2331 -0.2686
 8395SOL     OW36403   7.171   0.098   0.490 -0.3551  0.9951 -0.1323
 8395SOL    HW136404   7.140   0.150   0.569 -0.2319  0.3488  0.3425
 8395SOL    HW236405   7.197   0.005   0.518 -1.3357  0.4081 -1.0980
 8396SOL     OW36406   8.458   8.946   1.882  0.2744  0.2545  0.1033
 8396SOL    HW136407   8.432   8.989   1.796 -1.0178  0.9012  0.8062
 8396SOL    HW236408   8.410   8.859   1.891 -0.0317  0.4520  0.4206
 8397SOL     OW36409   0.026   7.582   4.709  0.6397  0.2765  0.6380
 8397SOL    HW136410  -0.050   7.548   4.763  0.8332  0.9106  1.3106
 8397SOL    HW236411  -0.002   7.587   4.613 -0.2537  0.7600  0.9172
 8398SOL     OW36412   4.938   8.864   4.273  0.4037  0.0407 -0.6748
 8398SOL    HW136413   4.907   8.951   4.311  0.4421  1.1713 -3.0799
 8398SOL    HW236414   4.890   8.789   4.317 -1.8379  1.4590 -0.6160
 8399SOL     OW36415   7.474   6.979   2.900  0.5506 -0.3779  0.0240
 8399SOL    HW136416   7.498   6.889   2.864  3.0323 -1.1407  3.4083
 8399SOL    HW236417   7.553   7.040   2.893 -0.4600  0.9386 -0.2564
 8400SOL     OW36418   6.418   8.118   4.429 -0.0982 -0.1676 -0.5512
 8400SOL    HW136419   6.490   8.056   4.398  0.2948 -0.4838  0.9423
 8400SOL    HW236420   6.456   8.184   4.493 -1.1989 -0.5487  0.5085
 8401SOL     OW36421   1.660   6.577   2.930 -0.4730 -0.1495  0.7223
 8401SOL    HW136422   1.596   6.600   2.857  0.5105 -1.3633 -0.5516
 8401SOL    HW236423   1.682   6.659   2.981 -1.5403  0.6390 -0.0515
 8402SOL     OW36424   5.910   7.912   2.312  0.5294 -0.0654  0.2144
 8402SOL    HW136425   5.968   7.869   2.382 -0.1900 -0.0965  0.7980
 8402SOL    HW236426   5.963   7.926   2.229  2.0198  1.8863  1.4439
 8403SOL     OW36427   1.521   8.440   4.573  0.1866 -0.7055  0.0108
 8403SOL    HW136428   1.478   8.484   4.652  0.2893 -0.8822  0.1636
 8403SOL    HW236429   1.499   8.492   4.490  1.2978  0.3288  0.3556
 8404SOL     OW36430   1.787   1.874   5.069  0.1059 -0.1870  0.4507
 8404SOL    HW136431   1.760   1.779   5.055  0.4021 -0.2552  0.3520
 8404SOL    HW236432   1.854   1.901   5.000  1.4520 -0.4811  1.6222
 8405SOL     OW36433   5.612   1.548   2.884 -0.1266 -0.3030  0.3737
 8405SOL    HW136434   5.658   1.627   2.844 -1.3002  0.7661  1.0840
 8405SOL    HW236435   5.521   1.539   2.844  0.7886 -2.6247 -1.3031
 8406SOL     OW36436   1.026   0.132   4.957 -0.1816  0.0895  0.0822
 8406SOL    HW136437   1.025   0.154   4.859 -0.6900  1.7361  0.4328
 8406SOL    HW236438   0.975   0.047   4.973  1.8180 -1.4236 -1.3349
 8407SOL     OW36439   8.020   4.151   4.026  0.1252 -0.1472 -0.1942
 8407SOL    HW136440   7.991   4.163   4.120 -0.7084  2.8684 -0.7734
 8407SOL    HW236441   8.113   4.187   4.015  0.0294 -0.0186 -0.6166
 8408SOL     OW36442   7.228   0.276   3.423 -0.4957  0.5452 -0.1659
 8408SOL    HW136443   7.251   0.227   3.507 -3.6818  0.0117  0.4540
 8408SOL    HW236444   7.225   0.375   3.442 -0.5172  0.4804  0.1646
 8409SOL     OW36445   2.091   5.992   6.219 -0.3567  0.3346  0.2210
 8409SOL    HW136446   2.134   5.996   6.309  0.3676  0.1126 -0.1068
 8409SOL    HW236447   2.096   6.082   6.176  4.9214 -0.9105 -2.1359
 8410SOL     OW36448   7.864   3.037   3.271  0.1066 -0.2225  0.0752
 8410SOL    HW136449   7.900   3.090   3.348 -0.1217 -0.8168  0.6004
 8410SOL    HW236450   7.857   3.095   3.190  1.7932  0.0291  0.0884
 8411SOL     OW36451   6.189   4.586   0.599 -0.6698  0.0556  0.0216
 8411SOL    HW136452   6.256   4.658   0.618 -0.3816  0.1076 -1.1803
 8411SOL    HW236453   6.229   4.517   0.540 -1.0435 -0.9624  0.9429
 8412SOL     OW36454   1.016   9.107   3.388 -0.2754  0.3479 -0.1947
 8412SOL    HW136455   1.043   9.202   3.404 -1.0904  0.5490 -0.0377
 8412SOL    HW236456   0.986   9.066   3.473 -0.1983  0.0276 -0.3201
 8413SOL     OW36457   3.258   4.999   2.619  0.5457  0.3642 -0.0774
 8413SOL    HW136458   3.326   4.931   2.591  1.1337  1.5038 -1.4479
 8413SOL    HW236459   3.278   5.030   2.712  1.5272  0.2166 -0.2381
 8414SOL     OW36460   3.904   2.640   4.047  0.3083  0.3001  0.4372
 8414SOL    HW136461   3.849   2.556   4.044  0.4334  0.2270  0.2314
 8414SOL    HW236462   3.996   2.621   4.013  0.4650  0.4231  0.7857
 8415SOL     OW36463   4.415   2.919   3.650 -0.6643  0.2733 -0.0534
 8415SOL    HW136464   4.438   2.822   3.644 -0.4890  0.2253  1.2327
 8415SOL    HW236465   4.318   2.929   3.669 -0.3992  0.2953  1.3646
 8416SOL     OW36466   8.645   0.628   1.234 -0.2235 -0.2645  0.4567
 8416SOL    HW136467   8.702   0.710   1.228  2.9339 -2.3408  0.7596
 8416SOL    HW236468   8.606   0.621   1.326 -0.8516  1.0916  0.3021
 8417SOL     OW36469   7.956   8.020   4.989 -1.1877  0.0826 -0.4239
 8417SOL    HW136470   8.022   8.086   4.954  0.3064 -1.0183  0.2523
 8417SOL    HW236471   7.920   8.051   5.077  0.4955 -0.6186  0.5267
 8418SOL     OW36472   1.378   7.939   2.376 -0.4150  0.5874  0.1118
 8418SOL    HW136473   1.454   8.004   2.377 -0.5247  0.7123  0.5221
 8418SOL    HW236474   1.397   7.863   2.439 -0.5385  0.5182  0.0668
 8419SOL     OW36475   0.632   0.774   0.644 -0.2029  0.5781 -0.3414
 8419SOL    HW136476   0.542   0.732   0.656 -0.7850  1.9283  0.1334
 8419SOL    HW236477   0.628   0.842   0.571  0.5114  0.4351 -0.5197
 8420SOL     OW36478   0.204   0.042   6.260  0.0917 -0.2597  0.7194
 8420SOL    HW136479   0.275   0.105   6.228  0.0811 -0.5214  0.1628
 8420SOL    HW236480   0.117   0.067   6.216  0.0772 -0.6307  0.5406
 8421SOL     OW36481   1.523   4.839   3.224 -0.2850  0.2594 -0.6587
 8421SOL    HW136482   1.589   4.777   3.182 -0.4087 -0.1675 -0.2245
 8421SOL    HW236483   1.527   4.831   3.324 -0.9042  0.3198 -0.6242
 8422SOL     OW36484   9.513   8.154   1.632 -0.0091  0.8296  0.6422
 8422SOL    HW136485   9.527   8.078   1.695  1.4838  1.6869  1.3713
 8422SOL    HW236486   9.457   8.224   1.677 -0.6920  0.5337  0.2633
 8423SOL     OW36487   7.639   7.974   2.944 -0.7311 -0.0009  0.1724
 8423SOL    HW136488   7.623   7.875   2.945 -0.8005  0.0209  1.2119
 8423SOL    HW236489   7.718   7.994   2.886 -0.1270 -0.7591  0.7246
 8424SOL     OW36490   0.067   4.094   1.016 -0.3926  0.5508  0.0258
 8424SOL    HW136491  -0.023   4.063   1.047 -1.3771  0.7958 -2.4959
 8424SOL    HW236492   0.082   4.066   0.921  1.9871  0.9711  0.2304
 8425SOL     OW36493   8.362   5.216   6.187 -0.3431 -0.4136  0.3797
 8425SOL    HW136494   8.265   5.232   6.209 -0.2445  0.9595 -0.1406
 8425SOL    HW236495   8.412   5.302   6.194  0.4229 -0.6960 -1.4801
 8426SOL     OW36496   2.226   9.345   2.951 -0.1479 -0.7810  0.0475
 8426SOL    HW136497   2.176   9.324   3.035  1.4114  0.9956  1.4865
 8426SOL    HW236498   2.217   9.442   2.930  2.7013 -0.3879  0.4177
 8427SOL     OW36499   7.000   8.627   2.420 -0.3761 -0.0900 -0.1191
 8427SOL    HW136500   6.997   8.557   2.491  1.9294  0.6907  0.7905
 8427SOL    HW236501   6.952   8.709   2.451 -0.8085 -0.3328 -0.1429
 8428SOL     OW36502   4.688   5.954   2.401  0.5117 -0.3084  0.7636
 8428SOL    HW136503   4.716   6.048   2.420  0.0803  0.0507 -0.3419
 8428SOL    HW236504   4.711   5.931   2.306 -1.6548 -0.4695  0.2671
 8429SOL     OW36505   4.487   1.880   0.134 -0.6070 -0.1942  0.2235
 8429SOL    HW136506   4.571   1.896   0.185 -0.0201  1.0670 -1.1092
 8429SOL    HW236507   4.465   1.783   0.134  0.8293 -0.5192  0.6044
 8430SOL     OW36508   5.027   0.647   4.567  0.5856 -0.3114  0.7138
 8430SOL    HW136509   4.934   0.624   4.539  0.7362 -0.7908  0.5867
 8430SOL    HW236510   5.032   0.743   4.593  0.1000 -0.2381  0.5397
 8431SOL     OW36511   2.783   4.705   5.741 -0.4303 -0.0437 -0.4604
 8431SOL    HW136512   2.716   4.708   5.667 -1.9538 -1.8975  0.8029
 8431SOL    HW236513   2.843   4.627   5.729 -1.6318 -1.2370  1.0125
 8432SOL     OW36514   4.947   5.124   4.490  0.1056 -0.3370 -0.4754
 8432SOL    HW136515   4.877   5.077   4.543  0.6228 -0.3179  0.2186
 8432SOL    HW236516   4.939   5.096   4.394 -0.1668 -1.1470 -0.2234
 8433SOL     OW36517   0.545   0.100   2.768  0.8441  0.1158  0.2577
 8433SOL    HW136518   0.578   0.058   2.852  1.4620  0.0913  0.0085
 8433SOL    HW236519   0.560   0.199   2.773 -0.8862  0.3681  0.9729
 8434SOL     OW36520   4.314   2.317   4.466  0.0530 -0.0054  0.5698
 8434SOL    HW136521   4.322   2.416   4.453  0.1857 -0.0573  0.2467
 8434SOL    HW236522   4.295   2.273   4.378 -0.2233 -0.2438  0.7467
 8435SOL     OW36523   0.300   0.292   2.459 -0.2023 -0.4102  0.5334
 8435SOL    HW136524   0.350   0.206   2.466  0.0660 -0.1866  1.5081
 8435SOL    HW236525   0.329   0.353   2.533  0.4968  0.9735 -0.8700
 8436SOL     OW36526   1.226   8.612   3.984  0.0785  0.0028 -0.2906
 8436SOL    HW136527   1.278   8.536   3.944 -1.4206 -1.1342 -0.1323
 8436SOL    HW236528   1.157   8.643   3.919  0.4026  0.9543 -0.1855
 8437SOL     OW36529   3.973   2.707   1.333  0.4030 -0.5493  0.0942
 8437SOL    HW136530   3.903   2.673   1.270 -1.4907  1.5968  0.9889
 8437SOL    HW236531   4.024   2.780   1.289 -2.5908  2.7077  1.8210
 8438SOL     OW36532   4.333   0.114   1.769  0.5245 -0.1448 -0.0150
 8438SOL    HW136533   4.313   0.183   1.840 -1.6794 -1.7831  0.9989
 8438SOL    HW236534   4.257   0.110   1.704  1.1992 -0.7648 -0.7735
 8439SOL     OW36535   1.208   7.029   4.876  0.3810 -0.2150  0.5213
 8439SOL    HW136536   1.189   6.936   4.906  0.3103 -0.5820 -0.6753
 8439SOL    HW236537   1.131   7.064   4.823  1.3237 -0.2576 -0.8871
 8440SOL     OW36538   1.181   2.219   1.559  0.3943 -0.0620 -0.5407
 8440SOL    HW136539   1.119   2.155   1.514 -1.1891 -0.6502  2.3511
 8440SOL    HW236540   1.157   2.313   1.533 -2.5413 -0.2018  1.4362
 8441SOL     OW36541   1.855   8.617   3.228  1.1098  0.2244  0.2354
 8441SOL    HW136542   1.902   8.654   3.308  2.7650 -1.4439  0.0673
 8441SOL    HW236543   1.777   8.675   3.206  2.7861  2.7736  0.8164
 8442SOL     OW36544   1.437   4.281   1.095 -0.2559 -0.2818  0.0997
 8442SOL    HW136545   1.381   4.334   1.031 -0.1906 -0.8304 -0.4108
 8442SOL    HW236546   1.407   4.186   1.095  0.1203 -0.4010  0.4584
 8443SOL     OW36547   8.743   9.145   5.746 -0.1798  0.4769  0.2546
 8443SOL    HW136548   8.745   9.063   5.801 -2.6926  2.4381  3.4260
 8443SOL    HW236549   8.821   9.203   5.769 -0.3928  0.6187  0.6075
 8444SOL     OW36550   8.472   6.832   6.610  0.0035 -0.3279  0.0539
 8444SOL    HW136551   8.418   6.771   6.668 -0.6541  0.0686 -0.1346
 8444SOL    HW236552   8.472   6.924   6.649 -2.2128  0.4471 -1.6573
 8445SOL     OW36553   9.727   0.283   3.723  0.1339  0.1067  0.3600
 8445SOL    HW136554   9.808   0.333   3.694  1.5874 -1.0724  2.2792
 8445SOL    HW236555   9.677   0.336   3.792  1.2853 -0.7132  1.8626
 8446SOL     OW36556   2.239   6.337   0.028  0.0540 -0.3092  0.3357
 8446SOL    HW136557   2.310   6.287  -0.022 -0.2485  0.6036 -1.0118
 8446SOL    HW236558   2.153   6.286   0.023  0.0186 -0.2085 -0.0976
 8447SOL     OW36559   1.857   7.658   2.485  0.1322  0.6733 -0.0419
 8447SOL    HW136560   1.901   7.600   2.554  1.1613  2.3234  0.6953
 8447SOL    HW236561   1.771   7.615   2.456  0.4217 -0.7632  1.1795
 8448SOL     OW36562   4.183   5.707   1.240 -0.2796  0.8626  0.3554
 8448SOL    HW136563   4.154   5.636   1.304 -0.0632 -1.0399 -1.6095
 8448SOL    HW236564   4.280   5.694   1.217 -0.3466  1.5434 -0.3283
 8449SOL     OW36565   1.728   5.365   5.844  0.0685 -0.3040 -0.4316
 8449SOL    HW136566   1.774   5.278   5.823  0.5327  0.2975 -2.0130
 8449SOL    HW236567   1.642   5.370   5.792 -0.1142  0.0387 -0.0923
 8450SOL     OW36568   1.655   2.321   3.524 -0.3457 -0.5525 -0.3019
 8450SOL    HW136569   1.595   2.395   3.491 -0.7857 -1.1782 -0.9062
 8450SOL    HW236570   1.747   2.357   3.539 -0.7688  0.3258  0.2378
 8451SOL     OW36571   9.393   6.801   1.836  0.2971 -0.0658 -0.2346
 8451SOL    HW136572   9.463   6.734   1.811 -1.0580 -0.9796 -1.6488
 8451SOL    HW236573   9.411   6.888   1.790  0.3820 -0.3688 -0.7730
 8452SOL     OW36574   3.116   0.681   2.412  0.0084  0.0666  0.1478
 8452SOL    HW136575   3.087   0.760   2.359 -0.6308 -0.8945 -0.9474
 8452SOL    HW236576   3.114   0.703   2.510 -1.4730  0.9737 -0.0828
 8453SOL     OW36577   5.112   5.613   1.011 -0.2651 -0.5616 -0.3877
 8453SOL    HW136578   5.110   5.679   0.937  0.1990  2.1651  1.9657
 8453SOL    HW236579   5.024   5.565   1.016 -2.1274  2.7806  0.3755
 8454SOL     OW36580   1.881   8.246   1.642 -0.7344  0.1149  0.4484
 8454SOL    HW136581   1.931   8.189   1.708 -0.6660 -0.1611  0.1605
 8454SOL    HW236582   1.891   8.207   1.550  1.3515  1.9603 -0.1327
 8455SOL     OW36583   7.294   9.314   2.770  0.0530  0.0631  0.5803
 8455SOL    HW136584   7.306   9.253   2.692 -1.9818  0.7539 -0.2976
 8455SOL    HW236585   7.219   9.281   2.827 -0.5705  1.3356  0.4975
 8456SOL     OW36586   4.494   1.323   1.635 -0.5317 -0.3241  0.0865
 8456SOL    HW136587   4.431   1.248   1.615 -0.7016 -0.3714  0.7912
 8456SOL    HW236588   4.499   1.337   1.734  1.1166 -0.7971  0.0886
 8457SOL     OW36589   1.297   2.036   2.069  0.2759 -0.3911 -0.1235
 8457SOL    HW136590   1.390   2.003   2.054 -0.2107 -1.0356 -1.8188
 8457SOL    HW236591   1.255   2.059   1.981 -1.7975 -1.7953  0.4489
 8458SOL     OW36592   2.062   8.228   2.215  0.1637  0.0263 -0.0056
 8458SOL    HW136593   2.068   8.258   2.310 -2.4707  1.7074 -0.3317
 8458SOL    HW236594   1.968   8.204   2.193  0.5078  0.8969 -2.5557
 8459SOL     OW36595   8.720   6.475   3.724 -0.2039  0.1365 -0.4257
 8459SOL    HW136596   8.683   6.477   3.631 -0.7174  0.4412 -0.2164
 8459SOL    HW236597   8.656   6.427   3.784  0.3567 -0.4973 -0.3237
 8460SOL     OW36598   3.658   0.017   5.585 -0.1721 -0.3702  0.0877
 8460SOL    HW136599   3.745   0.066   5.574 -0.5033  0.3702  0.7216
 8460SOL    HW236600   3.592   0.052   5.519 -0.2292 -0.3704  0.1448
 8461SOL     OW36601   6.599   4.666   0.469  0.0968 -0.2996  0.2383
 8461SOL    HW136602   6.583   4.647   0.373 -0.4477  3.0332 -0.3716
 8461SOL    HW236603   6.637   4.584   0.513  1.5817 -1.4753 -3.0625
 8462SOL     OW36604   8.256   7.758   3.866 -0.5734 -0.2741 -0.5737
 8462SOL    HW136605   8.174   7.808   3.839 -1.5647 -3.2471 -3.4981
 8462SOL    HW236606   8.231   7.688   3.933 -0.1724 -0.1976 -0.3468
 8463SOL     OW36607   9.028   9.848   1.654 -1.1120 -0.4392  1.1099
 8463SOL    HW136608   9.114   9.817   1.615  0.1844  0.2210  3.3614
 8463SOL    HW236609   9.017   9.946   1.638 -0.4262 -0.1027  2.6333
 8464SOL     OW36610   2.210   7.684   4.341  0.1227 -0.1072  0.1908
 8464SOL    HW136611   2.209   7.585   4.337 -1.1684 -0.1523  1.2878
 8464SOL    HW236612   2.252   7.721   4.258 -0.3407 -1.5331 -0.6839
 8465SOL     OW36613   7.952   5.695   2.408 -0.1660  0.1050 -0.0044
 8465SOL    HW136614   7.984   5.602   2.394  0.1136  0.1790  0.1463
 8465SOL    HW236615   7.935   5.738   2.319 -0.5453 -0.1751 -0.0690
 8466SOL     OW36616   1.171   5.324   2.767  0.4252  0.6354  0.0326
 8466SOL    HW136617   1.244   5.360   2.825  2.1137 -1.8558 -0.4606
 8466SOL    HW236618   1.138   5.238   2.806 -1.1408  0.9276 -0.6340
 8467SOL     OW36619   9.533   4.989   5.026 -0.2998 -0.2389  0.2041
 8467SOL    HW136620   9.458   5.010   4.963  0.5360  0.9754 -0.4151
 8467SOL    HW236621   9.614   4.961   4.974  0.8143  2.0751  0.6094
 8468SOL     OW36622   7.835   6.085   2.764 -0.0529  0.1625 -0.1447
 8468SOL    HW136623   7.912   6.089   2.828  0.1790 -2.9832 -0.1894
 8468SOL    HW236624   7.870   6.067   2.672 -0.7831 -0.6984 -0.2555
 8469SOL     OW36625   0.218   3.633   5.809 -0.5521 -0.1251  0.5086
 8469SOL    HW136626   0.143   3.693   5.836 -0.2204  1.0213 -1.0527
 8469SOL    HW236627   0.249   3.657   5.717  1.7665 -0.5519  1.1338
 8470SOL     OW36628   8.166   5.559   6.422  0.4008 -0.4131 -0.2936
 8470SOL    HW136629   8.232   5.501   6.469 -1.1620 -1.5843  0.5201
 8470SOL    HW236630   8.120   5.505   6.351 -1.1184 -0.2104  0.5123
 8471SOL     OW36631   7.999   2.756   4.051 -1.0398  0.1097  0.0262
 8471SOL    HW136632   7.980   2.710   3.964 -2.0979  0.5773 -0.0002
 8471SOL    HW236633   8.096   2.746   4.074 -0.3656  1.5105 -2.0879
 8472SOL     OW36634   0.435   1.505   1.625 -0.0281  0.1134 -0.0973
 8472SOL    HW136635   0.415   1.422   1.677  2.6648  0.8664  2.2443
 8472SOL    HW236636   0.403   1.585   1.676  0.4138  0.7277 -0.7702
 8473SOL     OW36637   1.131   4.170   0.592  0.3389 -0.1549 -0.0072
 8473SOL    HW136638   1.069   4.095   0.573 -0.6792  0.5769  0.3637
 8473SOL    HW236639   1.129   4.235   0.516  0.7939 -0.2188 -0.0767
 8474SOL     OW36640   8.715   1.498   6.502 -0.0908 -0.4796 -0.3156
 8474SOL    HW136641   8.662   1.584   6.507 -0.1257 -0.5158 -0.0702
 8474SOL    HW236642   8.654   1.424   6.473 -0.6786 -0.9600  2.1034
 8475SOL     OW36643   9.607   9.274   4.451  0.3328 -0.0587 -0.0717
 8475SOL    HW136644   9.554   9.256   4.369 -0.6087 -1.9199  0.9236
 8475SOL    HW236645   9.658   9.191   4.477  0.8911  0.6125  1.0284
 8476SOL     OW36646   3.012   4.360   4.761 -0.2551  0.0379  0.4131
 8476SOL    HW136647   2.922   4.399   4.744  1.5834  4.0620 -0.6037
 8476SOL    HW236648   3.032   4.365   4.859 -0.8344 -0.2687  0.5516
 8477SOL     OW36649   0.826   8.666   1.265 -0.2439  0.3117 -0.0373
 8477SOL    HW136650   0.848   8.674   1.168  1.4727  1.8727  0.4419
 8477SOL    HW236651   0.877   8.589   1.304  1.9911  1.9343  0.3700
 8478SOL     OW36652   1.560   4.550   3.622 -0.0355  0.2653 -0.5073
 8478SOL    HW136653   1.469   4.582   3.594 -0.8387 -1.2165  0.3535
 8478SOL    HW236654   1.605   4.622   3.676 -2.7510 -0.8079  3.4322
 8479SOL     OW36655   1.687   4.187   5.143 -0.1087  0.2627 -0.2319
 8479SOL    HW136656   1.740   4.195   5.059 -0.1257  0.7362 -0.2033
 8479SOL    HW236657   1.590   4.201   5.122 -0.2118 -0.4748 -0.2655
 8480SOL     OW36658   1.375   0.347   0.190  0.1436 -0.3546  0.3287
 8480SOL    HW136659   1.386   0.278   0.261 -0.9538 -0.6288  0.2379
 8480SOL    HW236660   1.366   0.303   0.100 -0.9273 -0.1187  0.3142
 8481SOL     OW36661   9.829   4.440   3.260 -0.1850  0.2297  0.1768
 8481SOL    HW136662   9.912   4.387   3.243  0.9563  1.9094  0.4033
 8481SOL    HW236663   9.791   4.414   3.349  0.5793  0.0852  0.4640
 8482SOL     OW36664   2.697   5.342   2.472  0.2198  0.2565  0.7164
 8482SOL    HW136665   2.718   5.423   2.418 -1.4414 -0.5699 -1.2375
 8482SOL    HW236666   2.776   5.317   2.528  1.7184  1.5697 -0.7751
 8483SOL     OW36667   1.768   3.907   5.543  0.2790  0.5660  0.3789
 8483SOL    HW136668   1.689   3.966   5.561  0.0187 -0.1180  1.5529
 8483SOL    HW236669   1.756   3.862   5.454 -1.5195 -0.8659  1.3113
 8484SOL     OW36670   1.873   9.981   2.369  0.2733 -0.1180  0.1114
 8484SOL    HW136671   1.785  10.029   2.369 -0.3377 -1.2206  1.0582
 8484SOL    HW236672   1.880   9.925   2.451 -0.9378 -5.1185 -2.9755
 8485SOL     OW36673   0.619   6.748   4.796 -0.0431  0.4360  0.1330
 8485SOL    HW136674   0.678   6.816   4.838 -0.1512  0.3452  0.4410
 8485SOL    HW236675   0.673   6.667   4.772 -0.1317  0.1564  0.8692
 8486SOL     OW36676   7.449   4.374   1.204 -0.1947 -0.0285  0.0425
 8486SOL    HW136677   7.473   4.408   1.295  0.4444  0.1439 -0.1893
 8486SOL    HW236678   7.438   4.274   1.208  0.1201 -0.0570  0.2504
 8487SOL     OW36679   1.146   4.934   5.027 -0.2699  0.1892 -0.0201
 8487SOL    HW136680   1.101   4.915   4.940 -0.4544  1.8336 -0.3052
 8487SOL    HW236681   1.077   4.939   5.100 -0.1070 -1.2653  0.2400
 8488SOL     OW36682   0.283   9.834   0.204 -0.1348  0.0411  0.0063
 8488SOL    HW136683   0.357   9.800   0.146 -0.4021  0.5339 -0.6191
 8488SOL    HW236684   0.257   9.926   0.175 -0.8462 -0.0440  0.3666
 8489SOL     OW36685   8.603   9.848   5.591 -0.1236  0.1155  0.0303
 8489SOL    HW136686   8.640   9.756   5.579 -0.8778 -0.4161  1.5511
 8489SOL    HW236687   8.638   9.886   5.677  1.1103  1.7161 -1.1566
 8490SOL     OW36688   1.055   2.033   3.753 -0.5273  0.2635 -0.0454
 8490SOL    HW136689   0.990   2.081   3.694 -0.6494  1.9333  1.4322
 8490SOL    HW236690   1.041   1.934   3.744 -2.6191  0.5826 -0.4767
 8491SOL     OW36691   4.166   4.839   3.396 -0.3802 -0.4240  0.6946
 8491SOL    HW136692   4.242   4.795   3.348 -0.8973 -2.3535  1.6176
 8491SOL    HW236693   4.133   4.916   3.342  0.0167 -1.6511 -1.3414
 8492SOL     OW36694   4.806   0.746   6.523 -0.4022 -0.2186  0.1177
 8492SOL    HW136695   4.879   0.762   6.589 -0.2475 -0.6927  0.0601
 8492SOL    HW236696   4.831   0.788   6.435  0.1131 -0.9731 -0.1027
 8493SOL     OW36697   1.533   1.424   3.566 -0.4054  0.3066 -0.2047
 8493SOL    HW136698   1.559   1.334   3.531  0.3197  0.5188 -0.2045
 8493SOL    HW236699   1.486   1.413   3.654  1.5903  0.0769  0.8502
 8494SOL     OW36700   9.777   0.643   5.563  0.2639  0.0453  0.3113
 8494SOL    HW136701   9.726   0.719   5.604 -0.4392  0.2824 -0.9523
 8494SOL    HW236702   9.712   0.576   5.526  0.8347  0.4962 -1.5690
 8495SOL     OW36703   3.208   5.922   3.231  0.0482 -0.2461 -0.0228
 8495SOL    HW136704   3.261   5.837   3.229 -0.1456 -0.3264 -1.8854
 8495SOL    HW236705   3.115   5.903   3.262  0.0534 -0.6734 -0.2795
 8496SOL     OW36706   4.157   0.147   4.993 -0.2300 -0.4903  0.1207
 8496SOL    HW136707   4.187   0.129   5.087  1.7819  1.1448 -0.1586
 8496SOL    HW236708   4.237   0.168   4.937 -1.2881 -2.6035 -2.2597
 8497SOL     OW36709   8.760   8.973   0.806 -0.5125  0.0376  0.1849
 8497SOL    HW136710   8.847   8.959   0.855  0.2255 -1.1943 -1.4078
 8497SOL    HW236711   8.759   8.915   0.724 -1.6243  2.2143 -1.3772
 8498SOL     OW36712   4.333   7.892   4.222 -0.8205 -0.0475  0.0930
 8498SOL    HW136713   4.246   7.846   4.242 -1.2169  0.9072  0.6039
 8498SOL    HW236714   4.318   7.961   4.151 -0.5617  0.3730  0.4455
 8499SOL     OW36715   1.305   4.054   2.610  0.2714  0.0412  0.5929
 8499SOL    HW136716   1.206   4.064   2.618 -0.0838  0.4567 -3.1313
 8499SOL    HW236717   1.327   3.961   2.580  0.8942  0.2708  0.3142
 8500SOL     OW36718   8.904   7.906   2.970 -0.5518  0.4641  0.5951
 8500SOL    HW136719   8.914   7.809   2.993 -1.4299 -0.0317 -1.0279
 8500SOL    HW236720   8.833   7.946   3.027  1.6273  0.8261  3.1261
 8501SOL     OW36721   4.456   5.235   1.436 -0.1772 -0.1880  0.2742
 8501SOL    HW136722   4.532   5.218   1.373 -0.0404  0.4369  0.2694
 8501SOL    HW236723   4.414   5.148   1.461 -1.0946 -0.3475 -1.7280
 8502SOL     OW36724   9.996   0.614   1.967  0.0270  0.1926  0.1386
 8502SOL    HW136725  10.078   0.619   2.024 -1.8058  2.6858  2.7149
 8502SOL    HW236726   9.961   0.520   1.966  1.9517 -0.5449  0.3765
 8503SOL     OW36727   2.078   7.034   1.970 -0.3989 -0.4678 -0.1350
 8503SOL    HW136728   2.082   7.058   1.873 -1.7922  0.1968 -0.0396
 8503SOL    HW236729   2.046   6.939   1.980 -3.1221  0.3777 -0.2707
 8504SOL     OW36730   8.082   5.704   5.834  0.3040 -0.1048 -0.2263
 8504SOL    HW136731   7.995   5.748   5.812 -0.5439 -0.7061  1.7670
 8504SOL    HW236732   8.111   5.646   5.758 -2.8963 -2.7226  0.4163
 8505SOL     OW36733   2.398   6.604   5.944 -0.7047 -0.1800  0.5488
 8505SOL    HW136734   2.486   6.569   5.911 -0.0859 -0.9346  2.9037
 8505SOL    HW236735   2.325   6.540   5.920 -0.4615 -0.1268 -0.3752
 8506SOL     OW36736   9.404   8.113   3.448  0.3413  0.0195 -0.4211
 8506SOL    HW136737   9.394   8.082   3.542 -1.3993 -2.1519 -1.2796
 8506SOL    HW236738   9.476   8.059   3.403 -1.3023 -1.4543 -1.3398
 8507SOL     OW36739   4.354   4.498   2.982  0.1156 -0.0835 -0.0281
 8507SOL    HW136740   4.398   4.510   2.893  0.6422  0.8704  0.3475
 8507SOL    HW236741   4.411   4.539   3.053 -0.5417 -0.3925  0.6866
 8508SOL     OW36742   0.838   5.231   2.819  0.0591 -0.5005  0.4454
 8508SOL    HW136743   0.915   5.179   2.856  0.0883  0.1175  1.2455
 8508SOL    HW236744   0.871   5.297   2.752  0.2968  0.2511  1.3087
 8509SOL     OW36745   9.207   0.390   4.318  0.0318 -0.1169 -0.1502
 8509SOL    HW136746   9.253   0.454   4.256  0.3335 -0.3086 -0.1232
 8509SOL    HW236747   9.127   0.435   4.358  1.2109  0.8605  1.1984
 8510SOL     OW36748   3.859   7.239   1.293 -0.2415  0.3420  0.0302
 8510SOL    HW136749   3.766   7.270   1.274 -1.2802 -2.1275  0.8619
 8510SOL    HW236750   3.890   7.277   1.380 -0.5347  1.0451 -0.1743
 8511SOL     OW36751   9.650   3.955   4.665 -0.0432  0.0797 -0.0980
 8511SOL    HW136752   9.625   4.038   4.715  1.7430 -0.4806  1.8103
 8511SOL    HW236753   9.724   3.976   4.601 -0.3832  0.1919 -0.4572
 8512SOL     OW36754   5.564   6.028   1.844  0.2328  0.0838  0.8659
 8512SOL    HW136755   5.581   5.933   1.816 -0.0349  0.0660  0.7580
 8512SOL    HW236756   5.545   6.031   1.942  3.0758  0.3820  1.4498
 8513SOL     OW36757   1.983   4.479   2.090  0.0321  0.7579  0.3422
 8513SOL    HW136758   2.080   4.497   2.079 -0.1858  2.6473  1.2786
 8513SOL    HW236759   1.951   4.516   2.177 -1.1365 -1.5464  0.9334
 8514SOL     OW36760   2.369   6.792   0.075 -0.4633 -0.2384 -0.9410
 8514SOL    HW136761   2.386   6.704   0.030 -1.6350 -0.3893 -1.0907
 8514SOL    HW236762   2.272   6.802   0.095 -0.0661  0.1453  0.9325
 8515SOL     OW36763   1.770   5.526   5.525 -0.4071 -0.2546  0.0615
 8515SOL    HW136764   1.826   5.561   5.601  2.1103  0.2738 -1.9893
 8515SOL    HW236765   1.792   5.430   5.510 -0.8084 -0.3199 -0.1063
 8516SOL     OW36766   4.252   3.583   6.593 -0.9114 -0.0903  0.0501
 8516SOL    HW136767   4.237   3.539   6.682 -2.2431 -1.2437 -0.7262
 8516SOL    HW236768   4.230   3.518   6.520  0.9674  0.5698 -1.1441
 8517SOL     OW36769   2.665   3.003   6.466  0.3062  0.4790 -0.2102
 8517SOL    HW136770   2.742   3.044   6.417 -0.0454  0.9234 -0.3941
 8517SOL    HW236771   2.696   2.921   6.515  0.6606  0.0293 -1.1713
 8518SOL     OW36772   0.720   8.765   1.003  0.0162  0.1198 -0.0045
 8518SOL    HW136773   0.650   8.701   1.033 -1.1466  0.7112 -1.3894
 8518SOL    HW236774   0.679   8.833   0.942  1.7329  0.6910 -0.5523
 8519SOL     OW36775   2.986   2.981   0.972  0.4797 -0.6669 -0.1134
 8519SOL    HW136776   2.960   2.981   0.875 -1.0617 -0.7734  0.3000
 8519SOL    HW236777   2.992   3.075   1.005  0.0081 -0.6671 -0.0350
 8520SOL     OW36778   1.155   7.723   5.487 -0.4511  0.3743  0.4209
 8520SOL    HW136779   1.221   7.670   5.433 -1.2039  0.2053 -0.3424
 8520SOL    HW236780   1.089   7.767   5.426 -0.1143  1.8251  1.0830
 8521SOL     OW36781   9.698   2.456   2.298  0.8160  0.6644  0.3023
 8521SOL    HW136782   9.663   2.489   2.386 -0.1167 -0.5246  0.3902
 8521SOL    HW236783   9.653   2.506   2.223 -0.4434 -0.2426  0.4392
 8522SOL     OW36784   8.600   3.120   1.881  0.3352  0.7631  0.1371
 8522SOL    HW136785   8.629   3.086   1.792  2.8909  1.5234  0.6453
 8522SOL    HW236786   8.548   3.048   1.929 -0.7041  0.2199 -1.7602
 8523SOL     OW36787   0.829   6.940   4.360  0.1429  0.2506  0.4100
 8523SOL    HW136788   0.789   6.848   4.359 -0.4655  0.5198 -0.0317
 8523SOL    HW236789   0.924   6.935   4.328  0.0064 -0.1734  0.0616
 8524SOL     OW36790   1.304   2.513   4.712 -0.4537  0.4036  0.1715
 8524SOL    HW136791   1.281   2.426   4.756 -1.0155  0.0595 -0.7820
 8524SOL    HW236792   1.398   2.538   4.735 -0.8012  0.3443  1.7313
 8525SOL     OW36793   2.615   5.122   5.580 -0.5322  0.0947 -0.2451
 8525SOL    HW136794   2.522   5.085   5.587 -0.4444 -0.3059 -1.1381
 8525SOL    HW236795   2.652   5.136   5.671 -1.3452 -0.0692  0.1150
 8526SOL     OW36796   3.059   8.822   4.216  0.6468  0.2470  0.3993
 8526SOL    HW136797   3.036   8.748   4.279  1.8025 -0.1706  0.3441
 8526SOL    HW236798   3.066   8.785   4.123  0.5990  0.5489  0.2755
 8527SOL     OW36799   4.464   1.703   0.752 -0.2025 -0.1004  0.1281
 8527SOL    HW136800   4.448   1.789   0.799  1.3439 -0.3480  1.1455
 8527SOL    HW236801   4.562   1.690   0.737 -0.5233 -1.0251 -1.2586
 8528SOL     OW36802   5.025   1.470   4.114  0.2055  0.5698  0.2767
 8528SOL    HW136803   5.046   1.375   4.137  1.1960  1.0845  1.5705
 8528SOL    HW236804   4.943   1.473   4.057 -0.1971 -1.0122  0.7401
 8529SOL     OW36805   2.711   7.853   2.452 -0.6996  0.1607 -0.7511
 8529SOL    HW136806   2.721   7.759   2.419  0.0880  0.1123 -0.3890
 8529SOL    HW236807   2.777   7.912   2.405 -0.6422  0.3801 -0.3948
 8530SOL     OW36808   3.880   2.386   5.039 -0.5229 -0.0484  0.3879
 8530SOL    HW136809   3.837   2.448   5.105  0.7285  0.9650  0.2589
 8530SOL    HW236810   3.945   2.437   4.983  1.3693 -1.6922  1.0268
 8531SOL     OW36811   4.074   6.976   3.213  0.6665  0.4928 -0.2434
 8531SOL    HW136812   4.113   6.958   3.122 -1.0105 -0.5277 -0.7995
 8531SOL    HW236813   4.128   6.928   3.282 -0.6977 -2.5790 -1.2035
 8532SOL     OW36814   2.429   8.589   2.000  0.6928  0.0757  0.2501
 8532SOL    HW136815   2.418   8.558   1.906  0.1597 -0.1975  0.3984
 8532SOL    HW236816   2.391   8.520   2.062 -2.0545  1.7818  0.5370
 8533SOL     OW36817   9.433   6.658   1.034  0.4032  0.6043  0.0996
 8533SOL    HW136818   9.422   6.567   1.075  0.2147  0.8986  0.7101
 8533SOL    HW236819   9.371   6.667   0.956 -0.5866  0.7007  0.8832
 8534SOL     OW36820   0.141   7.520   4.982  0.4452 -0.1349  0.0950
 8534SOL    HW136821   0.100   7.546   4.895  0.3194  3.0290  1.0324
 8534SOL    HW236822   0.118   7.425   5.003 -0.1169 -0.7158 -2.9459
 8535SOL     OW36823   4.187   9.696   0.239 -0.3271 -0.6697 -0.4035
 8535SOL    HW136824   4.139   9.732   0.320  0.0375  0.1040 -0.5271
 8535SOL    HW236825   4.259   9.633   0.269  1.7122  1.7844  0.0723
 8536SOL     OW36826   8.871   0.337   3.244 -0.0418  0.1216  0.2971
 8536SOL    HW136827   8.958   0.387   3.251 -2.2295  4.1247  0.4009
 8536SOL    HW236828   8.826   0.336   3.334 -1.5657  0.9585 -0.4362
 8537SOL     OW36829   7.803   8.909   5.994  0.2874  0.0765  0.0466
 8537SOL    HW136830   7.794   8.881   5.899 -1.3212  0.0219  0.1998
 8537SOL    HW236831   7.889   8.958   6.007  0.4174  0.2575 -1.4737
 8538SOL     OW36832   3.260   3.178   1.721  0.0047 -0.8638 -0.3753
 8538SOL    HW136833   3.246   3.243   1.645  0.2156 -0.7780 -0.3424
 8538SOL    HW236834   3.181   3.180   1.782  0.1230 -0.4402 -0.2317
 8539SOL     OW36835   3.932   4.842   5.478 -0.1516 -0.5419  0.9389
 8539SOL    HW136836   3.882   4.900   5.542 -0.0526  0.1168  0.4246
 8539SOL    HW236837   3.897   4.857   5.385  1.7883  0.8149  0.4026
 8540SOL     OW36838   1.606   2.899   4.954 -0.7868 -0.8060  0.0347
 8540SOL    HW136839   1.672   2.832   4.921  1.5802 -0.0109  2.9665
 8540SOL    HW236840   1.556   2.862   5.032  0.4078  0.7494  1.5577
 8541SOL     OW36841   5.195   8.461   2.766  0.2647 -0.7405  0.2235
 8541SOL    HW136842   5.104   8.497   2.747  0.5656  0.8436  1.5551
 8541SOL    HW236843   5.263   8.532   2.747  1.4549 -2.6236 -2.8863
 8542SOL     OW36844   8.900   5.577   2.279 -0.6415  0.5713 -0.0905
 8542SOL    HW136845   8.962   5.557   2.355  0.1083  0.2974 -0.7672
 8542SOL    HW236846   8.948   5.630   2.210 -1.5480  1.4985 -0.0290
 8543SOL     OW36847   1.730   4.923   2.037 -0.5939  0.0078  0.2969
 8543SOL    HW136848   1.775   4.837   2.064  0.2232  0.8896  1.8034
 8543SOL    HW236849   1.796   4.980   1.989 -0.1117  1.2204  2.3312
 8544SOL     OW36850   3.717   5.826   1.099 -0.2443 -0.3472 -0.7280
 8544SOL    HW136851   3.775   5.754   1.137  0.1144  0.2767 -0.0848
 8544SOL    HW236852   3.637   5.840   1.158  0.9364  1.4690  0.5014
 8545SOL     OW36853   0.992   5.345   5.359  0.1879 -0.0058 -0.0000
 8545SOL    HW136854   1.025   5.266   5.410 -0.5942 -0.2095  0.1941
 8545SOL    HW236855   1.059   5.369   5.288  0.6381 -0.5610  0.2318
 8546SOL     OW36856   8.113   3.690   1.775 -0.1437 -0.4869  0.0414
 8546SOL    HW136857   8.073   3.696   1.683 -0.2444 -2.3664 -0.0559
 8546SOL    HW236858   8.043   3.660   1.840  0.6463 -2.0174  0.1949
 8547SOL     OW36859   3.758   5.442   5.835 -0.2277  0.9442 -0.4473
 8547SOL    HW136860   3.797   5.486   5.753 -1.8445  0.8811 -1.2733
 8547SOL    HW236861   3.661   5.465   5.842 -0.1452  0.7825  1.3624
 8548SOL     OW36862   3.242   9.742   6.107 -0.8653  0.2982 -0.3899
 8548SOL    HW136863   3.158   9.687   6.109  0.2251 -1.3829 -0.6853
 8548SOL    HW236864   3.314   9.692   6.059  1.0644  0.6913  2.0174
 8549SOL     OW36865   3.403   3.700   1.438  0.4315 -0.2930 -0.5168
 8549SOL    HW136866   3.455   3.619   1.465  1.9087  0.5538 -0.7884
 8549SOL    HW236867   3.465   3.777   1.425 -0.5879  0.1289 -3.2737
 8550SOL     OW36868   3.103   9.513   5.318 -0.0888 -0.2958  0.0726
 8550SOL    HW136869   3.160   9.583   5.362  0.1406 -0.6455  0.3309
 8550SOL    HW236870   3.011   9.550   5.304  0.0378  0.0684  0.1822
 8551SOL     OW36871   9.309   9.320   1.939  0.4972 -0.5012 -0.4212
 8551SOL    HW136872   9.328   9.276   2.027  0.0416 -0.6408 -0.3897
 8551SOL    HW236873   9.342   9.262   1.864 -1.3826 -1.5687 -0.4303
 8552SOL     OW36874   4.417   9.667   0.533 -0.5963  0.3354  0.0685
 8552SOL    HW136875   4.476   9.747   0.544 -0.6602  0.3068  0.6455
 8552SOL    HW236876   4.390   9.633   0.623 -0.0917 -0.7028 -0.1731
 8553SOL     OW36877   2.120   1.277   3.598  0.2658 -0.1096  0.2902
 8553SOL    HW136878   2.042   1.327   3.635 -1.6002 -2.5468 -0.2455
 8553SOL    HW236879   2.184   1.256   3.671 -0.6723 -0.0516  1.1433
 8554SOL     OW36880   7.450   0.838   0.384 -0.1132 -0.1147 -0.5127
 8554SOL    HW136881   7.527   0.878   0.435  0.1711 -0.3180 -0.7852
 8554SOL    HW236882   7.423   0.752   0.426  1.0177 -0.9675 -1.5287
 8555SOL     OW36883   8.700   6.258   4.119  0.2727 -0.0848 -0.2831
 8555SOL    HW136884   8.760   6.284   4.194  0.0053 -0.1817 -0.0314
 8555SOL    HW236885   8.676   6.161   4.128  0.3361 -0.1255 -0.5590
 8556SOL     OW36886   3.936   3.769   3.943 -0.1681 -0.1868 -0.0129
 8556SOL    HW136887   3.904   3.736   3.854  1.1722 -0.9142 -0.2533
 8556SOL    HW236888   3.933   3.693   4.008 -1.5104  0.4462  0.6634
 8557SOL     OW36889   0.831   5.708   5.687 -1.0949 -0.2098 -0.1055
 8557SOL    HW136890   0.876   5.766   5.620 -0.9642  0.0082  0.1681
 8557SOL    HW236891   0.860   5.735   5.779 -0.5483 -1.1269 -0.0071
 8558SOL     OW36892   4.914   6.410   1.292 -0.3831 -0.3881  0.1214
 8558SOL    HW136893   4.893   6.313   1.302 -0.3721 -0.4720 -0.6105
 8558SOL    HW236894   4.948   6.427   1.200  0.4515  0.1608  0.5268
 8559SOL     OW36895   8.776   6.111   0.705 -0.1156 -0.4539 -0.0631
 8559SOL    HW136896   8.812   6.160   0.785 -1.5357 -0.8752  0.8675
 8559SOL    HW236897   8.677   6.098   0.716  0.1939 -3.4368 -0.3239
 8560SOL     OW36898   4.866   8.858   3.108  0.1754  0.5163 -0.0347
 8560SOL    HW136899   4.860   8.929   3.038  1.2723  0.9959  0.3289
 8560SOL    HW236900   4.923   8.892   3.183  1.8950 -1.2606 -0.4962
 8561SOL     OW36901   9.811   4.480   1.822 -0.3701 -0.8094 -0.0734
 8561SOL    HW136902   9.854   4.453   1.908  0.3419 -2.4199 -0.9221
 8561SOL    HW236903   9.882   4.498   1.753 -0.9701 -0.6858 -0.6648
 8562SOL     OW36904   3.291   4.708   2.203 -0.1410  0.4637  0.3118
 8562SOL    HW136905   3.314   4.612   2.211  0.6206  0.3791 -2.4152
 8562SOL    HW236906   3.202   4.725   2.245  0.1911 -1.1890  1.7351
 8563SOL     OW36907   8.532   1.278   0.649 -0.1950  0.2305  0.3887
 8563SOL    HW136908   8.626   1.267   0.684 -0.0373  1.8257  0.5100
 8563SOL    HW236909   8.467   1.256   0.722  0.1007  0.4782  0.7309
 8564SOL     OW36910   7.769   8.295   2.522  0.0757  0.6776  0.4998
 8564SOL    HW136911   7.765   8.269   2.426 -2.8345  1.4115  0.3788
 8564SOL    HW236912   7.863   8.284   2.556  0.7433 -1.4219 -1.8805
 8565SOL     OW36913   4.424   9.297   0.675  0.3184  0.4984  0.3645
 8565SOL    HW136914   4.372   9.257   0.750 -0.5258  1.3420  0.2400
 8565SOL    HW236915   4.517   9.315   0.706  1.3939 -3.5864 -0.2464
 8566SOL     OW36916   0.174   2.540   2.383  1.0234  0.2579  0.4484
 8566SOL    HW136917   0.114   2.544   2.463  1.7255 -1.4815  1.0922
 8566SOL    HW236918   0.189   2.444   2.358  1.5502  0.7683 -1.2140
 8567SOL     OW36919   4.056   6.135   1.214  0.7177 -0.1523 -0.5363
 8567SOL    HW136920   4.086   6.053   1.165 -0.3856 -0.7176 -0.2717
 8567SOL    HW236921   4.024   6.203   1.148 -0.6372 -0.8621 -0.6296
 8568SOL     OW36922   2.493   4.514   1.843  0.2385  0.2101 -0.0630
 8568SOL    HW136923   2.471   4.479   1.752 -1.4493  1.9995 -0.3741
 8568SOL    HW236924   2.411   4.509   1.901  1.3191 -0.9942  1.3989
 8569SOL     OW36925   9.793   1.623   2.983  0.6650  0.0247  0.0309
 8569SOL    HW136926   9.871   1.608   2.921  1.2743  1.1036  0.5200
 8569SOL    HW236927   9.720   1.671   2.933  1.2010  0.9990  0.1691
 8570SOL     OW36928   2.833   0.692   2.010 -0.0207 -0.5561  0.0479
 8570SOL    HW136929   2.773   0.624   1.969 -0.6416  1.1465 -1.9903
 8570SOL    HW236930   2.920   0.694   1.960 -0.3376  0.7312 -0.4695
 8571SOL     OW36931   8.178   3.396   4.170 -0.0858 -0.1443 -0.3687
 8571SOL    HW136932   8.194   3.410   4.268  1.3612  0.9543 -0.7479
 8571SOL    HW236933   8.240   3.325   4.136 -0.7470 -0.6878 -0.4406
 8572SOL     OW36934   8.581   4.103   3.983  0.3870 -0.1410  0.0743
 8572SOL    HW136935   8.629   4.155   4.053  0.5815 -0.4553  0.1758
 8572SOL    HW236936   8.581   4.006   4.007 -1.0427 -0.0511  0.5135
 8573SOL     OW36937   0.750   3.284   3.257 -0.2056  0.1222  0.4582
 8573SOL    HW136938   0.714   3.246   3.342 -1.9600  2.7439  0.9217
 8573SOL    HW236939   0.813   3.358   3.277  0.5214 -0.2208 -0.5141
 8574SOL     OW36940   9.425   2.651   3.764 -0.3971  0.2245 -0.6061
 8574SOL    HW136941   9.418   2.642   3.665 -1.1882 -2.4303 -0.3295
 8574SOL    HW236942   9.365   2.585   3.809  1.6891 -0.2035  1.6735
 8575SOL     OW36943   0.110   9.544   5.662 -0.0797 -0.3222  0.0709
 8575SOL    HW136944   0.057   9.500   5.590  2.1838 -2.2654 -0.4838
 8575SOL    HW236945   0.060   9.538   5.749 -1.1195 -1.4224 -0.5922
 8576SOL     OW36946   9.831   0.157   4.152  0.1732  0.0346  0.0978
 8576SOL    HW136947   9.804   0.246   4.189 -1.6472  0.0145 -1.1157
 8576SOL    HW236948   9.754   0.117   4.103  0.9780 -2.2230  0.6194
 8577SOL     OW36949   6.616   5.250   0.014  0.0956  0.2277  0.5663
 8577SOL    HW136950   6.689   5.184   0.033 -0.6307 -0.8178 -0.2058
 8577SOL    HW236951   6.645   5.341   0.042  1.3092 -0.3423  1.1905
 8578SOL     OW36952   1.750   3.368   1.704 -0.0326 -0.4390  0.3889
 8578SOL    HW136953   1.810   3.368   1.784 -1.7052 -0.6057  1.6799
 8578SOL    HW236954   1.723   3.462   1.683 -0.0528 -0.4437  0.3939
 8579SOL     OW36955   5.774   8.320   3.134 -0.4480 -0.2459 -0.4965
 8579SOL    HW136956   5.787   8.377   3.053 -1.8536  1.1721  0.2551
 8579SOL    HW236957   5.827   8.235   3.124 -1.5166 -0.6191 -3.4041
 8580SOL     OW36958   3.143   5.577   0.175  0.3798 -0.1491 -0.3538
 8580SOL    HW136959   3.239   5.606   0.173  1.2414 -2.3574  3.6061
 8580SOL    HW236960   3.086   5.651   0.211  1.2687 -0.2601  1.3519
 8581SOL     OW36961   9.665   7.901   2.458  0.4082  0.1249 -0.0652
 8581SOL    HW136962   9.670   7.805   2.428 -0.1947 -0.1229  0.6186
 8581SOL    HW236963   9.732   7.955   2.406 -0.3649 -0.3628 -1.6099
 8582SOL     OW36964   6.515   8.698   4.479  0.0571  0.4782 -0.3707
 8582SOL    HW136965   6.448   8.773   4.488  0.8118  1.4139 -2.2999
 8582SOL    HW236966   6.587   8.710   4.546  0.2826  1.6173 -0.8076
 8583SOL     OW36967   3.580   9.265   6.276 -0.1560 -0.4054  0.0376
 8583SOL    HW136968   3.672   9.302   6.262 -0.4933  0.7214  0.7311
 8583SOL    HW236969   3.558   9.201   6.202  1.0860 -0.4955 -0.2592
 8584SOL     OW36970   0.895   6.411   2.609  0.4624 -0.4517 -0.0312
 8584SOL    HW136971   0.923   6.399   2.705 -0.9374 -1.2632  0.2932
 8584SOL    HW236972   0.825   6.344   2.587  0.4892  0.0044 -1.5242
 8585SOL     OW36973   0.679   5.689   0.414  0.5538  0.2681 -0.0462
 8585SOL    HW136974   0.711   5.763   0.355 -0.1887  0.4219 -0.2649
 8585SOL    HW236975   0.705   5.601   0.374 -2.6589  0.2367 -2.3048
 8586SOL     OW36976   2.334   7.826   2.015 -0.0100  0.1292 -0.1465
 8586SOL    HW136977   2.373   7.815   2.106 -0.4228 -1.7928 -0.1706
 8586SOL    HW236978   2.406   7.848   1.949  0.8010 -1.7278  0.0946
 8587SOL     OW36979   8.169   9.275   3.350  0.0884  0.4244  0.1048
 8587SOL    HW136980   8.159   9.297   3.253 -2.2291  0.0946  0.2420
 8587SOL    HW236981   8.143   9.355   3.405 -0.9129 -0.1685  0.4921
 8588SOL     OW36982   0.390   8.238   2.764  0.2376  0.3816 -0.4037
 8588SOL    HW136983   0.419   8.153   2.720 -0.3462 -0.3311  0.5814
 8588SOL    HW236984   0.429   8.243   2.856 -2.4936 -0.4445  0.8364
 8589SOL     OW36985   2.573   6.855   4.758  0.4335 -0.0406 -0.2475
 8589SOL    HW136986   2.673   6.855   4.755  0.4803  1.3224  0.7891
 8589SOL    HW236987   2.543   6.860   4.854 -0.6081  3.0365 -0.7027
 8590SOL     OW36988   9.095   4.176   1.967  0.0748 -0.2369  0.1056
 8590SOL    HW136989   9.140   4.089   1.984  0.7656  0.3593  1.4004
 8590SOL    HW236990   9.153   4.233   1.910 -0.4792 -0.6994 -0.9383
 8591SOL     OW36991   2.133   6.326   3.981 -0.6574  0.7871  0.5771
 8591SOL    HW136992   2.173   6.364   3.897 -0.6863 -0.9548 -0.2436
 8591SOL    HW236993   2.204   6.288   4.039 -1.0126 -1.6926 -0.5667
 8592SOL     OW36994   7.895   3.508   1.383  0.3884 -0.0036  0.0583
 8592SOL    HW136995   7.799   3.496   1.411 -0.1981  0.2526 -1.8049
 8592SOL    HW236996   7.942   3.420   1.386 -0.3053 -0.3961 -0.4810
 8593SOL     OW36997   8.305   1.487   3.239  0.0888 -0.3213 -0.1829
 8593SOL    HW136998   8.261   1.403   3.271  0.9670 -0.7537 -0.1018
 8593SOL    HW236999   8.281   1.503   3.144 -0.7943 -0.1822  0.0499
 8594SOL     OW37000   2.902   3.498   4.704 -0.1291 -0.1188  0.8341
 8594SOL    HW137001   2.892   3.445   4.788 -2.6162  0.5302  1.0033
 8594SOL    HW237002   2.832   3.569   4.701  0.1390  0.0877 -1.6260
 8595SOL     OW37003   9.081   2.234   0.557  0.2588 -0.0798  0.1432
 8595SOL    HW137004   9.049   2.142   0.533  0.1360 -0.2521  0.9529
 8595SOL    HW237005   9.008   2.284   0.603  0.2626  0.4960 -0.4740
 8596SOL     OW37006   1.257   4.170   3.990  0.3105 -0.3036 -0.2677
 8596SOL    HW137007   1.275   4.127   4.079  1.1832 -0.9636 -0.7589
 8596SOL    HW237008   1.192   4.113   3.938 -1.0101  0.6111  0.3537
 8597SOL     OW37009   8.476   6.917   3.893  0.6339  0.1370  0.0343
 8597SOL    HW137010   8.456   6.845   3.826 -0.2783  0.9889 -0.6267
 8597SOL    HW237011   8.527   6.878   3.970  2.3178 -0.7207 -1.4733
 8598SOL     OW37012   9.445   8.659   5.701 -0.2475 -0.0208  0.2309
 8598SOL    HW137013   9.401   8.749   5.702  0.6572  0.4192  1.4140
 8598SOL    HW237014   9.459   8.630   5.607  0.0472  1.3693 -0.1662
 8599SOL     OW37015   9.287   0.980   0.623 -0.3333  0.0472 -0.5002
 8599SOL    HW137016   9.374   0.937   0.644 -0.6183 -0.3949 -0.2234
 8599SOL    HW237017   9.285   1.072   0.662 -0.8136 -0.7202  1.3225
 8600SOL     OW37018   8.714   2.189   5.460  0.1512 -0.0310 -0.3892
 8600SOL    HW137019   8.740   2.124   5.532 -0.7872 -0.2170 -0.2152
 8600SOL    HW237020   8.667   2.267   5.501 -0.2387 -0.0572 -0.7911
 8601SOL     OW37021   4.792   9.155   6.368  0.4083 -0.3627  0.1117
 8601SOL    HW137022   4.792   9.080   6.434  0.9299 -0.9156 -0.5050
 8601SOL    HW237023   4.807   9.242   6.416  0.7842 -0.7565  0.7131
 8602SOL     OW37024   7.647   3.906   2.818 -0.0126 -0.1760 -0.0271
 8602SOL    HW137025   7.683   3.860   2.736 -0.0129 -0.4168  0.1065
 8602SOL    HW237026   7.549   3.921   2.807 -0.2783 -1.4195  0.4812
 8603SOL     OW37027   1.512   7.886   4.071  0.2117  0.3103 -0.0466
 8603SOL    HW137028   1.515   7.986   4.073 -0.2334  0.3911 -2.3809
 8603SOL    HW237029   1.446   7.854   4.139  0.9230  1.5422  1.2642
 8604SOL     OW37030   8.611   6.864   6.036  0.4097 -0.0190  0.0558
 8604SOL    HW137031   8.609   6.764   6.025  0.2220 -0.0131  0.0270
 8604SOL    HW237032   8.647   6.887   6.126 -0.6972 -0.1503  0.5438
 8605SOL     OW37033   8.472   3.507   2.766 -0.2537 -0.6249  0.0446
 8605SOL    HW137034   8.535   3.585   2.757 -1.8186  0.6409 -0.3126
 8605SOL    HW237035   8.469   3.478   2.862 -0.4482  0.4680  0.3882
 8606SOL     OW37036   0.839   6.669   3.798  0.3058  0.1446 -0.1948
 8606SOL    HW137037   0.848   6.570   3.809 -1.4354 -0.0300 -0.3170
 8606SOL    HW237038   0.921   6.713   3.834  1.8452 -1.4326 -1.6525
 8607SOL     OW37039   2.241   1.998   0.246  0.4412  0.3914  0.0506
 8607SOL    HW137040   2.238   2.052   0.330  0.1872  1.1913 -0.4729
 8607SOL    HW237041   2.261   2.057   0.168 -0.6837 -0.1248 -0.6468
 8608SOL     OW37042   9.169   8.353   5.765  0.1535 -0.8356 -0.5847
 8608SOL    HW137043   9.237   8.322   5.699  0.0528 -1.4494 -0.4082
 8608SOL    HW237044   9.199   8.438   5.808  0.2332 -0.4521 -1.4027
 8609SOL     OW37045   1.112   9.714   5.263  0.3594  0.6439  0.1174
 8609SOL    HW137046   1.109   9.672   5.172  2.1266  2.0251 -0.6047
 8609SOL    HW237047   1.024   9.757   5.282 -0.6116 -1.1397 -0.1956
 8610SOL     OW37048   5.661   9.497   3.881 -0.3075 -0.0963  0.3941
 8610SOL    HW137049   5.699   9.559   3.812  0.5389 -2.8012 -1.6320
 8610SOL    HW237050   5.644   9.548   3.966  0.4298  2.8667 -1.1827
 8611SOL     OW37051   0.454   7.137   1.117  0.6971 -0.4136  0.3718
 8611SOL    HW137052   0.504   7.149   1.203  0.0731  0.4557  0.6181
 8611SOL    HW237053   0.428   7.226   1.081  0.3416 -0.8115 -0.3618
 8612SOL     OW37054   7.595   4.937   5.399 -0.0818 -0.1321 -0.1558
 8612SOL    HW137055   7.676   4.940   5.341  0.7250  0.4346  0.9925
 8612SOL    HW237056   7.618   4.897   5.487 -1.1981 -0.5656 -0.0540
 8613SOL     OW37057   1.333   8.876   3.105  0.0097 -0.2027 -0.3185
 8613SOL    HW137058   1.418   8.870   3.157  0.4729 -1.5855 -1.2203
 8613SOL    HW237059   1.307   8.785   3.073 -0.2065  0.6245 -2.5895
 8614SOL     OW37060   7.541   2.608   4.669 -0.5438  0.0099  0.1030
 8614SOL    HW137061   7.494   2.696   4.661  2.2018  1.4011 -1.5945
 8614SOL    HW237062   7.505   2.546   4.600  0.6995  1.3827 -1.8371
 8615SOL     OW37063   1.151   2.776   2.604 -0.7862 -0.3872  0.2212
 8615SOL    HW137064   1.130   2.748   2.511  0.0659  2.7063 -0.9672
 8615SOL    HW237065   1.198   2.702   2.652 -0.9893 -1.9035 -1.8797
 8616SOL     OW37066   9.330   5.057   2.170 -0.3235 -0.4209  0.2738
 8616SOL    HW137067   9.390   4.984   2.138  1.3889  1.3489 -0.6573
 8616SOL    HW237068   9.356   5.084   2.262  0.5048  0.5083 -0.2188
 8617SOL     OW37069   9.709   8.553   0.544 -0.0405  0.3051 -0.5073
 8617SOL    HW137070   9.719   8.454   0.536 -2.0024  0.1180 -0.9643
 8617SOL    HW237071   9.718   8.579   0.640 -1.1045 -0.5216 -0.1733
 8618SOL     OW37072   7.181   0.934   5.817 -0.6193  0.3209  0.1392
 8618SOL    HW137073   7.095   0.896   5.783 -0.1584 -0.6863  0.0949
 8618SOL    HW237074   7.173   0.952   5.915  0.0788 -2.5533  0.7589
 8619SOL     OW37075   8.560   2.839   2.463 -0.4445 -0.4976  0.4375
 8619SOL    HW137076   8.512   2.926   2.454 -1.5299 -1.1664 -0.4296
 8619SOL    HW237077   8.550   2.804   2.556 -1.2309 -0.3937  0.3937
 8620SOL     OW37078   6.939   2.405   3.935  0.6229  0.2787 -0.3694
 8620SOL    HW137079   7.006   2.381   3.865  1.8791  0.9700  0.5840
 8620SOL    HW237080   6.959   2.355   4.019 -1.0193 -0.7300 -0.5540
 8621SOL     OW37081   5.151   4.769   1.057  0.0269 -0.2799  0.3222
 8621SOL    HW137082   5.146   4.775   0.958  0.9215 -0.8064  0.2396
 8621SOL    HW237083   5.170   4.674   1.084 -0.1784 -0.1363  0.9948
 8622SOL     OW37084   2.846   8.153   0.463 -0.4264  0.3436  0.0212
 8622SOL    HW137085   2.868   8.080   0.399 -1.1411  0.6941 -0.6416
 8622SOL    HW237086   2.760   8.131   0.510  0.2799 -0.0853  1.1358
 8623SOL     OW37087   3.602   7.888   0.749  0.0547  0.2787 -0.4156
 8623SOL    HW137088   3.632   7.977   0.783 -1.2650  1.2379 -1.6993
 8623SOL    HW237089   3.678   7.823   0.756  0.4924  1.0047  2.2262
 8624SOL     OW37090   1.383   2.373   3.024 -0.2650 -0.2785  0.5534
 8624SOL    HW137091   1.415   2.310   3.095 -0.6289 -1.5383 -0.3831
 8624SOL    HW237092   1.356   2.321   2.943 -1.0770  1.0509 -0.0448
 8625SOL     OW37093   9.754   3.381   3.878  0.0697 -0.7796 -0.0528
 8625SOL    HW137094   9.680   3.394   3.944  0.2465 -1.0604  0.2058
 8625SOL    HW237095   9.725   3.413   3.788  0.6901  1.9736  0.6611
 8626SOL     OW37096   3.168   6.087   0.556 -0.3812 -0.0144 -0.5366
 8626SOL    HW137097   3.255   6.050   0.590 -0.2934  0.2436 -0.4793
 8626SOL    HW237098   3.172   6.187   0.556 -0.3379 -0.0136 -1.4250
 8627SOL     OW37099   0.827   1.075   6.558 -0.2302  0.1151 -0.0987
 8627SOL    HW137100   0.862   1.169   6.565  0.2384 -0.1172  0.6162
 8627SOL    HW237101   0.727   1.077   6.555 -0.2906  0.5252  1.7263
 8628SOL     OW37102   3.016   2.061   0.766  0.6401 -0.1815  0.7393
 8628SOL    HW137103   3.041   2.025   0.855  0.2994 -0.4466  0.7289
 8628SOL    HW237104   2.968   1.991   0.713  1.9967 -0.4547 -0.1622
 8629SOL     OW37105   8.690   1.352   1.198  0.5608 -0.0326 -0.1981
 8629SOL    HW137106   8.748   1.417   1.149  0.1671 -0.0091 -0.6444
 8629SOL    HW237107   8.603   1.342   1.149  0.9583 -1.5788 -0.6238
 8630SOL     OW37108   2.299   5.211   5.233  0.2051 -0.0841  0.2645
 8630SOL    HW137109   2.387   5.236   5.193 -0.0397 -0.1200 -0.2896
 8630SOL    HW237110   2.225   5.260   5.187  0.1297  1.8520  2.3646
 8631SOL     OW37111   3.326   3.351   6.415  0.2795  0.1790  0.1332
 8631SOL    HW137112   3.279   3.304   6.340 -0.0342 -2.4181  1.9029
 8631SOL    HW237113   3.311   3.301   6.500 -0.6919  3.9347  2.2650
 8632SOL     OW37114   1.574   1.511   2.091  0.0629 -0.4857 -0.1457
 8632SOL    HW137115   1.604   1.560   2.010 -3.2853 -1.8050 -2.2782
 8632SOL    HW237116   1.555   1.577   2.165  0.5897  0.9622 -1.2889
 8633SOL     OW37117   8.421   0.458   3.563  0.4264 -0.6117 -0.0334
 8633SOL    HW137118   8.358   0.516   3.510  1.1255 -0.7905 -1.0724
 8633SOL    HW237119   8.375   0.373   3.589 -0.6011  0.3759  1.4763
 8634SOL     OW37120   7.625   2.530   0.892  0.0458 -0.7004 -0.8311
 8634SOL    HW137121   7.654   2.574   0.807  2.3551 -1.9888 -0.7293
 8634SOL    HW237122   7.592   2.438   0.873  0.8299 -1.0946 -0.2971
 8635SOL     OW37123   7.066   7.432   3.093 -0.3366 -0.1265 -0.4964
 8635SOL    HW137124   7.066   7.435   2.993 -0.5502 -2.0958 -0.5803
 8635SOL    HW237125   7.001   7.499   3.129 -1.3463 -0.4332 -1.7351
 8636SOL     OW37126   0.087   7.148   0.139  0.1675 -0.3355 -0.2743
 8636SOL    HW137127   0.047   7.239   0.150  0.6043 -0.2430  0.6056
 8636SOL    HW237128   0.158   7.151   0.069  1.9190  0.5797  1.4826
 8637SOL     OW37129   8.755   2.694   1.849  0.6176  0.5631 -0.2070
 8637SOL    HW137130   8.785   2.611   1.802  1.8551  1.8065 -1.6925
 8637SOL    HW237131   8.657   2.705   1.839  0.2692 -1.3033  0.9802
 8638SOL     OW37132   8.037   5.752   1.035  0.7267  0.5563 -0.1684
 8638SOL    HW137133   8.030   5.705   0.947  0.5965  1.6085 -0.7176
 8638SOL    HW237134   7.961   5.817   1.044 -0.1572 -0.6549  1.3771
 8639SOL     OW37135   1.376   0.754   2.347 -0.3898  0.2652  0.0415
 8639SOL    HW137136   1.284   0.790   2.359 -0.5454 -0.0560 -0.1833
 8639SOL    HW237137   1.406   0.710   2.432 -0.3477  0.5824  0.1927
 8640SOL     OW37138   7.175   1.483   2.378  0.4763 -0.1652 -0.5546
 8640SOL    HW137139   7.157   1.553   2.309  0.4090 -1.0304 -1.4218
 8640SOL    HW237140   7.130   1.398   2.351 -0.2623 -0.2741  0.9819
 8641SOL     OW37141   1.344   9.754   4.583  0.0900  0.6931  0.1629
 8641SOL    HW137142   1.374   9.659   4.593 -0.0568  0.4467 -1.4725
 8641SOL    HW237143   1.295   9.764   4.496  0.2384  2.2919  0.2460
 8642SOL     OW37144   2.218   3.539   2.111 -0.1143  0.3909 -0.3679
 8642SOL    HW137145   2.280   3.469   2.147  1.2986  1.2020 -1.1871
 8642SOL    HW237146   2.175   3.506   2.027 -0.8804 -0.2122  0.2555
 8643SOL     OW37147   8.809   9.711   2.939  0.3589  0.3983  0.1763
 8643SOL    HW137148   8.814   9.745   3.033  1.7543  0.2674  0.1475
 8643SOL    HW237149   8.742   9.766   2.888  1.2455  1.9242  0.6322
 8644SOL     OW37150   4.234   6.229   0.947 -0.4003  0.1797 -0.1129
 8644SOL    HW137151   4.136   6.247   0.951 -0.6009 -0.8208 -0.4435
 8644SOL    HW237152   4.253   6.161   0.877  0.3316 -0.9338  1.1357
 8645SOL     OW37153   0.383   0.750   4.081  0.1666  0.0440  0.1077
 8645SOL    HW137154   0.444   0.819   4.042  0.7023 -0.7053 -0.3945
 8645SOL    HW237155   0.375   0.673   4.018 -0.2075 -0.4745  0.7818
 8646SOL     OW37156   9.249   9.730   1.853  0.7486 -0.1066 -0.1086
 8646SOL    HW137157   9.302   9.647   1.832  1.7332  0.4268  0.2442
 8646SOL    HW237158   9.168   9.705   1.906  0.9314 -0.8720 -0.1836
 8647SOL     OW37159   6.115   4.869   0.968  0.3071  0.2610 -0.1487
 8647SOL    HW137160   6.208   4.904   0.984  0.0047  0.8396  0.3605
 8647SOL    HW237161   6.120   4.780   0.923  1.1101  0.3714 -0.2882
 8648SOL     OW37162   1.355   0.462   1.073  0.0833 -0.2411 -0.0665
 8648SOL    HW137163   1.295   0.473   1.152  2.9819  0.6904  2.0622
 8648SOL    HW237164   1.344   0.541   1.012  0.4637  0.8364  1.2353
 8649SOL     OW37165   4.461   6.430   2.421  0.0026  0.3644 -0.5762
 8649SOL    HW137166   4.423   6.469   2.337  1.0240  0.1501 -1.1450
 8649SOL    HW237167   4.440   6.333   2.426  1.1091  0.0819 -1.2660
 8650SOL     OW37168   4.433   9.462   3.820 -0.2109  0.1767  0.6658
 8650SOL    HW137169   4.369   9.514   3.763  0.4922  0.7769  0.4067
 8650SOL    HW237170   4.523   9.505   3.815  0.9596 -2.3957 -1.3980
 8651SOL     OW37171   3.305   2.080   4.351  0.5005 -0.5647 -0.1311
 8651SOL    HW137172   3.211   2.046   4.350  1.2984 -2.8286 -0.6610
 8651SOL    HW237173   3.339   2.082   4.445 -0.1745  0.6304  0.1078
 8652SOL     OW37174   7.266   2.019   5.677 -0.4759  0.1668  0.7519
 8652SOL    HW137175   7.295   2.112   5.655 -0.3513  0.3232  1.5672
 8652SOL    HW237176   7.202   2.021   5.753  0.7200 -0.5395  1.7903
 8653SOL     OW37177   5.609   7.700   2.240  0.0145  0.0964 -0.0105
 8653SOL    HW137178   5.589   7.798   2.247 -0.9728 -0.0597 -0.4390
 8653SOL    HW237179   5.613   7.660   2.332 -1.5112  0.1884  0.1223
 8654SOL     OW37180   2.010   2.698   2.589 -0.2819 -0.0229  0.5059
 8654SOL    HW137181   2.070   2.643   2.530  1.5954  0.5991  1.7724
 8654SOL    HW237182   1.969   2.640   2.658 -1.4521 -0.5238 -0.6049
 8655SOL     OW37183   2.213   3.469   5.065 -0.4083 -0.0182  0.3302
 8655SOL    HW137184   2.281   3.511   5.126  0.5050 -0.7000 -0.2048
 8655SOL    HW237185   2.258   3.402   5.006 -1.7771 -1.3831  0.8223
 8656SOL     OW37186   7.949   0.683   4.144 -0.5931  0.2633  0.2418
 8656SOL    HW137187   8.012   0.649   4.214 -0.0613  0.2814 -0.2142
 8656SOL    HW237188   7.925   0.608   4.082 -1.1460  0.2217  0.5089
 8657SOL     OW37189   7.986   4.157   2.265  0.0325  0.0218 -0.2363
 8657SOL    HW137190   7.989   4.072   2.211  0.1991 -0.1482  0.0401
 8657SOL    HW237191   7.999   4.235   2.204  0.8171 -0.2054 -0.3616
 8658SOL     OW37192   3.354   2.226   3.981 -0.4674  0.3017  0.0843
 8658SOL    HW137193   3.398   2.246   4.068  1.4869 -0.7534 -0.6431
 8658SOL    HW237194   3.369   2.302   3.917 -1.0847  0.6485  0.3449
 8659SOL     OW37195   3.248   7.380   0.526  0.1455  0.7174 -0.0166
 8659SOL    HW137196   3.310   7.365   0.603 -2.6753 -1.9755  1.8457
 8659SOL    HW237197   3.156   7.400   0.560 -0.6680  1.8135 -2.7022
 8660SOL     OW37198   9.304   0.955   6.333 -0.0597 -0.0206  0.9955
 8660SOL    HW137199   9.231   0.936   6.398  0.7318 -3.1225  1.0573
 8660SOL    HW237200   9.305   0.884   6.263 -1.1422  3.4315 -2.7307
 8661SOL     OW37201   8.693   9.446   4.815 -0.1013  0.0072 -0.1204
 8661SOL    HW137202   8.666   9.511   4.886  0.3419 -0.1349  0.1847
 8661SOL    HW237203   8.616   9.429   4.754 -1.0695 -1.3447  1.4569
 8662SOL     OW37204   1.093   3.309   6.473  0.0776  0.5532 -0.0521
 8662SOL    HW137205   1.118   3.370   6.548 -0.5720  1.6359 -0.7028
 8662SOL    HW237206   0.995   3.288   6.479  0.4164 -0.9387  0.5259
 8663SOL     OW37207   1.258   7.792   0.804  0.3726  0.5916 -0.4187
 8663SOL    HW137208   1.211   7.719   0.753  0.4750  0.4704 -0.3418
 8663SOL    HW237209   1.301   7.752   0.885  1.1900  0.5776 -0.8568
 8664SOL     OW37210   1.945   3.748   2.993 -0.0314 -0.0269 -0.1442
 8664SOL    HW137211   1.877   3.798   3.048  0.7434 -1.0422  1.7740
 8664SOL    HW237212   2.024   3.807   2.977 -0.1591  0.1951  0.0258
 8665SOL     OW37213   3.791   9.964   0.542 -0.2870  0.1595 -0.2145
 8665SOL    HW137214   3.713  10.008   0.498 -0.7473 -1.4301 -1.0161
 8665SOL    HW237215   3.796   9.868   0.514  2.0099  0.2558 -0.2533
 8666SOL     OW37216   6.981   4.252   1.190  0.3656 -0.8814  0.3115
 8666SOL    HW137217   6.963   4.349   1.173  0.5621 -0.8596  0.2241
 8666SOL    HW237218   6.987   4.236   1.289 -1.8646 -1.2042  0.4128
 8667SOL     OW37219   8.934   4.586   5.321  0.1804 -0.1635  0.3912
 8667SOL    HW137220   8.939   4.584   5.421  0.8373  0.5176  0.3758
 8667SOL    HW237221   9.023   4.614   5.284 -0.5629  1.2736 -0.3348
 8668SOL     OW37222   2.680   0.070   0.917  0.3720  0.0988  0.3367
 8668SOL    HW137223   2.730   0.128   0.982  0.1527  1.2314 -0.4885
 8668SOL    HW237224   2.656  -0.016   0.961  3.1885 -0.5430  0.7028
 8669SOL     OW37225   9.726   1.889   2.859 -0.0602 -0.4324 -0.7769
 8669SOL    HW137226   9.703   1.911   2.953 -0.3987 -2.7169 -0.2898
 8669SOL    HW237227   9.810   1.938   2.833 -1.4410  2.3247 -0.2219
 8670SOL     OW37228   8.133   8.547   2.065  0.3095  0.1766  0.2162
 8670SOL    HW137229   8.072   8.473   2.038  0.4613 -0.2163  0.9151
 8670SOL    HW237230   8.223   8.532   2.024  0.4553 -0.2509  0.6841
 8671SOL     OW37231   2.229   5.281   2.845 -0.1823  0.6774  0.1581
 8671SOL    HW137232   2.172   5.203   2.872  0.4031 -0.0098 -0.5605
 8671SOL    HW237233   2.218   5.355   2.912 -0.0873 -0.3376  1.3083
 8672SOL     OW37234   0.778   2.519   1.123  0.1872  0.4731  0.0928
 8672SOL    HW137235   0.698   2.575   1.100  0.0036  0.0371 -0.3480
 8672SOL    HW237236   0.761   2.424   1.096  1.2994  0.5893 -1.0951
 8673SOL     OW37237   5.474   2.731   4.707 -0.0382  0.3456  0.1206
 8673SOL    HW137238   5.572   2.742   4.690 -0.2135 -0.5514 -1.5059
 8673SOL    HW237239   5.426   2.715   4.621 -1.4189 -0.7803  1.0792
 8674SOL     OW37240   4.501   4.968   6.409 -0.4104 -1.2932  0.3113
 8674SOL    HW137241   4.550   5.025   6.343  1.5004 -1.2546  1.7161
 8674SOL    HW237242   4.449   4.898   6.361 -0.2462 -0.3356 -1.2955
 8675SOL     OW37243   9.527   0.261   2.434 -0.3126  0.3669 -0.2346
 8675SOL    HW137244   9.558   0.174   2.474 -0.3027  0.4958  0.0402
 8675SOL    HW237245   9.561   0.268   2.340 -1.0624 -0.3325 -0.5596
 8676SOL     OW37246   3.957   9.898   3.733  0.3907  0.2718 -0.4692
 8676SOL    HW137247   3.860   9.920   3.743  0.0226 -1.5853  0.3280
 8676SOL    HW237248   3.968   9.799   3.725  2.1476  0.5377 -1.6524
 8677SOL     OW37249   2.878   6.753   1.972  0.3432  0.3877  0.2924
 8677SOL    HW137250   2.943   6.791   2.037  1.2473 -0.8967  0.1673
 8677SOL    HW237251   2.921   6.747   1.882 -0.1952  0.2124  0.0431
 8678SOL     OW37252   2.856   6.360   1.326  0.3964 -0.1759 -0.2159
 8678SOL    HW137253   2.895   6.312   1.405 -0.7732  1.0737  1.1459
 8678SOL    HW237254   2.832   6.453   1.352 -0.7857 -0.0113 -1.8363
 8679SOL     OW37255   7.755   9.360   3.207 -0.2006  0.4433 -0.7901
 8679SOL    HW137256   7.837   9.415   3.194 -0.9421  1.8541  0.3411
 8679SOL    HW237257   7.774   9.287   3.273 -0.1454  1.4388  0.3137
 8680SOL     OW37258   1.743   6.628   1.957 -0.0565  0.0460 -0.0118
 8680SOL    HW137259   1.765   6.646   1.861 -0.7360  0.9853  0.0033
 8680SOL    HW237260   1.644   6.630   1.971  0.0464  0.1989  0.7628
 8681SOL     OW37261   7.550   0.759   0.746 -0.0194 -0.2254 -0.1650
 8681SOL    HW137262   7.596   0.792   0.663  3.2978  0.3287  1.7662
 8681SOL    HW237263   7.480   0.825   0.774 -1.2090 -0.4462 -2.5171
 8682SOL     OW37264   3.712   7.149   2.694  0.3645  0.8024  0.6246
 8682SOL    HW137265   3.652   7.135   2.773 -0.5194 -1.2734 -0.3845
 8682SOL    HW237266   3.798   7.100   2.709 -0.2293 -0.4973 -0.1534
 8683SOL     OW37267   2.430   0.000   3.731 -0.0938  0.1433  0.3158
 8683SOL    HW137268   2.495  -0.054   3.784 -0.2184  0.5315  0.8653
 8683SOL    HW237269   2.429  -0.033   3.637  1.0858  0.3050  0.2390
 8684SOL     OW37270   2.734   2.227   3.163 -0.3572 -0.0216 -0.1451
 8684SOL    HW137271   2.779   2.263   3.081  1.3597  0.9062  1.1534
 8684SOL    HW237272   2.637   2.212   3.145  0.1967 -0.7990 -2.6423
 8685SOL     OW37273   2.890   7.086   1.673  0.5160 -0.0147  0.5585
 8685SOL    HW137274   2.815   7.023   1.652  0.3579  0.0366  0.9703
 8685SOL    HW237275   2.912   7.140   1.593  0.8098 -0.7640  0.1237
 8686SOL     OW37276   7.426   2.461   0.679 -0.0687  0.1392  0.4743
 8686SOL    HW137277   7.494   2.397   0.713  1.9634  1.7064 -0.5226
 8686SOL    HW237278   7.338   2.415   0.671  0.6506 -1.6938  2.6035
 8687SOL     OW37279   4.626   0.919   0.681  0.0699 -0.1134  0.5946
 8687SOL    HW137280   4.671   1.008   0.686 -1.8374  0.7813  2.5794
 8687SOL    HW237281   4.532   0.931   0.648  0.3256 -1.6242 -0.7795
 8688SOL     OW37282   4.436   4.971   0.654 -0.2388 -0.3068  0.3164
 8688SOL    HW137283   4.428   4.985   0.753 -1.0226 -0.7016  0.3180
 8688SOL    HW237284   4.355   5.009   0.608 -0.2486 -0.8066 -0.0917
 8689SOL     OW37285   7.352   0.031   2.895  0.4710 -0.0054  0.2510
 8689SOL    HW137286   7.331  -0.054   2.942  1.3830  0.9725  2.5123
 8689SOL    HW237287   7.448   0.030   2.865  0.0348 -0.4170 -1.1599
 8690SOL     OW37288   3.175   2.884   1.165  0.1215 -0.7885 -0.6259
 8690SOL    HW137289   3.138   2.885   1.072  0.3040 -1.4432 -0.7075
 8690SOL    HW237290   3.206   2.976   1.190  1.5897 -0.9294 -1.8255
 8691SOL     OW37291   0.889   5.606   0.611 -0.1003 -0.7133  0.0177
 8691SOL    HW137292   0.803   5.588   0.564  0.5853 -0.7312 -1.2464
 8691SOL    HW237293   0.951   5.529   0.599  1.8660  1.2560 -3.1947
 8692SOL     OW37294   9.857   9.708   4.817  0.0573 -0.0400 -0.4798
 8692SOL    HW137295   9.840   9.621   4.862 -1.1067 -0.4980 -1.7569
 8692SOL    HW237296   9.881   9.777   4.885  0.3921 -1.2140  0.5965
 8693SOL     OW37297   3.863   8.306   4.589 -0.2898  0.1043 -0.3726
 8693SOL    HW137298   3.769   8.282   4.562 -0.8940  1.3025  0.5893
 8693SOL    HW237299   3.893   8.386   4.536 -0.1597  0.2910 -0.0163
 8694SOL     OW37300   2.619   1.449   5.726  0.1418 -0.6964  0.2629
 8694SOL    HW137301   2.544   1.383   5.735  0.0551 -0.4404  1.6777
 8694SOL    HW237302   2.706   1.404   5.747  0.1270 -0.4690  0.8286
 8695SOL     OW37303   4.980   5.098   4.205 -0.3310  0.6136  0.3127
 8695SOL    HW137304   5.041   5.170   4.239  0.4120  1.5249 -2.7935
 8695SOL    HW237305   5.033   5.028   4.159 -1.3991  0.0379 -0.0641
 8696SOL     OW37306   9.322   0.494   6.130 -0.3073 -0.2456 -0.1799
 8696SOL    HW137307   9.283   0.414   6.084 -1.1474 -0.2158  0.4570
 8696SOL    HW237308   9.308   0.485   6.229  0.1360  0.3993 -0.0608
 8697SOL     OW37309   3.044   3.610   2.611 -0.5499  0.5043 -0.2649
 8697SOL    HW137310   3.026   3.704   2.581 -1.8927  0.4422  0.3202
 8697SOL    HW237311   3.071   3.610   2.707 -1.6971  0.1816  0.0582
 8698SOL     OW37312   1.227   1.538   1.337 -0.0797 -0.4490 -0.5737
 8698SOL    HW137313   1.220   1.545   1.437 -2.1162 -0.1690 -0.7137
 8698SOL    HW237314   1.322   1.523   1.311  0.6008  0.3886  1.3600
 8699SOL     OW37315   7.162   1.689   2.188 -0.3080 -0.2822 -0.3456
 8699SOL    HW137316   7.236   1.755   2.173  1.4237 -1.9102  0.8485
 8699SOL    HW237317   7.123   1.663   2.100 -2.0545  3.4363 -0.7568
 8700SOL     OW37318   1.343   7.074   4.503 -0.1569 -0.8269 -0.0126
 8700SOL    HW137319   1.295   7.161   4.511  0.7521 -0.5835  3.7664
 8700SOL    HW237320   1.279   6.999   4.523 -0.3934 -0.9347 -1.0970
 8701SOL     OW37321   7.727   6.710   1.601 -0.1492 -0.1793  0.6128
 8701SOL    HW137322   7.686   6.795   1.570  1.4309  0.3149 -0.1609
 8701SOL    HW237323   7.709   6.698   1.698 -0.0694  1.2212  0.8105
 8702SOL     OW37324   0.137   7.712   1.329  0.2504  0.1240 -0.4438
 8702SOL    HW137325   0.085   7.797   1.340 -0.4735 -0.0940 -2.0089
 8702SOL    HW237326   0.081   7.646   1.279  0.3964 -1.6728  1.7112
 8703SOL     OW37327   6.672   1.609   1.912 -0.1263 -0.1742  0.1647
 8703SOL    HW137328   6.709   1.640   1.824  0.2467 -0.5159  0.1970
 8703SOL    HW237329   6.695   1.513   1.925  0.0031 -0.0668  0.7358
 8704SOL     OW37330   6.553   8.083   5.014 -0.1299  0.2146  0.0233
 8704SOL    HW137331   6.494   8.004   4.996  2.0386 -1.0847 -1.6602
 8704SOL    HW237332   6.527   8.159   4.954  0.1749 -0.4962 -1.0186
 8705SOL     OW37333   2.551   0.722   1.531 -0.5404 -0.4067 -0.5706
 8705SOL    HW137334   2.453   0.716   1.517 -0.7883 -1.0844  1.3217
 8705SOL    HW237335   2.570   0.789   1.604  0.3791 -0.3936 -0.8161
 8706SOL     OW37336   1.065   0.744   2.712  0.3915 -0.0538 -0.1849
 8706SOL    HW137337   1.033   0.686   2.637 -1.1813 -0.9089  1.1322
 8706SOL    HW237338   1.081   0.689   2.793  2.1747  0.8659  0.1149
 8707SOL     OW37339   2.942   2.603   3.958 -0.0462  0.0879 -0.2152
 8707SOL    HW137340   3.026   2.630   4.004 -1.3061  0.4110  1.9334
 8707SOL    HW237341   2.871   2.672   3.973 -1.2844 -1.1172 -0.3615
 8708SOL     OW37342   8.375   8.728   1.046  0.9225  0.5839 -0.3745
 8708SOL    HW137343   8.471   8.746   1.027  1.4008 -1.1450  0.2194
 8708SOL    HW237344   8.358   8.739   1.144  1.0165 -1.0897 -0.1451
 8709SOL     OW37345   4.669   1.090   2.359 -0.3410 -0.4051  0.6183
 8709SOL    HW137346   4.629   1.133   2.440 -0.0528  0.7916  0.1269
 8709SOL    HW237347   4.709   1.160   2.300 -1.7543 -1.1010 -1.2284
 8710SOL     OW37348   3.340   4.236   2.665  0.5700 -0.0422 -0.4972
 8710SOL    HW137349   3.392   4.322   2.668  0.5520 -0.0405 -0.1573
 8710SOL    HW237350   3.357   4.190   2.578  0.0857  0.6120 -0.9489
 8711SOL     OW37351   8.683   5.971   3.978  0.1396 -0.5874 -0.0631
 8711SOL    HW137352   8.741   5.921   4.042 -0.5085  0.0334  1.0435
 8711SOL    HW237353   8.587   5.946   3.994 -0.2098  1.0706  0.6086
 8712SOL     OW37354   6.281   9.041   3.607  0.1761 -0.2353  0.1313
 8712SOL    HW137355   6.367   9.077   3.572  0.3208  0.1526  0.8565
 8712SOL    HW237356   6.221   9.117   3.633  0.1235 -0.5051  0.8175
 8713SOL     OW37357   1.538   5.707   5.923  0.0879 -0.2371 -0.4817
 8713SOL    HW137358   1.628   5.683   5.960  0.6393  3.0456  0.4155
 8713SOL    HW237359   1.543   5.711   5.823  1.1097  0.5490 -0.4018
 8714SOL     OW37360   0.084   2.474   0.740  0.2621 -0.1356  0.2044
 8714SOL    HW137361   0.140   2.537   0.686  0.8808  0.2099  1.2116
 8714SOL    HW237362  -0.005   2.515   0.758  0.3694  0.1147  0.1723
 8715SOL     OW37363   6.939   1.500   0.563  0.4519  0.0987 -0.6126
 8715SOL    HW137364   6.915   1.448   0.482 -0.8740 -0.8884  0.3922
 8715SOL    HW237365   7.038   1.512   0.567  0.7504 -2.0424 -1.0632
 8716SOL     OW37366   9.785   0.872   4.660  0.0830  0.2635 -0.3990
 8716SOL    HW137367   9.843   0.898   4.737  0.9039 -1.9905 -0.2276
 8716SOL    HW237368   9.838   0.821   4.594 -1.4682 -0.9553 -0.7281
 8717SOL     OW37369   8.503   5.055   5.253 -0.1815  0.2909 -0.1364
 8717SOL    HW137370   8.441   5.013   5.319  0.1643 -0.3580 -0.2188
 8717SOL    HW237371   8.478   5.028   5.161  0.7617 -0.7099 -0.1135
 8718SOL     OW37372   7.353   1.606   2.554 -0.7217 -0.0621  0.6148
 8718SOL    HW137373   7.299   1.561   2.482 -0.6638 -0.8169  1.0419
 8718SOL    HW237374   7.316   1.582   2.643 -0.9236  1.0525  0.8349
 8719SOL     OW37375   4.815   4.449   6.356 -0.5231 -0.0788 -0.3070
 8719SOL    HW137376   4.812   4.496   6.268 -0.7028  1.5043  0.5087
 8719SOL    HW237377   4.767   4.505   6.424  1.7101 -0.1124  1.3345
 8720SOL     OW37378   3.258   7.926   5.812 -0.2542  0.2040 -0.3329
 8720SOL    HW137379   3.239   8.006   5.755  0.7035 -0.4355 -1.5746
 8720SOL    HW237380   3.251   7.843   5.756 -1.6860 -0.6302  1.0353
 8721SOL     OW37381   8.376   6.170   3.468 -0.0418  0.4336 -0.1864
 8721SOL    HW137382   8.310   6.179   3.543  1.3384  0.1877  1.0759
 8721SOL    HW237383   8.430   6.254   3.461  0.4519  0.1039 -0.3068
 8722SOL     OW37384   7.120   1.975   1.493 -0.1549  0.6638 -0.0420
 8722SOL    HW137385   7.103   2.016   1.582  0.1557  0.9966 -0.1349
 8722SOL    HW237386   7.217   1.986   1.469 -0.5560  1.9694 -1.1228
 8723SOL     OW37387   2.683   2.500   2.569  0.1521 -0.1442 -0.3695
 8723SOL    HW137388   2.644   2.583   2.608  0.9023 -0.3584  0.8648
 8723SOL    HW237389   2.740   2.524   2.490 -1.3941  0.2876 -1.3657
 8724SOL     OW37390   4.236   1.451   2.959 -0.7092 -0.7396 -0.9740
 8724SOL    HW137391   4.205   1.531   2.908 -1.6533 -1.5807 -1.7532
 8724SOL    HW237392   4.212   1.368   2.908 -0.5957 -1.5528  0.2786
 8725SOL     OW37393   6.579   2.077   3.280 -0.5077 -0.9317  0.8027
 8725SOL    HW137394   6.659   2.108   3.230 -1.5687 -2.7881 -2.1542
 8725SOL    HW237395   6.504   2.143   3.268 -0.0465 -0.1780  1.9654
 8726SOL     OW37396   7.756   1.581   1.599 -0.0319  0.4979  0.1002
 8726SOL    HW137397   7.781   1.485   1.606  1.2606  0.7965 -0.3438
 8726SOL    HW237398   7.714   1.598   1.510 -0.5310  0.3000  0.2905
 8727SOL     OW37399   4.385   9.528   0.326  0.2719  0.2874 -0.3172
 8727SOL    HW137400   4.430   9.440   0.340 -0.4896  0.0899  0.9413
 8727SOL    HW237401   4.399   9.586   0.405 -1.3764  0.3561 -0.0572
 8728SOL     OW37402   9.141   7.064   5.880  0.4218 -0.5652 -0.2904
 8728SOL    HW137403   9.148   7.112   5.793 -0.8076  2.2068  1.0630
 8728SOL    HW237404   9.226   7.075   5.931  0.4399 -0.4821 -0.3371
 8729SOL     OW37405   2.495   7.738   4.530 -0.3441  0.7949 -0.6212
 8729SOL    HW137406   2.528   7.737   4.436  1.9902  2.4168  0.1335
 8729SOL    HW237407   2.405   7.781   4.533 -1.3509 -1.0791 -2.3432
 8730SOL     OW37408   1.887   5.977   4.214 -0.0193 -0.0343 -0.0002
 8730SOL    HW137409   1.898   5.900   4.277 -0.0986  1.2704  1.6317
 8730SOL    HW237410   1.875   6.061   4.266 -1.7151  0.8489 -1.7624
 8731SOL     OW37411   0.263   7.240   4.644  0.4406 -0.0828  0.5425
 8731SOL    HW137412   0.182   7.186   4.620 -0.3602  0.6924  1.4416
 8731SOL    HW237413   0.256   7.330   4.601 -0.4170  0.8828  2.6106
 8732SOL     OW37414   8.609   0.580   4.916  0.6118  0.3629 -0.0006
 8732SOL    HW137415   8.630   0.517   4.841  4.4815  0.8045  0.5622
 8732SOL    HW237416   8.637   0.539   5.003 -1.2679  0.9624  0.8972
 8733SOL     OW37417   2.422   7.444   1.575 -0.9294  0.2240 -0.9840
 8733SOL    HW137418   2.436   7.479   1.667  0.0227 -1.7047 -0.3681
 8733SOL    HW237419   2.440   7.517   1.508  0.8064  0.9719  0.2590
 8734SOL     OW37420   6.360   0.504   4.776 -0.0296  0.3466  0.0096
 8734SOL    HW137421   6.306   0.568   4.830  1.2145  1.0450  0.4374
 8734SOL    HW237422   6.447   0.485   4.822 -0.7128 -2.3114  0.3070
 8735SOL     OW37423   0.616   4.611   0.080 -0.0492  0.2909 -0.1122
 8735SOL    HW137424   0.659   4.662   0.154  0.0239 -1.4521  1.0631
 8735SOL    HW237425   0.589   4.674   0.007  0.7211  1.8966  0.9761
 8736SOL     OW37426   9.216   8.805   6.506  0.0347  0.2331 -0.4880
 8736SOL    HW137427   9.135   8.840   6.553  0.1834  0.5465 -0.4578
 8736SOL    HW237428   9.198   8.801   6.408 -0.6629 -1.5016 -0.2918
 8737SOL     OW37429   4.650   3.031   1.773  0.9075 -0.0469  0.0079
 8737SOL    HW137430   4.744   3.009   1.801  1.3148  0.8926 -0.5966
 8737SOL    HW237431   4.587   2.966   1.816  1.9952 -1.7984 -0.9577
 8738SOL     OW37432   3.028   6.234   5.684  0.3417  0.2067 -0.1048
 8738SOL    HW137433   3.120   6.241   5.722  0.3204  2.3910 -0.4219
 8738SOL    HW237434   3.001   6.321   5.644 -1.4447 -0.7272 -1.0183
 8739SOL     OW37435   7.303   1.704   1.677 -0.1860  0.2638  0.2527
 8739SOL    HW137436   7.387   1.719   1.730  0.2159  0.4363 -0.4224
 8739SOL    HW237437   7.315   1.741   1.584 -1.1445  0.6189  0.2667
 8740SOL     OW37438   5.302   2.726   4.027 -0.0242 -0.4410  0.0790
 8740SOL    HW137439   5.212   2.695   3.995  0.7603 -0.5222 -2.1815
 8740SOL    HW237440   5.357   2.646   4.052  0.5498 -0.6501 -1.7496
 8741SOL     OW37441   1.081   8.796   1.780  0.6132  0.4293 -0.1288
 8741SOL    HW137442   1.075   8.872   1.844 -0.9173 -0.1133  0.3914
 8741SOL    HW237443   0.990   8.760   1.761  1.3261 -1.4542 -0.1364
 8742SOL     OW37444   0.385   9.039   6.028  0.0447 -0.2103  0.6401
 8742SOL    HW137445   0.423   8.990   5.949 -0.1678  1.1099 -0.3060
 8742SOL    HW237446   0.287   9.021   6.035  0.1756 -0.7877  0.9388
 8743SOL     OW37447   7.477   9.667   1.467  0.4989  0.4652 -0.4388
 8743SOL    HW137448   7.480   9.626   1.559 -0.7627  1.6459  0.1475
 8743SOL    HW237449   7.570   9.686   1.436  0.9284  0.2654  0.6948
 8744SOL     OW37450   3.538   3.671   0.886  0.5715  0.1098 -0.0881
 8744SOL    HW137451   3.471   3.701   0.954  0.6844  1.6013 -0.6174
 8744SOL    HW237452   3.527   3.723   0.802  0.6469 -1.5019 -1.1315
 8745SOL     OW37453   8.233   4.275   3.574 -0.2525  0.5911 -0.0971
 8745SOL    HW137454   8.237   4.177   3.591 -2.4999  0.3795 -0.6785
 8745SOL    HW237455   8.139   4.308   3.583 -0.0010  2.1805 -2.5165
 8746SOL     OW37456   0.576   2.676   1.477  0.5316 -0.2772 -0.0634
 8746SOL    HW137457   0.621   2.664   1.565  0.7884  0.0145 -0.1549
 8746SOL    HW237458   0.526   2.763   1.476  0.4242 -0.3398 -0.1587
 8747SOL     OW37459   0.411   8.412   2.059  0.1324  0.3226  0.3134
 8747SOL    HW137460   0.347   8.481   2.092 -1.3891 -0.0746 -1.7654
 8747SOL    HW237461   0.384   8.322   2.093 -0.1149  0.2249 -0.1416
 8748SOL     OW37462   7.940   4.429   2.921  0.2963 -0.0783 -0.0251
 8748SOL    HW137463   7.930   4.339   2.964 -1.7539 -0.4766 -1.2774
 8748SOL    HW237464   8.010   4.424   2.850  0.0329 -0.7251 -0.2405
 8749SOL     OW37465   0.028   2.348   4.968  0.2148 -0.7281 -0.0931
 8749SOL    HW137466   0.056   2.391   5.054  1.6640  0.1527 -0.9730
 8749SOL    HW237467   0.080   2.388   4.893 -0.4653 -2.0463 -1.2906
 8750SOL     OW37468   8.129   5.466   2.214  0.0325  0.0698  0.4238
 8750SOL    HW137469   8.111   5.399   2.142 -1.0009  2.3652 -1.5110
 8750SOL    HW237470   8.076   5.443   2.295 -1.1032 -0.8801 -0.5696
 8751SOL     OW37471   0.898   9.075   4.153 -0.0846  0.1565 -0.3779
 8751SOL    HW137472   0.971   9.021   4.195 -0.4585  0.4836  0.7035
 8751SOL    HW237473   0.938   9.151   4.102  0.3020  0.8830  0.9797
 8752SOL     OW37474   0.019   5.387   6.623 -0.2149 -0.3046  0.3123
 8752SOL    HW137475  -0.042   5.312   6.647  0.2613 -1.2485 -1.2984
 8752SOL    HW237476  -0.032   5.457   6.574 -0.5136  0.1037  1.1959
 8753SOL     OW37477   0.464   1.571   3.830 -0.2160  0.4679 -0.1958
 8753SOL    HW137478   0.478   1.585   3.732  0.3916  0.7502 -0.0731
 8753SOL    HW237479   0.385   1.511   3.844 -1.1575  1.5386 -0.8157
 8754SOL     OW37480   5.432   1.365   3.844  0.6395  0.0335 -0.2143
 8754SOL    HW137481   5.334   1.344   3.848  0.5979  0.0869 -0.8757
 8754SOL    HW237482   5.446   1.462   3.865  0.4509  0.2609 -1.1265
 8755SOL     OW37483   4.579   4.794   0.527  0.4625 -0.2265 -0.2558
 8755SOL    HW137484   4.519   4.855   0.578  2.3760  0.3257  1.4168
 8755SOL    HW237485   4.570   4.701   0.561  0.0315 -0.2757 -0.5021
 8756SOL     OW37486   2.054   6.521   0.723 -0.0894 -0.6493 -0.0679
 8756SOL    HW137487   2.122   6.458   0.760  0.2321 -1.7510 -2.4553
 8756SOL    HW237488   2.099   6.603   0.689  0.1533 -1.5839 -2.0871
 8757SOL     OW37489   8.446   3.659   4.425  0.0482  0.0904 -0.3542
 8757SOL    HW137490   8.456   3.720   4.504 -3.1739 -0.1448  0.2737
 8757SOL    HW237491   8.537   3.642   4.385  1.8403 -0.2067  3.5837
 8758SOL     OW37492   7.293   2.567   3.379  0.5494  0.5105 -0.1323
 8758SOL    HW137493   7.343   2.617   3.309 -0.6547  1.3818 -0.3896
 8758SOL    HW237494   7.195   2.574   3.361  0.2877 -0.4645  0.8341
 8759SOL     OW37495   5.213   1.279   3.048 -0.1855 -0.5673  0.4921
 8759SOL    HW137496   5.195   1.274   3.146  1.1876 -0.0625  0.7671
 8759SOL    HW237497   5.277   1.353   3.029 -0.3465 -0.7439 -0.7777
 8760SOL     OW37498   3.206   0.705   5.866 -0.4544 -0.5638  0.0818
 8760SOL    HW137499   3.266   0.668   5.795 -1.5779  0.9817 -1.7260
 8760SOL    HW237500   3.111   0.683   5.844 -0.7779 -0.4682  1.3628
 8761SOL     OW37501   4.369   4.171   1.910  0.1403 -0.0171 -0.5656
 8761SOL    HW137502   4.466   4.166   1.935  0.3845  0.3755 -1.4164
 8761SOL    HW237503   4.324   4.242   1.965  0.6392  0.7346 -1.1190
 8762SOL     OW37504   6.867   5.838   6.338  0.2463  0.6373  0.0877
 8762SOL    HW137505   6.941   5.878   6.391  0.4326  0.4395 -0.0205
 8762SOL    HW237506   6.846   5.747   6.374 -0.0432  0.7521  0.2111
 8763SOL     OW37507   0.818   7.538   2.812 -0.0439 -0.1297  0.1503
 8763SOL    HW137508   0.733   7.544   2.864 -0.4850  0.5622 -0.6339
 8763SOL    HW237509   0.837   7.626   2.768 -0.3728 -1.0228 -1.8778
 8764SOL     OW37510   6.841   2.859   0.479 -0.6928  0.2512  0.5820
 8764SOL    HW137511   6.878   2.767   0.490 -0.5868  0.2682  0.3613
 8764SOL    HW237512   6.760   2.856   0.420 -0.6837  0.3002  0.5663
 8765SOL     OW37513   6.323   2.247   3.567  0.4592  0.4316 -0.2559
 8765SOL    HW137514   6.299   2.253   3.663 -0.1635 -2.0813 -0.2034
 8765SOL    HW237515   6.420   2.223   3.558  0.1577 -0.8772 -0.1867
 8766SOL     OW37516   8.839   1.067   3.428  0.7732  0.3261 -0.1146
 8766SOL    HW137517   8.761   1.051   3.366  0.6912  3.2453 -0.8768
 8766SOL    HW237518   8.806   1.111   3.511  1.3924 -0.0756  0.3425
 8767SOL     OW37519   0.658   2.532   3.360  0.6367  0.4467  0.0522
 8767SOL    HW137520   0.636   2.436   3.379  0.5137  0.1780 -1.3652
 8767SOL    HW237521   0.748   2.538   3.318  0.9114  1.0243  0.7123
 8768SOL     OW37522   7.195   4.307   6.099  0.1094  0.3641 -0.0570
 8768SOL    HW137523   7.161   4.390   6.143 -0.2101 -0.6454  1.6620
 8768SOL    HW237524   7.166   4.227   6.153  2.4609 -0.7141 -0.3433
 8769SOL     OW37525   0.467   3.333   3.248 -0.1816 -0.3253  0.2318
 8769SOL    HW137526   0.443   3.413   3.303  2.8296 -1.2737  3.0977
 8769SOL    HW237527   0.566   3.318   3.252 -0.6375 -4.0685 -0.3513
 8770SOL     OW37528   1.204   1.437   1.018  0.1526  0.0916  0.2374
 8770SOL    HW137529   1.206   1.452   1.117 -1.2852 -0.7142  0.4056
 8770SOL    HW237530   1.132   1.493   0.977 -0.4924 -0.9378 -0.0798
 8771SOL     OW37531   0.514   5.099   1.819  0.2620  0.3396  0.3038
 8771SOL    HW137532   0.465   5.062   1.740 -0.4473 -0.8877  1.2894
 8771SOL    HW237533   0.451   5.155   1.874  0.0477 -0.8710  1.3324
 8772SOL     OW37534   9.456   3.334   4.956  0.2380  0.1241 -0.0128
 8772SOL    HW137535   9.497   3.288   5.034 -1.0384 -0.5731  0.2523
 8772SOL    HW237536   9.419   3.422   4.985  1.3648  0.6771 -0.2167
 8773SOL     OW37537   2.918   0.712   6.325  0.3563  0.8168  0.3023
 8773SOL    HW137538   2.943   0.618   6.347  1.1927  0.4745 -2.0190
 8773SOL    HW237539   2.886   0.717   6.230  0.0612  2.8207  0.4803
 8774SOL     OW37540   3.690   4.884   6.697 -0.3500 -0.2798  0.0502
 8774SOL    HW137541   3.618   4.813   6.699 -0.7448  0.0215 -2.2071
 8774SOL    HW237542   3.776   4.843   6.666 -0.8743  0.4442 -2.4446
 8775SOL     OW37543   2.473   0.755   6.747  0.4878 -0.1490  0.1607
 8775SOL    HW137544   2.451   0.686   6.678  1.8168 -2.4458  1.9513
 8775SOL    HW237545   2.396   0.766   6.809  0.4201 -0.3001  0.1021
 8776SOL     OW37546   0.124   7.433   2.424  0.3136  0.1150 -0.5979
 8776SOL    HW137547   0.045   7.384   2.388 -0.2357  0.4076  0.1887
 8776SOL    HW237548   0.111   7.531   2.408  1.0333  0.0762 -1.4496
 8777SOL     OW37549   6.668   0.209   2.692 -0.5099  0.0456  0.6974
 8777SOL    HW137550   6.653   0.295   2.742  0.2725  0.7429 -0.2467
 8777SOL    HW237551   6.587   0.188   2.638  0.1336  1.3862 -0.8259
 8778SOL     OW37552   5.713   9.330   2.561  0.2645 -0.0995 -0.3984
 8778SOL    HW137553   5.780   9.354   2.492 -0.2474  1.5959 -0.3361
 8778SOL    HW237554   5.754   9.268   2.628  0.8639 -1.4742 -1.9937
 8779SOL     OW37555   2.925   5.153   6.224  0.1554  0.2161 -0.4380
 8779SOL    HW137556   2.920   5.171   6.322  0.0023 -0.7768 -0.2558
 8779SOL    HW237557   2.981   5.223   6.180  1.0912  0.0789  0.5181
 8780SOL     OW37558   0.624   1.236   0.123 -0.4544  0.3503  0.0629
 8780SOL    HW137559   0.583   1.198   0.206 -1.6761  1.6796  0.0788
 8780SOL    HW237560   0.691   1.306   0.148  0.1872 -0.2155 -0.0432
 8781SOL     OW37561   1.144   5.128   4.769 -0.6396  0.1415  0.2826
 8781SOL    HW137562   1.107   5.112   4.677 -0.2585  0.3040  0.0997
 8781SOL    HW237563   1.079   5.183   4.822 -1.0059 -0.2288  0.2177
 8782SOL     OW37564   9.315   0.101   6.659 -0.1858  0.4138  0.1147
 8782SOL    HW137565   9.364   0.015   6.644  0.6496  1.0648 -0.9194
 8782SOL    HW237566   9.222   0.081   6.689 -0.7025 -0.8866 -2.2925
 8783SOL     OW37567   2.031   4.165   2.916 -0.8859  0.1728 -0.2267
 8783SOL    HW137568   1.970   4.236   2.880 -0.7462  0.3304 -0.1588
 8783SOL    HW237569   1.991   4.125   2.998 -0.6926  0.5830  0.0673
 8784SOL     OW37570   1.556   4.450   1.291 -0.4694  0.0275  0.4880
 8784SOL    HW137571   1.512   4.375   1.241  0.5631  0.0500 -0.4894
 8784SOL    HW237572   1.499   4.532   1.286 -0.5222 -0.0604 -0.3899
 8785SOL     OW37573   4.170   0.800   5.055  0.5241  0.0187  0.1723
 8785SOL    HW137574   4.124   0.755   5.131 -1.6976  1.1885 -0.4304
 8785SOL    HW237575   4.182   0.735   4.980 -2.6345  0.3532 -0.6841
 8786SOL     OW37576   4.561   8.174   1.724 -0.5579  0.1188  0.3562
 8786SOL    HW137577   4.532   8.200   1.632 -0.4978  0.7875  0.5232
 8786SOL    HW237578   4.605   8.085   1.721  0.9328  0.8651 -0.5375
 8787SOL     OW37579   7.364   2.088   2.562 -0.2121 -0.1177 -0.6481
 8787SOL    HW137580   7.383   2.185   2.547 -0.3967  0.1684  0.8313
 8787SOL    HW237581   7.266   2.076   2.579 -0.0526 -0.4285  0.0872
 8788SOL     OW37582   0.554   9.695   3.829  0.2570  0.1235 -0.4664
 8788SOL    HW137583   0.559   9.612   3.774 -0.4886  0.2160 -0.6784
 8788SOL    HW237584   0.567   9.775   3.771  0.3014  0.1854 -0.3722
 8789SOL     OW37585   7.499   0.877   3.034  0.2564  0.0845  0.2907
 8789SOL    HW137586   7.541   0.830   2.955 -1.6321 -0.7950 -0.2098
 8789SOL    HW237587   7.403   0.850   3.042 -0.0475  1.5482  1.8453
 8790SOL     OW37588   3.742   8.988   4.455 -0.0492  0.0736 -0.1673
 8790SOL    HW137589   3.678   9.022   4.524 -1.0610  1.6663 -1.8283
 8790SOL    HW237590   3.815   9.055   4.442  0.3877 -0.4315 -0.3130
 8791SOL     OW37591   2.726   3.249   0.725  0.0813  0.1148 -0.0975
 8791SOL    HW137592   2.790   3.179   0.693 -0.2925 -0.4225  0.3252
 8791SOL    HW237593   2.747   3.336   0.680 -0.4334 -0.6220 -1.8050
 8792SOL     OW37594   3.192   3.592   3.406  0.0649 -0.4722  0.2175
 8792SOL    HW137595   3.165   3.497   3.427 -0.7902 -0.7980 -2.2120
 8792SOL    HW237596   3.255   3.592   3.329 -0.1049  0.9735  0.0726
 8793SOL     OW37597   5.473   2.201   4.763  0.4597  0.0186 -0.0680
 8793SOL    HW137598   5.375   2.190   4.777  0.1725  0.8732 -1.3063
 8793SOL    HW237599   5.523   2.159   4.839 -0.8209 -1.5611 -0.0822
 8794SOL     OW37600   3.914   2.236   4.573  0.3436 -0.3211  0.3716
 8794SOL    HW137601   3.872   2.327   4.577  1.7595  0.2869  2.0821
 8794SOL    HW237602   3.977   2.232   4.495 -0.3704 -0.1347 -0.2202
 8795SOL     OW37603   6.307   2.566   3.120  0.0851  0.9351 -0.0297
 8795SOL    HW137604   6.301   2.510   3.037  1.1345 -0.4419  0.7947
 8795SOL    HW237605   6.403   2.585   3.141 -0.1489  0.9283  1.0873
 8796SOL     OW37606   1.087   6.417   3.664 -0.2091  0.4023  0.2273
 8796SOL    HW137607   1.155   6.489   3.652 -0.0179  0.2696  0.5038
 8796SOL    HW237608   1.043   6.398   3.576  1.1271 -0.5138 -0.2744
 8797SOL     OW37609   4.774   8.128   4.879 -0.0463 -0.1498 -0.2441
 8797SOL    HW137610   4.797   8.035   4.850 -0.2734  0.0903 -1.2467
 8797SOL    HW237611   4.680   8.148   4.852 -1.2278 -0.8816  3.1821
 8798SOL     OW37612   8.152   8.802   4.461  0.5752  0.0242  0.3336
 8798SOL    HW137613   8.164   8.728   4.527  1.8242  0.0725  0.1642
 8798SOL    HW237614   8.231   8.863   4.465  0.0042  0.8098 -0.2230
 8799SOL     OW37615   6.048   9.346   2.602  0.1762  0.0234  0.1247
 8799SOL    HW137616   6.137   9.390   2.590  0.4232 -0.7769 -1.0330
 8799SOL    HW237617   5.991   9.364   2.522 -0.7619  0.6519  0.9208
 8800SOL     OW37618   2.391   7.975   5.601  0.2580  0.4854  0.3735
 8800SOL    HW137619   2.330   7.914   5.550  0.2943  1.4752 -0.8747
 8800SOL    HW237620   2.460   8.013   5.539  0.9547  0.8897  1.3812
 8801SOL     OW37621   2.283   5.269   3.330 -0.3670 -0.9412  0.0010
 8801SOL    HW137622   2.247   5.186   3.373 -0.2540 -0.6018  0.7641
 8801SOL    HW237623   2.366   5.297   3.378  0.5796 -1.3788 -1.3645
 8802SOL     OW37624   4.644   6.590   1.446  0.1226 -0.1472 -0.0718
 8802SOL    HW137625   4.624   6.552   1.356 -0.9014 -0.5825  0.3308
 8802SOL    HW237626   4.742   6.609   1.453  0.2324 -0.2328 -1.2244
 8803SOL     OW37627   1.855   7.501   3.663  0.4178 -0.1853 -0.1979
 8803SOL    HW137628   1.763   7.534   3.681  0.0544 -1.4356  0.2524
 8803SOL    HW237629   1.922   7.565   3.702 -0.2619  0.2136  0.3221
 8804SOL     OW37630   3.170   0.850   4.780  0.3154  0.5939  0.3596
 8804SOL    HW137631   3.219   0.904   4.711 -0.2878  0.2756 -0.3361
 8804SOL    HW237632   3.233   0.823   4.853  0.8705  1.2867  0.1401
 8805SOL     OW37633   6.785   1.509   4.938 -0.4208 -1.0859 -0.3009
 8805SOL    HW137634   6.795   1.524   4.839  0.1857 -2.5783 -0.4778
 8805SOL    HW237635   6.789   1.597   4.985 -1.0144 -0.3286 -1.6317
 8806SOL     OW37636   2.033   2.989   1.972 -0.2106 -0.2319  0.2095
 8806SOL    HW137637   1.944   3.010   1.932 -0.3708 -1.3043 -0.0188
 8806SOL    HW237638   2.036   3.023   2.066 -0.0697  1.7113 -0.4668
 8807SOL     OW37639   9.695   6.452   5.319  0.4880  0.5410 -0.5093
 8807SOL    HW137640   9.601   6.450   5.284 -0.3899 -0.3203  1.8040
 8807SOL    HW237641   9.726   6.546   5.325 -1.1769  1.0161  1.0759
 8808SOL     OW37642   6.873   5.549   6.618  0.1101  0.3248  0.1760
 8808SOL    HW137643   6.833   5.512   6.702  0.9487  0.7161  0.7548
 8808SOL    HW237644   6.805   5.547   6.545 -0.4377 -0.5852  0.7040
 8809SOL     OW37645   9.500   5.500   6.272 -0.1787 -0.3217  0.0657
 8809SOL    HW137646   9.528   5.482   6.366  0.5205 -0.0407 -0.0804
 8809SOL    HW237647   9.450   5.422   6.236 -0.7574 -0.2890  0.7874
 8810SOL     OW37648   8.286   7.998   3.193 -0.0275 -0.5197 -0.0932
 8810SOL    HW137649   8.347   7.932   3.236 -0.7947 -1.2679 -0.1429
 8810SOL    HW237650   8.244   8.056   3.264  0.3947 -0.3005 -0.0232
 8811SOL     OW37651   9.487   9.839   2.932 -0.2384  0.0544 -0.8498
 8811SOL    HW137652   9.441   9.885   2.857 -1.8964  2.0000  1.2625
 8811SOL    HW237653   9.459   9.881   3.019  3.1689 -0.7540  0.7375
 8812SOL     OW37654   7.895   2.765   4.730 -0.2343  0.4436  0.2382
 8812SOL    HW137655   7.927   2.726   4.817  1.0839 -0.2564 -0.5332
 8812SOL    HW237656   7.898   2.694   4.659 -3.4874  0.3851  0.0933
 8813SOL     OW37657   2.608   3.672   5.134  0.2572 -0.7315  0.0171
 8813SOL    HW137658   2.705   3.651   5.121  0.6362  0.4009  0.9775
 8813SOL    HW237659   2.563   3.678   5.044  1.6940  1.5907 -0.5632
 8814SOL     OW37660   2.776   0.790   5.627 -0.1883 -0.1115 -0.0427
 8814SOL    HW137661   2.742   0.790   5.533 -1.1583 -1.8141  0.2972
 8814SOL    HW237662   2.775   0.884   5.663 -1.0544  0.3598 -1.2677
 8815SOL     OW37663   7.775   1.334   2.182  0.2788 -0.1642  0.0679
 8815SOL    HW137664   7.751   1.358   2.087 -0.2932 -0.9481  0.0064
 8815SOL    HW237665   7.710   1.266   2.216  2.6099 -2.5776 -0.1744
 8816SOL     OW37666   4.571   7.712   3.204  0.1386 -0.1986 -0.2392
 8816SOL    HW137667   4.622   7.634   3.240  0.3171 -0.3796 -0.8812
 8816SOL    HW237668   4.488   7.724   3.259  0.8930  0.1439  0.8527
 8817SOL     OW37669   1.794   6.701   6.434 -0.6228 -0.3309 -0.0383
 8817SOL    HW137670   1.880   6.692   6.384 -2.1137 -1.9010 -2.4342
 8817SOL    HW237671   1.776   6.618   6.486 -1.6589 -0.8347 -1.1789
 8818SOL     OW37672   6.959   5.896   6.072 -0.3608  0.9829  0.8951
 8818SOL    HW137673   6.893   5.921   6.001 -0.3524 -2.5229 -0.4234
 8818SOL    HW237674   6.910   5.867   6.155 -0.5407 -1.1415  0.0829
 8819SOL     OW37675   4.440   2.128   3.535  0.0391 -0.8648 -0.0851
 8819SOL    HW137676   4.465   2.221   3.562 -1.0648 -0.5924  0.0196
 8819SOL    HW237677   4.479   2.062   3.600  1.1035 -0.5051 -0.3496
 8820SOL     OW37678   3.489   5.599   2.233 -0.4691  0.3827  0.0339
 8820SOL    HW137679   3.413   5.566   2.177  0.3820 -2.0176  0.2391
 8820SOL    HW237680   3.576   5.576   2.189  0.1881 -0.3926  1.6880
 8821SOL     OW37681   1.350   9.010   6.473 -0.8935  0.0886  0.3577
 8821SOL    HW137682   1.345   8.991   6.375  0.3439  0.3863  0.2333
 8821SOL    HW237683   1.346   8.924   6.524  0.2791 -0.2104 -0.0380
 8822SOL     OW37684   0.617   3.933   2.016  0.1770  0.2426  0.8106
 8822SOL    HW137685   0.537   3.874   2.027  0.0957 -0.1485 -1.5880
 8822SOL    HW237686   0.588   4.028   2.008  0.0814  0.2818  1.6039
 8823SOL     OW37687   6.653   0.973   4.690 -0.1259 -0.6553 -0.2031
 8823SOL    HW137688   6.702   1.061   4.690 -0.5225 -0.4361  0.6474
 8823SOL    HW237689   6.570   0.982   4.636 -0.2088 -0.4843 -0.0472
 8824SOL     OW37690   4.009   9.907   3.456  0.3453  0.8184  0.5719
 8824SOL    HW137691   3.993   9.995   3.410  1.2940  0.8607  0.3019
 8824SOL    HW237692   3.991   9.917   3.553 -1.0253  0.9066  0.3162
 8825SOL     OW37693   4.122   1.234   3.811 -0.4606 -0.0536  0.4776
 8825SOL    HW137694   4.045   1.225   3.875 -1.8941  2.2230 -0.8513
 8825SOL    HW237695   4.099   1.188   3.725  0.3711 -0.7988  0.6457
 8826SOL     OW37696   9.123   9.070   1.361 -0.0370 -0.3296  0.0234
 8826SOL    HW137697   9.149   9.156   1.404 -1.0753  0.5589 -1.0525
 8826SOL    HW237698   9.055   9.023   1.417 -1.0502  0.6043 -0.3807
 8827SOL     OW37699   7.360   2.849   3.567  0.2192  0.2585 -0.5238
 8827SOL    HW137700   7.280   2.888   3.520  0.2989  0.6866 -0.3056
 8827SOL    HW237701   7.424   2.813   3.499  0.0436  0.3128 -0.7192
 8828SOL     OW37702   8.025   9.701   1.853 -0.3844 -0.3273 -0.0647
 8828SOL    HW137703   8.044   9.707   1.951  0.8271 -1.5725 -0.2108
 8828SOL    HW237704   8.011   9.605   1.827 -0.1932 -0.0564 -1.2031
 8829SOL     OW37705   5.817   4.608   1.120 -0.1280  0.2813 -0.3997
 8829SOL    HW137706   5.851   4.677   1.056  0.9087  2.0440  1.9546
 8829SOL    HW237707   5.738   4.645   1.169 -0.6732 -0.9008 -0.3747
 8830SOL     OW37708   0.757   3.849   3.653  0.8436 -0.0062 -0.0754
 8830SOL    HW137709   0.789   3.797   3.733  0.3809 -1.2335 -0.6785
 8830SOL    HW237710   0.785   3.801   3.569 -2.6586 -1.1864 -0.6280
 8831SOL     OW37711   1.610   7.510   0.484  0.1401  0.1700  0.0747
 8831SOL    HW137712   1.601   7.560   0.570 -1.0372 -0.5492  0.3805
 8831SOL    HW237713   1.671   7.432   0.496  1.0035  0.8121 -0.0866
 8832SOL     OW37714   2.312   3.439   3.825 -0.2144  0.1924 -0.0157
 8832SOL    HW137715   2.300   3.514   3.759 -0.3638  0.3188  0.1571
 8832SOL    HW237716   2.283   3.469   3.916  3.8157  1.3878  0.9677
 8833SOL     OW37717   4.090   9.677   6.004  0.6702 -0.2943 -0.0399
 8833SOL    HW137718   4.025   9.605   5.981  0.8428 -1.0105  1.6494
 8833SOL    HW237719   4.073   9.709   6.097  1.5958  0.7697 -0.2176
 8834SOL     OW37720   0.428   4.695   0.849 -0.2961  0.3807 -0.1719
 8834SOL    HW137721   0.472   4.613   0.812  0.6716  0.3918  0.9548
 8834SOL    HW237722   0.494   4.769   0.854 -1.0505  1.1057 -0.7252
 8835SOL     OW37723   6.676   8.484   5.006  0.0745 -0.3120  0.3388
 8835SOL    HW137724   6.721   8.443   5.086 -1.1410 -0.8269  0.7624
 8835SOL    HW237725   6.616   8.558   5.036 -0.8501 -0.9036 -0.0307
 8836SOL     OW37726   9.149   6.437   6.193  0.0507  0.1839  0.1036
 8836SOL    HW137727   9.096   6.393   6.266 -0.0810  2.2624  1.3220
 8836SOL    HW237728   9.103   6.522   6.166  2.7882  2.0988  1.2636
 8837SOL     OW37729   4.408   3.519   3.311 -0.4036 -0.0130 -0.0641
 8837SOL    HW137730   4.344   3.525   3.387 -0.6081  0.9291 -0.3023
 8837SOL    HW237731   4.384   3.586   3.241 -0.4348 -1.1237 -1.1371
 8838SOL     OW37732   0.331   3.445   1.663 -0.1739  0.1455 -0.7555
 8838SOL    HW137733   0.310   3.513   1.734  1.6936  0.4824 -0.4865
 8838SOL    HW237734   0.247   3.416   1.618 -1.2242  1.0499  0.5866
 8839SOL     OW37735   3.824   5.111   4.642  0.1398  0.0645  0.1291
 8839SOL    HW137736   3.853   5.145   4.732  0.2787  1.8604 -0.5576
 8839SOL    HW237737   3.724   5.108   4.638  0.0710  2.0598 -0.3504
 8840SOL     OW37738   3.978   0.881   3.710 -0.3309 -0.7383  0.0862
 8840SOL    HW137739   4.001   0.892   3.807 -0.1015  0.5795 -0.1016
 8840SOL    HW237740   3.940   0.967   3.676  1.2174 -0.6311 -1.4226
 8841SOL     OW37741   8.987   1.060   2.784  0.5070  0.1517  0.3524
 8841SOL    HW137742   8.961   0.982   2.841 -0.9225  0.3381 -0.0301
 8841SOL    HW237743   8.954   1.046   2.691 -2.1079  2.3748  0.8616
 8842SOL     OW37744   1.575   5.599   0.433  0.1217  0.0761 -0.0731
 8842SOL    HW137745   1.666   5.637   0.416  0.3503 -1.1894 -1.7593
 8842SOL    HW237746   1.577   5.546   0.518  0.7122  0.8158  0.3864
 8843SOL     OW37747   9.679   7.485   4.231  0.3221  0.0187  0.2549
 8843SOL    HW137748   9.645   7.411   4.290 -0.1705 -0.3331 -0.4652
 8843SOL    HW237749   9.685   7.570   4.285 -1.0350 -0.0773  0.5782
 8844SOL     OW37750   1.072   9.026   4.559 -0.6202 -1.0672 -0.2395
 8844SOL    HW137751   1.134   8.969   4.612 -0.2868  0.5690  1.1796
 8844SOL    HW237752   1.025   9.090   4.620  0.6687  1.6815 -2.0260
 8845SOL     OW37753   4.163   4.304   2.975  0.2278  0.2574  0.2741
 8845SOL    HW137754   4.211   4.391   2.980 -0.3288  0.5949 -0.2288
 8845SOL    HW237755   4.081   4.307   3.033  0.7585 -0.2902  1.0678
 8846SOL     OW37756   8.835   1.913   3.287  0.0674  0.5423  0.4633
 8846SOL    HW137757   8.828   1.877   3.194 -3.7844  0.7224  0.6405
 8846SOL    HW237758   8.842   2.013   3.284 -2.6767  0.7563  0.4212
 8847SOL     OW37759   1.522   0.414   3.668 -0.3874 -0.3383  0.7984
 8847SOL    HW137760   1.596   0.479   3.647 -1.0258  0.4356  0.9058
 8847SOL    HW237761   1.529   0.386   3.764  0.8450 -1.6789  0.3269
 8848SOL     OW37762   3.493   2.390   4.931  0.0908 -0.1177 -0.2891
 8848SOL    HW137763   3.551   2.348   4.861 -0.8141 -0.9330 -0.5666
 8848SOL    HW237764   3.536   2.474   4.965  0.7241  0.0800 -1.5498
 8849SOL     OW37765   2.620   2.838   3.889  0.2079 -0.6883 -0.2596
 8849SOL    HW137766   2.525   2.869   3.877 -0.2600 -1.7902  0.4451
 8849SOL    HW237767   2.627   2.742   3.861  1.2714 -0.4165 -0.9292
 8850SOL     OW37768   8.186   9.704   0.976  0.0519  0.3286 -0.1979
 8850SOL    HW137769   8.238   9.682   0.894 -0.1422 -0.4881 -0.1025
 8850SOL    HW237770   8.122   9.630   0.996  1.1038 -0.1583  1.4955
 8851SOL     OW37771   1.863   6.289   1.869  0.2191 -0.2484  0.1631
 8851SOL    HW137772   1.918   6.371   1.855  0.2148 -0.1382  0.7466
 8851SOL    HW237773   1.861   6.235   1.785  0.7107  0.0524 -0.0457
 8852SOL     OW37774   1.073   0.478   6.564 -0.4468  0.0750 -0.0966
 8852SOL    HW137775   1.001   0.477   6.632  0.4194  1.3757  0.8620
 8852SOL    HW237776   1.125   0.564   6.571 -0.4380  0.2953 -2.4784
 8853SOL     OW37777   1.763   6.426   1.526  0.6002 -0.0715  0.2969
 8853SOL    HW137778   1.727   6.448   1.435 -0.6501 -0.4069  0.6936
 8853SOL    HW237779   1.723   6.488   1.593  1.3801  0.0577  0.6464
 8854SOL     OW37780   9.846   4.064   4.516 -0.1344 -0.7465  0.0611
 8854SOL    HW137781   9.811   4.130   4.450 -1.9150 -1.7304  0.0028
 8854SOL    HW237782   9.943   4.083   4.534 -0.3112  1.1123 -0.8626
 8855SOL     OW37783   2.396   8.935   1.402  0.2904  0.5047  0.0984
 8855SOL    HW137784   2.330   8.915   1.475  2.4094 -0.2621  1.8583
 8855SOL    HW237785   2.347   8.954   1.317 -2.1377 -1.5229  0.9924
 8856SOL     OW37786   1.939   2.110   1.048  0.0344  0.5856  0.7278
 8856SOL    HW137787   1.948   2.173   0.971  1.2830  0.1525  0.5007
 8856SOL    HW237788   1.871   2.145   1.112 -1.0889  0.9056 -0.6122
 8857SOL     OW37789   6.440   2.603   4.938 -0.1259  0.2147  0.0659
 8857SOL    HW137790   6.352   2.593   4.984  0.1908 -0.7376  0.4798
 8857SOL    HW237791   6.490   2.680   4.978 -0.9468  1.0223 -0.4595
 8858SOL     OW37792   2.472   2.780   5.885 -0.4523 -0.2700  0.1317
 8858SOL    HW137793   2.399   2.835   5.927 -0.9727  1.6916 -3.1614
 8858SOL    HW237794   2.555   2.836   5.877  0.2424 -1.2610  0.2784
 8859SOL     OW37795   7.149   5.517   6.684 -0.4682 -0.1473  0.0689
 8859SOL    HW137796   7.236   5.560   6.659 -0.9419  1.8011  1.6479
 8859SOL    HW237797   7.073   5.568   6.643 -0.9622 -0.4716  0.5716
 8860SOL     OW37798   1.043   4.597   4.334  0.2747  0.8415  0.0918
 8860SOL    HW137799   0.968   4.556   4.283  0.6805 -0.6632  0.6777
 8860SOL    HW237800   1.121   4.534   4.335  0.7238  1.4044  1.4512
 8861SOL     OW37801   8.285   5.846   1.161  0.2711 -0.6052 -0.1465
 8861SOL    HW137802   8.205   5.802   1.121 -0.4821 -0.3147  1.0555
 8861SOL    HW237803   8.368   5.800   1.128 -0.4253 -1.5926 -0.5218
 8862SOL     OW37804   2.276   4.402   3.270  0.1067  0.6797 -0.0246
 8862SOL    HW137805   2.268   4.465   3.193  0.0674  1.0455  0.2772
 8862SOL    HW237806   2.365   4.357   3.268  0.6468  1.6946  0.4738
 8863SOL     OW37807   2.140   3.736   4.091 -0.2421  0.2075  0.4937
 8863SOL    HW137808   2.232   3.770   4.073  0.4883 -1.9098  0.1509
 8863SOL    HW237809   2.125   3.732   4.190  0.6300 -0.9791  0.5872
 8864SOL     OW37810   2.392   4.197   3.886  0.6700 -0.0052  0.3539
 8864SOL    HW137811   2.331   4.127   3.848 -0.7918  0.2282  2.1345
 8864SOL    HW237812   2.455   4.154   3.951  0.0022  0.2501  1.1871
 8865SOL     OW37813   8.003   7.602   5.500 -0.0802 -0.4496 -0.0567
 8865SOL    HW137814   7.942   7.626   5.576  0.2976  1.5609 -0.3517
 8865SOL    HW237815   7.952   7.607   5.414 -0.2907 -1.8854 -0.0259
 8866SOL     OW37816   7.585   7.384   4.595 -0.0152  0.1319  0.0595
 8866SOL    HW137817   7.649   7.386   4.673  0.2860  0.0956 -0.1860
 8866SOL    HW237818   7.519   7.459   4.605 -0.7309 -0.6134  0.9827
 8867SOL     OW37819   8.355   6.525   2.113 -0.1252 -0.9351 -0.1840
 8867SOL    HW137820   8.401   6.611   2.093 -1.0009 -0.4474 -0.1350
 8867SOL    HW237821   8.376   6.496   2.207  0.1822 -0.7803 -0.2071
 8868SOL     OW37822   0.324   0.809   1.252  0.5303  0.6994 -0.6516
 8868SOL    HW137823   0.239   0.780   1.295  0.0806 -0.7856 -2.4563
 8868SOL    HW237824   0.322   0.908   1.238 -0.4682  0.8106  0.2257
 8869SOL     OW37825   9.330   7.984   0.899 -0.2862 -0.1361 -0.1396
 8869SOL    HW137826   9.233   7.987   0.873 -0.9360 -1.6195  2.0098
 8869SOL    HW237827   9.339   7.938   0.987  2.4013 -0.0389 -0.3468
 8870SOL     OW37828   0.810   4.796   4.008  0.1641  0.0838  0.4383
 8870SOL    HW137829   0.811   4.850   4.092 -0.5251  0.0577  0.4661
 8870SOL    HW237830   0.743   4.722   4.016  1.8286 -1.4106  0.7814
 8871SOL     OW37831   0.558   3.811   6.167  0.4419 -0.3096 -0.1766
 8871SOL    HW137832   0.473   3.863   6.164 -1.0921 -2.7637 -0.9896
 8871SOL    HW237833   0.555   3.747   6.244  0.8725 -1.4924 -1.1233
 8872SOL     OW37834   5.167   8.025   3.247  0.1385  0.2034  0.1630
 8872SOL    HW137835   5.086   7.999   3.195  0.8633 -0.4715 -0.6369
 8872SOL    HW237836   5.248   8.011   3.192  0.9566 -0.8330  1.5856
 8873SOL     OW37837   9.883   2.284   6.658  0.3752 -0.0733  0.2959
 8873SOL    HW137838   9.852   2.245   6.571  3.1271 -0.8345 -0.3902
 8873SOL    HW237839   9.872   2.384   6.655 -0.9061 -0.2276 -0.3494
 8874SOL     OW37840   9.316   7.853   1.953  0.2873 -0.0166  0.2946
 8874SOL    HW137841   9.294   7.797   1.873  1.6157 -1.7198  1.0881
 8874SOL    HW237842   9.231   7.878   2.000 -0.5787  1.8205 -2.1493
 8875SOL     OW37843   1.312   1.042   2.022 -0.3507 -0.2297 -0.1988
 8875SOL    HW137844   1.233   1.039   2.083  0.0556 -2.3268  0.2606
 8875SOL    HW237845   1.368   0.960   2.036  2.0417  1.3414 -0.3555
 8876SOL     OW37846   0.931   3.864   3.077 -0.1120 -0.1807  0.6756
 8876SOL    HW137847   0.961   3.771   3.098  0.5832  0.0120  0.5341
 8876SOL    HW237848   1.005   3.914   3.032 -0.2167  0.6924  1.4674
 8877SOL     OW37849   4.168   2.766   2.604  0.1704  0.1204  0.2430
 8877SOL    HW137850   4.183   2.837   2.536  0.6574  0.2095  0.4465
 8877SOL    HW237851   4.248   2.759   2.664  0.3099 -0.9188 -0.0683
 8878SOL     OW37852   2.218   0.398   3.215  0.0350  0.5456 -0.4271
 8878SOL    HW137853   2.167   0.459   3.154  0.7000  1.4915 -0.0393
 8878SOL    HW237854   2.294   0.357   3.165 -0.4617 -0.0441 -0.7111
 8879SOL     OW37855   9.108   4.876   0.931  0.0308  0.1887  0.3240
 8879SOL    HW137856   9.097   4.970   0.965  2.2722 -0.2241  2.3340
 8879SOL    HW237857   9.089   4.874   0.833 -0.9320  2.5756  0.4318
 8880SOL     OW37858   7.949   2.700   0.450 -0.3522  0.0803 -0.0423
 8880SOL    HW137859   7.896   2.771   0.496  0.4289  0.3395  0.4643
 8880SOL    HW237860   7.889   2.623   0.428 -1.3345  1.1412 -1.1348
 8881SOL     OW37861   7.861   6.561   5.711  0.1262 -0.5287  0.2815
 8881SOL    HW137862   7.955   6.588   5.691  0.4916 -1.9038  0.1279
 8881SOL    HW237863   7.808   6.557   5.626  0.1028 -0.4049  0.2911
 8882SOL     OW37864   2.766   8.712   4.294 -0.3958  0.5448  0.4139
 8882SOL    HW137865   2.693   8.754   4.348  0.5236  1.5243  0.9002
 8882SOL    HW237866   2.854   8.748   4.322  0.4584 -1.9749  1.0799
 8883SOL     OW37867   1.347   9.957   5.735 -0.4652 -0.1883 -0.0896
 8883SOL    HW137868   1.394   9.881   5.691 -0.4403 -0.6881  0.7768
 8883SOL    HW237869   1.316   9.929   5.826 -0.7013  0.7525  0.1302
 8884SOL     OW37870   0.249   3.482   3.770 -0.1354  0.2016 -0.2299
 8884SOL    HW137871   0.265   3.446   3.862 -1.7702  1.0483  0.3956
 8884SOL    HW237872   0.325   3.541   3.744  1.6510 -2.1374 -0.5119
 8885SOL     OW37873   2.670   0.454   5.508 -0.1289 -0.3146  0.7734
 8885SOL    HW137874   2.761   0.491   5.491  0.5429 -1.2072  2.3366
 8885SOL    HW237875   2.641   0.399   5.430  1.0663 -0.8032  0.6745
 8886SOL     OW37876   0.162   9.515   2.398 -0.0393  0.0666  0.1768
 8886SOL    HW137877   0.115   9.577   2.336  1.3907  1.3616  0.3531
 8886SOL    HW237878   0.186   9.564   2.482  1.3181 -0.6512  0.2142
 8887SOL     OW37879   2.211   1.491   5.548  0.5962  0.1611  0.1741
 8887SOL    HW137880   2.256   1.424   5.489  0.8434  0.4858 -0.0035
 8887SOL    HW237881   2.249   1.483   5.641 -0.2456 -0.7906  0.4547
 8888SOL     OW37882   8.233   4.267   5.549  0.4017  0.2460  0.0251
 8888SOL    HW137883   8.253   4.169   5.546 -0.3276  0.1089 -0.4314
 8888SOL    HW237884   8.160   4.285   5.615 -1.6141  0.0878 -2.1002
 8889SOL     OW37885   6.557   2.252   0.748  0.5054  0.3694  0.2223
 8889SOL    HW137886   6.552   2.352   0.741  1.1591  0.5445  1.9634
 8889SOL    HW237887   6.624   2.217   0.682 -0.4398  0.9841 -1.0716
 8890SOL     OW37888   1.160   0.464   5.667 -0.3374 -0.6447  0.3459
 8890SOL    HW137889   1.095   0.394   5.637 -0.3226 -1.2522  1.6845
 8890SOL    HW237890   1.112   0.551   5.680 -0.3783 -0.4250 -1.2044
 8891SOL     OW37891   1.669   0.958   4.285 -0.2154  0.2527  0.0734
 8891SOL    HW137892   1.656   0.969   4.186  1.0964 -0.7261 -0.2357
 8891SOL    HW237893   1.622   1.031   4.334 -1.1892  0.5401 -1.2593
 8892SOL     OW37894   0.892   9.903   5.644 -0.9651 -0.3202 -0.5243
 8892SOL    HW137895   0.907   9.812   5.684  0.1477  0.0724 -0.0165
 8892SOL    HW237896   0.900   9.972   5.716  2.8812  0.5614 -1.6653
 8893SOL     OW37897   7.521   2.340   5.902  0.2381 -0.7133  0.0852
 8893SOL    HW137898   7.453   2.391   5.956 -0.6249 -0.3533 -1.3299
 8893SOL    HW237899   7.611   2.353   5.943 -0.2412  0.4905  0.8013
 8894SOL     OW37900   1.222   2.390   2.416  0.1230  0.0542 -0.0462
 8894SOL    HW137901   1.271   2.457   2.471 -0.8437 -0.2541  1.1983
 8894SOL    HW237902   1.160   2.437   2.353  0.2575  0.3620  0.0494
 8895SOL     OW37903   2.825   2.342   2.934 -0.5016 -0.4253  0.0669
 8895SOL    HW137904   2.784   2.431   2.951 -1.6126 -1.0868  0.9023
 8895SOL    HW237905   2.834   2.328   2.835 -1.1767  0.2336 -0.0910
 8896SOL     OW37906   8.533   7.747   4.102  0.4901 -0.8986  0.0292
 8896SOL    HW137907   8.499   7.817   4.039  1.5144 -0.2009  0.2309
 8896SOL    HW237908   8.468   7.735   4.177  0.0934 -0.4766 -0.2443
 8897SOL     OW37909   7.574   2.060   3.278  0.2494 -0.9091 -0.4818
 8897SOL    HW137910   7.523   1.993   3.333 -2.7302 -0.1298 -2.1451
 8897SOL    HW237911   7.543   2.152   3.301  1.6360 -0.3555 -0.8315
 8898SOL     OW37912   0.652   0.172   1.745  0.6855 -0.1958 -0.1302
 8898SOL    HW137913   0.584   0.170   1.671 -1.0243 -0.7290  1.4003
 8898SOL    HW237914   0.674   0.079   1.773 -0.4663  0.0053  1.5767
 8899SOL     OW37915   5.504   8.028   3.560 -0.6580 -0.2405  0.2415
 8899SOL    HW137916   5.552   7.988   3.482 -0.3320 -1.7808  1.2161
 8899SOL    HW237917   5.538   8.121   3.576  0.7495 -0.6661 -0.1741
 8900SOL     OW37918   0.223   1.785   6.491  0.4288 -0.1149  0.2510
 8900SOL    HW137919   0.315   1.823   6.502 -0.6469  2.9338 -0.5636
 8900SOL    HW237920   0.166   1.852   6.443 -2.0730 -2.1676  0.2891
 8901SOL     OW37921   0.641   9.240   0.891 -0.2760  0.1426 -0.0701
 8901SOL    HW137922   0.654   9.146   0.859  1.2734 -0.1586  1.3423
 8901SOL    HW237923   0.567   9.243   0.957 -1.1332  0.1348 -1.0264
 8902SOL     OW37924   3.711   7.307   3.005 -0.1069  0.6049 -0.2613
 8902SOL    HW137925   3.650   7.361   3.063 -1.5001  0.1375 -1.2523
 8902SOL    HW237926   3.806   7.332   3.023 -0.6077  1.6025  1.0565
 8903SOL     OW37927   0.944   1.297   6.126  0.3410  1.0690  0.2980
 8903SOL    HW137928   0.871   1.284   6.194 -0.7636  1.5340 -0.7968
 8903SOL    HW237929   0.958   1.212   6.076 -1.3601  1.7568 -1.3766
 8904SOL     OW37930   9.771   4.544   6.387 -0.6617 -0.2434 -0.1222
 8904SOL    HW137931   9.833   4.479   6.431 -0.7082  1.2048  2.1722
 8904SOL    HW237932   9.676   4.522   6.412 -0.8921 -0.7720 -1.3819
 8905SOL     OW37933   0.118   0.320   6.537 -0.0283  0.3910  0.0699
 8905SOL    HW137934   0.134   0.410   6.496 -0.7178 -0.4432 -2.1200
 8905SOL    HW237935   0.204   0.281   6.569  0.1843  2.0856  1.6404
 8906SOL     OW37936   2.146   6.255   2.119  0.8987 -0.3721 -0.1305
 8906SOL    HW137937   2.242   6.244   2.145  0.9256 -0.0395 -0.0873
 8906SOL    HW237938   2.114   6.172   2.073  0.9439 -0.8418  0.6765
 8907SOL     OW37939   4.236   3.862   3.745 -0.0864 -0.3041 -0.7038
 8907SOL    HW137940   4.298   3.907   3.681 -1.0035 -0.4686 -1.7245
 8907SOL    HW237941   4.143   3.896   3.730 -0.1187  0.6711  1.4746
 8908SOL     OW37942   0.158   5.728   3.238  0.4975 -0.5281  0.0631
 8908SOL    HW137943   0.179   5.641   3.193  0.7898 -0.2678 -0.3068
 8908SOL    HW237944   0.227   5.796   3.213 -0.5616  0.2305 -0.8466
 8909SOL     OW37945   7.274   2.924   3.260  0.1696 -0.7308 -0.6697
 8909SOL    HW137946   7.346   2.992   3.248  0.3210 -0.7300  0.1882
 8909SOL    HW237947   7.307   2.835   3.228  0.0719 -0.4619 -1.5308
 8910SOL     OW37948   5.204   6.101   2.272  0.0575  0.1526 -0.6904
 8910SOL    HW137949   5.295   6.134   2.297 -0.0684  0.1779 -0.2602
 8910SOL    HW237950   5.212   6.027   2.206  0.3751  0.4515 -0.9871
 8911SOL     OW37951   2.842   8.010   4.243 -0.3762 -0.4622  0.0349
 8911SOL    HW137952   2.898   7.929   4.224 -1.3255 -1.3339  0.8547
 8911SOL    HW237953   2.881   8.060   4.320  0.7211  0.3677 -1.0497
 8912SOL     OW37954   6.810   0.405   0.101 -0.3498 -0.2118 -0.0181
 8912SOL    HW137955   6.826   0.418   0.199  1.3487 -3.1476  0.1376
 8912SOL    HW237956   6.768   0.487   0.063  0.7379  1.6987  2.7769
 8913SOL     OW37957   5.526   5.736   1.924 -0.1259 -0.3698  0.1807
 8913SOL    HW137958   5.598   5.756   1.991  0.6190 -1.4023 -0.3080
 8913SOL    HW237959   5.467   5.664   1.960 -0.0502 -0.5431 -0.0435
 8914SOL     OW37960   1.710   1.879   0.795  0.0765 -0.5835 -0.3550
 8914SOL    HW137961   1.701   1.887   0.894  1.0544  0.5049 -0.3302
 8914SOL    HW237962   1.710   1.783   0.768 -0.7808 -0.8617  0.6423
 8915SOL     OW37963   9.295   8.736   4.725  0.4496  0.0682 -0.5444
 8915SOL    HW137964   9.388   8.739   4.763  0.0456 -0.2924  0.5019
 8915SOL    HW237965   9.287   8.804   4.652  0.9286  1.6148  0.7982
 8916SOL     OW37966   0.576   6.356   0.787 -0.0497 -0.2824 -0.1298
 8916SOL    HW137967   0.564   6.323   0.880 -0.8480  1.4589  0.4051
 8916SOL    HW237968   0.657   6.414   0.781  0.9401 -1.7090 -0.9041
 8917SOL     OW37969   9.516   5.193   3.770 -0.3967 -0.2486 -0.1305
 8917SOL    HW137970   9.456   5.204   3.849  1.1498  0.2001  0.9950
 8917SOL    HW237971   9.540   5.282   3.733 -0.9897 -0.4525 -1.0191
 8918SOL     OW37972   9.465   8.231   6.212 -0.3151  0.1229  0.2089
 8918SOL    HW137973   9.558   8.248   6.181 -0.6583  1.4996 -0.0933
 8918SOL    HW237974   9.401   8.282   6.154 -1.2612 -0.8468  0.3847
 8919SOL     OW37975   8.586   6.262   0.894  0.6275 -0.2791  0.1802
 8919SOL    HW137976   8.502   6.291   0.848  1.0121 -0.1723 -0.4588
 8919SOL    HW237977   8.640   6.343   0.916  0.9829 -0.4058 -0.2246
 8920SOL     OW37978   6.279   0.261   1.938 -0.5130  0.4977  0.1705
 8920SOL    HW137979   6.204   0.232   1.878  1.3317  0.2287 -2.0717
 8920SOL    HW237980   6.281   0.202   2.019 -0.6836 -1.6417 -1.3398
 8921SOL     OW37981   3.845   2.171   1.196  0.5778 -0.1930  0.0853
 8921SOL    HW137982   3.863   2.179   1.098  0.4415  0.4940  0.1105
 8921SOL    HW237983   3.858   2.260   1.240  0.5054 -0.4630  0.6697
 8922SOL     OW37984   9.010   6.750   0.304  0.0911 -0.1203  0.5248
 8922SOL    HW137985   8.913   6.731   0.292  0.4957 -1.8240 -0.0489
 8922SOL    HW237986   9.061   6.665   0.310  1.5505  0.7593  0.9061
 8923SOL     OW37987   8.297   3.796   2.132  0.0394  0.1681 -0.3060
 8923SOL    HW137988   8.375   3.841   2.089  0.1694  0.5046  0.2843
 8923SOL    HW237989   8.302   3.806   2.231 -0.4596 -0.2878 -0.2289
 8924SOL     OW37990   9.963   0.977   3.933 -0.0835 -0.3433 -0.1012
 8924SOL    HW137991   9.952   0.941   4.026 -1.6771  0.9571  0.2192
 8924SOL    HW237992  10.037   0.927   3.887 -0.5300 -2.2536  1.2150
 8925SOL     OW37993   1.808   7.117   6.390 -0.0063 -0.1977 -0.2996
 8925SOL    HW137994   1.797   7.049   6.463 -1.6655  0.6414  0.2502
 8925SOL    HW237995   1.775   7.079   6.304  0.6737 -0.6927 -0.3489
 8926SOL     OW37996   8.566   0.803   0.882  0.0482 -0.7051  0.3033
 8926SOL    HW137997   8.613   0.716   0.897 -0.8819 -1.0384  1.3911
 8926SOL    HW237998   8.583   0.834   0.789 -0.1869 -2.4232 -0.3365
 8927SOL     OW37999   4.552   0.692   5.044  0.3147  0.4670  0.0246
 8927SOL    HW138000   4.612   0.654   5.114  0.4664  1.2576  0.3300
 8927SOL    HW238001   4.597   0.769   4.999  0.6126 -0.6671 -1.6487
 8928SOL     OW38002   0.912   2.642   6.354  0.3123 -0.5278  0.7476
 8928SOL    HW138003   0.950   2.718   6.302 -2.3302  0.9497  0.8808
 8928SOL    HW238004   0.897   2.563   6.294 -1.0481  0.5689 -0.3968
 8929SOL     OW38005   9.968   1.885   1.710 -0.2787 -0.8667 -0.8563
 8929SOL    HW138006   9.886   1.896   1.767  0.7954  1.9648  0.2749
 8929SOL    HW238007  10.020   1.806   1.742 -0.7032 -0.4828  0.8826
 8930SOL     OW38008   7.324   5.413   5.129 -0.2848  0.2757  0.0580
 8930SOL    HW138009   7.283   5.380   5.044  1.0601 -0.3541 -0.3488
 8930SOL    HW238010   7.404   5.469   5.108  0.5592 -0.5960  0.9346
 8931SOL     OW38011   8.403   6.414   3.193  0.5613  0.3556  0.1773
 8931SOL    HW138012   8.425   6.505   3.157 -0.7556  0.0167 -1.5532
 8931SOL    HW238013   8.456   6.397   3.276  1.7686  2.1906 -0.1959
 8932SOL     OW38014   9.620   5.879   1.320 -0.4036  0.2586 -0.1538
 8932SOL    HW138015   9.635   5.937   1.241  0.7941 -0.0758 -0.1876
 8932SOL    HW238016   9.522   5.861   1.331 -1.1262  4.6023  1.5262
 8933SOL     OW38017   1.039   3.684   1.459 -0.0197  0.0101 -0.0681
 8933SOL    HW138018   1.050   3.773   1.503 -1.0300 -0.5400  1.3433
 8933SOL    HW238019   1.130   3.645   1.439  0.4641  0.4142  1.2638
 8934SOL     OW38020   6.538   1.231   2.650 -0.2509  0.2407 -0.4146
 8934SOL    HW138021   6.617   1.243   2.710 -0.0429  1.1084 -0.8493
 8934SOL    HW238022   6.488   1.318   2.644 -1.4430 -0.4005  0.1465
 8935SOL     OW38023   3.660   2.823   3.667  0.2659 -0.1002  0.2347
 8935SOL    HW138024   3.611   2.890   3.611  0.4877 -0.4189 -0.3449
 8935SOL    HW238025   3.606   2.740   3.676 -0.2296  0.3373  1.3751
 8936SOL     OW38026   9.771   9.591   5.458 -0.5488 -0.2981  0.7750
 8936SOL    HW138027   9.685   9.581   5.408 -0.6797  1.0369  0.7289
 8936SOL    HW238028   9.769   9.675   5.512  0.4312 -0.6509  1.3730
 8937SOL     OW38029   4.402   9.611   4.631 -0.4709 -0.4343  0.6692
 8937SOL    HW138030   4.417   9.542   4.561 -0.6702 -0.5492  0.7403
 8937SOL    HW238031   4.465   9.688   4.616 -0.3120 -0.5888  0.5384
 8938SOL     OW38032   2.240   0.541   2.706  0.6043  0.1965 -0.1068
 8938SOL    HW138033   2.153   0.494   2.691  0.4773  0.7316 -1.0823
 8938SOL    HW238034   2.316   0.480   2.683  0.5206 -0.4903  1.3499
 8939SOL     OW38035   4.444   2.953   2.997 -0.2007  0.0641  0.4686
 8939SOL    HW138036   4.408   2.970   3.089  0.6285  0.3740  0.7362
 8939SOL    HW238037   4.536   2.992   2.989  1.7821 -4.1774  1.1129
 8940SOL     OW38038   4.685   6.665   2.228 -0.4967 -0.1077  0.1333
 8940SOL    HW138039   4.740   6.642   2.146 -1.2145  0.8139 -0.6119
 8940SOL    HW238040   4.746   6.690   2.303  0.1278  0.2966 -0.5058
 8941SOL     OW38041   8.949   1.513   3.283  0.4543 -0.0092 -0.2811
 8941SOL    HW138042   8.950   1.576   3.361  0.0408  0.6374 -0.8077
 8941SOL    HW238043   8.983   1.424   3.314 -2.0784 -0.4988  1.2624
 8942SOL     OW38044   8.143   2.858   1.274  0.2040 -0.3472 -0.3238
 8942SOL    HW138045   8.108   2.868   1.181 -0.2533 -1.7907 -0.3104
 8942SOL    HW238046   8.090   2.916   1.336 -0.3670 -0.4227 -0.7418
 8943SOL     OW38047   9.430   9.770   0.036 -0.1654  0.1002  0.0271
 8943SOL    HW138048   9.461   9.862   0.060 -1.4064  0.9050 -1.3062
 8943SOL    HW238049   9.330   9.765   0.046  0.0493 -1.5893  1.5801
 8944SOL     OW38050   4.500   6.564   1.983  1.1435 -0.3707 -0.2340
 8944SOL    HW138051   4.599   6.565   1.989  1.1342  0.7105 -0.1686
 8944SOL    HW238052   4.461   6.541   2.072  1.3005  1.2656  0.2728
 8945SOL     OW38053   2.622   1.349   5.409 -0.5753 -0.4920  0.1594
 8945SOL    HW138054   2.600   1.423   5.346 -1.7006  0.0517  1.1578
 8945SOL    HW238055   2.604   1.379   5.503 -0.8598 -1.9589  0.5852
 8946SOL     OW38056   0.491   5.840   4.646 -0.3790 -0.3873 -0.3706
 8946SOL    HW138057   0.440   5.895   4.712 -0.2228 -0.7034  0.0200
 8946SOL    HW238058   0.432   5.768   4.610 -0.5888  0.0497 -0.8971
 8947SOL     OW38059   8.359   8.706   6.640  0.2255  0.4538  0.4469
 8947SOL    HW138060   8.421   8.684   6.565 -0.5941 -0.7069  0.1010
 8947SOL    HW238061   8.266   8.715   6.605 -0.2080 -0.3965  1.3706
 8948SOL     OW38062   3.428   7.690   4.307  0.3549 -0.2186 -0.0827
 8948SOL    HW138063   3.403   7.744   4.387  1.4043 -0.1189  0.1807
 8948SOL    HW238064   3.470   7.750   4.238  2.0932 -0.7812  0.4588
 8949SOL     OW38065   8.486   4.300   4.481 -0.0869 -0.3686  0.6334
 8949SOL    HW138066   8.440   4.237   4.420  1.7538  0.8436 -2.1267
 8949SOL    HW238067   8.574   4.262   4.509  1.1148  0.9803 -1.1943
 8950SOL     OW38068   1.402   5.631   4.012  0.2286  0.1572 -0.6976
 8950SOL    HW138069   1.354   5.571   4.076 -1.0736  0.6491 -1.2003
 8950SOL    HW238070   1.499   5.606   4.009  0.4471  0.5459  1.9395
 8951SOL     OW38071   9.490   9.372   3.371 -0.2207  0.0921 -0.3990
 8951SOL    HW138072   9.422   9.433   3.329  0.0295  0.4580 -0.2701
 8951SOL    HW238073   9.473   9.278   3.340  0.4742  0.4702 -2.0075
 8952SOL     OW38074   2.853   6.758   4.029 -0.2596 -0.1275 -0.2976
 8952SOL    HW138075   2.928   6.823   4.018 -0.5827  0.1380 -0.9751
 8952SOL    HW238076   2.765   6.806   4.021 -0.5157 -0.3578  0.9349
 8953SOL     OW38077   0.684   8.981   4.276  0.0854 -0.1033  0.1793
 8953SOL    HW138078   0.627   9.028   4.343 -0.8140 -0.1627 -0.5379
 8953SOL    HW238079   0.763   9.037   4.255 -0.1706  0.3843  0.5018
 8954SOL     OW38080   0.856   2.674   3.833  0.3325 -0.2223 -0.2417
 8954SOL    HW138081   0.924   2.742   3.862  0.4442 -0.3092 -0.2988
 8954SOL    HW238082   0.832   2.616   3.911 -0.8187  0.7778  0.1702
 8955SOL     OW38083   2.375   9.576   5.817 -0.5914  0.3785  0.2607
 8955SOL    HW138084   2.407   9.668   5.794 -0.3650  0.4771  0.9644
 8955SOL    HW238085   2.282   9.582   5.853 -1.3890  0.1022 -1.6808
 8956SOL     OW38086   9.883   4.375   5.931  0.8562 -0.0661 -0.0390
 8956SOL    HW138087   9.914   4.281   5.912  2.0353  0.2854  0.0894
 8956SOL    HW238088   9.839   4.412   5.849 -1.8907 -1.5836  0.6725
 8957SOL     OW38089   0.913   9.482   2.182 -0.1196  0.6162  0.5768
 8957SOL    HW138090   0.819   9.470   2.215  0.6007 -0.0346  2.4360
 8957SOL    HW238091   0.911   9.520   2.090 -2.2499 -1.3696 -0.2541
 8958SOL     OW38092   3.054   0.128   3.351  0.5053  0.3753  0.0353
 8958SOL    HW138093   2.956   0.105   3.357  0.7105 -0.9440 -1.3124
 8958SOL    HW238094   3.076   0.152   3.256  1.7066 -0.4054  0.1119
 8959SOL     OW38095   6.158   1.606   0.448  0.3414 -1.1011  0.6677
 8959SOL    HW138096   6.160   1.698   0.486 -0.7917 -1.2834  1.2071
 8959SOL    HW238097   6.102   1.547   0.507  0.0033 -1.8148 -0.3501
 8960SOL     OW38098   4.414   0.971   2.328  0.1360 -0.2723  0.3497
 8960SOL    HW138099   4.361   1.018   2.257  0.6375  1.9411  1.4162
 8960SOL    HW238100   4.509   1.002   2.324  0.5756 -1.5097  0.8371
 8961SOL     OW38101   2.731   5.121   3.087 -0.3576 -0.2304  0.7496
 8961SOL    HW138102   2.685   5.039   3.054  0.7038 -0.8483  0.7820
 8961SOL    HW238103   2.824   5.125   3.050 -0.2945  0.7907  0.9990
 8962SOL     OW38104   7.922   5.927   3.571 -0.3677  0.2695  0.7247
 8962SOL    HW138105   7.839   5.871   3.577  0.1020 -0.2554  2.4913
 8962SOL    HW238106   7.988   5.882   3.511 -1.5625  0.9906 -1.1972
 8963SOL     OW38107   0.180   5.218   1.113 -0.1709 -0.1603 -0.3182
 8963SOL    HW138108   0.250   5.150   1.089  0.1236 -0.5112  1.4983
 8963SOL    HW238109   0.136   5.192   1.199 -0.1660  1.8788  0.3269
 8964SOL     OW38110   7.327   4.685   0.395  0.2214  0.5207 -0.1332
 8964SOL    HW138111   7.304   4.695   0.299 -0.7953  1.0256  0.1634
 8964SOL    HW238112   7.427   4.679   0.405  0.3410  0.7761 -1.1808
 8965SOL     OW38113   6.702   1.473   5.636 -0.3902 -0.4597  0.1716
 8965SOL    HW138114   6.637   1.546   5.619 -0.6805 -0.8003 -0.1976
 8965SOL    HW238115   6.768   1.468   5.561  0.5831  0.4328  0.9530
 8966SOL     OW38116   9.125   8.994   6.231 -0.3518  0.2338  0.0585
 8966SOL    HW138117   9.199   9.006   6.165 -0.1925  1.2833  0.4066
 8966SOL    HW238118   9.040   9.032   6.192 -0.6666 -0.8103 -0.2721
 8967SOL     OW38119   4.820   5.280   1.713 -0.7043  0.1598  0.7017
 8967SOL    HW138120   4.868   5.277   1.625 -0.0790  0.7336  1.0152
 8967SOL    HW238121   4.738   5.224   1.708  0.9358 -2.3158  0.7248
 8968SOL     OW38122   5.547   0.820   3.718 -0.1930 -0.0233  0.5576
 8968SOL    HW138123   5.548   0.776   3.808  1.4819  2.9787  2.0777
 8968SOL    HW238124   5.484   0.898   3.720 -0.5816 -0.2773 -1.0626
 8969SOL     OW38125   8.162   3.378   3.734 -0.5636 -0.0928 -0.2862
 8969SOL    HW138126   8.127   3.286   3.747  0.0355 -0.2370  0.3089
 8969SOL    HW238127   8.129   3.437   3.808 -1.3006  0.2754 -0.9021
 8970SOL     OW38128   2.067   3.638   2.326  0.1190  0.0532  0.0314
 8970SOL    HW138129   2.099   3.594   2.242  1.0155  0.2866  0.2452
 8970SOL    HW238130   2.080   3.736   2.320 -2.9988  0.4602 -0.9266
 8971SOL     OW38131   1.439   2.210   0.772  0.1508 -0.5140  0.0463
 8971SOL    HW138132   1.390   2.127   0.745 -2.2000  1.2004 -1.1485
 8971SOL    HW238133   1.418   2.230   0.868  0.0681 -0.8498  0.1026
 8972SOL     OW38134   6.963   0.400   4.837 -0.2752 -0.1373  0.1307
 8972SOL    HW138135   7.048   0.357   4.808  0.0320  0.9968 -0.6955
 8972SOL    HW238136   6.979   0.455   4.919 -0.4809 -0.8935  0.6829
 8973SOL     OW38137   8.854   5.836   1.656 -0.4192  0.3331  0.0671
 8973SOL    HW138138   8.916   5.892   1.712  0.2884 -0.6268  0.2563
 8973SOL    HW238139   8.777   5.805   1.711 -2.6367  3.8876 -0.8661
 8974SOL     OW38140   0.947   1.494   3.630  0.1513 -0.3127 -0.1454
 8974SOL    HW138141   0.871   1.501   3.695 -0.9390 -0.4307 -1.3773
 8974SOL    HW238142   0.988   1.403   3.637 -0.1280 -0.4145  0.2073
 8975SOL     OW38143   0.213   0.753   5.591 -0.2955  0.1889  0.7950
 8975SOL    HW138144   0.271   0.682   5.630 -2.6922 -0.9732  2.4204
 8975SOL    HW238145   0.188   0.818   5.663 -0.3841  1.0876 -0.0440
 8976SOL     OW38146   4.551   8.815   2.952 -0.3002 -0.7194  0.0371
 8976SOL    HW138147   4.463   8.843   2.989 -0.0265  0.4441 -0.1820
 8976SOL    HW238148   4.624   8.856   3.007  0.1536 -4.1349  2.1454
 8977SOL     OW38149   4.313   0.778   0.718  0.1234 -0.4808  0.2807
 8977SOL    HW138150   4.259   0.799   0.800  1.3391  0.2279  0.9144
 8977SOL    HW238151   4.372   0.855   0.697 -0.4347 -0.5243 -1.4891
 8978SOL     OW38152   9.086   4.679   0.587  0.0208  0.7895  0.0215
 8978SOL    HW138153   9.166   4.705   0.532  0.0337  2.4653  0.7961
 8978SOL    HW238154   9.114   4.615   0.659  0.1895 -0.6073 -1.2676
 8979SOL     OW38155   8.104   0.140   4.804  0.0545 -0.3391  0.0942
 8979SOL    HW138156   8.054   0.116   4.721 -0.2127  0.6306 -0.0388
 8979SOL    HW238157   8.149   0.229   4.792 -0.1346 -0.1005  1.0418
 8980SOL     OW38158   3.945   5.478   2.714 -0.1813 -0.1499  0.0299
 8980SOL    HW138159   3.991   5.392   2.695 -1.6466 -0.9165 -0.1548
 8980SOL    HW238160   3.848   5.470   2.690 -0.5105  1.2831  0.8044
 8981SOL     OW38161   6.910   9.339   5.008 -0.3280  0.5606  0.0155
 8981SOL    HW138162   6.980   9.360   4.941 -0.3411  2.3333  0.5287
 8981SOL    HW238163   6.951   9.290   5.085  0.2086  0.9577 -0.0170
 8982SOL     OW38164   9.691   8.106   5.178 -0.1229 -0.2289 -0.2679
 8982SOL    HW138165   9.675   8.159   5.261 -0.0681 -0.6937  0.0391
 8982SOL    HW238166   9.781   8.130   5.140  0.8300 -1.6537  1.0477
 8983SOL     OW38167   5.250   0.502   5.177 -0.0638  0.4169 -0.2184
 8983SOL    HW138168   5.305   0.503   5.260  0.2706  0.8427 -0.4454
 8983SOL    HW238169   5.296   0.449   5.107 -0.1091  0.4779 -0.2944
 8984SOL     OW38170   1.828   7.160   0.785  0.2075 -0.2878  0.4256
 8984SOL    HW138171   1.834   7.071   0.831 -0.7595 -0.2637  0.6026
 8984SOL    HW238172   1.833   7.233   0.853 -2.7336 -0.2738  0.6843
 8985SOL     OW38173   5.437   0.558   2.132 -0.1957  0.2513 -0.1374
 8985SOL    HW138174   5.471   0.508   2.212  1.3683  0.6228 -0.5422
 8985SOL    HW238175   5.402   0.493   2.064  2.1393 -0.3764 -0.8072
 8986SOL     OW38176   2.760   9.897   0.586 -0.1450 -0.0053  0.8809
 8986SOL    HW138177   2.828   9.937   0.647  0.5525 -1.0880  0.8220
 8986SOL    HW238178   2.804   9.865   0.502 -1.0413  1.1482 -0.0492
 8987SOL     OW38179   7.813   0.245   2.866  0.1975  0.4026 -0.3584
 8987SOL    HW138180   7.904   0.238   2.905  0.0640  1.9813  0.2621
 8987SOL    HW238181   7.768   0.327   2.900 -1.3027 -0.1330 -0.9859
 8988SOL     OW38182   1.328   2.777   0.087 -0.0507 -0.2141  0.2366
 8988SOL    HW138183   1.358   2.856   0.033 -0.5582  0.3625  0.7889
 8988SOL    HW238184   1.234   2.791   0.118  0.3605 -0.3648  1.5762
 8989SOL     OW38185   9.843   7.746   1.255 -0.0544  0.0783 -0.0815
 8989SOL    HW138186   9.746   7.751   1.280  0.0145  0.8799  0.0366
 8989SOL    HW238187   9.892   7.822   1.297  0.8221 -0.9320  0.7137
 8990SOL     OW38188   1.055   1.525   3.120 -0.0359  0.0364  0.4237
 8990SOL    HW138189   1.142   1.489   3.086 -0.7770 -0.4805 -0.9311
 8990SOL    HW238190   0.982   1.459   3.104 -1.2343  1.6706 -1.1448
 8991SOL     OW38191   9.908   9.130   2.179 -0.1912  0.2805 -0.6054
 8991SOL    HW138192   9.977   9.074   2.133 -0.5627  1.2715 -2.4033
 8991SOL    HW238193   9.953   9.189   2.246  0.4588 -0.5238 -0.3162
 8992SOL     OW38194   0.398   7.888   3.064  0.0504 -0.2924 -0.0598
 8992SOL    HW138195   0.310   7.903   3.020 -0.1699 -0.0959  0.4544
 8992SOL    HW238196   0.437   7.975   3.093 -0.4919 -0.5422  1.4720
 8993SOL     OW38197   3.722   8.607   1.955  0.4403 -0.0560 -0.1383
 8993SOL    HW138198   3.675   8.525   1.924 -0.6280  0.1534  0.8723
 8993SOL    HW238199   3.655   8.678   1.977  1.3854  1.3830 -1.7745
 8994SOL     OW38200   3.884   3.901   3.392 -0.4045  0.2658 -0.2719
 8994SOL    HW138201   3.875   3.931   3.297  0.0597  0.5192 -0.2336
 8994SOL    HW238202   3.842   3.810   3.402 -0.8639  0.4367 -0.6144
 8995SOL     OW38203   8.609   9.141   6.738  0.4110 -0.0439  0.1307
 8995SOL    HW138204   8.607   9.042   6.722 -1.8808 -0.0788  0.4985
 8995SOL    HW238205   8.634   9.188   6.654  2.7024 -0.9607  0.2453
 8996SOL     OW38206   6.681   2.982   3.174  0.1766  0.3188 -0.2307
 8996SOL    HW138207   6.780   2.985   3.187  0.4239  0.4571 -1.9771
 8996SOL    HW238208   6.657   2.903   3.116 -0.5620  1.1571 -1.0901
 8997SOL     OW38209   9.816   2.230   2.163 -0.3665 -0.2777 -0.3076
 8997SOL    HW138210   9.762   2.146   2.167  0.6840 -0.9386  0.1488
 8997SOL    HW238211   9.756   2.309   2.179 -1.4058 -0.9094 -1.0268
 8998SOL     OW38212   8.433   8.145   6.021  0.2399  0.2675 -0.1379
 8998SOL    HW138213   8.509   8.210   6.033  0.8862 -0.0245 -2.2962
 8998SOL    HW238214   8.454   8.085   5.944 -1.6744 -0.5904  0.0001
 8999SOL     OW38215   8.446   9.931   3.154 -0.7399 -0.6271  0.9145
 8999SOL    HW138216   8.463   9.834   3.169 -0.1565 -1.0228 -2.1179
 8999SOL    HW238217   8.454   9.980   3.241  0.7746 -3.0140  2.1571
 9000SOL     OW38218   4.712   4.806   3.926 -0.0962  0.5877 -0.1612
 9000SOL    HW138219   4.703   4.888   3.982 -0.2396  0.9135 -0.6521
 9000SOL    HW238220   4.679   4.826   3.833 -0.2802 -0.0676 -0.2386
 9001SOL     OW38221   0.398   0.913   2.651 -0.6763  0.5674  0.0105
 9001SOL    HW138222   0.333   0.859   2.705  1.1453 -0.6976  0.9947
 9001SOL    HW238223   0.483   0.922   2.701 -0.2899  2.7936 -0.9742
 9002SOL     OW38224   7.609   8.932   2.055  0.0914  0.6951 -0.3292
 9002SOL    HW138225   7.703   8.950   2.085  0.1834 -2.1161  1.2098
 9002SOL    HW238226   7.570   9.016   2.017  2.6251  2.3641  0.6017
 9003SOL     OW38227   4.410   8.265   1.512 -0.1080 -0.2270 -0.0450
 9003SOL    HW138228   4.460   8.289   1.429  1.4616  1.0453  1.2371
 9003SOL    HW238229   4.378   8.348   1.558  0.9314 -0.7670  1.7345
 9004SOL     OW38230   0.801   3.502   1.940 -0.5150 -0.3073 -0.5089
 9004SOL    HW138231   0.847   3.514   2.028  0.6528 -1.0570 -1.0028
 9004SOL    HW238232   0.788   3.591   1.897  0.4506 -0.0853 -0.3481
 9005SOL     OW38233   1.604   6.504   1.305 -0.2501  0.3303 -0.5020
 9005SOL    HW138234   1.567   6.412   1.317  0.7847  0.1867  1.9132
 9005SOL    HW238235   1.529   6.570   1.301 -1.0298 -0.6606 -2.9962
 9006SOL     OW38236   0.020   2.636   1.908 -0.1907 -0.1405  0.2551
 9006SOL    HW138237  -0.023   2.720   1.941  0.8050  1.4354 -2.3874
 9006SOL    HW238238   0.084   2.602   1.978  1.3129  2.7062  0.3273
 9007SOL     OW38239   8.953   5.642   1.131  0.0136  0.0474  1.0590
 9007SOL    HW138240   8.891   5.719   1.150  0.8416  1.8443 -2.8950
 9007SOL    HW238241   9.047   5.671   1.146  0.2727 -0.5363  0.5699
 9008SOL     OW38242   7.191   5.721   6.251 -0.0523 -0.0361  0.1267
 9008SOL    HW138243   7.129   5.790   6.289  0.3420 -0.1004  0.9094
 9008SOL    HW238244   7.259   5.698   6.320  0.4048 -0.4931 -0.4829
 9009SOL     OW38245   6.973   7.379   3.705  0.9406  0.2411 -0.2369
 9009SOL    HW138246   7.024   7.434   3.639 -1.1504  0.5067 -1.6828
 9009SOL    HW238247   6.914   7.438   3.760  0.2293 -0.3094 -0.3872
 9010SOL     OW38248   3.945   7.103   2.272  0.3497  0.0914 -0.6945
 9010SOL    HW138249   4.034   7.067   2.301 -0.1173  0.4154  1.1750
 9010SOL    HW238250   3.942   7.202   2.286 -1.0315 -0.1957  1.2236
 9011SOL     OW38251   7.949   6.260   1.627  0.1814 -0.5996  0.1185
 9011SOL    HW138252   7.952   6.327   1.552  0.3111  0.0534  0.7022
 9011SOL    HW238253   7.913   6.304   1.709  0.9328 -1.0669  0.6972
 9012SOL     OW38254   9.700   3.088   4.052 -0.3177  0.5254 -0.0902
 9012SOL    HW138255   9.711   3.160   3.983  1.2078  0.0766 -0.3388
 9012SOL    HW238256   9.673   3.003   4.006  1.3649  0.0534 -0.2387
 9013SOL     OW38257   9.597   0.116   2.985  0.0780 -0.0181 -0.1331
 9013SOL    HW138258   9.573   0.024   2.953  0.1699 -0.3847  0.8418
 9013SOL    HW238259   9.528   0.181   2.953 -0.9840 -0.7118  0.7344
 9014SOL     OW38260   0.948   5.773   5.944 -0.4602 -0.2169 -0.5033
 9014SOL    HW138261   1.004   5.854   5.923  0.1458 -0.7785 -1.0988
 9014SOL    HW238262   0.968   5.742   6.037  0.7381 -0.8203 -0.9534
 9015SOL     OW38263   0.912   1.971   1.840 -0.3857  1.1445 -0.2980
 9015SOL    HW138264   0.872   1.955   1.930  0.7168  0.3743  0.0555
 9015SOL    HW238265   0.907   1.886   1.786  0.3956  1.1655 -0.4022
 9016SOL     OW38266   1.711   2.363   1.844  0.1840  0.1615  0.5599
 9016SOL    HW138267   1.750   2.380   1.754 -0.5703 -0.1437  0.1808
 9016SOL    HW238268   1.629   2.308   1.836 -1.1234  1.9428  1.2337
 9017SOL     OW38269   9.669   5.103   2.115 -0.2160  0.1670 -0.2531
 9017SOL    HW138270   9.644   5.030   2.051  0.4491 -0.0169 -0.3091
 9017SOL    HW238271   9.622   5.188   2.088 -0.6361 -0.1275 -0.4571
 9018SOL     OW38272   8.210   0.856   1.850  0.1436  0.1062  0.0372
 9018SOL    HW138273   8.264   0.871   1.767  1.1091 -0.2194  0.6001
 9018SOL    HW238274   8.224   0.932   1.913 -2.0284  1.2793 -0.8391
 9019SOL     OW38275   9.879   8.763   1.923 -0.3364  0.1967 -0.1514
 9019SOL    HW138276   9.858   8.779   2.019 -0.5616 -0.2956 -0.1135
 9019SOL    HW238277   9.824   8.686   1.890  0.9453 -0.7105 -0.2243
 9020SOL     OW38278   0.791   3.118   3.028 -0.1190  0.0556 -0.1808
 9020SOL    HW138279   0.763   3.187   3.095 -1.9417  0.1248 -0.9830
 9020SOL    HW238280   0.879   3.144   2.989 -0.1854  1.2737  0.4369
 9021SOL     OW38281   7.616   1.109   5.279 -0.2879 -0.2942 -0.0143
 9021SOL    HW138282   7.560   1.026   5.275 -0.5109 -0.1596  0.3371
 9021SOL    HW238283   7.577   1.173   5.345  0.3817 -0.2784  0.3730
 9022SOL     OW38284   1.875   4.325   3.144 -0.1140  0.1409  0.7075
 9022SOL    HW138285   1.898   4.417   3.178 -0.1656  0.3573  0.1538
 9022SOL    HW238286   1.950   4.263   3.167  1.4871  1.0436 -1.8940
 9023SOL     OW38287   7.383   0.327   5.534  0.4339  0.0038 -0.0794
 9023SOL    HW138288   7.295   0.311   5.489 -0.1123  0.1269  0.9451
 9023SOL    HW238289   7.449   0.362   5.466 -0.5248  0.6603 -0.6875
 9024SOL     OW38290   9.663   7.794   3.617 -0.1498 -0.2245  0.0187
 9024SOL    HW138291   9.713   7.727   3.671 -1.4200 -0.7929  0.5035
 9024SOL    HW238292   9.623   7.863   3.678  0.3665  0.4502 -0.3982
 9025SOL     OW38293   0.828   2.807   6.612 -0.0914 -0.1766  0.0159
 9025SOL    HW138294   0.891   2.798   6.689  0.4936 -0.3439 -0.4790
 9025SOL    HW238295   0.857   2.745   6.538 -0.3530  0.3488 -0.5266
 9026SOL     OW38296   2.565   7.725   4.984 -1.2156 -0.1640  0.2238
 9026SOL    HW138297   2.466   7.739   4.976 -1.2169 -0.4954 -0.3571
 9026SOL    HW238298   2.583   7.647   5.045 -1.2670  0.7698  1.4726
 9027SOL     OW38299   8.481   8.020   2.991 -0.2797  0.1106  0.4654
 9027SOL    HW138300   8.482   7.946   2.923 -0.0370  0.6730 -0.1503
 9027SOL    HW238301   8.411   8.001   3.060 -0.8102 -0.2625 -0.1695
 9028SOL     OW38302   5.551   9.531   5.103  0.0256 -0.3939  0.0316
 9028SOL    HW138303   5.532   9.437   5.074  0.3501  0.1542 -2.0194
 9028SOL    HW238304   5.483   9.559   5.171 -1.2337 -1.4710 -0.7533
 9029SOL     OW38305   1.769   4.968   3.887 -0.0964  0.2254 -0.4854
 9029SOL    HW138306   1.753   4.962   3.985  0.5261  0.3728 -0.3763
 9029SOL    HW238307   1.722   5.048   3.850 -0.5172  0.0434 -0.3503
 9030SOL     OW38308   2.586   4.461   6.692 -0.0146 -0.3517 -0.0240
 9030SOL    HW138309   2.609   4.547   6.737 -1.0012  0.6356 -1.3798
 9030SOL    HW238310   2.542   4.479   6.605 -1.5798 -2.2295  0.3405
 9031SOL     OW38311   2.750   6.798   3.462  0.1700 -0.2991  0.4009
 9031SOL    HW138312   2.670   6.808   3.403  0.8592 -1.1701 -0.7063
 9031SOL    HW238313   2.722   6.761   3.551 -0.7105 -0.1284  0.1954
 9032SOL     OW38314   2.877   3.219   6.672  0.3534  0.0051  0.1091
 9032SOL    HW138315   2.810   3.245   6.603  0.9153  2.2812  0.3744
 9032SOL    HW238316   2.844   3.140   6.723 -1.1423 -0.2085 -1.1801
 9033SOL     OW38317   6.760   8.754   5.144  0.0303 -0.1887 -0.6340
 9033SOL    HW138318   6.788   8.821   5.075  1.2425 -0.8787 -0.8260
 9033SOL    HW238319   6.669   8.719   5.121  0.0363  0.2586 -1.3707
 9034SOL     OW38320   3.918   7.383   2.275  0.1019  0.0816 -0.2990
 9034SOL    HW138321   3.981   7.445   2.229  0.6284  0.0188  0.3409
 9034SOL    HW238322   3.852   7.347   2.208  0.9054 -0.0654 -1.0164
 9035SOL     OW38323   4.191   4.672   4.209 -0.4423 -0.6613  0.1984
 9035SOL    HW138324   4.223   4.767   4.205 -0.6847 -0.5865 -0.0300
 9035SOL    HW238325   4.150   4.648   4.122  1.2110 -1.5505 -0.3615
 9036SOL     OW38326   7.352   7.577   5.950 -0.0870  0.2956  0.2204
 9036SOL    HW138327   7.404   7.497   5.920  0.5334  1.1147 -0.9235
 9036SOL    HW238328   7.255   7.555   5.955  0.2176 -0.8679  1.0732
 9037SOL     OW38329   7.594   2.924   0.110  0.3589  0.3513  0.6473
 9037SOL    HW138330   7.684   2.881   0.107  0.4906  0.6087  0.9558
 9037SOL    HW238331   7.585   2.979   0.193 -0.9796 -1.6281  1.8745
 9038SOL     OW38332   8.366   7.964   1.343  0.2505 -0.1391  0.0460
 9038SOL    HW138333   8.293   8.021   1.304 -0.1940  0.2102  1.3450
 9038SOL    HW238334   8.326   7.901   1.410  0.9079 -1.1918 -0.5422
 9039SOL     OW38335   7.826   1.677   3.991  0.4772  0.0764  0.1654
 9039SOL    HW138336   7.855   1.761   3.945 -1.0347  0.1655 -0.6674
 9039SOL    HW238337   7.836   1.688   4.090 -0.4843  1.5662  0.1139
 9040SOL     OW38338   1.056   1.369   2.638  0.2346  0.4992  0.5203
 9040SOL    HW138339   1.083   1.465   2.646  0.6333  0.4547 -0.2432
 9040SOL    HW238340   1.138   1.313   2.629 -0.0377  0.1853 -0.0244
 9041SOL     OW38341   7.542   1.786   0.687 -0.4049  0.3285  0.5865
 9041SOL    HW138342   7.513   1.692   0.708 -0.2294  0.3999  1.1527
 9041SOL    HW238343   7.642   1.793   0.694 -0.4256  0.5849  0.6433
 9042SOL     OW38344   1.574   6.750   3.420 -0.3479  0.2647 -0.6967
 9042SOL    HW138345   1.569   6.729   3.322 -0.0796 -1.0343 -0.4351
 9042SOL    HW238346   1.488   6.793   3.449  0.2352  2.2751 -1.8687
 9043SOL     OW38347   4.567   0.361   4.987 -0.3224  0.1286  0.0426
 9043SOL    HW138348   4.555   0.262   4.979 -1.1270  0.1989  0.2352
 9043SOL    HW238349   4.575   0.385   5.084 -0.1273  0.2514 -0.0039
 9044SOL     OW38350   2.671   5.126   4.498  0.8776 -0.2741  0.4923
 9044SOL    HW138351   2.750   5.122   4.559 -0.3176 -1.8105  1.9879
 9044SOL    HW238352   2.587   5.119   4.552 -0.2534  0.0997 -1.1855
 9045SOL     OW38353   5.555   5.284   0.965  0.0264  0.0961 -0.3631
 9045SOL    HW138354   5.547   5.194   1.008 -1.7904 -0.2130 -1.3186
 9045SOL    HW238355   5.535   5.355   1.032 -3.6626 -0.4121 -0.8044
 9046SOL     OW38356   9.058   5.080   6.487 -0.3283  0.2242  0.2528
 9046SOL    HW138357   9.152   5.051   6.508  0.5260  0.7581 -2.5548
 9046SOL    HW238358   9.001   5.000   6.472 -0.2626 -0.1010  1.6884
 9047SOL     OW38359   9.894   6.697   4.653 -0.5252  0.1458 -0.4048
 9047SOL    HW138360   9.942   6.630   4.596 -0.7792  0.3664 -0.8899
 9047SOL    HW238361   9.957   6.769   4.682 -0.4365  0.1357 -0.5710
 9048SOL     OW38362   2.586   2.568   5.177 -0.6320  0.0475  0.6132
 9048SOL    HW138363   2.657   2.586   5.109 -1.0617  0.7666  0.3419
 9048SOL    HW238364   2.627   2.562   5.268 -0.4802  2.5902  0.7341
 9049SOL     OW38365   2.311   5.063   4.017 -0.2738  0.1941 -0.6196
 9049SOL    HW138366   2.251   5.140   3.997  2.1599  2.1951 -0.3345
 9049SOL    HW238367   2.315   5.003   3.937 -2.5487  0.0659 -0.6743
 9050SOL     OW38368   7.195   3.497   5.024  0.2154  0.2006 -0.1486
 9050SOL    HW138369   7.289   3.516   4.997  0.1287  0.7356 -0.0728
 9050SOL    HW238370   7.191   3.408   5.069  0.5675 -0.1514 -0.7904
 9051SOL     OW38371   8.875   1.171   1.894 -0.5701  0.0472 -0.6754
 9051SOL    HW138372   8.970   1.141   1.897 -0.7875 -0.5961 -0.1719
 9051SOL    HW238373   8.821   1.107   1.838 -0.4803  1.0601 -1.9506
 9052SOL     OW38374   4.201   9.734   5.099 -0.0272 -0.1038 -0.2621
 9052SOL    HW138375   4.108   9.702   5.082 -0.4115  0.2288  1.1105
 9052SOL    HW238376   4.241   9.681   5.173  0.8087 -0.1142 -0.7176
 9053SOL     OW38377   0.936   7.796   3.398  0.0080  0.2468 -0.1716
 9053SOL    HW138378   0.851   7.761   3.359  0.1503 -2.4211  1.8089
 9053SOL    HW238379   0.978   7.726   3.456  2.5218  2.2417  0.5200
 9054SOL     OW38380   1.644   2.401   1.022 -0.4593 -0.1179  0.1621
 9054SOL    HW138381   1.582   2.459   1.076  0.4383  0.3076  0.7492
 9054SOL    HW238382   1.606   2.388   0.931 -1.7087 -0.3469  0.6952
 9055SOL     OW38383   4.002   8.593   2.867 -0.0776 -0.1711  0.5282
 9055SOL    HW138384   3.959   8.682   2.884 -0.7201 -0.3039 -0.4085
 9055SOL    HW238385   3.935   8.531   2.826 -0.0239 -1.5304  2.4611
 9056SOL     OW38386   7.717   5.789   0.073  0.2394 -0.0693 -0.0730
 9056SOL    HW138387   7.740   5.696   0.042  0.1584 -0.4729  1.0619
 9056SOL    HW238388   7.675   5.839  -0.003 -0.5958 -1.2768 -0.4296
 9057SOL     OW38389   5.801   1.340   2.890  0.2659  0.3844  0.3856
 9057SOL    HW138390   5.883   1.398   2.896 -0.1103  0.9456  0.0858
 9057SOL    HW238391   5.731   1.386   2.835 -1.5714  1.5183  3.5290
 9058SOL     OW38392   4.014   9.707   0.476  0.3941 -0.4969 -0.4438
 9058SOL    HW138393   4.060   9.739   0.559  1.5896  0.6437 -1.5218
 9058SOL    HW238394   3.915   9.718   0.486  0.5683  0.1453  0.6177
 9059SOL     OW38395   5.049   0.081   2.359  0.1330  0.4569 -0.4544
 9059SOL    HW138396   5.009   0.026   2.286  0.4250 -0.7956  0.3107
 9059SOL    HW238397   5.056   0.026   2.442  3.9290  0.4460 -0.6963
 9060SOL     OW38398   9.432   4.497   0.817  0.4169 -0.0139  0.7304
 9060SOL    HW138399   9.342   4.494   0.775  1.3245 -0.1987 -1.2988
 9060SOL    HW238400   9.477   4.584   0.793  1.2304 -0.4354  0.6960
 9061SOL     OW38401   6.667   9.910   3.857 -0.1519  0.3640  0.1287
 9061SOL    HW138402   6.712   9.831   3.897 -0.2560 -0.1234 -0.6962
 9061SOL    HW238403   6.579   9.882   3.819  0.4165  0.5786 -1.3883
 9062SOL     OW38404   3.763   0.789   5.991  0.4320 -0.5085  0.4999
 9062SOL    HW138405   3.680   0.739   6.016  1.0904 -1.3260  1.1210
 9062SOL    HW238406   3.756   0.883   6.023 -1.2804  0.1145 -1.6421
 9063SOL     OW38407   3.971   2.007   6.406 -0.5717 -0.5301  0.3091
 9063SOL    HW138408   3.886   1.958   6.387 -0.5203 -0.1925 -0.8610
 9063SOL    HW238409   4.013   1.970   6.489 -0.5630 -2.4578 -0.5199
 9064SOL     OW38410   2.428   2.857   6.499  0.4077  0.1053 -0.5256
 9064SOL    HW138411   2.506   2.918   6.482  0.9223 -0.3083  0.3018
 9064SOL    HW238412   2.383   2.883   6.584  0.0118 -0.0434 -0.6873
 9065SOL     OW38413   3.046   6.280   4.844 -0.1295 -0.3659 -0.0457
 9065SOL    HW138414   2.946   6.288   4.837 -0.0236  1.8036  0.3449
 9065SOL    HW238415   3.084   6.262   4.754 -0.7720  0.3271 -0.4683
 9066SOL     OW38416   5.879   2.173   3.882  0.3406  0.3172 -0.0617
 9066SOL    HW138417   5.901   2.211   3.972 -0.8451  0.5431  0.1338
 9066SOL    HW238418   5.876   2.246   3.814 -0.0051  0.3128 -0.0514
 9067SOL     OW38419   0.247   1.877   3.024  0.6537  0.0032  0.2906
 9067SOL    HW138420   0.255   1.969   3.063  0.3970 -0.1556  0.7260
 9067SOL    HW238421   0.244   1.883   2.924  0.4909  0.4793  0.3244
 9068SOL     OW38422   4.489   7.701   1.825 -0.9119 -0.7784  0.1840
 9068SOL    HW138423   4.569   7.660   1.869 -2.3796 -2.0756  1.7238
 9068SOL    HW238424   4.451   7.638   1.758  0.1810  0.4328 -1.6309
 9069SOL     OW38425   8.739   6.691   2.495  0.0184 -0.4238  0.0016
 9069SOL    HW138426   8.668   6.627   2.466  0.1557 -0.2679 -0.6732
 9069SOL    HW238427   8.775   6.662   2.584  1.8003 -2.6982 -1.3984
 9070SOL     OW38428   0.960   9.988   1.490  0.1799 -0.0714 -0.5886
 9070SOL    HW138429   0.950  10.086   1.472  0.7058 -0.2295 -1.8126
 9070SOL    HW238430   1.001   9.944   1.410 -1.5671 -1.5770 -0.6796
 9071SOL     OW38431   0.758   5.203   4.218 -0.2636 -0.1650 -0.1395
 9071SOL    HW138432   0.689   5.160   4.160 -0.7832 -0.0496  0.3877
 9071SOL    HW238433   0.779   5.295   4.184 -1.1561  0.2104  0.3248
 9072SOL     OW38434   1.346   6.859   5.898 -0.1138  0.3402  0.0185
 9072SOL    HW138435   1.408   6.932   5.926 -0.6220  0.8214 -0.0895
 9072SOL    HW238436   1.365   6.833   5.804  1.5573 -1.2363  0.7610
 9073SOL     OW38437   3.732   3.435   2.929  0.1265  0.1960  0.2196
 9073SOL    HW138438   3.753   3.530   2.951 -0.2177  0.6112 -1.1836
 9073SOL    HW238439   3.633   3.422   2.927  0.1798 -0.4121  1.2897
 9074SOL     OW38440   8.162   2.425   2.845  0.5212  0.1824  0.0763
 9074SOL    HW138441   8.084   2.472   2.886 -0.7052  0.7649 -2.8108
 9074SOL    HW238442   8.139   2.329   2.829 -0.0778  0.6297 -1.8758
 9075SOL     OW38443   1.330   5.977   6.179 -0.3026 -0.7470  0.0959
 9075SOL    HW138444   1.243   6.011   6.144  0.0167  0.7425  0.7246
 9075SOL    HW238445   1.348   6.016   6.269  1.7889  0.2710 -0.7242
 9076SOL     OW38446   7.227   8.700   2.968 -0.3396  0.4740 -0.4301
 9076SOL    HW138447   7.272   8.691   2.879  2.5208 -0.7547  1.1129
 9076SOL    HW238448   7.204   8.609   3.003  0.2393  0.8454  0.9329
 9077SOL     OW38449   9.317   2.624   4.156 -0.5695 -0.2555  0.3427
 9077SOL    HW138450   9.393   2.586   4.210 -0.6887  2.5343  2.6170
 9077SOL    HW238451   9.348   2.707   4.109 -2.0500  0.6367  0.9074
 9078SOL     OW38452   7.792   8.146   1.411  0.3801 -0.0652 -0.4793
 9078SOL    HW138453   7.892   8.139   1.415  0.4674 -0.0543 -2.2619
 9078SOL    HW238454   7.764   8.238   1.440  0.7425 -0.5799  1.6384
 9079SOL     OW38455   9.538   7.298   2.850 -0.0761  0.0227 -0.4638
 9079SOL    HW138456   9.508   7.242   2.927  1.0497 -1.5559 -1.1181
 9079SOL    HW238457   9.470   7.367   2.829 -1.2481 -0.7521  0.7487
 9080SOL     OW38458   1.464   6.624   6.505  0.7413  0.4899  0.4296
 9080SOL    HW138459   1.546   6.571   6.525  0.6837  0.0223 -0.5493
 9080SOL    HW238460   1.388   6.562   6.487  0.3537  0.9189  0.5702
 9081SOL     OW38461   2.205   2.872   2.674 -0.2506  0.4048  0.3810
 9081SOL    HW138462   2.233   2.929   2.598  0.3185  0.8065  0.8908
 9081SOL    HW238463   2.112   2.839   2.659  0.5232 -1.0297 -1.3684
 9082SOL     OW38464   3.601   2.737   1.863  0.4585  0.6646  0.2118
 9082SOL    HW138465   3.673   2.785   1.813  0.6486  0.2992  0.1340
 9082SOL    HW238466   3.632   2.645   1.885 -0.3216  0.2161 -0.5685
 9083SOL     OW38467   4.087   4.731   0.037  0.0661 -0.2233  0.4997
 9083SOL    HW138468   4.185   4.731   0.016  0.4083  0.5538  2.0296
 9083SOL    HW238469   4.071   4.684   0.123 -0.5042  2.4285  1.8972
 9084SOL     OW38470   1.065   0.495   1.777  0.2036  0.1387  0.0626
 9084SOL    HW138471   1.054   0.455   1.868  0.7911  0.5901  0.3380
 9084SOL    HW238472   0.988   0.468   1.719 -0.4929  0.3404  0.8778
 9085SOL     OW38473   6.606   0.927   3.316  0.5984  0.3480  0.2988
 9085SOL    HW138474   6.580   0.966   3.404 -3.0728  0.7791 -0.8926
 9085SOL    HW238475   6.557   0.841   3.302  2.5798 -0.6836 -0.5329
 9086SOL     OW38476   9.021   2.301   5.841 -0.2795  0.7609 -0.1134
 9086SOL    HW138477   9.056   2.382   5.795 -0.7672  0.2038 -1.4933
 9086SOL    HW238478   9.097   2.248   5.879  0.2356  0.5706 -1.3881
 9087SOL     OW38479   7.090   5.747   5.069 -0.0849 -0.1987  0.6426
 9087SOL    HW138480   7.171   5.798   5.042 -1.5562  1.5448 -0.6247
 9087SOL    HW238481   7.061   5.776   5.160 -0.1071  0.2150  0.5044
 9088SOL     OW38482   2.271   5.193   4.374  0.0906 -0.3103  0.1361
 9088SOL    HW138483   2.292   5.096   4.386 -1.0698 -0.3693  1.8324
 9088SOL    HW238484   2.185   5.203   4.324  0.9152 -0.1221 -1.2804
 9089SOL     OW38485   3.140   7.460   4.690 -0.1779  0.2718  0.8340
 9089SOL    HW138486   3.105   7.552   4.706 -0.5546 -0.1033  2.2696
 9089SOL    HW238487   3.112   7.400   4.765 -3.0393 -1.8992 -1.8348
 9090SOL     OW38488   8.128   0.394   5.062 -0.1285 -0.0277  0.3437
 9090SOL    HW138489   8.196   0.321   5.061 -1.8580 -1.7192 -1.7198
 9090SOL    HW238490   8.068   0.383   5.141  0.7631  0.2860  1.0680
 9091SOL     OW38491   1.854   5.618   1.231 -0.2600 -0.0208  0.1452
 9091SOL    HW138492   1.781   5.594   1.295 -0.5642  1.5107  0.3981
 9091SOL    HW238493   1.833   5.707   1.189  1.4684  0.4315  0.2169
 9092SOL     OW38494   9.634   4.064   4.010 -0.4152 -0.0355  0.5454
 9092SOL    HW138495   9.645   4.137   4.078  1.1956  1.2236 -1.0218
 9092SOL    HW238496   9.687   3.984   4.038  2.3937  1.4064 -0.5020
 9093SOL     OW38497   3.114   3.490   2.335  0.0557  0.1176  0.4989
 9093SOL    HW138498   3.034   3.494   2.275  0.6430 -1.5240 -0.4365
 9093SOL    HW238499   3.086   3.507   2.429 -1.1530  1.0343 -0.0078
 9094SOL     OW38500   6.675   2.580   0.293  0.1996  0.4582 -0.0484
 9094SOL    HW138501   6.767   2.618   0.281  0.5999 -0.4677  0.1203
 9094SOL    HW238502   6.665   2.546   0.386 -0.9353  2.2201  0.5075
 9095SOL     OW38503   0.544   7.268   2.487  0.5057  0.3471 -0.0031
 9095SOL    HW138504   0.517   7.345   2.429 -1.7979  1.7040  2.6997
 9095SOL    HW238505   0.614   7.298   2.551  1.8284 -0.6702 -0.9642
 9096SOL     OW38506   3.896   3.126   1.591  0.2987 -0.7554  0.4907
 9096SOL    HW138507   3.965   3.094   1.526  2.7755  1.6653  1.8071
 9096SOL    HW238508   3.858   3.213   1.560 -1.2849 -1.4578  0.4141
 9097SOL     OW38509   8.508   9.263   5.686 -0.0338 -0.2662 -0.5968
 9097SOL    HW138510   8.455   9.178   5.679 -0.7485 -0.0572  2.0355
 9097SOL    HW238511   8.604   9.241   5.702 -0.3306 -0.5860  0.7811
 9098SOL     OW38512   5.875   9.884   2.140 -0.6682  0.2897  0.1100
 9098SOL    HW138513   5.840   9.939   2.215 -1.0708 -0.5123  0.5166
 9098SOL    HW238514   5.846   9.923   2.053  0.1213  1.4365  0.3566
 9099SOL     OW38515   3.390   7.723   1.953  0.1157  0.3518  1.1318
 9099SOL    HW138516   3.392   7.624   1.947 -1.5214  0.3495  0.3651
 9099SOL    HW238517   3.297   7.756   1.935  0.9215  2.0972  0.0058
 9100SOL     OW38518   2.318   0.226   3.842  0.1383  0.1169  0.0614
 9100SOL    HW138519   2.379   0.159   3.799  0.7331  0.4587  0.3657
 9100SOL    HW238520   2.372   0.302   3.879 -0.4881  0.5115  0.1768
 9101SOL     OW38521   1.185   0.153   4.172  0.3436 -0.3711  0.4067
 9101SOL    HW138522   1.134   0.158   4.085 -0.8186 -0.5595  1.0666
 9101SOL    HW238523   1.218   0.243   4.196 -0.1224 -0.1510  0.2322
 9102SOL     OW38524   4.756   9.225   3.072  0.1014  0.2253 -0.3463
 9102SOL    HW138525   4.712   9.201   3.159  0.0072 -1.4195 -0.8287
 9102SOL    HW238526   4.805   9.312   3.082 -0.1057  0.1690  1.2803
 9103SOL     OW38527   3.827   1.330   4.079 -0.1407  0.3399 -0.6204
 9103SOL    HW138528   3.788   1.377   4.158 -1.2174 -3.1573  1.0620
 9103SOL    HW238529   3.762   1.331   4.003 -0.1968  1.4470 -0.5576
 9104SOL     OW38530   7.711   4.530   1.798  0.5328  0.6112 -0.3767
 9104SOL    HW138531   7.667   4.568   1.717 -2.5239 -2.6567 -0.3630
 9104SOL    HW238532   7.675   4.576   1.880  1.3979  1.8199 -0.6500
 9105SOL     OW38533   8.347   0.043   1.930  0.7961 -0.0957 -0.5407
 9105SOL    HW138534   8.266   0.101   1.929  0.0824 -1.0957 -1.4121
 9105SOL    HW238535   8.339  -0.025   2.003  1.3555  0.4878  0.0801
 9106SOL     OW38536   2.981   9.068   4.113  0.3876  0.1900  0.9207
 9106SOL    HW138537   3.055   9.112   4.062 -0.2705 -0.6324 -0.8000
 9106SOL    HW238538   3.008   8.975   4.137  0.7391  0.6159  2.1775
 9107SOL     OW38539   6.242   0.354   2.877 -0.5710  0.4590  0.0267
 9107SOL    HW138540   6.194   0.363   2.790  0.4528 -0.4937 -0.6445
 9107SOL    HW238541   6.214   0.428   2.938 -0.6452  1.6481 -1.4187
 9108SOL     OW38542   1.812   1.313   4.157  0.9139  0.2245 -0.2161
 9108SOL    HW138543   1.871   1.239   4.126  2.5560  1.8886 -1.1700
 9108SOL    HW238544   1.863   1.373   4.220 -0.0343  1.1374 -0.2959
 9109SOL     OW38545   2.270   4.318   0.670  0.2608 -0.2658  0.1033
 9109SOL    HW138546   2.296   4.403   0.715 -2.0262 -0.0201  1.0404
 9109SOL    HW238547   2.352   4.264   0.650  1.6456  1.7079  0.3876
 9110SOL     OW38548   4.205   2.252   0.607 -0.3140  0.1264  0.0447
 9110SOL    HW138549   4.183   2.260   0.704  1.7396  2.0092  0.4246
 9110SOL    HW238550   4.142   2.189   0.563 -2.1496  0.3128  2.3157
 9111SOL     OW38551   3.486   9.946   6.478  0.2510  0.4590 -0.0084
 9111SOL    HW138552   3.567   9.892   6.500  1.0388  1.5373 -0.2512
 9111SOL    HW238553   3.444   9.980   6.562  1.2056  1.5786  0.0246
 9112SOL     OW38554   4.891   0.904   0.139 -0.1705  0.3770  0.5251
 9112SOL    HW138555   4.952   0.944   0.070  2.1300 -2.6881  0.6923
 9112SOL    HW238556   4.799   0.900   0.102  0.3803  1.7936 -1.1133
 9113SOL     OW38557   8.833   4.899   2.883 -0.4438  0.3317 -0.0499
 9113SOL    HW138558   8.786   4.811   2.879  0.3679 -0.1337  0.4421
 9113SOL    HW238559   8.784   4.961   2.944 -0.9070  0.1492 -0.2386
 9114SOL     OW38560   4.834   4.794   4.349  0.1484  0.5465  0.0585
 9114SOL    HW138561   4.773   4.760   4.278 -1.0893 -0.9408  1.8020
 9114SOL    HW238562   4.897   4.721   4.376  0.9407  1.2569  0.1626
 9115SOL     OW38563   7.811   1.714   6.640 -0.4780 -0.0796  0.0693
 9115SOL    HW138564   7.872   1.690   6.564 -0.5247  1.0477 -0.3392
 9115SOL    HW238565   7.862   1.761   6.711 -0.3639 -1.4675  0.9175
 9116SOL     OW38566   0.978   0.070   0.165 -0.3207 -0.1488  0.0995
 9116SOL    HW138567   1.001   0.118   0.249 -2.9251 -1.2469  1.4662
 9116SOL    HW238568   1.011  -0.024   0.170 -1.1479 -0.4306  0.1949
 9117SOL     OW38569   3.059   9.976   5.436  0.5953 -0.2523  0.2708
 9117SOL    HW138570   2.973   9.928   5.455  0.8538 -1.1536 -0.7937
 9117SOL    HW238571   3.038  10.070   5.410 -0.1654 -0.7858 -1.1206
 9118SOL     OW38572   0.671   7.456   5.484 -0.3200  0.1216 -0.1972
 9118SOL    HW138573   0.714   7.481   5.571 -1.3462  0.0010  0.3508
 9118SOL    HW238574   0.740   7.416   5.424 -0.0055 -1.7391  1.3344
 9119SOL     OW38575   2.380   0.214   0.093 -0.2000 -0.1450  0.0720
 9119SOL    HW138576   2.281   0.228   0.083  0.1292  2.1700 -0.0814
 9119SOL    HW238577   2.411   0.258   0.178  0.7295 -0.7350  0.0437
 9120SOL     OW38578   9.828   3.331   6.314  0.0467 -0.2603 -0.1297
 9120SOL    HW138579   9.769   3.392   6.368  1.8920  2.3784 -0.9759
 9120SOL    HW238580   9.923   3.341   6.346  0.9595  0.2936 -2.8947
 9121SOL     OW38581   9.512   4.623   2.170 -0.0867  0.2610  0.2778
 9121SOL    HW138582   9.508   4.631   2.270 -0.5690 -0.1277  0.2896
 9121SOL    HW238583   9.421   4.636   2.132  0.3742  2.1401 -0.2453
 9122SOL     OW38584   4.828   0.864   6.284 -0.7291 -0.2963 -0.0656
 9122SOL    HW138585   4.788   0.952   6.260 -0.3594  0.3438  1.5889
 9122SOL    HW238586   4.842   0.810   6.201  0.1381  1.6587 -1.2157
 9123SOL     OW38587   3.535   2.290   3.496  0.3649 -0.3643  0.5326
 9123SOL    HW138588   3.460   2.351   3.521  0.9913 -0.8289  3.6919
 9123SOL    HW238589   3.513   2.197   3.525  1.3970 -0.8253 -0.1396
 9124SOL     OW38590   3.529   8.878   0.889  0.0345 -0.1721 -0.3734
 9124SOL    HW138591   3.434   8.852   0.876 -0.1104  1.0828 -1.8937
 9124SOL    HW238592   3.551   8.957   0.832  2.6211 -1.8379 -1.8183
 9125SOL     OW38593   4.601   0.541   5.721 -1.0269  0.0999 -0.2871
 9125SOL    HW138594   4.545   0.460   5.705 -0.4396 -1.0160  3.0034
 9125SOL    HW238595   4.679   0.541   5.659 -2.1822 -0.7273 -1.7645
 9126SOL     OW38596   6.640   1.348   0.083  0.3903  0.8844 -0.9322
 9126SOL    HW138597   6.720   1.407   0.094  1.1494  0.1397 -2.2917
 9126SOL    HW238598   6.667   1.263   0.038 -0.9078 -0.0131 -0.0648
 9127SOL     OW38599   8.366   5.394   4.088 -0.3562 -0.4161 -0.1702
 9127SOL    HW138600   8.367   5.373   3.991  1.1123  0.7684 -0.4235
 9127SOL    HW238601   8.449   5.445   4.113 -0.1468 -1.6913  1.9205
 9128SOL     OW38602   7.984   8.843   4.779 -0.2870 -0.5516  0.1013
 9128SOL    HW138603   7.886   8.856   4.767 -0.1427  0.4322 -0.0360
 9128SOL    HW238604   8.007   8.844   4.876 -0.5146 -1.5771  0.1728
 9129SOL     OW38605   3.070   9.085   1.509 -0.0956  0.0453  0.4236
 9129SOL    HW138606   3.139   9.153   1.532 -0.1773  0.0101  0.7651
 9129SOL    HW238607   3.006   9.075   1.585 -0.4468  0.0399  0.1270
 9130SOL     OW38608   6.099   2.603   3.768  0.1479 -0.3070 -0.1310
 9130SOL    HW138609   6.052   2.522   3.804  0.6340 -0.2898  0.5496
 9130SOL    HW238610   6.038   2.651   3.705 -0.0957 -1.2813 -0.6651
 9131SOL     OW38611   4.407   4.687   3.297  0.1662  0.2482 -0.2946
 9131SOL    HW138612   4.447   4.696   3.206 -1.2473  1.6594 -0.7853
 9131SOL    HW238613   4.460   4.620   3.350  2.6004  1.4012 -1.2258
 9132SOL     OW38614   3.788   3.141   2.590 -0.0042 -0.3323  0.3409
 9132SOL    HW138615   3.721   3.144   2.515  0.3598  1.4496  0.0565
 9132SOL    HW238616   3.877   3.115   2.554 -0.1190 -0.8147  0.3974
 9133SOL     OW38617   1.811   3.579   5.030  0.0642 -0.0605  0.0869
 9133SOL    HW138618   1.754   3.654   4.996 -0.6450 -1.1865 -1.3087
 9133SOL    HW238619   1.771   3.542   5.113 -1.1248 -0.6623 -0.7344
 9134SOL     OW38620   6.207   2.404   4.062  0.5606  0.3182  0.5641
 9134SOL    HW138621   6.245   2.395   3.970 -0.0123 -1.7258  0.5027
 9134SOL    HW238622   6.137   2.334   4.076 -1.5956  2.5750  1.4667
 9135SOL     OW38623   9.680   8.256   3.477 -0.6177  0.1601 -0.2692
 9135SOL    HW138624   9.632   8.263   3.565  1.3750  0.0395  0.8583
 9135SOL    HW238625   9.706   8.348   3.447 -0.9219  0.1657 -0.5124
 9136SOL     OW38626   1.402   4.642   3.946  0.2760 -0.3682  0.7545
 9136SOL    HW138627   1.382   4.602   4.036 -0.8665  0.3182  0.8154
 9136SOL    HW238628   1.352   4.591   3.875 -0.1407  0.1233  0.6904
 9137SOL     OW38629   8.617   9.099   4.769 -0.3814 -0.1380 -0.2364
 9137SOL    HW138630   8.673   9.167   4.816  0.7141 -0.6523 -0.7734
 9137SOL    HW238631   8.520   9.122   4.779 -0.1025  0.4619  1.1633
 9138SOL     OW38632   3.037   4.079   3.360 -0.2218  0.1679  0.5556
 9138SOL    HW138633   3.062   3.982   3.355 -0.7471  0.0711 -0.2927
 9138SOL    HW238634   3.111   4.134   3.320  0.0587  0.1187  1.0020
 9139SOL     OW38635   9.755   3.821   3.755  0.1903  0.1352 -0.3007
 9139SOL    HW138636   9.677   3.774   3.715  1.3884 -1.2616 -1.0699
 9139SOL    HW238637   9.761   3.914   3.718 -0.3223 -0.2098 -1.2470
 9140SOL     OW38638   3.604   8.007   2.017 -0.0238  0.4583 -0.9682
 9140SOL    HW138639   3.604   7.942   2.092 -0.5122  0.0748 -1.3033
 9140SOL    HW238640   3.514   8.051   2.010  0.0173  0.4885 -1.3317
 9141SOL     OW38641   2.533   4.852   4.159 -0.0256  0.4525 -0.2473
 9141SOL    HW138642   2.502   4.947   4.153  0.9667  0.7207 -1.2885
 9141SOL    HW238643   2.623   4.844   4.117  0.9859 -0.4760  2.0500
 9142SOL     OW38644   0.276   4.551   3.652  0.0080 -0.4665 -0.2943
 9142SOL    HW138645   0.239   4.525   3.563  0.7084 -1.9453 -0.1665
 9142SOL    HW238646   0.354   4.493   3.674  0.3624  0.4476  0.9130
 9143SOL     OW38647   8.288   1.408   6.058  0.1562 -0.7194  0.1766
 9143SOL    HW138648   8.353   1.447   5.993  0.6538 -0.6817  0.6939
 9143SOL    HW238649   8.301   1.309   6.062  0.5629 -0.6523  0.6838
 9144SOL     OW38650   2.653   7.747   2.077  0.1107 -0.2867 -0.0080
 9144SOL    HW138651   2.594   7.742   2.157  0.0569 -0.7236 -0.0745
 9144SOL    HW238652   2.702   7.660   2.065  0.8183  0.0893  0.0851
 9145SOL     OW38653   8.615   3.993   4.412 -0.4536 -0.3359  0.0600
 9145SOL    HW138654   8.654   3.995   4.504 -1.2371  1.7491  0.3595
 9145SOL    HW238655   8.515   3.998   4.418 -0.5224 -0.4464 -0.8975
 9146SOL     OW38656   1.537   6.907   1.215 -0.8240 -0.7933 -0.0672
 9146SOL    HW138657   1.538   6.915   1.115 -1.3930  0.7320  0.0307
 9146SOL    HW238658   1.630   6.899   1.249 -0.4455  1.2627 -0.5474
 9147SOL     OW38659   3.947   1.490   5.514 -0.1730  0.8116  0.1682
 9147SOL    HW138660   3.932   1.397   5.480 -0.2746  0.7974  0.2532
 9147SOL    HW238661   3.944   1.554   5.437  2.3868  0.4741 -0.2514
 9148SOL     OW38662   3.827   8.369   6.060  0.0744  0.0414  0.3603
 9148SOL    HW138663   3.734   8.349   6.030  0.2607 -0.2507 -0.0161
 9148SOL    HW238664   3.880   8.285   6.062  1.2205  0.6485 -2.4661
 9149SOL     OW38665   7.719   8.862   4.851 -0.4721  0.1592  0.5397
 9149SOL    HW138666   7.719   8.789   4.919 -0.2403 -0.8395 -0.5270
 9149SOL    HW238667   7.629   8.906   4.849 -0.7907 -0.4853  0.7608
 9150SOL     OW38668   0.400   7.755   0.966 -0.4677 -0.3419 -0.4663
 9150SOL    HW138669   0.470   7.732   1.034 -1.1836 -1.0173  0.0486
 9150SOL    HW238670   0.351   7.673   0.940 -1.8366  0.3043  0.0246
 9151SOL     OW38671   1.716   5.093   4.127  0.1043  1.0161 -0.0294
 9151SOL    HW138672   1.640   5.053   4.178 -0.0370  0.0795 -0.9468
 9151SOL    HW238673   1.720   5.192   4.142 -0.2436  0.8135  1.3737
 9152SOL     OW38674   0.854   8.468   1.588 -0.0208  0.4016  0.1524
 9152SOL    HW138675   0.806   8.385   1.560 -0.8328  0.7697  0.4346
 9152SOL    HW238676   0.932   8.483   1.528  0.9757 -1.3298  0.9712
 9153SOL     OW38677   7.755   8.677   5.071  0.3710 -0.6571  0.0097
 9153SOL    HW138678   7.684   8.607   5.066  0.6843 -0.9947  0.2455
 9153SOL    HW238679   7.750   8.723   5.159  0.5753 -0.8210  0.1073
 9154SOL     OW38680   1.602   7.105   1.891 -0.6016  0.9345  0.0176
 9154SOL    HW138681   1.571   7.060   1.807 -2.5740  3.0775 -0.4469
 9154SOL    HW238682   1.551   7.068   1.969  0.7267 -0.5427  0.2228
 9155SOL     OW38683   5.151   2.845   4.253 -0.4398 -0.2260  0.1052
 9155SOL    HW138684   5.200   2.865   4.169 -0.1963 -0.1493  0.2648
 9155SOL    HW238685   5.149   2.746   4.269 -1.0560 -0.2856 -0.3316
 9156SOL     OW38686   0.938   8.371   4.411 -0.2089 -0.0232 -0.1835
 9156SOL    HW138687   0.960   8.451   4.354  1.8677  1.1410  2.1828
 9156SOL    HW238688   0.842   8.376   4.438 -0.9175  0.0279 -2.5495
 9157SOL     OW38689   1.290   2.580   5.253  0.0256  0.5124  0.1151
 9157SOL    HW138690   1.329   2.600   5.343  0.5645  0.0834 -0.0176
 9157SOL    HW238691   1.245   2.662   5.217  1.8762  1.3858 -0.2654
 9158SOL     OW38692   0.281   4.080   1.176  0.4567 -0.5216 -0.2954
 9158SOL    HW138693   0.338   4.054   1.099 -0.1124 -0.4901 -0.7323
 9158SOL    HW238694   0.186   4.090   1.146  0.3853  0.4175  0.2152
 9159SOL     OW38695   5.736   1.463   4.627  0.1927 -0.2156 -0.4110
 9159SOL    HW138696   5.782   1.492   4.711 -1.9250  2.7651 -0.2187
 9159SOL    HW238697   5.681   1.382   4.646  0.2341  0.0491  0.9347
 9160SOL     OW38698   4.810   2.125   0.058  0.2784  0.1633  0.6454
 9160SOL    HW138699   4.859   2.054   0.008 -0.1666 -0.3583  0.9516
 9160SOL    HW238700   4.715   2.130   0.025  0.1510  0.2256  1.0181
 9161SOL     OW38701   4.811   4.191   0.169 -0.1315  0.3509  0.4372
 9161SOL    HW138702   4.852   4.104   0.193  0.9499  0.8249  0.3216
 9161SOL    HW238703   4.850   4.264   0.226  0.2807  1.0183 -0.6795
 9162SOL     OW38704   0.400   7.965   6.370 -0.3840 -0.0548 -0.2160
 9162SOL    HW138705   0.486   7.915   6.381  0.0415  0.5775 -0.6253
 9162SOL    HW238706   0.377   7.969   6.273 -1.5341 -1.3067 -0.0118
 9163SOL     OW38707   9.155   8.934   0.406 -0.1230  0.1654  0.4992
 9163SOL    HW138708   9.153   9.023   0.361 -0.4731  0.3160  0.8065
 9163SOL    HW238709   9.218   8.873   0.358 -0.4454  0.3441 -0.1622
 9164SOL     OW38710   5.804   2.391   3.310 -0.5000  0.4990  0.3125
 9164SOL    HW138711   5.707   2.398   3.335 -0.6876  2.0469 -0.8181
 9164SOL    HW238712   5.812   2.361   3.215  0.1852 -2.0237  1.1159
 9165SOL     OW38713   1.980   5.597   3.006  0.1394  0.3780  0.6171
 9165SOL    HW138714   1.942   5.528   3.068 -0.8964  0.3395 -0.0610
 9165SOL    HW238715   1.987   5.558   2.914  0.0068  1.0230  0.3347
 9166SOL     OW38716   1.194   4.600   1.095  0.4921 -0.0642  0.0982
 9166SOL    HW138717   1.203   4.538   1.018 -1.3467 -0.1872 -0.0509
 9166SOL    HW238718   1.171   4.691   1.062 -0.0828 -0.0672  0.4780
 9167SOL     OW38719   0.622   7.277   1.533 -0.4274  0.1437 -0.0346
 9167SOL    HW138720   0.594   7.316   1.621  1.2435 -0.3092  0.7077
 9167SOL    HW238721   0.721   7.285   1.522 -0.1729 -2.7880 -0.3770
 9168SOL     OW38722   0.400   5.382   4.386  0.2204  0.5653 -0.2080
 9168SOL    HW138723   0.439   5.463   4.431 -0.0629  0.0183  1.0541
 9168SOL    HW238724   0.388   5.309   4.454 -1.4273  0.1607 -0.9147
 9169SOL     OW38725   3.469   1.540   0.315 -0.5280  0.0704  0.0657
 9169SOL    HW138726   3.425   1.627   0.339  0.4359  0.5124  0.2888
 9169SOL    HW238727   3.431   1.506   0.230 -0.8795  0.7419 -0.0533
 9170SOL     OW38728   5.604   0.879   3.010 -0.9389  0.0479  0.3727
 9170SOL    HW138729   5.559   0.823   2.941 -0.0578 -1.1242  0.7325
 9170SOL    HW238730   5.631   0.966   2.970 -0.7373 -0.4898 -0.6675
 9171SOL     OW38731   8.916   8.056   4.763 -0.6223 -0.2205 -0.4166
 9171SOL    HW138732   8.869   8.142   4.741  0.1191  0.9921  2.5460
 9171SOL    HW238733   9.012   8.074   4.782 -0.2426 -1.8693 -0.6982
 9172SOL     OW38734   1.251   6.793   0.557 -0.8496  0.0446  0.0463
 9172SOL    HW138735   1.168   6.826   0.602 -0.3749 -1.4524  2.0919
 9172SOL    HW238736   1.228   6.762   0.465 -2.2510  1.1867 -0.0087
 9173SOL     OW38737   7.283   8.282   4.025 -0.7093  0.2583  0.4708
 9173SOL    HW138738   7.189   8.312   4.041 -0.4687  2.4093 -1.8220
 9173SOL    HW238739   7.314   8.315   3.935  1.4660 -2.3404  0.2057
 9174SOL     OW38740   8.975   1.938   1.582  0.2425 -0.1678 -0.5824
 9174SOL    HW138741   8.982   1.897   1.673 -1.0364  0.3710 -0.2401
 9174SOL    HW238742   9.066   1.971   1.554  0.6997 -0.5903  0.3658
 9175SOL     OW38743   7.885   8.947   2.118  0.3291  0.5508  0.0254
 9175SOL    HW138744   7.900   9.044   2.099 -1.3467  0.6589 -0.7634
 9175SOL    HW238745   7.960   8.893   2.079  0.5802  1.3965 -0.6663
 9176SOL     OW38746   6.656   0.453   4.365  0.0232  0.0355 -0.0102
 9176SOL    HW138747   6.570   0.478   4.321  1.1403 -0.0811 -2.3072
 9176SOL    HW238748   6.684   0.526   4.427 -1.7694  0.0164  0.8866
 9177SOL     OW38749   0.107   4.077   4.571 -0.3670 -0.0620  0.6014
 9177SOL    HW138750   0.141   4.095   4.663  1.9367  1.3080 -0.4672
 9177SOL    HW238751   0.184   4.062   4.509 -1.7969  0.5496 -1.4025
 9178SOL     OW38752   6.812   5.187   0.817  0.3882 -0.4008 -0.5019
 9178SOL    HW138753   6.911   5.174   0.820  0.5862  1.1117 -0.3114
 9178SOL    HW238754   6.786   5.260   0.880 -0.6798  0.1595 -1.5714
 9179SOL     OW38755   3.395   0.546   3.511 -0.3937 -0.0954 -0.0487
 9179SOL    HW138756   3.406   0.476   3.582 -0.7750 -0.0973  0.0116
 9179SOL    HW238757   3.298   0.556   3.490 -0.2001 -0.7843 -1.2716
 9180SOL     OW38758   8.578   0.413   2.491 -0.1249  0.1833  0.1634
 9180SOL    HW138759   8.667   0.437   2.530 -0.6039  0.7828  0.9048
 9180SOL    HW238760   8.525   0.363   2.559 -0.3593 -0.1552 -0.2710
 9181SOL     OW38761   1.060   1.168   2.836 -0.1443  0.6891 -0.2839
 9181SOL    HW138762   1.149   1.132   2.863 -0.4990  0.5824  0.7656
 9181SOL    HW238763   1.069   1.219   2.751  0.7844  0.0646 -0.5732
 9182SOL     OW38764   0.490   7.319   0.053  0.1751 -0.1053 -0.1280
 9182SOL    HW138765   0.510   7.286   0.145  0.0018 -1.6354 -0.6298
 9182SOL    HW238766   0.484   7.419   0.054  0.2541 -0.1079  1.4977
 9183SOL     OW38767   7.695   6.241   2.170 -0.2333 -0.2313  0.2158
 9183SOL    HW138768   7.780   6.213   2.126 -1.0459  0.3326 -1.8130
 9183SOL    HW238769   7.647   6.160   2.204 -1.4334 -1.2070 -3.4887
 9184SOL     OW38770   7.608   1.108   2.988 -0.2658 -0.6578 -0.2011
 9184SOL    HW138771   7.543   1.154   2.928 -0.6625 -0.6256  0.2520
 9184SOL    HW238772   7.570   1.020   3.017  0.0524 -0.8081 -0.2396
 9185SOL     OW38773   6.813   7.986   2.971  0.1880  0.7894 -0.0714
 9185SOL    HW138774   6.754   7.907   2.987 -0.4110  1.2135 -0.1412
 9185SOL    HW238775   6.909   7.958   2.973  0.1055  0.5051  2.7077
 9186SOL     OW38776   0.742   2.708   1.705  0.2076 -0.2728 -0.1630
 9186SOL    HW138777   0.802   2.689   1.628  0.3573 -0.7168  0.0587
 9186SOL    HW238778   0.727   2.623   1.757 -1.4428 -0.3926 -0.8089
 9187SOL     OW38779   2.690   7.610   0.361  0.0918 -0.0657  0.1414
 9187SOL    HW138780   2.600   7.621   0.404 -0.3020 -0.7756 -0.4968
 9187SOL    HW238781   2.701   7.676   0.287  0.4065  0.5324  0.7098
 9188SOL     OW38782   0.181   9.931   2.271 -0.0899 -0.3270  0.3437
 9188SOL    HW138783   0.215   9.978   2.190 -0.9870  0.7224  0.5661
 9188SOL    HW238784   0.136   9.846   2.244  0.3118 -0.3825 -0.1737
 9189SOL     OW38785   2.673   6.724   6.112 -0.3837  0.2689  0.5603
 9189SOL    HW138786   2.626   6.812   6.106 -0.8447 -0.0264 -0.1987
 9189SOL    HW238787   2.697   6.693   6.020 -1.4839 -1.0641  0.7135
 9190SOL     OW38788   8.317   7.959   2.332 -0.6101  0.4037  0.4138
 9190SOL    HW138789   8.317   8.039   2.392 -0.0058  1.2727 -0.7062
 9190SOL    HW238790   8.296   7.877   2.385  0.2498  1.0969  1.8696
 9191SOL     OW38791   9.437   0.988   3.328  0.2131  0.3205 -0.2695
 9191SOL    HW138792   9.534   0.980   3.349 -0.0974 -2.4348  0.3314
 9191SOL    HW238793   9.387   0.913   3.372 -1.5536 -1.1375 -4.4945
 9192SOL     OW38794   3.709   7.309   2.119  0.0590  0.0499  0.1897
 9192SOL    HW138795   3.627   7.290   2.172 -1.2182  1.0279 -1.3927
 9192SOL    HW238796   3.720   7.239   2.049 -0.4579  0.9228 -0.7786
 9193SOL     OW38797   4.773   9.959   6.593 -0.5606 -0.6595 -0.4416
 9193SOL    HW138798   4.852   9.898   6.595  0.0805  0.1492 -0.7328
 9193SOL    HW238799   4.689   9.905   6.588  0.0840 -1.4952 -2.6400
 9194SOL     OW38800   9.545   3.432   2.311 -0.1954  0.0151 -0.2680
 9194SOL    HW138801   9.627   3.408   2.362 -0.6538 -2.0724 -0.4887
 9194SOL    HW238802   9.510   3.520   2.344  1.5998  0.4964  0.4366
 9195SOL     OW38803   9.860   2.836   3.416 -0.0813  0.0104  0.4976
 9195SOL    HW138804   9.902   2.924   3.391  0.3369 -0.6446 -1.1803
 9195SOL    HW238805   9.762   2.849   3.430  0.4711  1.3937  3.6590
 9196SOL     OW38806   4.293   3.204   4.774  0.3889  0.4826 -0.1747
 9196SOL    HW138807   4.225   3.174   4.707  0.1355  2.0805 -0.6487
 9196SOL    HW238808   4.384   3.174   4.744  0.4179  2.1622 -1.8581
 9197SOL     OW38809   7.707   4.842   6.437 -0.2101  0.3659  0.2290
 9197SOL    HW138810   7.697   4.902   6.516 -3.1945  3.7818 -2.5589
 9197SOL    HW238811   7.654   4.759   6.452  0.1576  0.4606  2.2505
 9198SOL     OW38812   7.783   6.343   4.343 -0.0441 -0.6709 -0.1082
 9198SOL    HW138813   7.715   6.324   4.414 -0.9726 -1.1516 -1.1147
 9198SOL    HW238814   7.804   6.441   4.342  1.0082 -0.8606  1.7484
 9199SOL     OW38815   3.020   3.650   3.642 -0.0844 -0.6863 -0.1317
 9199SOL    HW138816   3.062   3.687   3.560  0.0820 -0.9188 -0.1516
 9199SOL    HW238817   3.053   3.557   3.658  0.3893 -0.4062  0.5666
 9200SOL     OW38818   9.541   7.034   2.269  0.4833 -0.0100  0.2231
 9200SOL    HW138819   9.624   6.986   2.240  0.6934  1.7086 -2.1030
 9200SOL    HW238820   9.563   7.127   2.296 -0.8288  0.8456 -1.5610
 9201SOL     OW38821   1.317   4.037   5.511 -0.7460 -0.4712  0.3258
 9201SOL    HW138822   1.416   4.034   5.529 -0.6025  1.4822 -0.1013
 9201SOL    HW238823   1.296   3.973   5.437  0.3540 -0.1513 -0.2815
 9202SOL     OW38824   9.035   4.866   5.415  0.3769 -0.2732 -0.1177
 9202SOL    HW138825   8.958   4.874   5.479  0.9247 -1.1896  0.6811
 9202SOL    HW238826   9.029   4.938   5.346  0.7689  1.9070  2.0562
 9203SOL     OW38827   8.652   2.411   0.991  0.6716 -0.5164  0.4335
 9203SOL    HW138828   8.604   2.339   0.939 -0.0547  1.0765 -1.1513
 9203SOL    HW238829   8.585   2.462   1.045  0.4931  1.8593 -1.9552
 9204SOL     OW38830   8.837   4.811   6.701  0.4434  0.1272  0.3985
 9204SOL    HW138831   8.862   4.844   6.792  0.2372  0.3649  0.3719
 9204SOL    HW238832   8.871   4.718   6.688  0.2539  0.0003  0.8142
 9205SOL     OW38833   0.051   9.482   1.981  0.3631 -0.0382  0.9764
 9205SOL    HW138834   0.082   9.485   1.886  1.2104 -1.8247  1.1745
 9205SOL    HW238835  -0.016   9.408   1.992 -2.1573  2.1841  1.1099
 9206SOL     OW38836   2.850   6.481   4.564 -0.1999  0.2261 -0.4117
 9206SOL    HW138837   2.860   6.574   4.600  1.1359 -0.8913  2.2389
 9206SOL    HW238838   2.941   6.443   4.544 -0.7306 -0.5484 -1.4150
 9207SOL     OW38839   7.635   1.657   2.078  0.4371 -0.2530  0.1726
 9207SOL    HW138840   7.705   1.686   2.144  0.1752  0.5366  0.1102
 9207SOL    HW238841   7.670   1.668   1.985  0.8894 -1.5877  0.1788
 9208SOL     OW38842   3.586   3.368   2.526  0.0912  0.2113  0.1552
 9208SOL    HW138843   3.543   3.356   2.436 -1.3230  3.1496  0.3624
 9208SOL    HW238844   3.515   3.372   2.597  1.2207 -2.4108  1.4748
 9209SOL     OW38845   2.577   0.537   3.348 -0.4182 -0.1102 -0.3180
 9209SOL    HW138846   2.555   0.447   3.309 -1.0200  0.3935 -1.1461
 9209SOL    HW238847   2.568   0.607   3.278  0.6663  0.5308  0.1758
 9210SOL     OW38848   2.331   1.611   6.023  0.0884 -0.1382  0.1755
 9210SOL    HW138849   2.324   1.638   6.119  1.8715  0.0343  0.2643
 9210SOL    HW238850   2.330   1.693   5.965 -0.6763 -0.2267  0.0545
 9211SOL     OW38851   0.634   6.135   0.590 -0.3436  0.0852 -0.2604
 9211SOL    HW138852   0.629   6.219   0.645  0.1890  0.5803 -0.9613
 9211SOL    HW238853   0.688   6.067   0.640  0.2810  0.5880 -0.2306
 9212SOL     OW38854   0.463   6.266   1.963  0.2972 -0.2563 -0.4424
 9212SOL    HW138855   0.526   6.213   1.906 -1.0766 -0.7220 -1.5560
 9212SOL    HW238856   0.477   6.241   2.059 -0.5392 -2.9244 -0.9707
 9213SOL     OW38857   4.596   8.004   2.520 -0.4581  0.2456  0.1299
 9213SOL    HW138858   4.540   8.059   2.457  0.3163  0.2189 -0.6005
 9213SOL    HW238859   4.684   7.983   2.476 -0.3983 -0.8237  0.7539
 9214SOL     OW38860   1.605   7.288   2.248 -0.2273 -0.6256 -0.3564
 9214SOL    HW138861   1.665   7.256   2.174 -0.3661 -1.2738 -0.1953
 9214SOL    HW238862   1.630   7.242   2.333 -0.3618 -0.2173 -0.0994
 9215SOL     OW38863   7.864   7.390   3.809  0.8203  0.0043  0.2667
 9215SOL    HW138864   7.953   7.347   3.795  0.5114 -0.4881 -0.2199
 9215SOL    HW238865   7.792   7.320   3.806  0.2614  0.6278 -1.0989
 9216SOL     OW38866   1.755   9.985   3.439  0.1210  0.0822  0.1152
 9216SOL    HW138867   1.657   9.978   3.419 -0.1905 -0.4080  1.7955
 9216SOL    HW238868   1.803   9.909   3.396  0.1269  1.6484 -2.7850
 9217SOL     OW38869   0.775   8.651   1.796  0.3249  0.2506 -0.1030
 9217SOL    HW138870   0.757   8.632   1.893 -0.4538  0.0884 -0.2720
 9217SOL    HW238871   0.808   8.567   1.752  1.9047  0.6508  0.2949
 9218SOL     OW38872   0.003   7.873   4.742  0.1503 -0.0387  0.4774
 9218SOL    HW138873   0.028   7.776   4.747 -2.6594 -0.7370  1.8718
 9218SOL    HW238874   0.016   7.916   4.831 -1.8664 -0.0185  0.7969
 9219SOL     OW38875   3.861   3.404   2.667 -0.2308 -0.0425  0.1204
 9219SOL    HW138876   3.864   3.390   2.766 -1.4339 -0.0245  0.1600
 9219SOL    HW238877   3.821   3.323   2.623 -2.3610  1.0952 -0.0922
 9220SOL     OW38878   9.203   9.739   2.970 -0.2464  0.1797  0.0538
 9220SOL    HW138879   9.248   9.805   3.029  0.3955 -0.0687 -0.1595
 9220SOL    HW238880   9.250   9.734   2.882  1.7412 -2.9839  1.2271
 9221SOL     OW38881   9.253   4.647   2.067  0.3416  0.1152 -0.0887
 9221SOL    HW138882   9.171   4.673   2.118  1.0392  1.8951  0.1638
 9221SOL    HW238883   9.252   4.692   1.978  0.2180 -1.2094 -0.7569
 9222SOL     OW38884   3.585   0.361   6.070  0.3264  0.3314 -0.2665
 9222SOL    HW138885   3.651   0.380   6.143  2.1582 -1.9355 -1.2522
 9222SOL    HW238886   3.523   0.288   6.099 -0.9801  1.6039  0.1876
 9223SOL     OW38887   0.263   4.537   1.030 -0.0508 -0.0693  0.1931
 9223SOL    HW138888   0.219   4.622   1.058  1.7366  0.7572  0.5182
 9223SOL    HW238889   0.299   4.546   0.937 -0.7413 -0.8317 -0.1656
 9224SOL     OW38890   9.430   3.936   2.852 -0.3281 -0.8742 -0.3913
 9224SOL    HW138891   9.465   3.852   2.893 -1.6102 -2.5273 -2.5952
 9224SOL    HW238892   9.352   3.969   2.905 -0.5177 -1.6883 -0.1564
 9225SOL     OW38893   5.608   0.629   5.058  0.4353 -0.3096 -0.1310
 9225SOL    HW138894   5.679   0.570   5.095 -1.1785 -2.1246  0.1551
 9225SOL    HW238895   5.569   0.685   5.132  0.2602 -0.7238  0.0975
 9226SOL     OW38896   1.880   7.333   5.676  0.0279 -0.4048 -0.1898
 9226SOL    HW138897   1.915   7.260   5.735 -3.0174 -0.8406  1.1710
 9226SOL    HW238898   1.808   7.382   5.724  0.6829  2.2597 -1.8603
 9227SOL     OW38899   8.872   3.374   6.133 -0.2063  0.0143  0.1113
 9227SOL    HW138900   8.796   3.387   6.197 -2.4472 -0.6984 -2.3557
 9227SOL    HW238901   8.907   3.464   6.105  0.0819  0.3414  1.4503
 9228SOL     OW38902   7.949   0.995   2.988 -0.2868 -0.0764  0.5233
 9228SOL    HW138903   7.971   1.055   2.912 -0.0427 -0.5514  0.2142
 9228SOL    HW238904   7.878   1.037   3.044  1.0757  1.2717  1.2806
 9229SOL     OW38905   1.232   5.948   3.528 -0.0796 -0.4795 -0.1938
 9229SOL    HW138906   1.245   5.849   3.529  0.9825 -0.3339  1.1147
 9229SOL    HW238907   1.173   5.975   3.605  2.1210  0.2191  1.2875
 9230SOL     OW38908   6.602   5.350   1.200 -0.0515 -0.1319 -0.2968
 9230SOL    HW138909   6.539   5.275   1.182 -0.7661  0.9756 -2.7110
 9230SOL    HW238910   6.683   5.316   1.247 -1.0373 -2.1187 -0.0040
 9231SOL     OW38911   6.859   5.751   0.304  0.3748 -0.6375 -0.0382
 9231SOL    HW138912   6.951   5.723   0.278 -0.3120 -4.3371  1.2066
 9231SOL    HW238913   6.849   5.745   0.403 -1.5364 -1.5635 -0.2558
 9232SOL     OW38914   7.826   7.010   0.814 -0.1528  0.6243 -0.9347
 9232SOL    HW138915   7.842   6.968   0.725 -1.7748  1.0594 -1.4506
 9232SOL    HW238916   7.727   7.020   0.830  0.0499 -0.7834  1.5361
 9233SOL     OW38917   2.486   0.706   3.873  0.3536 -0.1640  0.1524
 9233SOL    HW138918   2.395   0.745   3.879 -0.0605 -0.9154 -1.0434
 9233SOL    HW238919   2.533   0.742   3.792 -0.5964 -3.2256 -1.8309
 9234SOL     OW38920   1.476   4.110   6.127  0.6336  0.0454  0.5786
 9234SOL    HW138921   1.424   4.187   6.165  0.6532  0.8250 -0.9618
 9234SOL    HW238922   1.425   4.025   6.141 -0.0571  0.5235  1.0041
 9235SOL     OW38923   5.770   8.499   3.854  0.2125  0.0426  0.3697
 9235SOL    HW138924   5.851   8.552   3.828  0.1684  0.3627  0.8852
 9235SOL    HW238925   5.688   8.555   3.841 -0.0837 -0.8267 -1.7409
 9236SOL     OW38926   4.558   3.531   0.902  0.2054 -0.2770  0.7116
 9236SOL    HW138927   4.580   3.450   0.847 -1.2283 -2.1870  2.8848
 9236SOL    HW238928   4.574   3.512   0.998 -2.3320  1.2381  1.4796
 9237SOL     OW38929   2.269   6.286   2.372  0.6180  0.3538 -0.2888
 9237SOL    HW138930   2.278   6.192   2.404 -0.4675 -0.0614 -1.1773
 9237SOL    HW238931   2.184   6.296   2.320  1.3322  1.5206 -1.2651
 9238SOL     OW38932   5.936   1.419   2.641  0.8295  0.5061 -0.5725
 9238SOL    HW138933   5.854   1.361   2.644  1.4119 -0.3550 -1.1875
 9238SOL    HW238934   5.960   1.448   2.734 -2.0876  3.4992 -0.6529
 9239SOL     OW38935   2.476   1.037   4.742 -0.5103 -0.5902  0.3941
 9239SOL    HW138936   2.428   1.118   4.707 -0.3489 -1.3397 -1.6204
 9239SOL    HW238937   2.563   1.066   4.783 -0.1999  0.2033 -0.7979
 9240SOL     OW38938   9.648   9.646   3.722  0.3861  0.0347 -0.3716
 9240SOL    HW138939   9.601   9.604   3.799  0.1870  0.1004 -0.4565
 9240SOL    HW238940   9.701   9.577   3.673 -2.0738 -0.6876 -2.1097
 9241SOL     OW38941   2.596   3.714   4.396  0.3104  0.1351  0.0746
 9241SOL    HW138942   2.591   3.797   4.339 -1.4857  0.4748  0.7196
 9241SOL    HW238943   2.526   3.649   4.368  2.7020 -1.8945 -1.4804
 9242SOL     OW38944   7.441   7.604   3.403  0.0178  0.0605  0.0206
 9242SOL    HW138945   7.404   7.653   3.324 -0.1091  0.1312  0.1237
 9242SOL    HW238946   7.473   7.670   3.471 -0.5387  0.0060  0.3414
 9243SOL     OW38947   7.138   1.823   3.920  0.0614  0.3740 -0.3376
 9243SOL    HW138948   7.173   1.747   3.865 -1.8003 -0.2660 -0.6748
 9243SOL    HW238949   7.051   1.797   3.961  0.7520  1.3536  1.7971
 9244SOL     OW38950   4.675   1.567   2.025 -0.6484  0.1545 -0.5200
 9244SOL    HW138951   4.630   1.612   2.103 -2.2944 -0.6093 -1.0127
 9244SOL    HW238952   4.617   1.574   1.944  0.4647 -0.2111 -1.3679
 9245SOL     OW38953   7.348   8.211   2.882 -0.0098  0.1633 -0.3707
 9245SOL    HW138954   7.388   8.133   2.835  0.5564 -0.3234  0.9095
 9245SOL    HW238955   7.278   8.180   2.945  1.1023  0.5480  1.0821
 9246SOL     OW38956   8.188   4.216   1.021 -0.2751  0.0749  0.2701
 9246SOL    HW138957   8.229   4.183   0.936 -1.2169  1.0103 -0.5729
 9246SOL    HW238958   8.256   4.269   1.072  0.3861 -0.7514  0.2505
 9247SOL     OW38959   4.036   2.977   2.231  0.2175 -0.0825  0.0931
 9247SOL    HW138960   4.054   2.998   2.327  0.9150  0.5818 -0.1754
 9247SOL    HW238961   4.107   2.915   2.197  1.8877  2.3167 -0.8967
 9248SOL     OW38962   9.620   2.552   6.225  0.5697 -0.3866  0.4918
 9248SOL    HW138963   9.536   2.525   6.273  0.9929 -2.0286  0.3398
 9248SOL    HW238964   9.596   2.583   6.133  0.2420 -2.2163 -0.0602
 9249SOL     OW38965   9.765   3.237   2.472  0.6023 -0.3463  0.0779
 9249SOL    HW138966   9.845   3.270   2.420  0.7544 -0.6191  0.1403
 9249SOL    HW238967   9.786   3.149   2.513  0.3399 -0.3171  0.2750
 9250SOL     OW38968   7.794   6.561   5.139  0.4518 -0.3028 -0.2837
 9250SOL    HW138969   7.714   6.510   5.171  0.6065 -0.6866 -0.4997
 9250SOL    HW238970   7.787   6.656   5.168 -0.8848  0.0554 -1.6958
 9251SOL     OW38971   0.582   4.919   0.874  0.0126  0.5354 -0.2904
 9251SOL    HW138972   0.644   4.967   0.936 -1.3937  1.6592  0.2782
 9251SOL    HW238973   0.559   4.978   0.797  0.0219 -0.0519 -0.7485
 9252SOL     OW38974   5.729   1.069   2.852  0.3923  0.3787 -0.6732
 9252SOL    HW138975   5.812   1.024   2.819 -0.2007  1.2770 -3.5418
 9252SOL    HW238976   5.749   1.165   2.872 -0.1990  0.9671 -2.7160
 9253SOL     OW38977   2.587   1.759   3.136 -0.4247  0.3236 -0.0057
 9253SOL    HW138978   2.531   1.795   3.210  1.3471 -0.1243  1.5682
 9253SOL    HW238979   2.684   1.771   3.158  0.1497 -2.0977 -1.0976
 9254SOL     OW38980   2.781   0.831   1.737 -0.1717  0.0755 -0.2982
 9254SOL    HW138981   2.739   0.748   1.775 -0.3910 -0.2819 -1.3126
 9254SOL    HW238982   2.713   0.904   1.732 -0.3408 -0.1147 -0.7442
 9255SOL     OW38983   9.781   8.818   2.195 -0.0565  0.2213 -0.0675
 9255SOL    HW138984   9.728   8.767   2.262  1.6866 -0.2471  0.9814
 9255SOL    HW238985   9.727   8.896   2.162 -1.7370 -0.7982  0.2437
 9256SOL     OW38986   9.068   4.831   1.399 -0.4081 -0.2795 -0.6252
 9256SOL    HW138987   9.166   4.843   1.385 -0.1092 -0.9304  0.7747
 9256SOL    HW238988   9.052   4.748   1.453 -1.6521  0.3876  0.0615
 9257SOL     OW38989   8.245   3.388   6.692  0.6523  0.4498 -0.4983
 9257SOL    HW138990   8.147   3.399   6.705  0.2139 -2.3874 -1.1281
 9257SOL    HW238991   8.292   3.405   6.779 -0.8297 -2.4573  0.9529
 9258SOL     OW38992   8.646   8.271   3.496  0.0513 -0.2575 -0.3486
 9258SOL    HW138993   8.602   8.188   3.463  1.3715 -1.0861 -0.0279
 9258SOL    HW238994   8.717   8.248   3.562 -1.1837  1.2709  1.5512
 9259SOL     OW38995   1.640   3.493   5.235  0.1021 -0.1792 -0.1531
 9259SOL    HW138996   1.728   3.493   5.282 -0.2094 -0.0984  0.4378
 9259SOL    HW238997   1.566   3.496   5.302 -0.3516 -0.0863 -0.6493
 9260SOL     OW38998   8.051   0.014   2.785 -0.0473 -0.3638  0.1196
 9260SOL    HW138999   8.083   0.074   2.711 -0.2474 -1.2931 -0.7437
 9260SOL    HW239000   8.073   0.054   2.873 -2.8508  2.4485 -0.3902
 9261SOL     OW39001   4.188   5.153   0.871 -0.5631  0.3820  0.3889
 9261SOL    HW139002   4.147   5.239   0.902 -0.2867  0.7837 -0.3620
 9261SOL    HW239003   4.276   5.139   0.917  0.9458  2.1039 -1.8576
 9262SOL     OW39004   2.518   3.391   0.092 -0.4758 -0.4730  0.4030
 9262SOL    HW139005   2.560   3.304   0.120  0.0993 -0.0653  0.8149
 9262SOL    HW239006   2.418   3.381   0.092 -0.3574 -1.9513 -2.2414
 9263SOL     OW39007   7.816   6.933   3.078 -0.4056 -0.4098  0.0958
 9263SOL    HW139008   7.914   6.937   3.100 -0.4900  0.7223  0.2860
 9263SOL    HW239009   7.794   7.004   3.011 -0.9036 -1.3368 -0.7302
 9264SOL     OW39010   9.037   6.792   5.947  0.0400 -0.3363  0.0519
 9264SOL    HW139011   9.024   6.776   6.045 -0.0146 -0.9035 -0.0451
 9264SOL    HW239012   9.034   6.890   5.929 -0.3651 -0.2480  0.5640
 9265SOL     OW39013   0.827   6.746   3.525 -0.2182 -0.1750 -0.5262
 9265SOL    HW139014   0.765   6.825   3.523 -1.3292 -1.0569 -1.3642
 9265SOL    HW239015   0.838   6.715   3.620 -0.1101  0.7264 -0.2386
 9266SOL     OW39016   5.708   1.491   1.222  0.4824 -0.0651 -0.1839
 9266SOL    HW139017   5.626   1.458   1.269  0.9635  0.8031  1.3083
 9266SOL    HW239018   5.752   1.415   1.175  0.7888 -1.2966  2.0168
 9267SOL     OW39019   4.897   2.218   2.484 -0.0089 -0.3792 -0.3327
 9267SOL    HW139020   4.915   2.149   2.414 -0.7101 -0.1115 -0.7782
 9267SOL    HW239021   4.827   2.183   2.547 -0.2186 -0.1506 -0.4409
 9268SOL     OW39022   8.325   1.220   0.804 -0.4023 -0.9154  0.1953
 9268SOL    HW139023   8.271   1.213   0.888  0.0456  0.0496  0.5710
 9268SOL    HW239024   8.303   1.143   0.744 -0.9006 -1.4830  1.0911
 9269SOL     OW39025   1.049   9.255   1.769  0.2062  0.1870  0.3668
 9269SOL    HW139026   1.122   9.302   1.819 -0.0827  0.0971  0.8675
 9269SOL    HW239027   1.002   9.191   1.829 -0.9932  1.0234  0.3622
 9270SOL     OW39028   7.614   6.171   5.798  0.3220 -0.4014 -0.6624
 9270SOL    HW139029   7.599   6.264   5.763 -0.4921 -0.4551 -0.4551
 9270SOL    HW239030   7.709   6.144   5.778  0.7244  0.6698 -0.2649
 9271SOL     OW39031   8.470   5.431   5.255  0.2179  0.3503  0.3362
 9271SOL    HW139032   8.381   5.393   5.280 -0.0113 -0.1116 -1.1392
 9271SOL    HW239033   8.484   5.421   5.157  1.3591  1.5610  0.3602
 9272SOL     OW39034   7.815   9.867   1.915 -0.0994 -0.4674  0.5551
 9272SOL    HW139035   7.873   9.797   1.872 -1.3033 -1.0920 -0.1034
 9272SOL    HW239036   7.787   9.934   1.846  0.2803  0.1371  0.9832
 9273SOL     OW39037   3.438   1.763   0.712 -0.0681 -0.1838 -0.2546
 9273SOL    HW139038   3.479   1.727   0.628 -1.9757 -2.8568 -0.0901
 9273SOL    HW239039   3.495   1.838   0.747  1.7000 -0.1895 -2.9522
 9274SOL     OW39040   4.437   4.998   2.960  0.3071 -0.0977 -0.3285
 9274SOL    HW139041   4.472   4.944   2.883  2.6074  1.2019 -0.2499
 9274SOL    HW239042   4.514   5.043   3.006 -1.4112  2.1590  0.4200
 9275SOL     OW39043   0.378   9.230   6.540 -0.4866  0.2930  0.3754
 9275SOL    HW139044   0.294   9.279   6.517 -2.0907 -2.0511  0.9851
 9275SOL    HW239045   0.384   9.147   6.484  1.4695  0.4472  0.3166
 9276SOL     OW39046   4.703   7.035   1.170 -0.2542  0.0385  0.0141
 9276SOL    HW139047   4.633   7.086   1.220 -0.3567 -0.5250  0.4505
 9276SOL    HW239048   4.751   6.973   1.233  1.5130  1.3367  0.0059
 9277SOL     OW39049   3.153   8.510   0.559  0.9518 -0.0244 -0.2397
 9277SOL    HW139050   3.131   8.420   0.595  2.1144 -0.7348 -1.2720
 9277SOL    HW239051   3.074   8.545   0.508 -0.3126  0.5372  2.0321
 9278SOL     OW39052   1.627   6.769   3.816  0.1648  0.7600  0.8169
 9278SOL    HW139053   1.678   6.720   3.746  0.4003  0.7990  0.9609
 9278SOL    HW239054   1.687   6.788   3.894 -0.3717 -0.2220  1.4812
 9279SOL     OW39055   4.819   1.356   2.308 -0.0726  0.5196  0.1346
 9279SOL    HW139056   4.912   1.347   2.271  0.2740  1.0853  0.8459
 9279SOL    HW239057   4.818   1.427   2.378 -1.3860  1.5867 -0.9463
 9280SOL     OW39058   4.426   3.677   3.669  0.2223  0.0010  0.4233
 9280SOL    HW139059   4.375   3.736   3.732  0.2781  0.1892  0.2953
 9280SOL    HW239060   4.410   3.708   3.575 -0.7334 -0.9630  0.2714
 9281SOL     OW39061   7.921   6.710   3.629  0.3590  0.3934 -0.1647
 9281SOL    HW139062   7.833   6.738   3.667 -0.6727 -1.4508 -1.0973
 9281SOL    HW239063   7.946   6.770   3.552 -1.3550 -0.6147 -1.5445
 9282SOL     OW39064   9.760   3.093   2.769 -0.0167  0.4963 -0.1947
 9282SOL    HW139065   9.839   3.032   2.763  0.1570  0.4793  1.9384
 9282SOL    HW239066   9.790   3.184   2.798 -0.7824  0.4562  0.7592
 9283SOL     OW39067   0.268   5.969   3.467 -0.2177  0.0559  0.0306
 9283SOL    HW139068   0.302   5.883   3.505  0.8441 -0.0550 -1.1331
 9283SOL    HW239069   0.239   6.029   3.542 -0.5951 -1.1442  0.8727
 9284SOL     OW39070   9.145   4.852   6.151 -0.4186  0.3411  0.2953
 9284SOL    HW139071   9.227   4.814   6.194 -0.2423 -0.1395 -0.4631
 9284SOL    HW239072   9.073   4.863   6.220 -0.4376 -1.2842  0.5457
 9285SOL     OW39073   0.592   7.432   3.515  0.1532  0.0239 -0.4208
 9285SOL    HW139074   0.677   7.404   3.558 -2.0516 -2.1873  2.7322
 9285SOL    HW239075   0.572   7.373   3.436  0.9502 -0.1783 -0.4688
 9286SOL     OW39076   3.017   4.234   0.337 -0.4219 -0.0230  0.0426
 9286SOL    HW139077   3.109   4.201   0.316 -0.7484 -0.7925 -0.1766
 9286SOL    HW239078   3.004   4.325   0.297  0.4330  0.3244  0.5487
 9287SOL     OW39079   2.612   8.348   4.779  0.1770 -0.4121  0.2195
 9287SOL    HW139080   2.589   8.255   4.751  0.0020  0.2505 -1.9342
 9287SOL    HW239081   2.530   8.405   4.776  0.8371  0.4648 -1.2118
 9288SOL     OW39082   0.295   5.929   3.192  0.0570  0.0475  0.0021
 9288SOL    HW139083   0.299   5.988   3.111 -1.3024 -0.3903 -0.3846
 9288SOL    HW239084   0.281   5.986   3.273 -0.4961  0.3251 -0.2849
 9289SOL     OW39085   6.554   1.480   1.624  0.2411 -0.0267 -0.3036
 9289SOL    HW139086   6.500   1.553   1.582 -0.3500  0.7332  1.7430
 9289SOL    HW239087   6.650   1.506   1.626  0.0321  0.6964  0.3950
 9290SOL     OW39088   0.678   7.535   2.356  0.2180 -0.2906  0.5436
 9290SOL    HW139089   0.697   7.517   2.453  0.1922  0.0348  0.6097
 9290SOL    HW239090   0.579   7.535   2.341  0.2419 -1.6690  0.2585
 9291SOL     OW39091   5.403   9.547   3.743 -0.1403  0.4271  0.4858
 9291SOL    HW139092   5.437   9.521   3.833 -4.3029 -1.4862  1.6161
 9291SOL    HW239093   5.389   9.465   3.688 -1.2343  1.2744 -0.5250
 9292SOL     OW39094   4.420   4.575   6.451 -0.2988 -0.0416  0.5172
 9292SOL    HW139095   4.367   4.493   6.430 -1.4735  0.2974  2.0859
 9292SOL    HW239096   4.512   4.548   6.481 -0.1455 -0.7012 -0.5025
 9293SOL     OW39097   3.791   9.687   0.873 -0.0043  0.2268  0.2112
 9293SOL    HW139098   3.881   9.644   0.884  0.8836  2.1974  0.8745
 9293SOL    HW239099   3.803   9.783   0.846 -1.9437  0.0378 -1.4411
 9294SOL     OW39100   1.412   6.831   6.347  0.5163  0.1972  0.3258
 9294SOL    HW139101   1.368   6.774   6.277  1.0087 -0.3542  0.4567
 9294SOL    HW239102   1.448   6.772   6.420  2.6692  0.5133 -0.4379
 9295SOL     OW39103   5.386   9.355   3.259 -0.0183  0.3162 -0.1066
 9295SOL    HW139104   5.320   9.293   3.215  0.8428 -0.7826  0.1415
 9295SOL    HW239105   5.468   9.304   3.284  0.1966  1.3113  1.2246
 9296SOL     OW39106   7.135   3.166   1.243  0.7073  0.0762  0.2599
 9296SOL    HW139107   7.185   3.244   1.206  1.4962 -0.7763 -0.4975
 9296SOL    HW239108   7.073   3.129   1.173  1.3397 -0.8185  0.1706
 9297SOL     OW39109   2.339   8.309   3.670  0.6005 -0.1650 -0.0639
 9297SOL    HW139110   2.295   8.223   3.645 -0.7209  0.7426 -0.8810
 9297SOL    HW239111   2.315   8.332   3.764  0.6112 -0.4718  0.0155
 9298SOL     OW39112   6.880   5.231   5.928 -0.3096 -0.0813 -0.1012
 9298SOL    HW139113   6.835   5.308   5.882 -1.4679 -1.5181 -1.4419
 9298SOL    HW239114   6.813   5.185   5.987 -0.0543 -1.0048 -0.5249
 9299SOL     OW39115   9.671   9.758   2.229 -0.3752  0.7520  0.1354
 9299SOL    HW139116   9.637   9.708   2.149  0.0498  1.9110 -0.7715
 9299SOL    HW239117   9.612   9.738   2.307  0.6286 -2.3380  0.1850
 9300SOL     OW39118   8.407   7.506   3.699 -0.1972 -0.0781 -0.0644
 9300SOL    HW139119   8.422   7.420   3.747 -2.5484 -0.5538 -0.1700
 9300SOL    HW239120   8.461   7.578   3.743 -1.5399 -0.6986  2.6593
 9301SOL     OW39121   5.178   4.924   0.282 -0.0803  0.2011  0.3813
 9301SOL    HW139122   5.216   4.984   0.212  3.0237 -1.3499  0.6296
 9301SOL    HW239123   5.150   4.979   0.361  2.7657  1.3793  0.6298
 9302SOL     OW39124   7.260   0.966   2.125  0.2729 -0.2753 -0.3501
 9302SOL    HW139125   7.308   1.052   2.108 -1.4653  0.7245 -0.3559
 9302SOL    HW239126   7.257   0.948   2.223  1.8744 -1.0794 -0.4318
 9303SOL     OW39127   9.419   9.534   6.430 -0.1468 -0.2972 -0.0457
 9303SOL    HW139128   9.488   9.553   6.499  0.9664 -0.5776 -1.0705
 9303SOL    HW239129   9.460   9.483   6.355 -1.9902 -2.5731  0.4316
 9304SOL     OW39130   3.493   9.701   1.611  0.3606  0.3621  0.0686
 9304SOL    HW139131   3.423   9.707   1.540  0.3025 -3.1589 -0.2714
 9304SOL    HW239132   3.583   9.717   1.571  0.3244 -1.5744 -0.8450
 9305SOL     OW39133   1.972   3.191   6.536 -0.5757 -0.3123  0.1737
 9305SOL    HW139134   1.883   3.214   6.496 -0.6797 -0.1040  0.5094
 9305SOL    HW239135   1.997   3.098   6.512 -0.4746 -0.0746 -0.6502
 9306SOL     OW39136   8.046   1.576   6.068  0.0554  0.3946  0.1370
 9306SOL    HW139137   8.021   1.585   5.971 -1.9483  1.8898  0.7436
 9306SOL    HW239138   8.127   1.519   6.076 -0.3832 -0.6743 -2.3499
 9307SOL     OW39139   5.766   0.951   2.040 -1.1461 -0.1385 -0.2047
 9307SOL    HW139140   5.837   0.934   2.109  0.8144  0.0323 -2.0909
 9307SOL    HW239141   5.693   1.006   2.079 -0.3838 -0.5921  1.9036
 9308SOL     OW39142   1.667   5.971   1.861  0.5514 -0.1309  0.4769
 9308SOL    HW139143   1.695   5.889   1.812 -0.6444  0.7088 -1.6533
 9308SOL    HW239144   1.744   6.006   1.914  1.6671 -1.4371 -0.2598
 9309SOL     OW39145   8.439   0.753   6.433 -0.0866  0.0903 -0.3270
 9309SOL    HW139146   8.429   0.724   6.337 -1.6679 -1.2997  0.2460
 9309SOL    HW239147   8.491   0.684   6.483  0.3333  0.5968 -0.0610
 9310SOL     OW39148   9.775   9.932   3.313 -0.9604  0.6295  0.5559
 9310SOL    HW139149   9.779  10.019   3.264  1.7426 -0.6039 -1.5568
 9310SOL    HW239150   9.856   9.923   3.371 -0.7782 -0.8172  0.1053
 9311SOL     OW39151   3.750   8.814   6.681 -0.2932  0.2927 -0.0058
 9311SOL    HW139152   3.763   8.888   6.615 -1.6010 -0.2335 -0.8768
 9311SOL    HW239153   3.825   8.815   6.748  1.0501  0.8313 -1.4859
 9312SOL     OW39154   1.706   6.469   6.577  0.0260 -0.2501 -0.5947
 9312SOL    HW139155   1.695   6.499   6.672 -1.1758  0.0862 -0.8364
 9312SOL    HW239156   1.789   6.412   6.570  0.5025  0.2869  0.5083
 9313SOL     OW39157   1.503   6.458   1.669 -0.1270  0.0785  0.1313
 9313SOL    HW139158   1.566   6.536   1.667  1.5543 -1.2568 -1.0473
 9313SOL    HW239159   1.414   6.486   1.634  0.8300  1.1453 -1.4974
 9314SOL     OW39160   2.670   7.056   6.756  0.2394  0.5682  0.1247
 9314SOL    HW139161   2.602   6.984   6.741 -0.6588  1.0843  1.5644
 9314SOL    HW239162   2.704   7.051   6.850  3.2212 -0.5122 -0.9596
 9315SOL     OW39163   1.484   2.083   0.486  0.5921  0.0888  0.2273
 9315SOL    HW139164   1.437   2.128   0.562  0.7973 -2.1637  1.7482
 9315SOL    HW239165   1.583   2.081   0.504  0.4824 -1.9400  0.7731
 9316SOL     OW39166   8.200   8.357   0.503 -0.2332 -0.7671  0.1283
 9316SOL    HW139167   8.267   8.428   0.483 -0.3170 -0.3701  1.2232
 9316SOL    HW239168   8.145   8.339   0.421 -0.9206  1.1895  0.1267
 9317SOL     OW39169   0.690   3.928   5.174 -0.8502  0.1697 -0.6758
 9317SOL    HW139170   0.728   3.845   5.134  1.3578  1.6035 -1.7290
 9317SOL    HW239171   0.677   3.997   5.102  0.6672  1.8810  0.6075
 9318SOL     OW39172   1.044   0.827   5.919 -0.4992  0.4539  0.3358
 9318SOL    HW139173   1.116   0.804   5.853 -0.2370  1.7999  0.1370
 9318SOL    HW239174   0.973   0.757   5.916  0.9892 -1.1095  0.8350
 9319SOL     OW39175   0.871   8.511   3.151 -0.0215 -0.0353  0.8933
 9319SOL    HW139176   0.822   8.588   3.191 -1.8296 -0.8616  0.3308
 9319SOL    HW239177   0.928   8.543   3.076 -2.4205  0.4916 -0.7608
 9320SOL     OW39178   2.065   1.994   4.145  0.3863  0.6109 -0.0328
 9320SOL    HW139179   2.001   2.029   4.077 -1.0321  1.7413  1.8550
 9320SOL    HW239180   2.089   2.066   4.210 -1.4694 -1.4513  3.0858
 9321SOL     OW39181   8.896   4.532   6.681  0.8021  0.6710 -0.4594
 9321SOL    HW139182   8.961   4.505   6.610 -0.7103 -2.8609 -0.6163
 9321SOL    HW239183   8.924   4.490   6.768  0.5213  1.8320  0.1967
 9322SOL     OW39184   2.642   2.729   2.743  0.0224  0.3434 -0.7642
 9322SOL    HW139185   2.547   2.723   2.772  0.6661  0.2250  1.4030
 9322SOL    HW239186   2.682   2.815   2.776  0.5700  0.5645 -1.9754
 9323SOL     OW39187   9.994   3.626   1.605  0.5994  0.3616 -0.2049
 9323SOL    HW139188  10.037   3.536   1.597 -1.0929 -0.4601 -0.2425
 9323SOL    HW239189   9.958   3.654   1.516 -1.0426 -0.0565  0.2968
 9324SOL     OW39190   2.483   8.388   1.455  0.1060  0.0657  0.5291
 9324SOL    HW139191   2.476   8.315   1.524  2.5311 -1.0521 -0.3456
 9324SOL    HW239192   2.396   8.436   1.449 -1.6256 -2.8547  1.0469
 9325SOL     OW39193   1.078   7.727   5.745  0.2331 -0.1443 -0.3280
 9325SOL    HW139194   1.070   7.644   5.799 -0.2885 -0.2177 -0.5148
 9325SOL    HW239195   1.116   7.705   5.655 -0.0959 -0.2118 -0.4510
 9326SOL     OW39196   4.685   9.105   2.219  0.0871  0.2197 -0.1384
 9326SOL    HW139197   4.649   9.016   2.190 -0.5225  1.0430 -1.9740
 9326SOL    HW239198   4.776   9.092   2.260 -0.6168 -1.4045  0.9499
 9327SOL     OW39199   8.146   5.546   6.048  0.1604 -0.0260 -0.0627
 9327SOL    HW139200   8.133   5.632   5.999  2.0298  0.8818  1.0263
 9327SOL    HW239201   8.232   5.503   6.019 -0.2204 -0.9917  0.2057
 9328SOL     OW39202   0.646   4.847   5.377  0.0030  0.0809 -0.0091
 9328SOL    HW139203   0.651   4.915   5.450  0.5091  1.6561 -1.4964
 9328SOL    HW239204   0.638   4.892   5.288 -0.5544 -1.8081 -0.9573
 9329SOL     OW39205   5.358   9.606   5.502 -0.5547 -0.1453  0.4062
 9329SOL    HW139206   5.388   9.648   5.416  0.8165 -0.6609  0.6349
 9329SOL    HW239207   5.274   9.652   5.533 -1.5544 -0.5111 -1.6374
 9330SOL     OW39208   6.445   1.765   5.269 -0.2684 -0.6014  0.1827
 9330SOL    HW139209   6.474   1.792   5.361 -0.7027 -0.5113  0.2973
 9330SOL    HW239210   6.474   1.835   5.203  0.6283 -0.9925  0.1558
 9331SOL     OW39211   8.342   1.767   2.963 -0.0239 -0.1653  0.3194
 9331SOL    HW139212   8.243   1.758   2.973  0.0497 -0.4579  0.8227
 9331SOL    HW239213   8.385   1.678   2.982  0.3950  0.1662  0.9486
 9332SOL     OW39214   9.723   5.283   2.839  0.1899 -0.2257 -0.1841
 9332SOL    HW139215   9.654   5.259   2.770  2.0054 -2.3934 -1.2920
 9332SOL    HW239216   9.697   5.244   2.927 -0.7150  0.1845 -0.2605
 9333SOL     OW39217   7.315   6.473   2.014 -0.1806 -0.4289 -0.0563
 9333SOL    HW139218   7.251   6.401   1.988 -0.2232 -0.7274  0.8627
 9333SOL    HW239219   7.287   6.559   1.972 -0.8523 -0.6759 -0.1260
 9334SOL     OW39220   9.019   9.616   1.973  0.1594 -0.7263 -0.0750
 9334SOL    HW139221   8.941   9.625   2.035 -1.2251  0.0308 -1.9044
 9334SOL    HW239222   9.015   9.527   1.928  0.3915 -0.7124 -0.1228
 9335SOL     OW39223   2.017   8.330   5.116 -0.1084 -0.1809  0.3107
 9335SOL    HW139224   2.090   8.268   5.087 -0.0203  0.8765 -1.8369
 9335SOL    HW239225   1.954   8.282   5.177 -0.0191 -2.3449 -1.2788
 9336SOL     OW39226   6.976   9.920   5.298 -0.0671 -0.7869 -0.5635
 9336SOL    HW139227   6.928   9.865   5.366  1.0774 -0.5279  0.4817
 9336SOL    HW239228   7.014  10.002   5.342 -1.6338  0.7989 -2.0642
 9337SOL     OW39229   0.499   2.432   5.697  0.1528 -0.2906  0.2403
 9337SOL    HW139230   0.566   2.506   5.705  1.1267 -1.2565  1.3608
 9337SOL    HW239231   0.446   2.427   5.782 -0.5286 -0.2931 -0.1867
 9338SOL     OW39232   1.344   8.175   1.522 -0.0296 -0.7532 -0.6666
 9338SOL    HW139233   1.331   8.162   1.620 -0.7435  1.5807 -0.4189
 9338SOL    HW239234   1.441   8.183   1.501  0.1004 -0.9051 -0.1168
 9339SOL     OW39235   2.744   5.041   1.909  0.0768 -0.2410 -0.5340
 9339SOL    HW139236   2.673   4.992   1.858 -0.2899  0.8268 -1.0575
 9339SOL    HW239237   2.701   5.097   1.980  0.4029  0.3018 -0.7653
 9340SOL     OW39238   1.488   9.911   4.091  0.0216  0.4641 -0.1415
 9340SOL    HW139239   1.573   9.913   4.143 -0.2952 -1.1700  0.4601
 9340SOL    HW239240   1.475   9.998   4.045  1.9558  0.7684 -0.1263
 9341SOL     OW39241   1.483   7.903   4.874  0.3157 -0.2809 -0.4735
 9341SOL    HW139242   1.562   7.963   4.883  0.0297  0.0031  0.1644
 9341SOL    HW239243   1.415   7.946   4.815  0.7491 -0.6487 -1.2556
 9342SOL     OW39244   4.729   9.359   1.330  0.0237 -0.0026 -0.1027
 9342SOL    HW139245   4.722   9.368   1.429  0.0834  1.6817 -0.2393
 9342SOL    HW239246   4.686   9.273   1.301 -0.5516 -0.2017  1.3107
 9343SOL     OW39247   2.438   6.262   3.015 -1.1805  0.6153  0.3858
 9343SOL    HW139248   2.349   6.226   3.043 -1.7539  1.5184 -0.2750
 9343SOL    HW239249   2.500   6.263   3.094 -1.2573 -1.4846  0.4969
 9344SOL     OW39250   2.146   4.998   1.976  0.2536  0.2050 -0.4610
 9344SOL    HW139251   2.191   4.919   1.935  0.3721  0.3679 -0.6425
 9344SOL    HW239252   2.215   5.060   2.015  0.1421  0.0528 -0.0236
 9345SOL     OW39253   1.704   3.406   4.798  0.3919 -0.1632 -0.0153
 9345SOL    HW139254   1.759   3.443   4.874  0.0094 -0.8191  0.5837
 9345SOL    HW239255   1.630   3.350   4.835 -1.2729  1.5119 -0.7892
 9346SOL     OW39256   7.646   2.244   1.327 -0.3325  0.2891 -0.7089
 9346SOL    HW139257   7.655   2.184   1.248  0.2243  0.1138 -0.5234
 9346SOL    HW239258   7.729   2.300   1.335 -0.9120  1.1805 -0.9593
 9347SOL     OW39259   4.440   4.990   2.033  0.0907 -0.0218  0.0190
 9347SOL    HW139260   4.427   5.085   2.003  1.1665  0.8169  2.1280
 9347SOL    HW239261   4.437   4.986   2.133 -0.2493 -2.2705 -0.0607
 9348SOL     OW39262   0.765   8.992   3.921  0.6673  0.5201  0.3759
 9348SOL    HW139263   0.845   9.033   3.966  0.7794  0.6959  0.0238
 9348SOL    HW239264   0.768   8.893   3.929  0.6004  0.5609  0.8974
 9349SOL     OW39265   1.221   8.689   5.899  0.2018  0.2233 -0.2256
 9349SOL    HW139266   1.131   8.686   5.943  0.3910 -1.8364  0.0571
 9349SOL    HW239267   1.292   8.681   5.968  0.5178 -2.2810 -0.8119
 9350SOL     OW39268   4.130   8.247   0.911  0.4998  0.0640  0.2390
 9350SOL    HW139269   4.173   8.168   0.955  0.3890 -0.3309 -0.3584
 9350SOL    HW239270   4.034   8.226   0.890  0.0748  0.8577  1.3488
 9351SOL     OW39271   2.069   5.721   1.716  0.0786 -0.1910 -0.3489
 9351SOL    HW139272   2.039   5.767   1.800  0.7526  0.4967 -0.4841
 9351SOL    HW239273   2.021   5.633   1.708  0.3344 -0.4784  0.9903
 9352SOL     OW39274   7.048   7.862   3.021 -0.5517 -0.0523 -0.1456
 9352SOL    HW139275   7.146   7.862   3.040 -0.7092  0.3841  0.7131
 9352SOL    HW239276   7.027   7.793   2.953  0.2262 -0.8103  0.3720
 9353SOL     OW39277   3.871   2.870   0.653 -0.4493  0.0604  0.3455
 9353SOL    HW139278   3.942   2.804   0.675 -1.0327 -1.0910 -1.1616
 9353SOL    HW239279   3.812   2.883   0.734  0.9849  0.4377  1.3418
 9354SOL     OW39280   8.535   0.718   1.800 -0.3419 -0.1426 -0.1086
 9354SOL    HW139281   8.567   0.637   1.752 -1.6800 -1.0302  0.4805
 9354SOL    HW239282   8.537   0.702   1.898 -1.0769  0.3658 -0.0088
 9355SOL     OW39283   7.196   7.521   3.896 -0.3351 -0.1213  0.6812
 9355SOL    HW139284   7.099   7.496   3.893  0.0189 -1.6257  1.2114
 9355SOL    HW239285   7.247   7.463   3.833  0.0194  1.7311 -0.7805
 9356SOL     OW39286   5.106   9.035   4.660 -0.0394 -0.7568 -0.2845
 9356SOL    HW139287   5.153   9.084   4.733  0.6551 -0.8565 -0.6559
 9356SOL    HW239288   5.037   9.095   4.619  0.4957 -0.2368 -0.4332
 9357SOL     OW39289   4.821   1.723   0.073  0.0089  0.2047  0.0234
 9357SOL    HW139290   4.855   1.787   0.143  0.9315 -2.0343  1.6894
 9357SOL    HW239291   4.890   1.653   0.057 -2.6305 -2.8116  1.3638
 9358SOL     OW39292   6.729   1.926   2.272 -0.2353  0.1739 -0.1380
 9358SOL    HW139293   6.814   1.875   2.283  0.3575  1.2172  0.2216
 9358SOL    HW239294   6.653   1.874   2.312  0.9537  1.2394  3.7198
 9359SOL     OW39295   2.518   0.410   1.629 -1.5389  0.6908  0.0883
 9359SOL    HW139296   2.457   0.457   1.565  0.0043  1.7930 -0.5883
 9359SOL    HW239297   2.556   0.476   1.694 -0.3625  0.1643 -0.0619
 9360SOL     OW39298   8.170   8.759   2.696 -0.3162 -0.1493  0.0954
 9360SOL    HW139299   8.071   8.747   2.684 -0.7561 -0.4185  3.5370
 9360SOL    HW239300   8.187   8.829   2.766  1.8578 -2.2425  1.7328
 9361SOL     OW39301   3.037   6.694   5.832  0.0857  0.5240  0.3225
 9361SOL    HW139302   2.958   6.714   5.774 -0.6810 -0.2515  1.0845
 9361SOL    HW239303   3.098   6.631   5.784 -1.7390 -2.0572  1.2423
 9362SOL     OW39304   4.408   0.106   4.279 -0.3992  0.4335  0.1132
 9362SOL    HW139305   4.483   0.171   4.290 -0.0618  0.1883 -0.6718
 9362SOL    HW239306   4.337   0.146   4.221  0.8674 -0.7393 -2.3209
 9363SOL     OW39307   3.250   6.360   0.514  0.2207 -0.6111 -0.8166
 9363SOL    HW139308   3.217   6.426   0.446 -0.2526 -0.0460 -0.0473
 9363SOL    HW239309   3.348   6.346   0.501  0.5147  0.9222 -0.4306
 9364SOL     OW39310   4.607   1.236   3.175 -0.8623  0.1582 -0.1096
 9364SOL    HW139311   4.533   1.199   3.119 -0.2937  0.0390 -0.7986
 9364SOL    HW239312   4.665   1.161   3.206 -1.0973  0.2400  0.5176
 9365SOL     OW39313   8.166   3.387   3.205  0.0843  0.0666 -0.3753
 9365SOL    HW139314   8.107   3.328   3.149 -0.4984 -0.1406  0.4388
 9365SOL    HW239315   8.111   3.430   3.277  1.0215 -0.5058  0.7017
 9366SOL     OW39316   6.198   1.041   2.286  0.1263 -0.3747  0.3526
 9366SOL    HW139317   6.190   0.962   2.347  0.1967  0.7606  1.8761
 9366SOL    HW239318   6.111   1.090   2.284  0.3210 -0.0429  0.0323
 9367SOL     OW39319   9.462   6.372   4.083  0.1023  0.1109 -0.4731
 9367SOL    HW139320   9.546   6.402   4.128 -0.0043 -0.7685  0.3219
 9367SOL    HW239321   9.413   6.452   4.046  1.7501  0.5362 -1.7653
 9368SOL     OW39322   6.594   8.403   3.580 -0.2508  0.7757  0.1773
 9368SOL    HW139323   6.498   8.425   3.561 -0.2071 -1.3615 -2.8331
 9368SOL    HW239324   6.651   8.433   3.503  1.3598  0.9182  1.4006
 9369SOL     OW39325   0.832   8.731   5.863  0.1848  0.0004 -0.5868
 9369SOL    HW139326   0.856   8.686   5.777 -0.7455 -1.4983 -0.0904
 9369SOL    HW239327   0.892   8.697   5.936 -0.5344 -0.4634 -0.2060
 9370SOL     OW39328   3.583   7.022   0.803  0.0215 -0.2675  0.5109
 9370SOL    HW139329   3.540   7.009   0.714 -2.2125 -0.2555  1.5499
 9370SOL    HW239330   3.677   7.054   0.791  0.3623 -2.0179 -1.8529
 9371SOL     OW39331   3.867   1.855   2.316  0.0994  0.5858  0.0051
 9371SOL    HW139332   3.794   1.914   2.283 -0.7345 -0.0156  0.7408
 9371SOL    HW239333   3.929   1.908   2.374  1.0417  1.4232 -1.7248
 9372SOL     OW39334   6.046   2.496   4.428 -0.7050 -0.2227 -0.2262
 9372SOL    HW139335   6.138   2.506   4.390  0.5563 -0.3370  2.6587
 9372SOL    HW239336   6.011   2.405   4.408  1.2872 -1.4556  1.6276
 9373SOL     OW39337   1.626   4.157   4.011 -0.0968 -0.3934 -0.2618
 9373SOL    HW139338   1.673   4.086   4.064 -0.4317 -0.0867  0.4576
 9373SOL    HW239339   1.527   4.146   4.022 -0.1320  1.0820  1.0530
 9374SOL     OW39340   8.782   3.306   1.125  0.2020 -0.0872 -0.3267
 9374SOL    HW139341   8.727   3.229   1.157 -1.0419  0.0001 -2.1941
 9374SOL    HW239342   8.743   3.391   1.160  0.8037 -0.2043  0.6461
 9375SOL     OW39343   0.589   9.324   2.573  0.4107  0.0850 -0.3801
 9375SOL    HW139344   0.497   9.300   2.542  0.1248  1.0474 -0.2853
 9375SOL    HW239345   0.584   9.406   2.631  0.8689 -1.8398  2.4898
 9376SOL     OW39346   4.608   4.715   1.587  0.4199 -0.2154  0.2919
 9376SOL    HW139347   4.629   4.652   1.662  0.8812  0.1484  0.4643
 9376SOL    HW239348   4.628   4.669   1.500 -0.9994 -0.9777  0.3447
 9377SOL     OW39349   2.587   3.557   5.609  0.6521 -0.3866  0.2228
 9377SOL    HW139350   2.547   3.514   5.528  0.7889 -0.0179 -0.0398
 9377SOL    HW239351   2.555   3.652   5.616  1.7924  0.0308 -0.2084
 9378SOL     OW39352   8.396   9.110   0.175 -0.2365 -0.0592 -1.0669
 9378SOL    HW139353   8.421   9.041   0.244 -0.3289 -0.1500 -1.1241
 9378SOL    HW239354   8.472   9.121   0.111  0.1981  0.6619 -0.4411
 9379SOL     OW39355   1.334   5.928   0.825  0.1673  0.5451  0.4190
 9379SOL    HW139356   1.363   5.870   0.902 -0.2988 -0.5773 -0.2427
 9379SOL    HW239357   1.307   5.870   0.749  0.1147  1.6586 -0.4104
 9380SOL     OW39358   9.356   6.836   6.681 -0.0890 -0.5582  0.6958
 9380SOL    HW139359   9.395   6.918   6.722 -1.2014  0.6733 -0.6684
 9380SOL    HW239360   9.341   6.767   6.752  0.7073  0.4588  1.8686
 9381SOL     OW39361   3.747   8.009   2.986 -0.6598  0.0430 -0.3616
 9381SOL    HW139362   3.659   8.045   2.954 -2.1991 -4.3536 -1.5134
 9381SOL    HW239363   3.819   8.033   2.920 -0.6387  4.7031  1.1942
 9382SOL     OW39364   9.637   7.216   3.302  0.1271 -0.2476  0.2007
 9382SOL    HW139365   9.554   7.271   3.287  0.9077  1.2357  1.1327
 9382SOL    HW239366   9.630   7.130   3.252 -1.8557 -0.0115  0.0341
 9383SOL     OW39367   4.472   3.294   3.044 -0.4056 -0.0812 -0.1001
 9383SOL    HW139368   4.444   3.287   3.139 -1.6059 -1.7099 -0.5479
 9383SOL    HW239369   4.405   3.349   2.993 -1.4784 -1.8464 -0.6393
 9384SOL     OW39370   3.261   8.809   0.016 -0.1417  0.4860 -0.1528
 9384SOL    HW139371   3.355   8.840   0.009  0.6296 -1.4702  1.3078
 9384SOL    HW239372   3.217   8.814  -0.074  0.6966  3.3568 -0.4464
 9385SOL     OW39373   2.095   2.788   1.555 -0.0656 -0.0599  0.1333
 9385SOL    HW139374   2.075   2.870   1.502  0.9783  0.7043  0.8911
 9385SOL    HW239375   2.116   2.813   1.650 -0.8577 -1.3068  0.6538
 9386SOL     OW39376   1.508   7.571   2.816 -0.2653  0.7639  0.0980
 9386SOL    HW139377   1.472   7.665   2.811  2.2337  1.7857  0.3975
 9386SOL    HW239378   1.602   7.574   2.850  0.0016 -1.8306 -0.3521
 9387SOL     OW39379   0.367   7.168   5.968  0.2703  0.4378 -0.4525
 9387SOL    HW139380   0.357   7.213   6.057  3.4655 -1.1515  0.8158
 9387SOL    HW239381   0.445   7.208   5.920 -1.7602  1.6494 -2.8578
 9388SOL     OW39382   0.206   9.547   4.518 -0.9912 -0.6250  0.3214
 9388SOL    HW139383   0.111   9.536   4.549 -1.5877 -1.8282 -1.8206
 9388SOL    HW239384   0.237   9.639   4.539 -3.5424  0.6682 -1.2827
 9389SOL     OW39385   1.767   3.096   1.596 -0.0364  0.0007 -0.4443
 9389SOL    HW139386   1.759   3.194   1.612 -0.6515  0.0217 -0.8492
 9389SOL    HW239387   1.677   3.059   1.569  0.7982 -0.1492 -3.1191
 9390SOL     OW39388   6.495   8.091   3.799 -0.1797  0.0254  0.5204
 9390SOL    HW139389   6.517   8.163   3.865  0.9170 -1.2669  1.5913
 9390SOL    HW239390   6.436   8.129   3.727  1.5941  2.3915  0.2225
 9391SOL     OW39391   8.547   3.474   5.815 -0.8870 -0.2934  0.6615
 9391SOL    HW139392   8.605   3.543   5.772  1.3781 -0.3132  3.5391
 9391SOL    HW239393   8.471   3.519   5.862 -0.7555  0.0414  0.5581
 9392SOL     OW39394   1.275   5.056   0.719 -0.0995 -0.6218  0.7198
 9392SOL    HW139395   1.287   4.968   0.674 -0.0437  0.0908 -0.6807
 9392SOL    HW239396   1.178   5.074   0.734 -0.2689  0.1599 -1.2104
 9393SOL     OW39397   0.027   2.913   4.336 -0.0441 -0.3125  0.2902
 9393SOL    HW139398  -0.049   2.978   4.338 -1.1709 -1.5710 -0.5298
 9393SOL    HW239399   0.113   2.962   4.326 -0.7670  1.1213  0.9920
 9394SOL     OW39400   2.086   0.437   5.922  0.2755 -0.5600  0.1969
 9394SOL    HW139401   2.175   0.419   5.881 -0.4804 -1.8962 -0.8952
 9394SOL    HW239402   2.019   0.457   5.850 -0.6591 -1.1288  0.9038
 9395SOL     OW39403   2.329   6.615   3.907  0.1572 -0.4734  0.2156
 9395SOL    HW139404   2.291   6.539   3.854 -1.5946 -0.9834  2.1314
 9395SOL    HW239405   2.366   6.580   3.993 -0.7164  0.8541  1.1385
 9396SOL     OW39406   5.158   9.457   3.474 -0.8709 -0.1449 -0.1220
 9396SOL    HW139407   5.126   9.497   3.559  1.8225  0.8823  0.4435
 9396SOL    HW239408   5.187   9.529   3.411 -0.1763 -1.0056 -0.8073
 9397SOL     OW39409   9.143   3.269   1.554 -0.1583 -0.2016 -0.0176
 9397SOL    HW139410   9.102   3.346   1.603 -2.0342 -1.3152  0.1741
 9397SOL    HW239411   9.200   3.216   1.616  0.2836  0.4161  0.1078
 9398SOL     OW39412   9.713   1.325   6.620 -1.0040  0.0345 -1.0300
 9398SOL    HW139413   9.801   1.311   6.575  0.5683 -0.2141  1.9639
 9398SOL    HW239414   9.705   1.420   6.648 -0.3755 -0.5374  1.2235
 9399SOL     OW39415   3.322   4.476   4.152  0.7185 -0.3228 -0.1726
 9399SOL    HW139416   3.282   4.485   4.060  0.3371 -0.4136 -0.0191
 9399SOL    HW239417   3.351   4.566   4.184  2.6535 -0.5709 -1.1752
 9400SOL     OW39418   1.674   5.204   1.746 -0.0375  0.3470  1.0055
 9400SOL    HW139419   1.588   5.212   1.797  0.2926 -0.1582  1.6448
 9400SOL    HW239420   1.740   5.151   1.799  1.2837  2.2241  1.3365
 9401SOL     OW39421   1.423   6.378   1.957  0.0246  0.2423  0.2762
 9401SOL    HW139422   1.369   6.294   1.962 -0.3457  0.5753  2.0990
 9401SOL    HW239423   1.479   6.376   1.874 -1.4991 -0.8741 -0.7570
 9402SOL     OW39424   2.909   6.988   6.192 -0.1458  0.2181  0.2870
 9402SOL    HW139425   2.943   7.073   6.231 -2.2276  2.5754 -2.7617
 9402SOL    HW239426   2.809   6.994   6.181 -0.2687 -2.4429 -0.3519
 9403SOL     OW39427   3.763   4.578   1.771 -0.3525  0.1945  0.4596
 9403SOL    HW139428   3.842   4.637   1.791 -0.6468  0.6785  0.2023
 9403SOL    HW239429   3.712   4.616   1.694 -1.4492  0.4879  1.3127
 9404SOL     OW39430   9.146   9.344   5.313  0.1719 -0.5078 -0.2323
 9404SOL    HW139431   9.139   9.308   5.220  0.8754  0.9462 -0.8609
 9404SOL    HW239432   9.055   9.350   5.354 -0.1571 -0.9369 -0.9016
 9405SOL     OW39433   4.518   0.281   0.445  0.5525 -0.1815 -0.4114
 9405SOL    HW139434   4.509   0.291   0.544  0.2881  2.3610 -0.6618
 9405SOL    HW239435   4.587   0.344   0.411  0.0288 -0.4147 -1.9670
 9406SOL     OW39436   4.236   9.780   6.522  0.2559  0.1979 -0.1213
 9406SOL    HW139437   4.164   9.711   6.533 -0.6075  1.1502  0.2837
 9406SOL    HW239438   4.206   9.866   6.564  0.8328  1.1601 -1.6408
 9407SOL     OW39439   0.556   5.620   2.438  0.2023  0.0479 -0.1918
 9407SOL    HW139440   0.608   5.631   2.354  0.7036 -0.2781  0.0768
 9407SOL    HW239441   0.498   5.700   2.452 -0.1648 -0.0654 -1.0407
 9408SOL     OW39442   3.278   0.117   5.801  0.4387  0.1726  0.1631
 9408SOL    HW139443   3.342   0.104   5.725 -1.1044 -0.8441 -0.9977
 9408SOL    HW239444   3.312   0.070   5.882  0.4592 -1.6307 -0.8574
 9409SOL     OW39445   0.187   9.591   1.428 -0.0220 -0.3107  0.4820
 9409SOL    HW139446   0.147   9.678   1.457  1.0818  0.7139 -1.0154
 9409SOL    HW239447   0.252   9.559   1.497  0.8348  0.9064  0.2387
 9410SOL     OW39448   3.344   2.473   0.209  0.0977 -0.0567  0.3756
 9410SOL    HW139449   3.389   2.539   0.270  0.5994 -0.4920  0.4767
 9410SOL    HW239450   3.301   2.522   0.133  0.6741  0.3658  0.3182
 9411SOL     OW39451   8.788   2.733   0.345  0.0251 -0.0665 -0.0097
 9411SOL    HW139452   8.696   2.725   0.385 -0.0501  0.1579 -0.1344
 9411SOL    HW239453   8.812   2.830   0.336  0.3650 -0.1245  0.2287
 9412SOL     OW39454   6.701   7.418   3.355  0.2566 -0.4544  0.1972
 9412SOL    HW139455   6.609   7.382   3.341  0.2906 -1.0587  1.4478
 9412SOL    HW239456   6.766   7.342   3.363  0.8526 -0.0322 -0.5860
 9413SOL     OW39457   0.846   5.103   5.415 -0.1882 -0.0107  0.6263
 9413SOL    HW139458   0.784   5.180   5.405 -1.3737 -1.1646 -1.1551
 9413SOL    HW239459   0.842   5.070   5.509 -1.3375  0.7071  0.8420
 9414SOL     OW39460   9.335   6.644   4.981  0.5432 -0.3011 -0.2896
 9414SOL    HW139461   9.350   6.743   4.977 -2.1378  0.1527  0.1661
 9414SOL    HW239462   9.418   6.597   4.950  2.4687  2.0367  1.0935
 9415SOL     OW39463   1.821   0.846   0.914 -0.4523 -0.2214 -0.1455
 9415SOL    HW139464   1.812   0.921   0.848  0.1087 -1.5949 -1.8119
 9415SOL    HW239465   1.871   0.770   0.872  1.1888 -0.5734  2.3317
 9416SOL     OW39466   9.189   2.939   3.174 -0.2366  0.0569 -0.0745
 9416SOL    HW139467   9.208   3.033   3.204 -1.2081  0.8352 -1.7807
 9416SOL    HW239468   9.115   2.941   3.106  1.9850 -1.5320 -2.6627
 9417SOL     OW39469   1.054   1.027   2.128  0.0176 -0.0725  0.3341
 9417SOL    HW139470   0.971   1.044   2.076  0.1908  0.4130  0.2131
 9417SOL    HW239471   1.060   0.929   2.151 -1.2203  0.1115  1.4550
 9418SOL     OW39472   0.109   9.140   0.305 -0.0598 -0.2867 -0.5533
 9418SOL    HW139473   0.177   9.201   0.347 -2.2850 -0.6324  3.9139
 9418SOL    HW239474   0.154   9.058   0.271  2.1331  0.7953 -0.3351
 9419SOL     OW39475   1.547   2.998   4.268  0.6352 -0.1343  0.8015
 9419SOL    HW139476   1.579   3.077   4.216  1.3269  0.2613  1.8138
 9419SOL    HW239477   1.541   3.022   4.365 -0.1037 -1.0269  0.9776
 9420SOL     OW39478   3.359   3.912   3.093 -0.0051  0.4887 -0.2057
 9420SOL    HW139479   3.265   3.942   3.105  0.2740  0.9236  0.9875
 9420SOL    HW239480   3.373   3.880   2.999 -1.4247  0.0770 -0.2726
 9421SOL     OW39481   8.283   4.237   3.998 -0.3485  0.1924 -0.8855
 9421SOL    HW139482   8.356   4.170   3.984 -0.0292  0.1938  0.6619
 9421SOL    HW239483   8.301   4.318   3.943  1.4252  0.6481  0.3302
 9422SOL     OW39484   8.186   2.507   3.919  0.3190 -0.3106  0.8917
 9422SOL    HW139485   8.091   2.476   3.915  0.5059 -0.7634 -0.0767
 9422SOL    HW239486   8.234   2.460   3.993  0.4476 -1.9011 -0.1919
 9423SOL     OW39487   6.567   0.695   6.726  0.0836 -0.4164  0.4308
 9423SOL    HW139488   6.475   0.692   6.766 -0.3906 -1.1702 -0.6957
 9423SOL    HW239489   6.632   0.656   6.791 -0.8058 -2.4779  0.1313
 9424SOL     OW39490   9.811   5.535   2.887 -0.2479 -0.0723 -0.5729
 9424SOL    HW139491   9.770   5.447   2.863 -0.2901 -0.3518  0.5419
 9424SOL    HW239492   9.739   5.604   2.898 -0.1684  0.2955 -2.1898
 9425SOL     OW39493   3.673   8.456   0.883  0.0676  0.1106  0.4029
 9425SOL    HW139494   3.656   8.547   0.845 -1.1346 -0.0427  0.5695
 9425SOL    HW239495   3.762   8.456   0.929  0.7926  0.7527 -0.9640
 9426SOL     OW39496   5.073   0.240   3.252 -0.3377 -0.5471 -0.8315
 9426SOL    HW139497   5.068   0.148   3.290 -1.6569 -0.1980 -0.1362
 9426SOL    HW239498   4.981   0.277   3.241  0.2040  1.2267  0.2507
 9427SOL     OW39499   0.283   2.759   2.729  0.5955  0.3123 -0.1055
 9427SOL    HW139500   0.327   2.671   2.746 -0.1191  0.2146  1.3263
 9427SOL    HW239501   0.331   2.830   2.781 -1.1240  0.1530  1.7443
 9428SOL     OW39502   1.007   2.838   0.709 -0.0790  0.4921  0.8329
 9428SOL    HW139503   0.962   2.778   0.775  0.1847 -0.1832  0.4076
 9428SOL    HW239504   0.959   2.834   0.622  0.7848 -0.2300  0.3747
 9429SOL     OW39505   9.814   2.807   5.366 -0.1293 -0.2997  0.0809
 9429SOL    HW139506   9.801   2.708   5.360  0.6694 -0.4781  1.1554
 9429SOL    HW239507   9.896   2.827   5.418  0.7973  0.9065 -1.7645
 9430SOL     OW39508   4.469   0.656   3.679  0.3623 -0.0863 -0.4276
 9430SOL    HW139509   4.460   0.638   3.581  0.4536 -3.1023  0.0674
 9430SOL    HW239510   4.412   0.592   3.730  0.2106  1.5519  1.5038
 9431SOL     OW39511   3.612   2.809   1.063  0.3829 -0.5225 -0.2594
 9431SOL    HW139512   3.564   2.821   1.150  2.3865  0.2325  0.7691
 9431SOL    HW239513   3.562   2.743   1.006 -0.3708 -1.8282  1.8853
 9432SOL     OW39514   5.877   0.013   3.377  0.4130 -0.0250 -0.2272
 9432SOL    HW139515   5.853  -0.082   3.361  1.2278 -0.6974  2.2325
 9432SOL    HW239516   5.917   0.052   3.294 -0.1459 -1.7396 -1.3268
 9433SOL     OW39517   9.677   8.667   2.413  0.5621 -1.1255 -0.3375
 9433SOL    HW139518   9.729   8.727   2.474  0.4125 -0.5432 -0.7764
 9433SOL    HW239519   9.721   8.577   2.410 -0.0229 -1.4938  1.4331
 9434SOL     OW39520   3.119   3.167   4.374  0.5696  0.1404 -0.0584
 9434SOL    HW139521   3.122   3.239   4.304  0.6501  0.7600  0.5817
 9434SOL    HW239522   3.207   3.161   4.421  0.5512 -0.3530 -0.0768
 9435SOL     OW39523   9.827   3.870   0.711  0.1194  0.1744 -0.3668
 9435SOL    HW139524   9.748   3.808   0.714  0.2754  0.0013  0.3048
 9435SOL    HW239525   9.832   3.914   0.622 -0.2141 -0.5003 -0.7175
 9436SOL     OW39526   0.564   0.346   6.719  0.2105  0.1778 -0.0403
 9436SOL    HW139527   0.517   0.434   6.730  0.8004  0.2038  2.6435
 9436SOL    HW239528   0.656   0.352   6.758 -0.5206 -2.2169  2.2347
 9437SOL     OW39529   7.622   7.423   3.627 -0.0419 -0.1120 -0.1448
 9437SOL    HW139530   7.608   7.362   3.549  0.4625 -0.9832  0.4527
 9437SOL    HW239531   7.716   7.416   3.659  0.4132  1.9933 -0.9294
 9438SOL     OW39532   8.595   2.780   5.373  0.1193 -0.7711  0.1339
 9438SOL    HW139533   8.610   2.682   5.377 -1.7323 -1.1647 -1.6001
 9438SOL    HW239534   8.664   2.822   5.312 -0.5395 -1.3422 -1.0168
 9439SOL     OW39535   3.983   1.930   4.583  0.0851 -0.0758  0.0302
 9439SOL    HW139536   3.989   2.030   4.584 -1.4997  0.0308  1.1289
 9439SOL    HW239537   3.922   1.901   4.509  0.5112 -0.2346 -0.2617
 9440SOL     OW39538   8.754   9.445   6.613 -0.4458 -0.3063  0.1034
 9440SOL    HW139539   8.709   9.528   6.579  0.3889  0.4974  0.9204
 9440SOL    HW239540   8.720   9.366   6.563 -0.4669  0.6480 -1.4338
 9441SOL     OW39541   5.451   9.552   3.075  0.4642  0.1279 -0.4548
 9441SOL    HW139542   5.451   9.472   3.134  1.1424  0.5422  0.1075
 9441SOL    HW239543   5.538   9.601   3.084 -0.2285  1.3461 -0.2287
 9442SOL     OW39544   9.565   9.883   3.503 -0.4989 -0.2132  0.0656
 9442SOL    HW139545   9.634   9.895   3.432 -1.5672  0.8105 -0.7983
 9442SOL    HW239546   9.606   9.832   3.579  0.4524 -1.8969 -1.5331
 9443SOL     OW39547   4.423   6.778   2.260 -0.0638 -0.7274 -0.6133
 9443SOL    HW139548   4.425   6.800   2.357 -1.6112 -1.7272 -0.3505
 9443SOL    HW239549   4.507   6.729   2.236  1.2097  1.1904 -0.2113
 9444SOL     OW39550   2.072   5.424   5.635 -0.5498  0.0338 -0.1345
 9444SOL    HW139551   2.042   5.455   5.725 -0.0933 -0.9837  0.3723
 9444SOL    HW239552   2.074   5.502   5.572 -1.0689  0.7069  0.6773
 9445SOL     OW39553   0.166   6.255   5.337  0.1165  0.4322 -0.0307
 9445SOL    HW139554   0.266   6.252   5.335  0.0932 -0.1891 -0.1604
 9445SOL    HW239555   0.136   6.311   5.414  0.5621  0.5942  0.0254
 9446SOL     OW39556   9.824   4.918   2.805  0.2653 -0.2134  0.0335
 9446SOL    HW139557   9.729   4.895   2.786  0.7039 -0.5693 -1.8496
 9446SOL    HW239558   9.835   5.017   2.810 -0.3392 -0.1958  1.0531
 9447SOL     OW39559   2.554   7.925   0.665 -0.4641  0.1659  0.5922
 9447SOL    HW139560   2.566   7.955   0.571  1.8895 -1.0911  0.4421
 9447SOL    HW239561   2.462   7.887   0.677  0.0915 -2.0853 -1.9077
 9448SOL     OW39562   4.863   2.223   2.098  0.7416 -0.0094  0.0204
 9448SOL    HW139563   4.917   2.213   2.015  0.8569 -2.5567  0.3611
 9448SOL    HW239564   4.788   2.157   2.097  0.3601  0.3856  1.6372
 9449SOL     OW39565   8.961   1.512   0.483  0.5501  0.5002  0.3823
 9449SOL    HW139566   8.918   1.447   0.545  2.3277 -0.7972  0.3042
 9449SOL    HW239567   8.934   1.491   0.389  0.2158  0.5897  0.4593
 9450SOL     OW39568   7.887   8.279   5.646  0.3643 -0.4790 -0.0412
 9450SOL    HW139569   7.878   8.329   5.733 -0.1454  0.6960 -0.7630
 9450SOL    HW239570   7.862   8.183   5.660 -0.8272 -0.0419  0.8575
 9451SOL     OW39571   0.941   3.070   2.276 -0.1969  0.0786  0.1651
 9451SOL    HW139572   0.846   3.090   2.299  0.1474  3.1784 -0.8474
 9451SOL    HW239573   1.001   3.111   2.345  0.4846  0.6816 -0.7790
 9452SOL     OW39574   8.704   2.535   2.934  0.8703 -0.2064  0.0670
 9452SOL    HW139575   8.626   2.514   2.875 -0.3921  0.1239  1.5900
 9452SOL    HW239576   8.741   2.450   2.971  0.3615 -0.2699  0.4337
 9453SOL     OW39577   2.660   0.541   6.518 -0.9120  0.0933 -0.0022
 9453SOL    HW139578   2.711   0.582   6.593  0.1709 -0.0701 -0.6400
 9453SOL    HW239579   2.600   0.469   6.554 -0.6128  0.2091  0.7351
 9454SOL     OW39580   3.409   7.179   1.967 -0.1273 -0.0239  0.5349
 9454SOL    HW139581   3.395   7.107   2.036  1.5021  0.2969  1.2085
 9454SOL    HW239582   3.412   7.137   1.876  0.2333 -0.7515  0.8729
 9455SOL     OW39583   4.313   0.185   3.899 -0.2652 -0.2295 -0.1194
 9455SOL    HW139584   4.243   0.135   3.848  0.3294  0.0009 -1.1840
 9455SOL    HW239585   4.270   0.239   3.971 -1.1545 -0.3322 -0.5648
 9456SOL     OW39586   9.678   8.989   1.443  0.3219 -0.2098  0.0959
 9456SOL    HW139587   9.732   9.058   1.491  0.8184 -0.0400 -0.6937
 9456SOL    HW239588   9.584   9.022   1.431  0.1090 -0.3881  1.2211
 9457SOL     OW39589   6.854   1.844   5.898 -0.1425 -0.0083 -0.5171
 9457SOL    HW139590   6.897   1.931   5.877  2.1212 -1.2496 -1.1561
 9457SOL    HW239591   6.924   1.774   5.912 -1.9204 -2.0566 -1.4372
 9458SOL     OW39592   2.237   8.177   0.518 -0.7336 -0.2313 -0.8351
 9458SOL    HW139593   2.223   8.275   0.502  3.2361  0.7514  1.1468
 9458SOL    HW239594   2.267   8.133   0.434 -0.2794  0.7409 -1.1862
 9459SOL     OW39595   4.334   9.995   5.949 -0.0840 -0.0142 -0.7492
 9459SOL    HW139596   4.340   9.901   5.915 -0.9202  0.2397 -1.6207
 9459SOL    HW239597   4.253  10.039   5.910 -0.5411  0.5875  0.8473
 9460SOL     OW39598   8.728   9.686   4.953 -0.4435 -0.1115 -0.2029
 9460SOL    HW139599   8.641   9.724   4.924 -0.1962  0.7105  0.1088
 9460SOL    HW239600   8.747   9.714   5.048  0.9620  1.1861 -0.8331
 9461SOL     OW39601   8.795   4.310   0.723 -0.0727  0.0151 -0.3127
 9461SOL    HW139602   8.754   4.248   0.790  1.7025 -1.0447 -0.1660
 9461SOL    HW239603   8.883   4.273   0.693  0.3632  1.7752 -1.2795
 9462SOL     OW39604   7.495   2.534   3.550  0.4043  0.7254  0.0319
 9462SOL    HW139605   7.573   2.592   3.526 -0.3559  1.5073 -0.5655
 9462SOL    HW239606   7.417   2.557   3.492  0.8150 -2.6491 -2.0002
 9463SOL     OW39607   0.682   5.821   1.176 -0.0019 -0.1336  0.0095
 9463SOL    HW139608   0.703   5.788   1.083  0.8638  0.0805  0.1243
 9463SOL    HW239609   0.694   5.920   1.179 -0.2671 -0.1111  0.2910
 9464SOL     OW39610   0.641   9.403   3.376  0.3630  0.3269 -0.0784
 9464SOL    HW139611   0.714   9.363   3.319 -0.8175 -1.0422 -0.6592
 9464SOL    HW239612   0.556   9.405   3.323  0.1734  2.7258  0.2981
 9465SOL     OW39613   2.898   1.651   1.246  0.4178 -0.3126  0.1145
 9465SOL    HW139614   2.935   1.663   1.154  1.5807 -1.5530  0.4026
 9465SOL    HW239615   2.892   1.740   1.291  1.6546  0.0908 -0.4816
 9466SOL     OW39616   9.232   0.304   3.950  0.4878 -0.2420 -0.3203
 9466SOL    HW139617   9.256   0.252   3.867  0.5616 -1.9672  0.7590
 9466SOL    HW239618   9.204   0.396   3.924  0.6044 -0.7270 -2.2708
 9467SOL     OW39619   2.548   5.527   5.839  0.3213  0.4645  0.6727
 9467SOL    HW139620   2.454   5.547   5.868  0.1850  0.5695  0.1567
 9467SOL    HW239621   2.584   5.605   5.787  0.1716 -0.1988 -0.4186
 9468SOL     OW39622   7.205   0.300   5.163 -0.4538 -0.0778 -0.1719
 9468SOL    HW139623   7.295   0.341   5.152 -0.7581  0.3557 -1.0287
 9468SOL    HW239624   7.215   0.207   5.200  0.4185 -0.5344 -1.5277
 9469SOL     OW39625   3.122   1.790   5.658 -0.4918 -0.4429 -0.2065
 9469SOL    HW139626   3.055   1.726   5.619 -1.7735 -0.3898  1.7799
 9469SOL    HW239627   3.190   1.739   5.710 -1.4092 -0.2450  1.2265
 9470SOL     OW39628   8.426   3.301   2.353  0.4746 -0.1376 -0.0653
 9470SOL    HW139629   8.330   3.306   2.324  0.4326  0.3899  0.1619
 9470SOL    HW239630   8.445   3.374   2.419  1.1655  0.0680 -0.4890
 9471SOL     OW39631   9.821   5.198   1.284 -0.1450 -0.3424  0.0561
 9471SOL    HW139632   9.802   5.248   1.200  3.0450 -2.1522 -1.8481
 9471SOL    HW239633   9.850   5.263   1.355  2.6341  0.7626 -1.9748
 9472SOL     OW39634   3.548   5.671   6.568  0.4161  0.1215 -0.3920
 9472SOL    HW139635   3.473   5.606   6.582 -0.0011  0.5300 -0.7327
 9472SOL    HW239636   3.545   5.707   6.475  0.1655  1.2200  0.0274
 9473SOL     OW39637   1.154   3.323   4.697  0.2468 -0.1333  0.1906
 9473SOL    HW139638   1.199   3.320   4.786 -0.9012 -0.5687  0.7628
 9473SOL    HW239639   1.070   3.269   4.700 -0.1555  0.4142 -0.9560
 9474SOL     OW39640   4.327   4.778   6.305  0.2342 -0.2950  0.1527
 9474SOL    HW139641   4.370   4.707   6.361  0.9364  1.5837  2.0509
 9474SOL    HW239642   4.230   4.785   6.328  0.1655 -0.6139 -0.0304
 9475SOL     OW39643   3.967   4.316   5.929  0.4879 -0.5407 -0.2364
 9475SOL    HW139644   4.044   4.365   5.970  0.6200 -2.0997  1.4596
 9475SOL    HW239645   3.934   4.366   5.849  2.1613  1.0266  0.0225
 9476SOL     OW39646   0.585   1.982   1.078  0.4609 -0.5660 -0.1294
 9476SOL    HW139647   0.512   2.051   1.076 -0.5906 -1.6625 -0.3301
 9476SOL    HW239648   0.546   1.893   1.054  2.3475 -0.7291 -2.8522
 9477SOL     OW39649   3.486   4.456   6.470  0.2370 -0.1760 -0.1430
 9477SOL    HW139650   3.480   4.356   6.472  0.7800 -0.2203 -0.4698
 9477SOL    HW239651   3.574   4.483   6.430 -0.2002  0.4348 -0.7061
 9478SOL     OW39652   8.929   7.395   2.102 -0.7758 -0.1947 -0.0730
 9478SOL    HW139653   8.962   7.307   2.070  1.4787  1.4074 -2.3426
 9478SOL    HW239654   8.888   7.446   2.026 -1.1663  1.1016  0.9797
 9479SOL     OW39655   2.119   1.201   1.898  0.1600  0.4142 -0.2538
 9479SOL    HW139656   2.201   1.258   1.909  0.5895 -0.0147 -1.1532
 9479SOL    HW239657   2.132   1.140   1.820 -0.3002 -0.9219  0.7081
 9480SOL     OW39658   6.782   9.938   3.493  0.0148 -0.1132 -0.3239
 9480SOL    HW139659   6.857   9.967   3.434 -0.3186  0.2774 -0.5591
 9480SOL    HW239660   6.814   9.932   3.588 -0.2029  2.1579 -0.0917
 9481SOL     OW39661   3.795   2.853   4.983 -0.0180  0.0819  0.6662
 9481SOL    HW139662   3.820   2.848   5.080  0.7138 -2.5630  0.3907
 9481SOL    HW239663   3.878   2.846   4.927 -0.5138  0.7873 -0.1643
 9482SOL     OW39664   9.425   2.935   6.224  0.2769 -0.6205  0.0179
 9482SOL    HW139665   9.327   2.940   6.245  0.2269  1.9443 -0.7058
 9482SOL    HW239666   9.473   2.896   6.303 -1.0754  0.1058  1.2354
 9483SOL     OW39667   3.277   4.917   4.359  0.1554  0.3063  0.1175
 9483SOL    HW139668   3.192   4.906   4.307 -0.2841  3.4772  0.0863
 9483SOL    HW239669   3.273   4.859   4.441 -1.2733 -0.9092 -0.7849
 9484SOL     OW39670   8.021   6.702   2.119  0.7680  0.3194  0.2043
 9484SOL    HW139671   8.068   6.639   2.181  1.2094  1.3880  0.9783
 9484SOL    HW239672   8.050   6.685   2.025  0.1255 -1.2936  0.2783
 9485SOL     OW39673   3.908   6.409   2.568  0.2734 -0.4966  0.2668
 9485SOL    HW139674   3.928   6.328   2.513 -1.1080  0.3159 -1.5007
 9485SOL    HW239675   3.831   6.389   2.629 -0.0760 -0.5201 -0.1771
 9486SOL     OW39676   6.219   2.368   4.808  0.2266 -0.2378 -0.4068
 9486SOL    HW139677   6.261   2.413   4.886  0.1037  0.1825 -0.5816
 9486SOL    HW239678   6.218   2.269   4.823  0.6314 -0.1932 -0.0912
 9487SOL     OW39679   5.284   7.819   2.464  0.4740  0.6105 -0.4174
 9487SOL    HW139680   5.298   7.721   2.481  1.0279  0.7660  0.0353
 9487SOL    HW239681   5.295   7.838   2.366  1.6690  0.4293 -0.3241
 9488SOL     OW39682   4.368   1.793   6.521 -0.7106  0.2776 -0.7997
 9488SOL    HW139683   4.317   1.831   6.598  0.9726 -0.8996  0.9378
 9488SOL    HW239684   4.340   1.698   6.506  0.3954 -0.1419 -0.3024
 9489SOL     OW39685   3.044   0.162   6.416  0.1096  0.1048  0.2325
 9489SOL    HW139686   3.025   0.066   6.437 -0.0778  0.0593 -0.1492
 9489SOL    HW239687   3.080   0.207   6.498 -0.8960 -0.0070  0.7387
 9490SOL     OW39688   9.545   9.545   4.428  0.7434 -0.3978  0.1979
 9490SOL    HW139689   9.462   9.543   4.483  0.6770 -0.1227  0.1101
 9490SOL    HW239690   9.598   9.462   4.443 -0.0866 -1.0654 -0.5892
 9491SOL     OW39691   2.581   8.898   3.939  0.9935 -0.0993  0.0107
 9491SOL    HW139692   2.656   8.840   3.970  0.3810 -0.8843  0.0506
 9491SOL    HW239693   2.584   8.905   3.839  2.0574  1.1746  0.1254
 9492SOL     OW39694   3.334   7.804   0.802 -0.8476 -0.0694  0.0921
 9492SOL    HW139695   3.418   7.853   0.780 -0.3198  0.1656  2.5352
 9492SOL    HW239696   3.266   7.821   0.731  1.5336 -1.2849 -2.6007
 9493SOL     OW39697   1.241   6.336   2.969 -0.5887 -0.5604 -0.1980
 9493SOL    HW139698   1.256   6.397   3.046  0.9011 -2.7402  1.2852
 9493SOL    HW239699   1.311   6.265   2.969 -0.8723 -0.9155 -3.2640
 9494SOL     OW39700   7.512   1.850   4.607  0.1452 -0.6500 -0.0327
 9494SOL    HW139701   7.594   1.863   4.664  0.0111 -0.3360  0.0889
 9494SOL    HW239702   7.534   1.789   4.531  0.8006  0.3329 -0.6418
 9495SOL     OW39703   8.617   8.592   2.577  0.3892 -0.0742 -0.0810
 9495SOL    HW139704   8.685   8.661   2.551 -0.5156  0.3297 -1.4304
 9495SOL    HW239705   8.579   8.615   2.667  1.6308  0.0027  0.4295
 9496SOL     OW39706   1.237   4.856   0.432 -0.2994 -0.0457 -0.4030
 9496SOL    HW139707   1.162   4.792   0.416 -0.1545 -0.4363  0.4428
 9496SOL    HW239708   1.281   4.835   0.520  0.5081  0.4617 -0.6743
 9497SOL     OW39709   3.912   2.802   3.607 -0.2323  0.6608 -0.2882
 9497SOL    HW139710   3.902   2.793   3.508  0.2811 -1.7415 -0.1395
 9497SOL    HW239711   3.821   2.797   3.650 -0.4139  1.2829 -0.5895
 9498SOL     OW39712   9.362   7.545   2.108  0.1897 -0.5806  0.0299
 9498SOL    HW139713   9.328   7.565   2.017  0.5405  1.4448  0.3073
 9498SOL    HW239714   9.418   7.462   2.106 -1.5591 -1.7531 -1.1560
 9499SOL     OW39715   8.734   2.820   2.093 -0.4349  0.6672  0.3770
 9499SOL    HW139716   8.755   2.776   2.006 -0.2369  1.1417  0.1813
 9499SOL    HW239717   8.728   2.751   2.165  0.7594  0.4167  0.2392
 9500SOL     OW39718   6.595   0.576   0.905  0.0734  0.3697 -0.7057
 9500SOL    HW139719   6.607   0.484   0.942  0.6067  1.2429  1.3656
 9500SOL    HW239720   6.684   0.611   0.874  0.1951  0.8658  0.1848
 9501SOL     OW39721   7.303   1.560   5.873 -0.2713 -0.1659  0.3706
 9501SOL    HW139722   7.309   1.598   5.965  0.0584  1.6618 -0.3822
 9501SOL    HW239723   7.213   1.519   5.859 -1.1865  1.7057  0.6875
 9502SOL     OW39724   2.959   8.033   6.082  0.2638  0.1386  0.9192
 9502SOL    HW139725   2.936   8.062   5.988  0.6328  0.9246  1.0689
 9502SOL    HW239726   3.022   8.098   6.122 -0.6066  0.3020  2.0461
 9503SOL     OW39727   9.155   9.379   4.893 -0.6136 -0.5612 -0.0602
 9503SOL    HW139728   9.062   9.355   4.865 -0.4310 -1.0927 -0.2165
 9503SOL    HW239729   9.155   9.470   4.936 -0.6666  0.9830 -3.2062
 9504SOL     OW39730   0.777   8.237   1.869 -0.1192 -0.3690 -0.1429
 9504SOL    HW139731   0.744   8.154   1.915 -0.0896 -0.6206 -0.5722
 9504SOL    HW239732   0.757   8.231   1.771  0.9333 -0.3928 -0.3684
 9505SOL     OW39733   9.359   3.968   3.301  0.1015 -0.4709  0.1127
 9505SOL    HW139734   9.304   3.967   3.384  0.3879 -0.1268  0.3101
 9505SOL    HW239735   9.359   3.878   3.259  0.7308 -0.8819  0.9933
 9506SOL     OW39736   8.141   9.640   6.001  0.0778 -0.5695 -0.5074
 9506SOL    HW139737   8.065   9.615   6.061 -0.1092 -0.2519 -0.6141
 9506SOL    HW239738   8.217   9.674   6.056 -0.1893 -0.0308 -0.4703
 9507SOL     OW39739   7.411   4.641   4.840  0.0275 -0.2560 -0.3982
 9507SOL    HW139740   7.485   4.654   4.774  0.5893 -1.1436  0.0408
 9507SOL    HW239741   7.396   4.543   4.855 -0.6958 -0.0772  0.1246
 9508SOL     OW39742   1.084   8.927   1.012 -0.3041 -0.1651  0.4575
 9508SOL    HW139743   1.138   9.005   1.042 -1.6603 -0.1535  3.0462
 9508SOL    HW239744   0.989   8.938   1.044 -1.3697 -1.1529 -2.2170
 9509SOL     OW39745   2.905   9.461   3.340  0.2627  0.0685  0.3269
 9509SOL    HW139746   2.856   9.384   3.381  0.4118 -0.2938 -0.1741
 9509SOL    HW239747   2.968   9.427   3.270  0.1217  0.6670 -0.0963
 9510SOL     OW39748   2.338   0.557   2.266  0.0831 -0.1713 -0.3266
 9510SOL    HW139749   2.256   0.599   2.305  0.9322 -0.6866  2.1220
 9510SOL    HW239750   2.397   0.628   2.229  0.1264  0.5554  1.0884
 9511SOL     OW39751   8.770   9.724   3.454 -0.0774  0.3831 -0.0101
 9511SOL    HW139752   8.725   9.637   3.470  0.3162  0.0253 -0.8228
 9511SOL    HW239753   8.832   9.744   3.530 -0.2882  0.0347  0.2539
 9512SOL     OW39754   1.629   4.818   6.439  0.7034 -0.0427  0.4103
 9512SOL    HW139755   1.680   4.803   6.354 -0.3087 -1.5278  0.0391
 9512SOL    HW239756   1.691   4.848   6.511  1.8580 -0.4019 -0.4255
 9513SOL     OW39757   9.106   3.065   4.386 -0.2502  0.1257  0.9914
 9513SOL    HW139758   9.125   3.081   4.482 -2.4075 -1.7333  1.7740
 9513SOL    HW239759   9.069   3.148   4.345 -0.6545  0.5110  2.1232
 9514SOL     OW39760   7.742   6.055   4.618  0.5473 -0.2111 -0.0542
 9514SOL    HW139761   7.789   5.970   4.593 -0.1194 -0.3051 -1.0329
 9514SOL    HW239762   7.768   6.127   4.553 -2.8343 -0.9823 -2.3950
 9515SOL     OW39763   7.621   4.047   3.529  0.1356 -0.2894  0.4355
 9515SOL    HW139764   7.646   3.950   3.526 -0.2437 -0.3560 -0.8817
 9515SOL    HW239765   7.652   4.092   3.445  1.5494  1.0466  1.6538
 9516SOL     OW39766   2.594   3.839   3.974 -0.0926  0.1757  0.3452
 9516SOL    HW139767   2.656   3.773   4.017  0.8016 -0.5521 -1.9892
 9516SOL    HW239768   2.533   3.792   3.911 -1.2694  1.2445  0.6742
 9517SOL     OW39769   5.527   7.343   2.066  0.4297  0.3900  0.0275
 9517SOL    HW139770   5.519   7.439   2.038  0.2222  0.4899  0.4181
 9517SOL    HW239771   5.590   7.336   2.143  1.5222  0.0333 -0.8791
 9518SOL     OW39772   0.764   4.771   1.668 -0.7185 -0.1568  0.8382
 9518SOL    HW139773   0.719   4.767   1.579  0.5175  0.8491  0.1618
 9518SOL    HW239774   0.861   4.794   1.656 -0.2129 -1.3847  2.3371
 9519SOL     OW39775   0.117   6.050   4.009  0.2848 -0.6827 -0.0681
 9519SOL    HW139776   0.215   6.045   4.028  0.4101  1.6401  0.0388
 9519SOL    HW239777   0.097   5.999   3.924  1.6864 -0.5617 -0.4820
 9520SOL     OW39778   3.490   2.809   1.608 -0.1723 -0.0823 -0.4360
 9520SOL    HW139779   3.466   2.776   1.699 -1.6923 -0.5226 -0.9700
 9520SOL    HW239780   3.503   2.730   1.547  2.1348  0.1665 -0.3062
 9521SOL     OW39781   8.114   3.092   2.773  0.9216 -0.1659 -0.9919
 9521SOL    HW139782   8.188   3.031   2.746  1.2876 -0.3059  0.2782
 9521SOL    HW239783   8.146   3.155   2.844  0.2448  0.7968 -1.5085
 9522SOL     OW39784   5.540   0.482   2.369 -0.2239  0.1816  0.5187
 9522SOL    HW139785   5.473   0.425   2.416 -0.2625 -1.3033 -1.2841
 9522SOL    HW239786   5.632   0.446   2.387 -0.1667  0.1819  0.2217
 9523SOL     OW39787   6.262   0.359   3.429  0.2530 -0.1395 -0.0276
 9523SOL    HW139788   6.280   0.264   3.453 -0.4573  0.2117  2.0395
 9523SOL    HW239789   6.173   0.386   3.466  1.3497  1.9111  1.2111
 9524SOL     OW39790   0.471   1.546   4.509  0.2298 -0.6499 -0.1783
 9524SOL    HW139791   0.525   1.591   4.580 -1.2052  0.9395 -0.0540
 9524SOL    HW239792   0.531   1.493   4.450  1.7059 -0.2944  0.9749
 9525SOL     OW39793   9.104   4.500   0.189  0.3176 -0.8363  0.2793
 9525SOL    HW139794   9.113   4.598   0.173  1.4137 -0.5682  2.3900
 9525SOL    HW239795   9.067   4.484   0.281 -1.6289 -2.3742 -0.7390
 9526SOL     OW39796   9.501   0.689   6.337 -0.1689 -0.0428 -0.0932
 9526SOL    HW139797   9.464   0.747   6.265  0.2589 -0.1352 -0.3853
 9526SOL    HW239798   9.427   0.662   6.399 -0.7015 -0.6828 -0.9947
 9527SOL     OW39799   3.972   0.108   3.290  0.2994  0.6038  0.2953
 9527SOL    HW139800   3.880   0.137   3.261  0.4202 -0.5077 -1.2717
 9527SOL    HW239801   3.998   0.026   3.240  2.3779  1.2164  0.3288
 9528SOL     OW39802   0.543   5.951   5.580 -0.8809 -0.9558  0.7614
 9528SOL    HW139803   0.573   5.867   5.533 -1.9187 -0.2496 -1.2140
 9528SOL    HW239804   0.616   5.983   5.640  1.0037 -1.2280 -1.3067
 9529SOL     OW39805   2.201   1.371   0.136  0.2858  0.6773  0.0030
 9529SOL    HW139806   2.143   1.364   0.217 -0.8746 -0.1025 -0.8815
 9529SOL    HW239807   2.258   1.289   0.128 -0.6464  0.0867 -0.7452
 9530SOL     OW39808   1.849   4.975   4.453 -0.0327 -0.4711  0.4772
 9530SOL    HW139809   1.930   4.963   4.510  0.4398  1.2641  0.1764
 9530SOL    HW239810   1.796   5.052   4.485 -0.2377 -0.0344 -0.8723
 9531SOL     OW39811   2.919   4.623   0.840  0.0956  0.2453  0.3120
 9531SOL    HW139812   2.966   4.583   0.762  1.1277 -0.6270  1.3550
 9531SOL    HW239813   2.822   4.597   0.838  0.3635 -0.7353 -0.0394
 9532SOL     OW39814   0.687   8.796   6.177  0.4186 -0.4546  0.1720
 9532SOL    HW139815   0.776   8.841   6.182  0.4284 -0.4943  0.3330
 9532SOL    HW239816   0.675   8.756   6.086  0.7776 -0.8893  0.3174
 9533SOL     OW39817   1.886   2.489   1.074 -0.5932  0.2614 -0.2823
 9533SOL    HW139818   1.802   2.448   1.038  0.1033 -1.0897 -0.3908
 9533SOL    HW239819   1.924   2.430   1.145 -0.5857  1.6600  0.9098
 9534SOL     OW39820   0.586   9.414   6.293 -0.2682 -0.2681  0.2394
 9534SOL    HW139821   0.632   9.328   6.270  0.2721  0.0504  0.1298
 9534SOL    HW239822   0.595   9.432   6.391  3.5430  1.9318 -0.4294
 9535SOL     OW39823   0.809   6.387   4.362 -0.3397  0.0995 -0.3389
 9535SOL    HW139824   0.876   6.323   4.400  0.4375  1.0290 -0.1085
 9535SOL    HW239825   0.794   6.366   4.266 -0.5277 -0.7887 -0.1188
 9536SOL     OW39826   4.843   9.005   3.814 -0.0126 -0.0356 -0.5985
 9536SOL    HW139827   4.926   8.999   3.869 -0.6945  0.4772  0.5112
 9536SOL    HW239828   4.791   8.920   3.822 -0.7330  0.5035  0.5757
 9537SOL     OW39829   5.367   9.836   1.248 -0.2650 -0.0778  0.3660
 9537SOL    HW139830   5.364   9.739   1.275 -0.9768  0.4491  2.2744
 9537SOL    HW239831   5.304   9.851   1.172 -0.5121 -1.0198  0.3728
 9538SOL     OW39832   1.011   3.612   3.370 -0.1867 -0.2378  0.1817
 9538SOL    HW139833   1.062   3.637   3.288  0.1216  1.4828  0.8599
 9538SOL    HW239834   1.012   3.513   3.381  2.7030 -0.2886 -0.0350
 9539SOL     OW39835   7.085   3.850   1.221  0.2211  0.2361 -0.6480
 9539SOL    HW139836   7.014   3.921   1.218 -1.2364 -1.2555 -2.7144
 9539SOL    HW239837   7.155   3.870   1.152 -0.6081 -0.7378 -1.7863
 9540SOL     OW39838   4.122   0.466   2.651 -0.5763  0.3261  0.6718
 9540SOL    HW139839   4.166   0.423   2.572 -0.5104 -0.9554  1.4016
 9540SOL    HW239840   4.091   0.396   2.714  1.6802  1.3800  3.0580
 9541SOL     OW39841   4.791   0.092   3.154  0.0588 -0.3454 -0.3767
 9541SOL    HW139842   4.831   0.062   3.067 -0.9554  1.0416 -1.3529
 9541SOL    HW239843   4.780   0.191   3.152 -1.9321 -0.5441  0.5128
 9542SOL     OW39844   0.231   9.140   3.900  1.0450 -0.2214 -0.3510
 9542SOL    HW139845   0.245   9.192   3.984 -1.4383  0.7017 -0.4882
 9542SOL    HW239846   0.137   9.105   3.896  0.5895  1.1795 -3.5209
 9543SOL     OW39847   1.311   6.853   3.524  0.0914  0.7603 -0.3971
 9543SOL    HW139848   1.284   6.949   3.521 -3.1931 -0.0153  1.3840
 9543SOL    HW239849   1.244   6.798   3.473  1.2140 -0.7200 -0.3144
 9544SOL     OW39850   8.905   7.274   5.709 -0.4535  0.3121  0.4946
 9544SOL    HW139851   8.830   7.212   5.686  0.6524 -1.4402  1.4226
 9544SOL    HW239852   8.992   7.233   5.681  0.3330  1.2830  1.4482
 9545SOL     OW39853   0.518   1.475   3.293  0.0203  0.2893 -0.0290
 9545SOL    HW139854   0.441   1.423   3.331  0.2218  0.1874  0.2432
 9545SOL    HW239855   0.486   1.565   3.264  0.1640  0.9473  1.7958
 9546SOL     OW39856   9.306   7.512   6.263 -0.1812  0.5730 -0.3829
 9546SOL    HW139857   9.377   7.443   6.277  0.8524  1.0844 -2.8046
 9546SOL    HW239858   9.333   7.597   6.308 -0.6606 -0.0817  1.1729
 9547SOL     OW39859   5.737   9.122   4.626  0.1591  0.4470 -0.1235
 9547SOL    HW139860   5.743   9.137   4.725  0.1851 -0.5752  0.0420
 9547SOL    HW239861   5.659   9.173   4.590  0.0575  0.7092  0.4512
 9548SOL     OW39862   0.032   1.809   2.072 -0.4803  0.1593  0.4734
 9548SOL    HW139863  -0.040   1.745   2.100 -1.4843  1.1820  0.2759
 9548SOL    HW239864   0.047   1.876   2.145  1.0265 -0.6589  0.9520
 9549SOL     OW39865   9.021   1.666   1.322 -0.1443  0.4079 -0.0899
 9549SOL    HW139866   9.010   1.712   1.233  1.1108  1.8145  0.4471
 9549SOL    HW239867   8.934   1.666   1.371 -0.9287 -0.6779 -1.4495
 9550SOL     OW39868   6.001   0.467   3.477  0.6031 -0.1867  0.1173
 9550SOL    HW139869   5.987   0.552   3.425 -0.9568  0.2572  1.2052
 9550SOL    HW239870   5.961   0.477   3.568  1.0522 -1.8490  0.5133
 9551SOL     OW39871   9.318   5.914   0.514  0.1851  0.1860 -0.5268
 9551SOL    HW139872   9.306   5.995   0.572 -1.3929 -0.1188 -0.4010
 9551SOL    HW239873   9.289   5.832   0.564 -0.7049 -0.1429 -1.5418
 9552SOL     OW39874   8.411   9.537   6.478  0.4920  0.0039  0.2855
 9552SOL    HW139875   8.406   9.446   6.437 -0.0137  0.4001 -0.5217
 9552SOL    HW239876   8.343   9.544   6.551 -0.2585  0.1235 -0.4192
 9553SOL     OW39877   2.210   5.507   0.513  0.8500 -0.3402 -0.4322
 9553SOL    HW139878   2.150   5.439   0.469  1.2360 -1.2558  0.4288
 9553SOL    HW239879   2.272   5.545   0.446  2.1736 -2.5247 -0.5037
 9554SOL     OW39880   4.163   1.916   1.712 -0.7040 -0.1392  0.3676
 9554SOL    HW139881   4.129   2.002   1.674 -1.6487 -0.6245  0.0953
 9554SOL    HW239882   4.109   1.840   1.676  0.7719 -0.9512 -0.1709
 9555SOL     OW39883   1.572   8.285   2.911  0.5070  0.1333  0.0337
 9555SOL    HW139884   1.563   8.253   3.005  1.4994  1.4435  0.5902
 9555SOL    HW239885   1.668   8.291   2.886  0.3135  1.3214 -0.5142
 9556SOL     OW39886   0.264   6.815   4.626 -0.0953  0.1286 -0.1562
 9556SOL    HW139887   0.216   6.805   4.539 -0.9743 -1.8129  0.5103
 9556SOL    HW239888   0.197   6.820   4.700  0.6727  0.3949  0.5201
 9557SOL     OW39889   3.085   5.215   4.755 -0.0303  0.1986  0.1850
 9557SOL    HW139890   3.164   5.154   4.747  0.3218  0.3478  2.3637
 9557SOL    HW239891   3.001   5.163   4.737  0.4303 -0.3778 -0.3176
 9558SOL     OW39892   4.920   2.599   4.530 -0.0722 -0.5435  0.5547
 9558SOL    HW139893   4.949   2.561   4.442 -1.3775 -0.9512  0.3044
 9558SOL    HW239894   5.001   2.628   4.582  0.6446  1.2508 -1.4762
 9559SOL     OW39895   8.876   0.690   4.237 -0.1061  0.5054 -0.0954
 9559SOL    HW139896   8.827   0.777   4.242 -1.5137 -0.3056  0.5859
 9559SOL    HW239897   8.885   0.652   4.329  0.7730  0.0737 -0.3582
 9560SOL     OW39898   5.061   3.750   1.342  0.5188  0.6463  0.2867
 9560SOL    HW139899   5.064   3.756   1.442  1.4727  0.2779  0.2903
 9560SOL    HW239900   4.967   3.738   1.312  0.1124  1.6861  1.0866
 9561SOL     OW39901   7.871   5.290   6.014 -0.2627 -0.4945  0.4327
 9561SOL    HW139902   7.870   5.331   5.922  0.5354 -0.0904  0.6035
 9561SOL    HW239903   7.886   5.361   6.082 -0.0648 -0.9060  0.8184
 9562SOL     OW39904   0.476   4.376   5.555  0.0277 -0.1017 -0.3917
 9562SOL    HW139905   0.558   4.408   5.602 -0.0340  0.3217 -0.5641
 9562SOL    HW239906   0.459   4.433   5.475 -1.1456  0.6468  0.3601
 9563SOL     OW39907   9.253   2.354   5.066 -0.0673 -0.0167  0.0077
 9563SOL    HW139908   9.351   2.335   5.077 -0.1748  0.0785  1.1797
 9563SOL    HW239909   9.216   2.389   5.152 -1.5163 -1.7385  0.1177
 9564SOL     OW39910   5.850   2.658   4.062 -1.0037  0.2550 -0.0248
 9564SOL    HW139911   5.828   2.561   4.054 -0.0262 -0.1034  1.4327
 9564SOL    HW239912   5.941   2.669   4.102 -0.8249  1.7654 -0.7995
 9565SOL     OW39913   2.148   7.244   0.714  0.3907  0.6615  0.2052
 9565SOL    HW139914   2.192   7.321   0.761  1.4185 -0.4352  1.0692
 9565SOL    HW239915   2.199   7.223   0.630  1.8962 -0.9478  1.4734
 9566SOL     OW39916   2.101   5.401   5.128  0.0825 -0.7259 -0.2828
 9566SOL    HW139917   2.051   5.462   5.190  0.0450  0.7684 -1.7512
 9566SOL    HW239918   2.044   5.377   5.050  0.9543 -0.5960 -0.9768
 9567SOL     OW39919   9.860   7.323   6.449 -0.2065  0.1088  0.9561
 9567SOL    HW139920   9.958   7.341   6.458 -0.0016  0.8074 -2.0873
 9567SOL    HW239921   9.845   7.226   6.431 -0.0884  0.0371  1.2333
 9568SOL     OW39922   8.487   1.410   6.407  0.0376  0.3330  0.6453
 9568SOL    HW139923   8.439   1.333   6.448  0.7133  0.1934  1.1753
 9568SOL    HW239924   8.421   1.469   6.360 -0.3862 -1.0250 -0.5149
 9569SOL     OW39925   4.441   9.519   1.787  0.2098  0.8350  0.2657
 9569SOL    HW139926   4.366   9.521   1.852  1.4598 -1.1321  1.8164
 9569SOL    HW239927   4.411   9.475   1.702 -1.0934  2.3918 -0.1039
 9570SOL     OW39928   2.482   8.464   6.009  0.0430 -0.2998  0.3557
 9570SOL    HW139929   2.512   8.396   6.075  0.8995 -1.9542 -1.7040
 9570SOL    HW239930   2.550   8.537   6.003  0.4201 -0.6266  0.6196
 9571SOL     OW39931   8.430   4.798   3.224 -0.0542  0.5940  0.4291
 9571SOL    HW139932   8.404   4.787   3.128 -1.3302 -0.2419  0.8730
 9571SOL    HW239933   8.350   4.821   3.278  0.5207  0.2462  1.4409
 9572SOL     OW39934   0.976   7.012   2.606 -0.3697 -0.6600  0.5808
 9572SOL    HW139935   0.982   7.109   2.628 -1.8043 -0.7053  1.1945
 9572SOL    HW239936   0.905   6.997   2.538  1.0300 -1.0847 -0.8362
 9573SOL     OW39937   6.706   9.240   3.731  0.2032  0.1422 -0.4822
 9573SOL    HW139938   6.773   9.281   3.669  1.2214 -1.5477 -0.5282
 9573SOL    HW239939   6.635   9.194   3.677 -1.2554  2.2797 -0.4418
 9574SOL     OW39940   0.054   9.330   2.657  0.1997  0.7465  0.0431
 9574SOL    HW139941   0.094   9.263   2.595  0.1444 -0.0627  0.8655
 9574SOL    HW239942  -0.031   9.293   2.695  0.5144  1.0145  1.0121
 9575SOL     OW39943   8.821   4.962   0.187  0.2021  0.3800 -0.1582
 9575SOL    HW139944   8.867   5.044   0.153 -1.0660  1.3341  0.3361
 9575SOL    HW239945   8.835   4.955   0.286  0.4477 -0.0924 -0.2280
 9576SOL     OW39946   2.578   5.364   3.861  0.1237  0.1694 -0.2836
 9576SOL    HW139947   2.674   5.374   3.838  0.5250 -1.7988  0.4146
 9576SOL    HW239948   2.569   5.347   3.959 -0.8524 -0.4797 -0.4770
 9577SOL     OW39949   3.668   7.403   0.580 -0.0533 -0.3060 -0.2896
 9577SOL    HW139950   3.597   7.387   0.648  0.8975  0.0066  0.7879
 9577SOL    HW239951   3.626   7.409   0.489 -1.3893 -0.1978  0.3187
 9578SOL     OW39952   7.986   1.702   0.338  0.1755  0.3246 -0.5050
 9578SOL    HW139953   8.030   1.614   0.323  1.3731  0.6706  0.8648
 9578SOL    HW239954   8.051   1.765   0.381 -1.1705  1.3595  0.0618
 9579SOL     OW39955   8.848   2.916   4.405 -0.5371 -0.0054  0.1242
 9579SOL    HW139956   8.926   2.968   4.370 -0.9427  1.0761  0.8107
 9579SOL    HW239957   8.776   2.914   4.336  0.1199 -1.0811 -0.5445
 9580SOL     OW39958   3.563   2.037   6.573 -0.0076 -0.4216  0.0151
 9580SOL    HW139959   3.530   2.026   6.479  0.8417 -0.4360 -0.2813
 9580SOL    HW239960   3.640   1.976   6.589  0.0200 -0.2261  0.6427
 9581SOL     OW39961   2.087   8.685   1.507 -0.0002 -0.3974 -0.0998
 9581SOL    HW139962   2.159   8.748   1.538  0.9312 -0.6813 -1.6769
 9581SOL    HW239963   2.022   8.735   1.450 -0.8669 -0.2283  1.0144
 9582SOL     OW39964   9.697   5.006   1.504  0.0657 -0.0907 -0.2393
 9582SOL    HW139965   9.601   5.004   1.478 -0.4626 -0.3903  1.6500
 9582SOL    HW239966   9.745   5.075   1.449 -1.7516  1.8072  0.4950
 9583SOL     OW39967   8.767   2.711   6.583 -0.6307 -0.8371 -0.3612
 9583SOL    HW139968   8.753   2.693   6.680 -0.4388 -0.9306 -0.3508
 9583SOL    HW239969   8.806   2.802   6.571 -0.5282 -0.8786 -0.3431
 9584SOL     OW39970   8.755   2.236   2.461  0.2459 -0.5601  0.6703
 9584SOL    HW139971   8.793   2.148   2.488  1.4692  0.3382  1.9733
 9584SOL    HW239972   8.744   2.238   2.361  0.2740 -2.1419  0.6217
 9585SOL     OW39973   8.649   1.638   1.962  0.1206 -0.1088 -0.2919
 9585SOL    HW139974   8.692   1.712   2.013  0.6042 -0.9089  0.4710
 9585SOL    HW239975   8.700   1.553   1.976 -0.7390 -0.7090 -0.7139
 9586SOL     OW39976   1.647   9.753   0.618  1.0073  0.2538  0.5937
 9586SOL    HW139977   1.651   9.680   0.550 -0.7327 -0.4795  1.2292
 9586SOL    HW239978   1.739   9.787   0.637  1.7220 -1.0003 -0.5424
 9587SOL     OW39979   9.928   5.800   0.622 -0.4022  0.2349 -0.1147
 9587SOL    HW139980   9.950   5.897   0.627 -1.2080  0.4130  0.0579
 9587SOL    HW239981   9.842   5.783   0.670 -1.3746 -0.2099 -1.9729
 9588SOL     OW39982   8.265   8.520   5.935  0.7910 -0.3532 -0.8436
 9588SOL    HW139983   8.225   8.597   5.985  0.0541 -0.5249 -1.1541
 9588SOL    HW239984   8.354   8.497   5.974  0.0572 -0.7350  0.6364
 9589SOL     OW39985   0.454   3.654   6.563  0.1268 -0.2107  0.1307
 9589SOL    HW139986   0.486   3.738   6.608  0.6583 -0.6034  0.4923
 9589SOL    HW239987   0.520   3.629   6.492  0.3819 -0.7632  0.5611
 9590SOL     OW39988   8.684   0.670   6.057  0.5223 -0.2292  0.4988
 9590SOL    HW139989   8.680   0.742   5.988 -1.0068 -2.2343 -1.6187
 9590SOL    HW239990   8.596   0.663   6.104  0.9727 -0.0770  1.3673
 9591SOL     OW39991   9.208   1.626   3.530 -0.8827 -0.2212  0.2264
 9591SOL    HW139992   9.270   1.692   3.573  0.5955 -2.2806  1.3809
 9591SOL    HW239993   9.137   1.600   3.596 -1.1746 -0.1237 -0.0532
 9592SOL     OW39994   9.110   1.877   0.758  0.5814  0.6611  0.7171
 9592SOL    HW139995   9.193   1.853   0.809 -0.8482 -3.2191  1.4146
 9592SOL    HW239996   9.118   1.844   0.664  0.0928  0.8319  0.6150
 9593SOL     OW39997   2.467   4.206   6.666 -0.4641  0.3397 -0.3993
 9593SOL    HW139998   2.501   4.297   6.691  0.5779 -0.5391  1.4901
 9593SOL    HW239999   2.384   4.185   6.717  0.1659 -0.3918  0.3319
 9594SOL     OW40000   1.973   6.956   0.377 -0.2209 -0.2857 -0.0183
 9594SOL    HW140001   2.073   6.953   0.376 -0.1778  0.7458 -2.7704
 9594SOL    HW240002   1.940   6.934   0.469  2.4424 -2.6063  0.4563
 9595SOL     OW40003   1.191   6.965   4.089 -0.4155  0.6996  0.2591
 9595SOL    HW140004   1.251   6.948   4.011 -1.4909 -0.3643 -0.3551
 9595SOL    HW240005   1.156   7.059   4.084 -1.4993  0.2369 -1.2841
 9596SOL     OW40006   3.702   7.250   3.684  0.3364  0.7667 -0.1400
 9596SOL    HW140007   3.651   7.320   3.634 -0.3574 -0.5521 -1.3080
 9596SOL    HW240008   3.705   7.274   3.781 -1.4400  1.5175 -0.2553
 9597SOL     OW40009   9.352   2.904   3.849  0.0356 -0.9009  0.0515
 9597SOL    HW140010   9.383   2.896   3.944  2.1117 -0.6675 -0.5816
 9597SOL    HW240011   9.365   2.815   3.804  0.0891 -0.7090 -0.3038
 9598SOL     OW40012   1.887   2.575   2.297 -0.1685 -0.1461 -0.2687
 9598SOL    HW140013   1.948   2.654   2.300 -0.2645 -0.1011  0.5409
 9598SOL    HW240014   1.855   2.561   2.203 -1.0074  1.4289 -0.2439
 9599SOL     OW40015   4.612   1.955   2.979 -0.4770  0.0172  0.7001
 9599SOL    HW140016   4.521   1.996   2.990 -1.1498 -1.1898 -0.2836
 9599SOL    HW240017   4.666   1.971   3.062 -0.2097  4.1489 -0.1458
 9600SOL     OW40018   9.040   5.690   5.600  0.5631 -0.3568 -0.1202
 9600SOL    HW140019   8.952   5.643   5.608 -0.1501  0.7921 -1.0260
 9600SOL    HW240020   9.036   5.775   5.653  0.2740  0.8846 -2.0724
 9601SOL     OW40021   1.748   9.765   4.493  0.4392  0.5098 -0.0065
 9601SOL    HW140022   1.658   9.809   4.491  1.4664  2.6923  0.1497
 9601SOL    HW240023   1.812   9.816   4.435  1.7000 -0.7414  0.2449
 9602SOL     OW40024   6.948   7.757   3.579 -0.2066  0.1909  0.2592
 9602SOL    HW140025   7.035   7.750   3.627  0.4894 -0.9595 -1.1406
 9602SOL    HW240026   6.955   7.821   3.503 -0.2606 -0.6579 -0.4832
 9603SOL     OW40027   8.539   0.912   5.714 -0.4762 -0.4119  0.1212
 9603SOL    HW140028   8.582   0.932   5.626 -0.3781  0.2584  0.3181
 9603SOL    HW240029   8.533   0.813   5.727 -0.9858 -0.5209 -0.8810
 9604SOL     OW40030   9.501   5.433   5.540  0.2519 -0.4853 -0.0687
 9604SOL    HW140031   9.563   5.497   5.586 -1.1905  1.8637 -1.2679
 9604SOL    HW240032   9.422   5.416   5.599 -0.4617  0.6680 -0.6722
 9605SOL     OW40033   3.881   1.782   3.806 -0.0616  0.3734 -0.1105
 9605SOL    HW140034   3.901   1.700   3.753  1.4508 -0.4948  1.7412
 9605SOL    HW240035   3.957   1.847   3.800 -1.6166  2.0772 -2.2795
 9606SOL     OW40036   4.057   0.466   5.893 -0.3784 -0.5295 -0.4166
 9606SOL    HW140037   4.104   0.398   5.836  2.2960  0.2167  0.8314
 9606SOL    HW240038   4.096   0.464   5.985 -0.6873  2.2542 -0.1944
 9607SOL     OW40039   9.664   0.359   1.069  0.1800  0.4990  0.0616
 9607SOL    HW140040   9.616   0.368   0.982  1.0356 -3.0527 -0.8838
 9607SOL    HW240041   9.762   0.346   1.052  0.2942 -0.6706  1.4868
 9608SOL     OW40042   2.896   4.138   1.408 -0.2699 -0.1607 -0.8152
 9608SOL    HW140043   2.988   4.099   1.401  0.0920  0.2672  1.3338
 9608SOL    HW240044   2.900   4.235   1.387 -0.0124  0.1040  0.4133
 9609SOL     OW40045   8.172   8.849   6.115 -0.4895  0.5353  0.2148
 9609SOL    HW140046   8.118   8.932   6.100 -0.2223  0.3717 -1.6860
 9609SOL    HW240047   8.112   8.775   6.145 -1.2927  0.4406 -1.5858
 9610SOL     OW40048   2.874   2.316   4.018 -0.0206 -0.0918  0.2193
 9610SOL    HW140049   2.954   2.277   4.066  0.1034  0.8595  0.7937
 9610SOL    HW240050   2.875   2.415   4.027  1.0304  0.2915 -3.3671
 9611SOL     OW40051   7.196   5.334   6.208 -0.0431  0.3212  0.7488
 9611SOL    HW140052   7.132   5.403   6.175 -0.2120 -0.1602  0.0640
 9611SOL    HW240053   7.287   5.353   6.171 -0.4470 -0.8198 -0.8522
 9612SOL     OW40054   7.635   2.757   5.851 -0.4901  0.3233 -0.1474
 9612SOL    HW140055   7.588   2.738   5.938  0.7390  2.1922  0.9679
 9612SOL    HW240056   7.593   2.703   5.778 -1.8237 -0.9716  1.5252
 9613SOL     OW40057   7.986   9.467   0.668 -0.1213  0.1658  0.5249
 9613SOL    HW140058   7.953   9.561   0.676 -0.5575  0.2371 -1.6493
 9613SOL    HW240059   7.909   9.405   0.657  0.2239 -0.2685  0.5252
 9614SOL     OW40060   6.138   8.579   5.345  0.2832 -0.1582 -0.5438
 9614SOL    HW140061   6.077   8.516   5.297  0.1277 -1.3904  1.2761
 9614SOL    HW240062   6.211   8.529   5.390  1.2060  1.1152 -0.5783
 9615SOL     OW40063   9.989   3.050   2.207  0.1189 -0.0916 -0.5196
 9615SOL    HW140064  10.027   2.965   2.242  1.6435  0.6087 -0.3927
 9615SOL    HW240065  10.032   3.127   2.254 -1.8876  0.7385  0.0146
 9616SOL     OW40066   2.411   1.297   5.737  0.4295  0.0104 -0.2562
 9616SOL    HW140067   2.372   1.318   5.826  0.4228  1.4032 -0.5745
 9616SOL    HW240068   2.363   1.219   5.696  0.0371 -0.2413  0.6762
 9617SOL     OW40069   8.956   0.727   3.453 -0.3226 -0.5001  0.0723
 9617SOL    HW140070   8.996   0.786   3.523  1.4787 -0.6989 -0.7592
 9617SOL    HW240071   8.900   0.656   3.496 -0.0454 -0.0087  1.2363
 9618SOL     OW40072   8.280   1.097   5.111  0.2716  0.2168  0.2755
 9618SOL    HW140073   8.283   1.020   5.046 -0.5945  0.7563 -0.4262
 9618SOL    HW240074   8.335   1.173   5.075  0.1177  0.3698  0.3616
 9619SOL     OW40075   1.641   4.487   0.841  0.0546 -0.1447  1.4667
 9619SOL    HW140076   1.724   4.533   0.809 -0.5275  0.2589  0.5230
 9619SOL    HW240077   1.650   4.388   0.827  0.2245 -0.0672  1.0280
 9620SOL     OW40078   8.830   6.769   1.334  0.3274  0.1708  0.2263
 9620SOL    HW140079   8.854   6.755   1.430 -0.0900 -0.5507  0.2321
 9620SOL    HW240080   8.908   6.744   1.277  0.0149 -1.0439  0.3032
 9621SOL     OW40081   0.547   3.536   6.003  0.2945 -0.1731  0.7296
 9621SOL    HW140082   0.642   3.510   5.981  0.3271  0.6544 -0.1573
 9621SOL    HW240083   0.545   3.631   6.033 -0.0725 -0.6173  2.1781
 9622SOL     OW40084   3.142   8.433   3.272  0.1321  0.0052 -0.1372
 9622SOL    HW140085   3.212   8.372   3.311  1.6946  0.8778 -1.4986
 9622SOL    HW240086   3.122   8.405   3.178 -0.9973  0.0550  0.0882
 9623SOL     OW40087   4.113   4.017   6.634 -0.4063  0.3475 -0.8510
 9623SOL    HW140088   4.029   4.058   6.598 -0.6171  2.1278  1.5161
 9623SOL    HW240089   4.183   4.088   6.644  0.1119 -0.3665  0.7957
 9624SOL     OW40090   9.921   3.311   0.110  0.0012 -0.6561 -1.0869
 9624SOL    HW140091   9.963   3.258   0.037  1.4297  0.5693 -1.1824
 9624SOL    HW240092   9.926   3.260   0.196  2.2121 -0.3105 -0.9828
 9625SOL     OW40093   4.646   8.833   1.890 -0.1119  0.8228 -0.0359
 9625SOL    HW140094   4.586   8.755   1.872  0.2839  0.3928  0.4879
 9625SOL    HW240095   4.592   8.917   1.892 -0.8148  0.3485  1.2089
 9626SOL     OW40096   9.629   3.316   3.454  0.2931 -0.3204  0.0010
 9626SOL    HW140097   9.564   3.343   3.525 -0.0503  0.7908 -0.7343
 9626SOL    HW240098   9.713   3.369   3.463  0.0353  0.2308 -0.7583
 9627SOL     OW40099   3.762   0.023   6.286  0.2605  0.3933 -0.1140
 9627SOL    HW140100   3.735   0.119   6.293 -0.4867  0.1776  0.1211
 9627SOL    HW240101   3.717  -0.019   6.207 -1.0409 -0.2647  0.9446
 9628SOL     OW40102   2.902   3.824   3.860 -0.3311  0.1702  0.1819
 9628SOL    HW140103   2.924   3.754   3.792 -1.2007  0.4428 -0.3696
 9628SOL    HW240104   2.865   3.905   3.815 -0.8568  0.3731  0.9698
 9629SOL     OW40105   7.373   0.723   5.897 -0.2892 -0.1247 -0.3782
 9629SOL    HW140106   7.314   0.795   5.860  0.2192 -0.5625 -2.0861
 9629SOL    HW240107   7.364   0.721   5.997 -0.8861  1.7837 -0.3718
 9630SOL     OW40108   1.758   0.712   4.412  0.0868  0.4155 -0.1516
 9630SOL    HW140109   1.731   0.787   4.352  0.5094  1.1328  0.5233
 9630SOL    HW240110   1.851   0.683   4.389  0.1888  0.5854  0.0296
 9631SOL     OW40111   2.908   7.486   0.438 -0.1901 -0.4021  0.0725
 9631SOL    HW140112   2.960   7.468   0.354 -1.6578 -3.0241 -0.3226
 9631SOL    HW240113   2.825   7.536   0.415 -0.7236 -1.3555 -0.0721
 9632SOL     OW40114   4.420   9.562   1.299  0.2334 -0.2355  0.1286
 9632SOL    HW140115   4.395   9.509   1.380 -1.5875  0.4700  0.0409
 9632SOL    HW240116   4.511   9.601   1.311 -0.8492  1.5827  2.7178
 9633SOL     OW40117   2.840   7.474   3.318 -0.3594 -0.2048 -0.3121
 9633SOL    HW140118   2.919   7.450   3.262 -0.4758 -0.3820 -0.3999
 9633SOL    HW240119   2.871   7.502   3.409 -0.2279 -0.7127 -0.1997
 9634SOL     OW40120   7.253   0.876   3.278  0.2409 -0.2020 -0.3456
 9634SOL    HW140121   7.298   0.788   3.263  0.4636  0.2521 -2.5653
 9634SOL    HW240122   7.155   0.861   3.290  0.4006 -0.8262  0.2151
 9635SOL     OW40123   0.638   6.691   0.599  0.1522 -0.0831 -0.6364
 9635SOL    HW140124   0.697   6.612   0.582  2.0904  0.9198  1.0554
 9635SOL    HW240125   0.661   6.764   0.535  0.4949  0.1730 -0.2250
 9636SOL     OW40126   0.366   4.112   4.471  0.9373  0.1324 -0.1365
 9636SOL    HW140127   0.380   4.071   4.561  0.8364 -0.4787 -0.4026
 9636SOL    HW240128   0.405   4.205   4.471  2.3863 -0.4629  0.0387
 9637SOL     OW40129   0.631   6.674   5.138  0.0222  0.5521 -0.1200
 9637SOL    HW140130   0.538   6.675   5.102 -0.5196  3.3534  1.1994
 9637SOL    HW240131   0.686   6.746   5.094  0.6029  1.0725  1.3946
 9638SOL     OW40132   2.615   0.997   3.776  0.2948 -0.0412  0.1127
 9638SOL    HW140133   2.543   0.974   3.711 -0.0690  0.2742  0.3998
 9638SOL    HW240134   2.703   0.998   3.729 -0.1567  1.8182 -0.7643
 9639SOL     OW40135   4.413   3.296   5.867  0.1636 -0.2293 -0.2939
 9639SOL    HW140136   4.393   3.207   5.908  2.3361 -0.5584  0.1134
 9639SOL    HW240137   4.380   3.369   5.927 -2.5733 -0.7257 -1.1187
 9640SOL     OW40138   1.103   3.777   2.412 -0.3797 -0.2198 -0.1200
 9640SOL    HW140139   1.105   3.771   2.312  1.2005 -0.1439 -0.0986
 9640SOL    HW240140   1.011   3.803   2.441 -0.4251  1.4690 -1.6593
 9641SOL     OW40141   2.050   7.753   1.095 -0.1336 -0.5997 -1.1315
 9641SOL    HW140142   2.044   7.683   1.166 -1.7720 -0.6268 -1.2779
 9641SOL    HW240143   2.093   7.835   1.133  0.7971 -1.2956 -0.6599
 9642SOL     OW40144   2.804   2.350   6.708 -0.5283 -0.4893 -0.2883
 9642SOL    HW140145   2.904   2.360   6.713 -0.8482  2.7228  0.9044
 9642SOL    HW240146   2.775   2.279   6.773  0.9949 -1.8726 -1.0718
 9643SOL     OW40147   8.975   4.462   0.440  0.2110  0.7087  0.0622
 9643SOL    HW140148   8.988   4.537   0.505 -0.6736  0.8340  0.1109
 9643SOL    HW240149   8.996   4.375   0.485  2.1788  0.9943 -0.2841
 9644SOL     OW40150   2.669   5.709   0.993 -0.0151 -0.2196  0.3671
 9644SOL    HW140151   2.597   5.746   1.051  0.5391 -0.2821  1.1072
 9644SOL    HW240152   2.651   5.731   0.897  0.7876  2.7872  0.8700
 9645SOL     OW40153   2.736   5.108   0.148  0.4116  0.3252  0.2467
 9645SOL    HW140154   2.770   5.083   0.058 -1.0279  1.3391 -0.6027
 9645SOL    HW240155   2.695   5.028   0.192 -1.2012  0.3974 -1.0831
 9646SOL     OW40156   4.159   2.773   0.738 -0.1516  0.0564 -0.2185
 9646SOL    HW140157   4.090   2.732   0.797  1.0892  1.1584  2.0866
 9646SOL    HW240158   4.235   2.709   0.726 -0.1246  0.0658 -0.1002
 9647SOL     OW40159   7.299   3.686   4.422 -0.0862 -0.6600 -0.2778
 9647SOL    HW140160   7.215   3.680   4.369  0.6939 -0.0128 -1.6261
 9647SOL    HW240161   7.337   3.594   4.434  1.1334 -0.6176 -3.2304
 9648SOL     OW40162   0.062   2.387   1.800 -0.4190 -0.2365 -0.0168
 9648SOL    HW140163   0.112   2.314   1.848 -1.3286 -0.0822  1.2015
 9648SOL    HW240164   0.064   2.470   1.856 -0.8203  0.1748 -0.6143
 9649SOL     OW40165   9.486   1.159   0.964  0.1558  0.5965  0.3507
 9649SOL    HW140166   9.517   1.064   0.968 -2.1649 -0.1666  1.8251
 9649SOL    HW240167   9.503   1.203   1.052 -1.3011  0.6405  0.6394
 9650SOL     OW40168   7.038   4.170   0.131  0.3390 -0.4208 -1.0519
 9650SOL    HW140169   7.117   4.146   0.188  0.4130 -0.9185 -1.3624
 9650SOL    HW240170   6.971   4.096   0.132  1.1496 -1.2345 -3.0289
 9651SOL     OW40171   0.566   1.022   1.622 -0.5904 -0.4338 -0.7862
 9651SOL    HW140172   0.502   0.945   1.613 -0.5225 -0.3602 -1.9427
 9651SOL    HW240173   0.572   1.071   1.535 -0.4491  0.7461 -0.1225
 9652SOL     OW40174   0.169   6.442   6.459 -0.4487 -0.3617  0.5476
 9652SOL    HW140175   0.207   6.372   6.399 -0.2499 -0.9730  1.3817
 9652SOL    HW240176   0.123   6.398   6.537 -3.0978  0.3389 -0.5622
 9653SOL     OW40177   3.153   0.415   1.204 -0.2787 -0.1110 -0.0098
 9653SOL    HW140178   3.071   0.455   1.162 -0.3437  0.9788  1.1421
 9653SOL    HW240179   3.233   0.441   1.150 -0.5334 -0.0494 -0.3643
 9654SOL     OW40180   7.014   8.142   4.975 -0.0408 -0.0379 -0.8497
 9654SOL    HW140181   7.048   8.180   4.890 -0.3998  3.3857  0.4662
 9654SOL    HW240182   6.929   8.187   5.001  0.7222 -0.0821  1.9521
 9655SOL     OW40183   8.310   5.374   6.539  0.5016 -0.5403 -0.2972
 9655SOL    HW140184   8.407   5.387   6.522  0.6308  1.0863  1.4513
 9655SOL    HW240185   8.298   5.318   6.621 -0.0017  0.7378  0.5206
 9656SOL     OW40186   8.569   3.052   0.323 -0.6197  0.2662 -0.2012
 9656SOL    HW140187   8.557   3.114   0.246 -2.0396 -0.0850 -0.2766
 9656SOL    HW240188   8.665   3.053   0.353 -0.5987  2.3314 -0.3277
 9657SOL     OW40189   1.951   3.050   0.832  0.1988 -0.3454 -0.4613
 9657SOL    HW140190   1.978   2.955   0.849 -0.4910 -0.4784 -0.0923
 9657SOL    HW240191   1.962   3.103   0.915 -1.2426 -0.5387 -0.1280
 9658SOL     OW40192   1.017   5.391   1.498 -0.0191 -0.3637 -0.4370
 9658SOL    HW140193   1.077   5.468   1.480 -0.2999 -0.1902 -0.6217
 9658SOL    HW240194   0.946   5.418   1.563  0.2054 -0.6181 -0.0811
 9659SOL     OW40195   3.604   7.283   3.292 -0.0874 -0.8049  0.6137
 9659SOL    HW140196   3.528   7.310   3.233  0.5914 -2.1245 -0.9049
 9659SOL    HW240197   3.593   7.187   3.318  1.2664 -1.1136  0.0567
 9660SOL     OW40198   5.692   0.790   5.568  0.0031 -0.0665 -0.0068
 9660SOL    HW140199   5.765   0.737   5.611  0.5339 -1.2262 -2.3057
 9660SOL    HW240200   5.724   0.884   5.552  1.5591 -0.9957 -2.4468
 9661SOL     OW40201   4.118   3.428   3.845 -0.1487  0.0031  0.6595
 9661SOL    HW140202   4.136   3.329   3.850 -0.8993 -0.1898 -0.2522
 9661SOL    HW240203   4.151   3.472   3.928  1.6249 -0.7881  0.4038
 9662SOL     OW40204   8.879   1.505   0.237 -0.1037 -0.1020 -0.0596
 9662SOL    HW140205   8.969   1.492   0.193  0.2382 -0.3338  0.7031
 9662SOL    HW240206   8.810   1.454   0.187  0.5303 -1.5421  0.5122
 9663SOL     OW40207   1.249   6.969   5.294  0.2217 -0.4568  0.1221
 9663SOL    HW140208   1.198   6.888   5.326  0.4606 -0.7479 -0.2276
 9663SOL    HW240209   1.226   6.987   5.198 -0.4330  0.3675  0.4290
 9664SOL     OW40210   4.266   1.630   2.584  0.1528  0.4199 -0.1782
 9664SOL    HW140211   4.280   1.639   2.485  1.8649  0.7785  0.0815
 9664SOL    HW240212   4.301   1.712   2.630  1.2769 -0.6637  0.9088
 9665SOL     OW40213   3.659   9.783   4.992 -0.5618 -0.2540 -0.3896
 9665SOL    HW140214   3.746   9.825   5.018 -0.0782 -0.2257 -1.9631
 9665SOL    HW240215   3.676   9.694   4.951 -1.2405 -0.1168 -0.9882
 9666SOL     OW40216   1.754   3.602   5.619 -0.6331 -0.3380 -0.2171
 9666SOL    HW140217   1.757   3.700   5.597  1.3939  0.1868  2.1112
 9666SOL    HW240218   1.728   3.591   5.715 -2.6625 -2.1948 -0.9671
 9667SOL     OW40219   7.923   4.084   5.668 -0.4412  0.7447  0.5565
 9667SOL    HW140220   7.990   4.039   5.609 -1.0168 -3.0630  2.6699
 9667SOL    HW240221   7.960   4.092   5.760 -2.7007 -1.0770  1.6614
 9668SOL     OW40222   0.159   2.154   1.364 -0.7211 -0.2647 -0.2130
 9668SOL    HW140223   0.150   2.237   1.309 -0.6100 -0.1326 -0.0325
 9668SOL    HW240224   0.210   2.175   1.447  0.7514 -0.8710 -0.9387
 9669SOL     OW40225   0.719   7.198   4.306  0.1649  0.2553  0.2519
 9669SOL    HW140226   0.744   7.109   4.344 -0.6762 -0.1523 -0.1310
 9669SOL    HW240227   0.641   7.235   4.357 -1.1337 -0.4068 -1.1966
 9670SOL     OW40228   0.654   6.757   0.225  0.0725 -0.1288  0.0378
 9670SOL    HW140229   0.665   6.823   0.151 -1.1668 -0.2125 -0.2354
 9670SOL    HW240230   0.690   6.795   0.310 -1.6358  1.3548  0.1229
 9671SOL     OW40231   2.900   5.503   4.323  0.5764 -0.2152 -0.0875
 9671SOL    HW140232   2.934   5.505   4.417 -1.1439  0.5236  0.5432
 9671SOL    HW240233   2.937   5.581   4.272  2.2543 -1.1445 -0.2972
 9672SOL     OW40234   3.201   8.855   5.113  0.1045  0.2136  0.4021
 9672SOL    HW140235   3.143   8.934   5.137 -1.7412 -1.1321  0.4978
 9672SOL    HW240236   3.232   8.865   5.019 -1.1508  0.4659 -0.0018
 9673SOL     OW40237   8.607   6.864   3.353 -0.2549 -0.2092 -0.0717
 9673SOL    HW140238   8.542   6.789   3.349 -1.2755  0.6306  0.4791
 9673SOL    HW240239   8.667   6.861   3.273 -0.7937 -1.1399 -0.4424
 9674SOL     OW40240   9.271   5.568   5.331 -0.2305 -0.1409  0.4273
 9674SOL    HW140241   9.202   5.519   5.384 -1.0764  0.3835 -0.1827
 9674SOL    HW240242   9.299   5.650   5.380 -0.9746  0.3167  0.0928
 9675SOL     OW40243   8.264   5.345   0.353  0.2709 -0.1680 -0.0574
 9675SOL    HW140244   8.283   5.379   0.445 -0.5344  0.2051 -0.0299
 9675SOL    HW240245   8.320   5.395   0.287  0.2790  0.1021  0.1524
 9676SOL     OW40246   1.443   2.126   1.574  0.2731 -0.3017 -0.1424
 9676SOL    HW140247   1.358   2.180   1.575 -0.3019 -1.1678 -0.8995
 9676SOL    HW240248   1.501   2.156   1.498  1.2567  1.2051  1.1947
 9677SOL     OW40249   3.675   1.235   3.581  0.5007  0.4261 -0.0688
 9677SOL    HW140250   3.688   1.320   3.529 -0.3881  0.0768 -0.8664
 9677SOL    HW240251   3.650   1.161   3.519  0.6910 -0.2937  0.7011
 9678SOL     OW40252   8.481   4.181   1.650 -0.5870  0.2793 -0.1703
 9678SOL    HW140253   8.543   4.113   1.690 -0.0208  0.5337 -0.6109
 9678SOL    HW240254   8.392   4.139   1.634 -1.2730  0.5509  2.6741
 9679SOL     OW40255   8.228   3.522   2.380 -0.1452 -0.4923  0.0406
 9679SOL    HW140256   8.312   3.513   2.434 -0.8447 -0.2305  1.1756
 9679SOL    HW240257   8.149   3.506   2.438 -0.9226  0.1049 -0.8390
 9680SOL     OW40258   4.883   5.831   2.627 -0.5816  0.4158  0.1640
 9680SOL    HW140259   4.871   5.736   2.599  0.3776  0.3966 -0.1975
 9680SOL    HW240260   4.837   5.891   2.562  0.3955  0.2923 -0.6475
 9681SOL     OW40261   1.964   8.669   3.893  0.1214  0.1428 -0.2234
 9681SOL    HW140262   2.062   8.673   3.875  0.2244  1.3455  0.5684
 9681SOL    HW240263   1.915   8.657   3.807  0.7851  2.5747 -0.9679
 9682SOL     OW40264   6.794   2.163   3.153 -0.2146  0.1397  0.3293
 9682SOL    HW140265   6.844   2.221   3.216 -1.1557  0.1819  1.0479
 9682SOL    HW240266   6.858   2.119   3.090  0.6113  1.0472  0.5224
 9683SOL     OW40267   4.279   1.021   4.575  0.2369  0.3455  0.4346
 9683SOL    HW140268   4.200   0.961   4.562  0.1770  0.1994  1.4475
 9683SOL    HW240269   4.251   1.116   4.566  0.2220  0.2439 -0.6142
 9684SOL     OW40270   1.908   1.082   4.420  0.3933 -0.2151 -0.3260
 9684SOL    HW140271   1.825   1.030   4.400  0.3219 -0.0346 -0.5124
 9684SOL    HW240272   1.953   1.044   4.500 -1.1634  1.1967  1.2566
 9685SOL     OW40273   1.757   1.261   1.185  0.0468  0.1041 -0.0271
 9685SOL    HW140274   1.663   1.246   1.216  0.1262 -1.1114 -0.3780
 9685SOL    HW240275   1.808   1.175   1.190  0.3515  0.1181 -2.5780
 9686SOL     OW40276   4.683   2.251   3.360 -0.2699 -0.1722 -0.2976
 9686SOL    HW140277   4.707   2.174   3.419 -0.4002  0.3634  0.4661
 9686SOL    HW240278   4.662   2.218   3.268  0.3821 -0.9666 -0.1658
 9687SOL     OW40279   1.087   0.116   2.781  0.2187 -0.5145 -0.2718
 9687SOL    HW140280   1.156   0.093   2.850  0.1877 -1.0388 -0.4131
 9687SOL    HW240281   1.099   0.057   2.701 -0.0097 -0.1920 -0.5469
 9688SOL     OW40282   0.611   9.781   1.184 -0.1919 -0.1728 -0.1973
 9688SOL    HW140283   0.644   9.697   1.229 -1.8739 -1.1449 -0.7542
 9688SOL    HW240284   0.597   9.763   1.087 -1.5425  0.4850 -0.1218
 9689SOL     OW40285   2.288   4.219   6.451  0.6561  0.2593 -0.0523
 9689SOL    HW140286   2.349   4.223   6.530  0.9542 -0.2557 -0.2541
 9689SOL    HW240287   2.200   4.262   6.474 -0.2166 -2.1966  1.4350
 9690SOL     OW40288   1.292   0.038   4.990  0.4871  0.2244  0.3815
 9690SOL    HW140289   1.218   0.095   4.954 -1.0289  0.0526  3.1498
 9690SOL    HW240290   1.303  -0.042   4.931  0.5575  1.7595 -1.7657
 9691SOL     OW40291   0.236   0.853   2.957  0.3069  0.3527  0.2527
 9691SOL    HW140292   0.244   0.952   2.945  0.6903  0.2552 -0.3581
 9691SOL    HW240293   0.194   0.813   2.875 -0.2114  0.0522  0.6566
 9692SOL     OW40294   9.112   4.368   3.249 -0.0060 -0.0452  0.2519
 9692SOL    HW140295   9.069   4.457   3.260  0.2407 -0.0361  1.1260
 9692SOL    HW240296   9.045   4.296   3.268 -0.2677 -0.0533 -0.6833
 9693SOL     OW40297   1.689   2.175   1.187  0.2224  0.2635  0.2505
 9693SOL    HW140298   1.675   2.253   1.126 -0.4641  1.9176  2.4935
 9693SOL    HW240299   1.659   2.198   1.279  0.2100 -2.5889  1.0142
 9694SOL     OW40300   0.166   6.663   0.975 -0.4495  0.0030  0.1747
 9694SOL    HW140301   0.262   6.663   1.002 -0.5997  0.7845  0.7287
 9694SOL    HW240302   0.109   6.687   1.054 -1.1394 -0.9162 -0.0254
 9695SOL     OW40303   7.182   4.212   0.754  0.5579 -0.5876 -0.0669
 9695SOL    HW140304   7.093   4.187   0.792  0.5100  1.2755  1.1174
 9695SOL    HW240305   7.245   4.135   0.763 -0.1631 -0.9990  1.6062
 9696SOL     OW40306   2.463   3.588   2.892  0.5373 -0.2713  0.4675
 9696SOL    HW140307   2.436   3.682   2.911  2.5740 -0.0570  2.4707
 9696SOL    HW240308   2.397   3.547   2.830 -1.1183  2.0392  0.6243
 9697SOL     OW40309   8.144   0.239   0.083  0.0413  0.8436  0.0370
 9697SOL    HW140310   8.112   0.264   0.174  0.8783 -0.5504  0.7396
 9697SOL    HW240311   8.244   0.238   0.081  0.0420 -0.8492 -0.3678
 9698SOL     OW40312   8.073   1.727   4.969 -0.0112 -0.3302 -0.2789
 9698SOL    HW140313   8.157   1.715   5.022 -0.0219 -1.4147 -0.5107
 9698SOL    HW240314   8.056   1.646   4.914  0.0401  0.7904 -2.0016
 9699SOL     OW40315   5.544   0.041   3.826 -0.2213  0.7875  0.2131
 9699SOL    HW140316   5.644   0.034   3.821 -0.3011 -0.5768  0.2987
 9699SOL    HW240317   5.504  -0.042   3.789 -1.3461  1.5362 -0.2666
 9700SOL     OW40318   0.222   3.096   2.960 -0.1297 -0.3106 -0.1617
 9700SOL    HW140319   0.233   3.133   3.052  0.0649  0.4497 -0.4868
 9700SOL    HW240320   0.298   3.033   2.940  0.7421  0.8078 -0.4191
 9701SOL     OW40321   2.095   3.741   0.157  0.6316  0.4096  0.1074
 9701SOL    HW140322   2.161   3.705   0.224  1.0773  1.1788  0.0806
 9701SOL    HW240323   2.015   3.776   0.205 -0.5040 -1.9834  0.0686
 9702SOL     OW40324   4.521   9.907   4.445 -0.0260  0.7901  0.4676
 9702SOL    HW140325   4.620   9.909   4.453  0.1124 -0.6992 -0.7540
 9702SOL    HW240326   4.493   9.959   4.364 -0.1975  0.8041  0.5358
 9703SOL     OW40327   9.347   5.339   0.244  0.1875 -0.1540 -0.2456
 9703SOL    HW140328   9.357   5.250   0.201  1.4289 -0.8110  1.4088
 9703SOL    HW240329   9.326   5.328   0.341  0.6473  1.3529  0.0404
 9704SOL     OW40330   0.848   9.825   2.921  0.8247  0.2975 -0.2583
 9704SOL    HW140331   0.810   9.744   2.966 -0.7742  0.1912 -1.7193
 9704SOL    HW240332   0.947   9.827   2.934  0.8898 -1.8790 -0.1266
 9705SOL     OW40333   8.779   8.286   3.023  0.2614 -0.5266  0.2304
 9705SOL    HW140334   8.770   8.318   3.117  0.5345  1.8955 -0.5444
 9705SOL    HW240335   8.690   8.291   2.977 -0.1221 -2.7759  0.6466
 9706SOL     OW40336   8.167   2.479   2.544  0.2506 -0.1874 -0.3510
 9706SOL    HW140337   8.198   2.487   2.449 -2.9083 -1.1404 -1.5139
 9706SOL    HW240338   8.142   2.384   2.563  0.4971  0.0618  1.3547
 9707SOL     OW40339   3.313   5.889   0.728  0.4722 -0.2981  0.0808
 9707SOL    HW140340   3.279   5.911   0.819  1.9694  2.0131  0.1211
 9707SOL    HW240341   3.410   5.864   0.735  0.9404  1.1606 -1.0156
 9708SOL     OW40342   1.555   3.943   6.445 -0.3177  0.3476 -0.7394
 9708SOL    HW140343   1.589   3.980   6.532  0.2745 -1.6654 -0.0675
 9708SOL    HW240344   1.626   3.952   6.375  1.3173 -2.7665  0.3632
 9709SOL     OW40345   8.895   9.184   6.339 -0.1257 -0.4141 -0.0422
 9709SOL    HW140346   8.904   9.090   6.373 -3.1019 -1.1718 -1.1849
 9709SOL    HW240347   8.929   9.189   6.245 -0.9007 -0.5953 -0.3346
 9710SOL     OW40348   4.748   9.742   2.861  0.6333  0.4559 -0.1934
 9710SOL    HW140349   4.712   9.651   2.841  0.9413  0.1728  0.5271
 9710SOL    HW240350   4.674   9.809   2.852 -0.0925 -0.1265  1.2908
 9711SOL     OW40351   0.454   7.029   2.865  0.2159 -0.0511 -0.2538
 9711SOL    HW140352   0.419   7.013   2.958  0.3365  1.2994  0.0356
 9711SOL    HW240353   0.540   7.079   2.871 -0.0057  0.4242 -1.1190
 9712SOL     OW40354   8.252   6.270   4.235  0.0521  0.3547 -0.4400
 9712SOL    HW140355   8.315   6.228   4.300 -0.1679 -0.4046 -0.7101
 9712SOL    HW240356   8.234   6.365   4.262 -0.8221 -0.2500  1.1785
 9713SOL     OW40357   2.796   2.389   5.864  0.4258 -0.2394 -0.4717
 9713SOL    HW140358   2.727   2.362   5.931  0.7158  1.1240  0.4173
 9713SOL    HW240359   2.866   2.444   5.910  0.8277  0.4089 -1.8314
 9714SOL     OW40360   0.453   3.603   5.370  0.2020  0.0497  1.2588
 9714SOL    HW140361   0.493   3.692   5.390 -0.2252  0.6534 -0.5281
 9714SOL    HW240362   0.397   3.573   5.447 -0.6136  1.8609  1.3841
 9715SOL     OW40363   1.843   1.505   5.005 -0.2658  0.1712 -0.1008
 9715SOL    HW140364   1.843   1.407   4.986 -0.2703  0.2459 -0.4904
 9715SOL    HW240365   1.785   1.552   4.938 -0.5647  0.3922  0.3172
 9716SOL     OW40366   7.718   0.994   5.063  0.1603  0.2014 -0.5550
 9716SOL    HW140367   7.703   1.035   5.153 -0.4271 -0.4000 -0.3718
 9716SOL    HW240368   7.730   0.896   5.073  0.5719  0.1952 -1.0905
 9717SOL     OW40369   9.168   3.790   1.431  0.2266  0.1389 -0.2639
 9717SOL    HW140370   9.079   3.801   1.476 -0.3820 -0.2501 -1.3484
 9717SOL    HW240371   9.234   3.753   1.496 -1.3911 -3.2714 -0.4191
 9718SOL     OW40372   9.582   1.105   5.001 -0.0230  0.3660 -0.2739
 9718SOL    HW140373   9.597   1.159   4.919 -1.3581  0.7857 -0.2589
 9718SOL    HW240374   9.608   1.010   4.985 -0.5165  0.3992 -1.2519
 9719SOL     OW40375   9.806   3.363   4.252  0.4715  0.1775  0.0584
 9719SOL    HW140376   9.775   3.410   4.335 -1.2640 -0.9143  0.0414
 9719SOL    HW240377   9.791   3.265   4.262 -0.2196  0.0911 -1.7498
 9720SOL     OW40378   2.710   2.101   5.347  0.1941 -0.0316  0.4130
 9720SOL    HW140379   2.750   2.017   5.384  1.1390  0.0440 -0.4048
 9720SOL    HW240380   2.630   2.127   5.401  1.5798  0.1437  2.4538
 9721SOL     OW40381   1.110   7.980   1.208 -0.2244 -0.1566  0.3814
 9721SOL    HW140382   1.148   7.899   1.253 -2.3327 -1.3566  0.0411
 9721SOL    HW240383   1.062   7.953   1.125 -0.2273  1.5582 -0.2031
 9722SOL     OW40384   1.418   9.417   5.378 -0.2459  0.0396  0.0535
 9722SOL    HW140385   1.471   9.501   5.367 -0.0856  0.0491  0.8601
 9722SOL    HW240386   1.334   9.437   5.428 -0.5693 -0.1482 -0.4077
 9723SOL     OW40387   0.486   3.627   3.768 -0.1945  0.0658 -0.2794
 9723SOL    HW140388   0.521   3.602   3.679  1.6243 -2.5951  1.1345
 9723SOL    HW240389   0.529   3.571   3.839 -2.0925  1.6213  2.2186
 9724SOL     OW40390   9.170   9.335   6.060 -0.0243 -0.3200  0.7990
 9724SOL    HW140391   9.179   9.401   6.135 -0.8953  0.8339 -0.1090
 9724SOL    HW240392   9.095   9.272   6.081 -1.6892  1.3463 -0.0994
 9725SOL     OW40393   8.874   1.504   4.239 -0.8434 -0.4579 -0.2141
 9725SOL    HW140394   8.906   1.438   4.172 -0.4561  0.6212 -1.1110
 9725SOL    HW240395   8.950   1.530   4.299 -1.0584 -1.0223  0.3041
 9726SOL     OW40396   3.059   9.395   6.390 -0.0984 -0.0368  0.0186
 9726SOL    HW140397   3.140   9.412   6.446 -0.3095 -1.3183  0.7409
 9726SOL    HW240398   3.079   9.324   6.322  0.2053  1.6386 -1.6730
 9727SOL     OW40399   6.332   0.326   0.723 -0.6183 -0.7023 -0.0088
 9727SOL    HW140400   6.331   0.312   0.822  0.2339  1.1808  0.2944
 9727SOL    HW240401   6.426   0.331   0.690 -0.8675  0.4579 -0.6093
 9728SOL     OW40402   7.901   6.244   4.804  0.3021  0.2799 -0.6230
 9728SOL    HW140403   7.820   6.187   4.795  1.8699 -2.2753  0.9008
 9728SOL    HW240404   7.938   6.264   4.714  0.4413 -2.1826 -1.1328
 9729SOL     OW40405   7.388   9.439   1.336 -0.5614 -0.3805 -0.3019
 9729SOL    HW140406   7.296   9.452   1.298 -0.1861 -0.3106 -1.1959
 9729SOL    HW240407   7.415   9.521   1.386 -1.2658 -0.6668  0.5673
 9730SOL     OW40408   6.351   0.094   3.486  0.4200  0.2433 -0.2316
 9730SOL    HW140409   6.338  -0.004   3.495  0.3737  0.5324  4.2020
 9730SOL    HW240410   6.448   0.113   3.468  0.7957 -0.5902  0.8197
 9731SOL     OW40411   0.181   5.477   3.151 -0.1856  0.3578 -0.3716
 9731SOL    HW140412   0.142   5.472   3.060  0.7718  1.0157 -0.8295
 9731SOL    HW240413   0.281   5.466   3.145 -0.2677 -1.0368  0.7382
 9732SOL     OW40414   9.055   7.074   6.623 -0.3681  0.0485 -0.2581
 9732SOL    HW140415   9.027   7.039   6.533  0.7859 -1.0715 -0.1925
 9732SOL    HW240416   9.128   7.141   6.612  0.4720 -0.8365 -0.0929
 9733SOL     OW40417   3.924   0.043   0.247  0.6191  0.5608 -0.9358
 9733SOL    HW140418   3.996  -0.026   0.235 -0.5773 -0.6773 -1.1144
 9733SOL    HW240419   3.940   0.093   0.332  0.6052 -1.0706  0.0585
 9734SOL     OW40420   3.809   9.888   5.313  0.5107 -0.1709 -0.0048
 9734SOL    HW140421   3.857   9.867   5.228 -1.5525 -1.9597 -0.7817
 9734SOL    HW240422   3.822   9.813   5.378 -0.2365 -0.1057  0.2210
 9735SOL     OW40423   2.701   0.886   2.729  0.2951  0.5061 -0.1333
 9735SOL    HW140424   2.785   0.929   2.760  0.5649 -1.5465  2.1983
 9735SOL    HW240425   2.721   0.827   2.650  1.1873 -0.5104  0.8393
 9736SOL     OW40426   9.173   3.455   5.352  0.3042 -0.1140  0.6708
 9736SOL    HW140427   9.075   3.459   5.372 -0.7604 -2.5536 -3.3356
 9736SOL    HW240428   9.210   3.369   5.387  0.7434  0.3181  1.2504
 9737SOL     OW40429   3.380   2.360   6.461  0.1708  0.0401 -0.0353
 9737SOL    HW140430   3.363   2.369   6.559  1.3084  0.2044  0.1546
 9737SOL    HW240431   3.448   2.428   6.433  1.2146 -1.2077 -0.5901
 9738SOL     OW40432   0.675   1.204   4.649 -0.2876 -0.5344 -0.4505
 9738SOL    HW140433   0.662   1.249   4.738  3.0103 -1.0126  0.3705
 9738SOL    HW240434   0.719   1.115   4.664 -0.0997 -0.7993 -2.5273
 9739SOL     OW40435   9.549   1.222   2.947 -0.1887 -0.1500 -0.1433
 9739SOL    HW140436   9.631   1.189   2.901  0.2270 -0.1452  0.5873
 9739SOL    HW240437   9.502   1.288   2.889  0.1939 -0.3364 -0.6649
 9740SOL     OW40438   5.403   4.968   0.758 -0.3243  0.0796  0.1725
 9740SOL    HW140439   5.398   5.005   0.665  1.8540  1.7109  0.6756
 9740SOL    HW240440   5.497   4.973   0.791 -0.8481 -1.6405  2.0229
 9741SOL     OW40441   4.944   7.516   3.103 -0.2076  0.6081 -0.4161
 9741SOL    HW140442   4.971   7.588   3.167  2.2377 -0.1328 -0.5633
 9741SOL    HW240443   4.918   7.434   3.155  1.1199  0.2302 -0.3209
 9742SOL     OW40444   3.872   3.559   4.409  1.0117 -0.1819 -0.2133
 9742SOL    HW140445   3.799   3.593   4.468  0.3447  1.2237 -1.8308
 9742SOL    HW240446   3.934   3.634   4.386  0.8931 -0.5586 -1.8336
 9743SOL     OW40447   6.706   5.036   6.036  0.1158 -0.5117  0.1991
 9743SOL    HW140448   6.649   5.091   6.096  1.5755  0.8235  0.4084
 9743SOL    HW240449   6.717   4.944   6.074 -0.0954 -0.0935  1.2778
 9744SOL     OW40450   3.907   6.843   0.704 -0.0242  0.0148 -0.2532
 9744SOL    HW140451   3.821   6.821   0.659  0.0650 -0.3791 -0.2401
 9744SOL    HW240452   3.957   6.758   0.722  1.0840  0.3487 -1.6966
 9745SOL     OW40453   0.415   2.661   6.704 -0.1373 -0.2577  0.3858
 9745SOL    HW140454   0.359   2.579   6.715 -1.0751  0.0997 -1.5364
 9745SOL    HW240455   0.511   2.638   6.718 -0.4923 -1.4662  0.8754
 9746SOL     OW40456   0.460   5.431   0.708 -0.4373 -0.1790 -0.1503
 9746SOL    HW140457   0.408   5.349   0.685 -1.2293 -0.3684  2.1170
 9746SOL    HW240458   0.403   5.512   0.692 -0.4754 -0.2253 -0.2473
 9747SOL     OW40459   8.539   1.962   2.198  0.2718  0.1972  0.0840
 9747SOL    HW140460   8.547   1.972   2.297 -1.5100  1.5043  0.1255
 9747SOL    HW240461   8.471   2.027   2.164  0.3272 -0.7597 -1.8948
 9748SOL     OW40462   3.984   8.638   1.305 -0.0943  0.0119 -0.2558
 9748SOL    HW140463   4.002   8.734   1.284  0.8591  0.1002  0.9339
 9748SOL    HW240464   3.926   8.632   1.386 -0.9994 -0.4026 -0.9229
 9749SOL     OW40465   0.866   0.391   4.356 -0.3714  0.2254 -0.3069
 9749SOL    HW140466   0.928   0.462   4.323  1.3254 -0.9020  0.3850
 9749SOL    HW240467   0.831   0.417   4.446 -2.3717  1.7210 -1.4792
 9750SOL     OW40468   8.557   8.346   2.866 -0.0189 -0.1812  0.3347
 9750SOL    HW140469   8.515   8.283   2.801  0.4920 -0.7538  0.5512
 9750SOL    HW240470   8.535   8.440   2.840  0.5998 -0.3760 -0.9802
 9751SOL     OW40471   7.910   6.009   3.301  0.9810  0.2150 -0.1197
 9751SOL    HW140472   7.961   6.094   3.295  2.8454 -0.9623 -1.6449
 9751SOL    HW240473   7.909   5.977   3.396 -0.6916  2.4725  0.6469
 9752SOL     OW40474   2.688   6.340   2.070  0.1142  0.3732 -0.0776
 9752SOL    HW140475   2.631   6.370   2.146  0.2739  0.5568 -0.0304
 9752SOL    HW240476   2.630   6.319   1.991 -0.0284  0.4350  0.0104
 9753SOL     OW40477   0.007   3.838   1.796 -0.5289  0.5482  0.3146
 9753SOL    HW140478   0.004   3.774   1.720 -1.4568  0.4296  0.4480
 9753SOL    HW240479   0.097   3.882   1.800 -0.5245  0.6445 -0.9091
 9754SOL     OW40480   0.160   2.870   3.622 -0.0225 -0.4552  0.0313
 9754SOL    HW140481   0.185   2.841   3.529  0.7212 -0.2808  0.1707
 9754SOL    HW240482   0.112   2.796   3.668  2.1076 -1.6009  0.4926
 9755SOL     OW40483   8.169   6.818   6.336 -0.5554  0.2809  0.0504
 9755SOL    HW140484   8.096   6.867   6.290 -0.2080  0.0437 -0.7578
 9755SOL    HW240485   8.223   6.766   6.269 -1.2060 -1.6074  0.9392
 9756SOL     OW40486   3.010   3.140   3.675  0.1295 -0.0079  0.4256
 9756SOL    HW140487   3.061   3.150   3.590  1.0692  0.1342  1.0007
 9756SOL    HW240488   2.949   3.061   3.669 -0.4515  0.5183 -0.7002
 9757SOL     OW40489   1.305   2.276   4.853 -0.7760  0.1653  0.2717
 9757SOL    HW140490   1.343   2.313   4.939 -2.0396 -1.9524  1.7830
 9757SOL    HW240491   1.380   2.252   4.792  0.1973  0.3652  1.3562
 9758SOL     OW40492   1.032   3.313   5.560  0.4059  0.4069 -0.7273
 9758SOL    HW140493   1.122   3.342   5.527  0.9025 -0.5254 -0.2236
 9758SOL    HW240494   1.044   3.258   5.643 -0.7192  1.3951  0.0959
 9759SOL     OW40495   8.428   7.309   6.407  0.2464  0.7577 -0.3649
 9759SOL    HW140496   8.501   7.373   6.430  1.1131 -0.3698  0.0587
 9759SOL    HW240497   8.460   7.244   6.339 -0.4490  0.4183 -0.3742
 9760SOL     OW40498   9.688   9.485   1.830  0.0147  0.8173 -0.5216
 9760SOL    HW140499   9.732   9.574   1.821 -0.3542  1.0960  0.4732
 9760SOL    HW240500   9.738   9.430   1.898 -0.9880  1.0273  0.3958
 9761SOL     OW40501   7.863   1.430   3.268  0.0742 -0.1286  0.6400
 9761SOL    HW140502   7.934   1.450   3.336  0.4515 -1.0696  0.5306
 9761SOL    HW240503   7.861   1.503   3.200  0.0085  0.5914  1.3950
 9762SOL     OW40504   3.030   6.863   1.393 -0.3384 -0.1032  0.3292
 9762SOL    HW140505   3.094   6.939   1.380 -1.7957  1.0415 -0.2397
 9762SOL    HW240506   2.945   6.882   1.345 -0.9394 -1.8444  0.6696
 9763SOL     OW40507   1.010   1.119   1.236 -0.2850 -0.4295 -0.1801
 9763SOL    HW140508   1.068   1.054   1.284  0.7892  1.4900  1.1767
 9763SOL    HW240509   1.054   1.147   1.151  0.6678  0.8039  0.7063
 9764SOL     OW40510   5.635   1.466   0.852 -0.1871 -0.1529 -0.6303
 9764SOL    HW140511   5.556   1.505   0.899  1.9100  3.1888  0.2799
 9764SOL    HW240512   5.680   1.399   0.911  0.9211  2.1173  1.1484
 9765SOL     OW40513   3.294   1.505   6.401 -0.2096 -0.6153  0.1361
 9765SOL    HW140514   3.266   1.593   6.440 -0.8754 -0.9658  0.4536
 9765SOL    HW240515   3.392   1.492   6.415  0.2380  0.8734 -1.4728
 9766SOL     OW40516   0.831   3.712   3.878 -0.0278 -0.3679 -0.1382
 9766SOL    HW140517   0.911   3.661   3.909  0.3461 -0.0269 -0.5422
 9766SOL    HW240518   0.748   3.657   3.893  0.4109 -1.2816 -0.9929
 9767SOL     OW40519   7.387   6.878   1.714  0.1430  0.0450  0.0106
 9767SOL    HW140520   7.450   6.894   1.638 -1.4155  1.9027 -0.9405
 9767SOL    HW240521   7.420   6.925   1.795  2.4759 -2.9760  0.8946
 9768SOL     OW40522   5.164   1.223   4.047  0.0915 -0.1261  0.8157
 9768SOL    HW140523   5.129   1.262   3.961  3.1520  0.8195 -0.0503
 9768SOL    HW240524   5.175   1.124   4.035  1.5379  0.1524 -0.2640
 9769SOL     OW40525   7.447   3.854   1.818 -0.6224  0.2503 -0.3309
 9769SOL    HW140526   7.530   3.817   1.777 -0.4086  1.2477 -0.8078
 9769SOL    HW240527   7.417   3.793   1.892  0.5704 -0.0751 -0.1013
 9770SOL     OW40528   1.362   7.375   2.966  0.1790  0.1085  0.1313
 9770SOL    HW140529   1.406   7.465   2.966 -0.2408  0.3181 -0.2383
 9770SOL    HW240530   1.284   7.376   2.903 -0.2576 -0.3026  0.6621
 9771SOL     OW40531   7.901   7.900   5.416  0.3512 -0.5334 -0.1425
 9771SOL    HW140532   7.999   7.902   5.398  0.3720 -1.7763 -0.2440
 9771SOL    HW240533   7.860   7.821   5.370 -0.7691  0.2102 -0.4489
 9772SOL     OW40534   3.376   7.850   1.589  0.0141  0.0944  0.1820
 9772SOL    HW140535   3.411   7.829   1.498  0.5615  1.0967  0.1589
 9772SOL    HW240536   3.450   7.840   1.656 -0.3502 -0.4982  0.5051
 9773SOL     OW40537   0.128   5.297   1.839  0.2139 -0.3658  0.1468
 9773SOL    HW140538   0.080   5.212   1.818  1.9685 -0.8070 -2.3704
 9773SOL    HW240539   0.199   5.279   1.906  0.9463 -1.0383 -0.7868
 9774SOL     OW40540   0.875   2.615   2.221 -1.1389  0.6510 -0.0706
 9774SOL    HW140541   0.783   2.637   2.254 -2.0441 -0.4666 -1.7383
 9774SOL    HW240542   0.871   2.596   2.123  0.7139 -0.3737  0.0249
 9775SOL     OW40543   1.448   9.495   0.629 -0.3775  0.1494 -0.3570
 9775SOL    HW140544   1.508   9.566   0.594 -1.0321  0.2683 -1.2712
 9775SOL    HW240545   1.433   9.508   0.727  1.7190 -0.3588  0.0525
 9776SOL     OW40546   1.459   0.385   6.284  0.0931 -0.2798  0.0055
 9776SOL    HW140547   1.388   0.442   6.242 -0.4782 -0.8188  0.2483
 9776SOL    HW240548   1.547   0.405   6.241 -0.2547  0.1792 -0.4927
 9777SOL     OW40549   9.873   2.638   0.777  0.5933 -0.1762  0.3711
 9777SOL    HW140550   9.859   2.686   0.863 -0.4089 -0.5648  0.4306
 9777SOL    HW240551   9.790   2.645   0.720  1.0338 -0.4145 -0.3122
 9778SOL     OW40552   8.836   1.815   0.299  0.6961  0.5518 -0.2212
 9778SOL    HW140553   8.860   1.726   0.337  1.2406  0.7736 -0.0425
 9778SOL    HW240554   8.825   1.807   0.200 -0.5090  0.0195 -0.0476
 9779SOL     OW40555   6.337   9.102   2.208 -0.8503 -0.4021 -0.4142
 9779SOL    HW140556   6.315   9.101   2.111  0.5975  2.2744 -0.8114
 9779SOL    HW240557   6.430   9.067   2.222  0.6154  3.2530 -0.5260
 9780SOL     OW40558   3.738   0.083   2.824  0.2630 -0.2317  0.3723
 9780SOL    HW140559   3.758   0.170   2.778 -1.8002 -1.1733 -2.4399
 9780SOL    HW240560   3.645   0.086   2.861 -0.4334 -1.7992 -1.1896
 9781SOL     OW40561   3.124   0.025   0.424 -0.2301 -0.5319 -0.0977
 9781SOL    HW140562   3.101   0.113   0.382 -0.4522 -0.0335  1.0356
 9781SOL    HW240563   3.088  -0.049   0.368  0.3778  0.0894 -1.3190
 9782SOL     OW40564   1.844   0.979   1.746 -0.5142  0.2263 -0.3437
 9782SOL    HW140565   1.817   0.977   1.843  0.7701 -0.8790 -0.0074
 9782SOL    HW240566   1.839   0.887   1.708  0.9653  0.3160 -0.7834
 9783SOL     OW40567   4.007   4.670   3.150  0.5546 -0.6157 -0.3098
 9783SOL    HW140568   4.070   4.742   3.121 -0.2842  0.2179 -0.0732
 9783SOL    HW240569   3.997   4.672   3.250 -0.2697 -0.3897 -0.3935
 9784SOL     OW40570   7.910   2.680   6.239  0.0463  0.0808 -0.2402
 9784SOL    HW140571   7.949   2.677   6.147 -0.8392  1.3080 -0.6803
 9784SOL    HW240572   7.927   2.770   6.279 -2.7973  0.8992 -0.6923
 9785SOL     OW40573   0.293   8.787   0.580 -0.2054 -0.9705 -0.6942
 9785SOL    HW140574   0.320   8.706   0.631 -1.5590  0.6750  2.7927
 9785SOL    HW240575   0.216   8.764   0.520  0.6172 -2.6558 -1.1430
 9786SOL     OW40576   1.998   4.735   3.970  0.1417 -0.7062  0.3545
 9786SOL    HW140577   2.018   4.795   4.048  1.5336 -1.1913  0.3839
 9786SOL    HW240578   1.911   4.688   3.986 -0.6528  0.8202  0.6115
 9787SOL     OW40579   9.660   1.343   5.485 -1.0420 -0.1429 -0.0822
 9787SOL    HW140580   9.656   1.435   5.524 -1.3262 -0.1612 -0.0655
 9787SOL    HW240581   9.683   1.349   5.388  0.6809 -0.1550  0.3143
 9788SOL     OW40582   9.259   3.813   4.787  0.7145  0.4270  0.1722
 9788SOL    HW140583   9.226   3.847   4.699  0.8002  0.0053 -0.0225
 9788SOL    HW240584   9.351   3.776   4.776  0.4944 -0.1653  0.3137
 9789SOL     OW40585   6.920   1.080   6.081 -0.0517 -0.0815  0.0837
 9789SOL    HW140586   6.910   1.178   6.096  1.0283  0.1325 -0.5102
 9789SOL    HW240587   7.017   1.055   6.090 -0.2952 -1.0627  0.0625
 9790SOL     OW40588   8.687   6.674   4.970 -0.3885  0.3295 -0.2118
 9790SOL    HW140589   8.741   6.648   4.890  1.3437  1.2425  0.6397
 9790SOL    HW240590   8.657   6.769   4.961  0.8569  0.8331  0.7598
 9791SOL     OW40591   5.267   0.163   1.324  0.2265 -0.5849 -0.1049
 9791SOL    HW140592   5.173   0.165   1.358 -1.1660 -5.0872 -3.1735
 9791SOL    HW240593   5.325   0.114   1.389  0.1456  0.7705  1.0157
 9792SOL     OW40594   6.918   1.913   3.752 -0.3006 -0.5009 -0.3160
 9792SOL    HW140595   6.849   1.861   3.801 -0.1968  0.2822  0.6882
 9792SOL    HW240596   7.004   1.912   3.805  0.0765 -0.4143 -0.9250
 9793SOL     OW40597   3.643   5.195   2.759 -0.0800 -0.0355  0.0547
 9793SOL    HW140598   3.697   5.148   2.690 -0.0002 -0.9904  0.7568
 9793SOL    HW240599   3.623   5.288   2.729 -0.5915 -0.6458 -1.5276
 9794SOL     OW40600   6.959   1.955   4.481 -0.3115  0.3839 -0.2088
 9794SOL    HW140601   6.885   2.015   4.450  0.5548  1.2702 -0.5866
 9794SOL    HW240602   7.042   2.009   4.496 -0.0670 -0.4010  1.4073
 9795SOL     OW40603   0.525   8.237   0.684  0.2717 -0.4736  0.4237
 9795SOL    HW140604   0.556   8.302   0.753  1.2415  0.2815 -0.7044
 9795SOL    HW240605   0.429   8.256   0.662  1.0919  1.9505 -1.3560
 9796SOL     OW40606   1.047   8.033   3.230 -0.2457  0.0137  0.3088
 9796SOL    HW140607   1.045   7.941   3.271  0.8519  0.7856  2.1410
 9796SOL    HW240608   1.062   8.101   3.301 -2.0969  1.7369 -0.9008
 9797SOL     OW40609   6.539   1.686   0.542  0.6432  0.4486 -0.0743
 9797SOL    HW140610   6.497   1.718   0.626  2.2918  1.0544  0.5510
 9797SOL    HW240611   6.544   1.586   0.543 -3.4678  0.1567 -1.5221
 9798SOL     OW40612   1.385   7.627   1.576 -0.3272  0.1655 -0.2627
 9798SOL    HW140613   1.444   7.706   1.557 -0.7240  0.6392  0.4636
 9798SOL    HW240614   1.434   7.563   1.635 -0.7923  0.8933  0.9194
 9799SOL     OW40615   9.538   2.649   3.009 -0.1069 -0.2168 -0.2045
 9799SOL    HW140616   9.619   2.707   3.002 -0.5006  0.1129 -2.2712
 9799SOL    HW240617   9.557   2.561   2.965 -0.5733 -0.4945  0.1466
 9800SOL     OW40618   7.170   1.509   6.659 -0.1073  0.5088  0.2393
 9800SOL    HW140619   7.073   1.533   6.666  0.4266  2.8561  0.3170
 9800SOL    HW240620   7.188   1.423   6.705 -2.2796 -0.2880 -0.3867
 9801SOL     OW40621   2.741   6.622   4.992  0.7833  0.0102  0.1153
 9801SOL    HW140622   2.755   6.705   4.939  0.2430  0.1850  0.2396
 9801SOL    HW240623   2.771   6.543   4.939 -4.6396 -0.3733 -2.7079
 9802SOL     OW40624   5.199   0.336   1.641 -0.1230 -0.6820  0.1600
 9802SOL    HW140625   5.169   0.373   1.554  0.3098 -1.7449 -0.4486
 9802SOL    HW240626   5.266   0.398   1.682 -0.2656 -0.2219 -0.2972
 9803SOL     OW40627   3.238   1.787   4.651  0.2376 -0.2859  0.3538
 9803SOL    HW140628   3.214   1.701   4.696  3.3287  1.1014  5.0118
 9803SOL    HW240629   3.333   1.782   4.621  0.3031  1.3243  0.2684
 9804SOL     OW40630   3.114   7.377   3.930 -0.2385  0.3787 -0.7722
 9804SOL    HW140631   3.152   7.467   3.910 -0.3600  0.5919 -0.0687
 9804SOL    HW240632   3.033   7.361   3.873  0.9158 -0.0942 -2.3046
 9805SOL     OW40633   1.870   0.709   1.628 -0.8756  0.2795  0.3307
 9805SOL    HW140634   1.852   0.677   1.721 -1.8274  0.8794  0.3672
 9805SOL    HW240635   1.805   0.665   1.565  0.6799 -1.2047 -0.2690
 9806SOL     OW40636   1.263   6.545   1.555 -0.5030  0.0247 -0.5173
 9806SOL    HW140637   1.171   6.578   1.533 -0.7154  0.6025  1.1913
 9806SOL    HW240638   1.330   6.597   1.501 -1.1006  0.4405 -0.8738
 9807SOL     OW40639   9.314   4.440   0.504  0.2054  0.4713  0.1757
 9807SOL    HW140640   9.366   4.398   0.430  0.2378  0.8787 -0.0326
 9807SOL    HW240641   9.255   4.511   0.467  1.1264  1.5246  0.7015
 9808SOL     OW40642   1.839   6.915   0.960  0.3914 -0.2831  0.2894
 9808SOL    HW140643   1.880   6.828   0.936 -1.0752 -1.5751  2.3107
 9808SOL    HW240644   1.741   6.913   0.937 -0.1324 -0.0139  2.4339
 9809SOL     OW40645   4.953   4.675   1.295 -0.1991 -0.0070 -0.2685
 9809SOL    HW140646   4.976   4.766   1.329 -0.1704  0.2773 -1.0260
 9809SOL    HW240647   4.871   4.680   1.238 -0.3106 -0.4883 -0.1564
 9810SOL     OW40648   8.856   7.362   3.858 -0.0889 -0.2259 -0.0557
 9810SOL    HW140649   8.908   7.437   3.818 -0.2944  0.7250  1.4357
 9810SOL    HW240650   8.857   7.369   3.958 -1.8496 -1.0243  0.0415
 9811SOL     OW40651   3.014   7.173   0.803  0.2597 -0.9290  0.4105
 9811SOL    HW140652   3.063   7.143   0.721 -0.0138 -2.1497  0.6741
 9811SOL    HW240653   3.065   7.247   0.847 -1.1207  1.8362 -2.4597
 9812SOL     OW40654   4.236   4.598   0.793  0.0952  1.1285  0.1125
 9812SOL    HW140655   4.203   4.681   0.748  0.5356  1.0854 -0.2966
 9812SOL    HW240656   4.171   4.570   0.864 -1.4086  0.3351 -1.5273
 9813SOL     OW40657   1.802   7.688   3.422  0.6728 -0.7377  0.4426
 9813SOL    HW140658   1.801   7.690   3.522 -1.1424 -2.1451  0.4630
 9813SOL    HW240659   1.709   7.675   3.388  1.1736  0.4419 -1.4642
 9814SOL     OW40660   1.329   3.495   1.064  0.2646  0.4023  0.3115
 9814SOL    HW140661   1.300   3.402   1.086 -0.3370  0.4955 -0.0678
 9814SOL    HW240662   1.258   3.560   1.092 -0.0063  0.6164 -0.8290
 9815SOL     OW40663   8.251   0.744   6.658 -0.4772 -0.3569 -0.0538
 9815SOL    HW140664   8.156   0.733   6.626 -0.1305 -0.4378 -1.0738
 9815SOL    HW240665   8.310   0.765   6.580 -0.0497  2.2078  0.9148
 9816SOL     OW40666   7.197   6.037   4.841 -0.3805 -0.3693 -0.3767
 9816SOL    HW140667   7.255   6.009   4.917 -1.7576  0.9708  1.2341
 9816SOL    HW240668   7.199   5.968   4.769  2.4447 -0.7598  0.0437
 9817SOL     OW40669   4.847   8.844   5.531 -0.6088  0.1363 -0.4008
 9817SOL    HW140670   4.823   8.871   5.624  1.8454 -2.1985  0.9565
 9817SOL    HW240671   4.884   8.924   5.483  0.4267  0.7933  1.4211
 9818SOL     OW40672   3.223   3.926   1.927  0.6217  0.1047  0.0272
 9818SOL    HW140673   3.285   3.993   1.969  0.7190 -0.3922  0.6907
 9818SOL    HW240674   3.230   3.931   1.828  2.6962 -0.8497  0.1035
 9819SOL     OW40675   2.268   2.523   4.903  0.4888 -0.4477 -0.4473
 9819SOL    HW140676   2.366   2.501   4.898  0.0171 -2.3343 -2.5603
 9819SOL    HW240677   2.218   2.445   4.940 -0.2314  0.5691  0.7758
 9820SOL     OW40678   1.811   5.974   3.549 -0.2001 -0.1789 -0.2278
 9820SOL    HW140679   1.812   5.974   3.449 -0.6781  2.6775 -0.2712
 9820SOL    HW240680   1.720   5.946   3.581 -0.3616 -0.0811 -0.5997
 9821SOL     OW40681   3.939   3.440   3.640 -0.6981 -0.2371  0.3609
 9821SOL    HW140682   3.901   3.350   3.616  1.5613 -0.9862 -0.5824
 9821SOL    HW240683   3.992   3.432   3.724  0.2762 -0.0380 -0.2160
 9822SOL     OW40684   0.119   7.696   3.800  0.0445 -0.4788 -0.1377
 9822SOL    HW140685   0.198   7.753   3.782  0.2475 -0.4537  0.7870
 9822SOL    HW240686   0.062   7.690   3.718  0.0675  0.9690 -0.2665
 9823SOL     OW40687   3.262   2.681   5.011 -0.4974 -0.3508  0.1023
 9823SOL    HW140688   3.263   2.624   5.093 -0.6158 -0.8542 -0.2400
 9823SOL    HW240689   3.212   2.633   4.938 -1.4978  0.6224  0.1241
 9824SOL     OW40690   2.608   9.549   6.528  0.2694  0.6917  0.1499
 9824SOL    HW140691   2.708   9.549   6.535  0.4435  0.6901 -2.0612
 9824SOL    HW240692   2.575   9.642   6.512  0.2584  0.1943 -3.0180
 9825SOL     OW40693   8.737   3.093   1.457  0.1587  0.4556 -0.0873
 9825SOL    HW140694   8.727   3.030   1.534  0.3988 -0.8942 -1.1419
 9825SOL    HW240695   8.676   3.171   1.470 -1.8617 -1.1116  0.1092
 9826SOL     OW40696   1.118   6.993   1.109  0.3033 -0.0034  0.1536
 9826SOL    HW140697   1.022   6.998   1.134 -0.1974 -0.5105 -1.5773
 9826SOL    HW240698   1.150   6.898   1.117  0.6399  0.1434  0.6175
 9827SOL     OW40699   4.672   3.610   2.158 -0.6085  0.7793 -0.6617
 9827SOL    HW140700   4.697   3.706   2.166 -0.4200  0.7256 -0.6111
 9827SOL    HW240701   4.692   3.578   2.065  0.8395  0.3516 -0.2062
 9828SOL     OW40702   1.257   5.812   0.592 -0.1715  0.5037 -0.6878
 9828SOL    HW140703   1.353   5.840   0.587 -0.1893  0.7639  0.3476
 9828SOL    HW240704   1.243   5.732   0.534  1.0030 -0.4693  0.3476
 9829SOL     OW40705   9.620   1.417   3.935  0.0622  0.1589  0.1279
 9829SOL    HW140706   9.576   1.340   3.887  0.2598 -1.2035  2.0839
 9829SOL    HW240707   9.691   1.382   3.995  0.5876  1.9544  0.5750
 9830SOL     OW40708   4.858   4.353   1.645  0.0649 -0.5671 -1.0735
 9830SOL    HW140709   4.943   4.332   1.596  1.7753 -0.7190  1.8924
 9830SOL    HW240710   4.870   4.435   1.700 -0.6996 -2.3185  1.7790
 9831SOL     OW40711   1.078   1.334   1.814 -0.0650  0.3189 -1.0488
 9831SOL    HW140712   1.009   1.386   1.866  0.2711 -0.0811 -0.1847
 9831SOL    HW240713   1.090   1.244   1.855  0.2577  0.0177 -1.7938
 9832SOL     OW40714   0.322   8.780   3.464  0.0672  0.2388  0.0217
 9832SOL    HW140715   0.342   8.874   3.437 -0.4581  0.2416 -0.3534
 9832SOL    HW240716   0.395   8.720   3.430 -0.1077  0.3708 -0.5920
 9833SOL     OW40717   0.167   2.980   4.936  0.2482  0.6052  0.1342
 9833SOL    HW140718   0.122   3.045   4.998 -0.4330  1.2255 -1.0006
 9833SOL    HW240719   0.115   2.895   4.934  1.0746  0.0431  1.5305
 9834SOL     OW40720   1.134   2.522   0.249  0.0592  0.1858 -0.6846
 9834SOL    HW140721   1.175   2.540   0.338  0.8986 -0.6968 -0.8787
 9834SOL    HW240722   1.203   2.484   0.188 -1.0447 -1.3390 -1.0183
 9835SOL     OW40723   0.968   8.351   4.697 -0.7781 -0.0570  0.0576
 9835SOL    HW140724   0.958   8.322   4.602  1.0787  0.5453 -0.3538
 9835SOL    HW240725   0.961   8.451   4.702  2.2862  0.2074  0.0505
 9836SOL     OW40726   8.950   2.131   5.630  0.1993 -0.5476  0.3327
 9836SOL    HW140727   9.035   2.127   5.576  0.5026 -0.4038  0.7971
 9836SOL    HW240728   8.958   2.203   5.699 -0.1664 -0.7686  0.6068
 9837SOL     OW40729   9.588   3.738   0.744 -0.5545  0.4000 -0.4231
 9837SOL    HW140730   9.600   3.666   0.813  0.1961 -0.0628 -1.0282
 9837SOL    HW240731   9.555   3.821   0.789  0.4899  0.2860  0.5880
 9838SOL     OW40732   6.584   8.224   2.853  0.5677 -0.3316  0.1425
 9838SOL    HW140733   6.527   8.237   2.934  0.1472  0.8160 -0.3195
 9838SOL    HW240734   6.528   8.239   2.771  1.4787  0.5676 -0.3214
 9839SOL     OW40735   7.394   9.019   2.342 -0.1093 -0.4008 -0.3569
 9839SOL    HW140736   7.325   9.001   2.273  1.6181 -1.0382 -1.9669
 9839SOL    HW240737   7.478   9.051   2.298  0.6737  0.2237  1.5355
 9840SOL     OW40738   4.267   4.015   1.699 -0.0093 -0.2332  0.4703
 9840SOL    HW140739   4.304   4.060   1.780 -1.8495 -0.6830  1.6039
 9840SOL    HW240740   4.322   3.935   1.677  0.7708  0.1570  1.0032
 9841SOL     OW40741   7.658   3.403   3.620 -0.2767  0.1302  0.0456
 9841SOL    HW140742   7.683   3.309   3.599 -0.9537 -0.4306  1.6564
 9841SOL    HW240743   7.722   3.441   3.686  0.6666  1.2018 -1.4568
 9842SOL     OW40744   8.344   6.525   5.265 -0.6567 -0.5788 -0.0809
 9842SOL    HW140745   8.320   6.598   5.202 -0.6762  0.0411  0.6474
 9842SOL    HW240746   8.405   6.460   5.219 -0.4322  0.0264 -0.6415
 9843SOL     OW40747   4.207   9.544   2.760 -0.3143 -0.0758 -0.4564
 9843SOL    HW140748   4.207   9.531   2.661  1.0455 -0.8461 -0.3767
 9843SOL    HW240749   4.250   9.465   2.803  2.5569  1.9083  0.4841
 9844SOL     OW40750   1.236   4.312   6.527  0.0860  0.2088 -0.2847
 9844SOL    HW140751   1.187   4.341   6.610 -0.6404  1.0529 -0.9930
 9844SOL    HW240752   1.225   4.213   6.515 -1.3143  0.3540 -0.3256
 9845SOL     OW40753   6.263   0.859   0.791 -0.2350 -0.3431 -0.4216
 9845SOL    HW140754   6.178   0.866   0.844  0.2819 -1.1014  0.5383
 9845SOL    HW240755   6.267   0.933   0.725 -1.2028  0.2587  0.1685
 9846SOL     OW40756   0.845   8.441   0.481 -0.6905 -0.6195  0.3608
 9846SOL    HW140757   0.846   8.409   0.387 -1.3520  0.2569  0.0473
 9846SOL    HW240758   0.828   8.364   0.542 -0.0065 -1.2283 -0.2164
 9847SOL     OW40759   8.112   4.343   2.730  0.0614  0.1405 -0.3686
 9847SOL    HW140760   8.208   4.351   2.759  0.3212  0.9923 -1.4109
 9847SOL    HW240761   8.108   4.290   2.645 -0.3569  0.4020 -0.5097
 9848SOL     OW40762   2.951   8.886   2.633 -0.4250  0.1196 -0.1453
 9848SOL    HW140763   2.927   8.859   2.540  1.7329 -1.3557 -0.3193
 9848SOL    HW240764   2.980   8.805   2.684  0.0235  1.1847  1.3074
 9849SOL     OW40765   0.664   9.048   2.315  0.6552 -0.2471  0.2578
 9849SOL    HW140766   0.676   9.138   2.275  1.8231 -0.4751  0.0560
 9849SOL    HW240767   0.668   8.979   2.243  0.0880 -0.4831  0.4493
 9850SOL     OW40768   2.642   7.320   0.978 -0.0022 -0.0106  0.2761
 9850SOL    HW140769   2.596   7.344   0.892  0.9169 -1.4877 -0.6590
 9850SOL    HW240770   2.657   7.221   0.980 -0.7405 -0.1043  2.5170
 9851SOL     OW40771   7.794   0.609   5.376 -0.0159  0.6058 -0.1536
 9851SOL    HW140772   7.778   0.705   5.400 -0.2298  0.2516  1.1660
 9851SOL    HW240773   7.846   0.604   5.290  0.9170  1.9228  0.3223
 9852SOL     OW40774   3.466   4.986   1.437 -0.0508  0.1460  0.4470
 9852SOL    HW140775   3.422   4.900   1.410 -0.2418  0.2273  0.5005
 9852SOL    HW240776   3.432   5.061   1.380  1.7880 -0.1860 -1.1525
 9853SOL     OW40777   2.061   6.584   4.786 -0.0202  0.7586  0.0759
 9853SOL    HW140778   1.984   6.536   4.829 -0.4372 -0.2358 -1.7145
 9853SOL    HW240779   2.065   6.560   4.689  1.7682  1.8264 -0.1393
 9854SOL     OW40780   2.187   9.404   5.538 -0.4473  0.0234  0.2674
 9854SOL    HW140781   2.244   9.377   5.616  1.5639  0.4597 -0.9970
 9854SOL    HW240782   2.197   9.502   5.521 -2.3092  0.2817  0.5697
 9855SOL     OW40783   3.133   6.688   1.010  0.2125 -0.7708 -0.1602
 9855SOL    HW140784   3.132   6.728   0.919 -0.1465 -0.2366  0.0753
 9855SOL    HW240785   3.040   6.682   1.045  0.3747 -0.7191  0.2851
 9856SOL     OW40786   9.621   2.816   3.954 -0.1168  0.2468 -0.6681
 9856SOL    HW140787   9.689   2.827   3.882 -0.4112 -1.8835 -1.3006
 9856SOL    HW240788   9.585   2.723   3.953 -1.5840  0.7537  0.9558
 9857SOL     OW40789   8.462   4.189   3.452 -0.2133  0.1980  0.0986
 9857SOL    HW140790   8.492   4.115   3.511 -1.6198  0.3783  1.0604
 9857SOL    HW240791   8.370   4.218   3.479  0.2882  2.2404 -0.3138
 9858SOL     OW40792   8.207   2.832   3.548 -0.2844  0.2415  0.1898
 9858SOL    HW140793   8.270   2.846   3.473 -0.4929 -0.5145 -0.1300
 9858SOL    HW240794   8.251   2.779   3.620  0.0098  1.2126  0.7289
 9859SOL     OW40795   2.670   6.814   6.560 -1.0655 -0.3085  0.2915
 9859SOL    HW140796   2.662   6.720   6.525 -1.7542 -0.2420  0.2563
 9859SOL    HW240797   2.764   6.846   6.548 -0.2865 -1.7421  2.1908
 9860SOL     OW40798   8.630   4.240   2.849 -0.1293  0.1341 -0.3437
 9860SOL    HW140799   8.721   4.267   2.878  0.3181 -0.1243 -1.4976
 9860SOL    HW240800   8.619   4.141   2.862 -0.2335  0.1603 -0.2324
 9861SOL     OW40801   5.232   1.404   1.553 -0.3902  0.3971  0.1251
 9861SOL    HW140802   5.166   1.379   1.624  0.6053 -1.6769  0.3543
 9861SOL    HW240803   5.203   1.489   1.509 -2.7587 -0.0406  0.7654
 9862SOL     OW40804   8.593   4.849   0.245  0.2720  0.4012 -0.3559
 9862SOL    HW140805   8.678   4.855   0.191 -0.0736  2.9344 -0.6524
 9862SOL    HW240806   8.561   4.941   0.268 -1.8726 -0.5558  0.6135
 9863SOL     OW40807   8.861   8.909   4.386 -0.0130 -0.0313  0.2293
 9863SOL    HW140808   8.899   8.912   4.293 -1.0858 -0.9563 -0.2421
 9863SOL    HW240809   8.823   8.998   4.409 -0.5471 -0.0570 -0.5532
 9864SOL     OW40810   9.966   3.034   2.521 -0.0645  0.7411  0.3808
 9864SOL    HW140811   9.927   2.961   2.465 -0.9645  1.3362  0.2242
 9864SOL    HW240812  10.034   2.996   2.583  0.1074 -0.0992 -0.3102
 9865SOL     OW40813   0.214   1.868   3.348  0.4186  0.2672  0.0120
 9865SOL    HW140814   0.210   1.770   3.328  0.6892  0.1209  0.6727
 9865SOL    HW240815   0.299   1.906   3.311  0.4909  0.1777  0.0854
 9866SOL     OW40816   5.253   9.787   4.303  0.2330 -0.1079 -0.5444
 9866SOL    HW140817   5.268   9.688   4.311 -0.7448 -0.2792 -0.7305
 9866SOL    HW240818   5.291   9.819   4.217  0.7530 -0.2863 -0.3814
 9867SOL     OW40819   0.606   2.680   4.412 -0.4870 -0.4795  0.5890
 9867SOL    HW140820   0.695   2.634   4.419  0.2800  1.1587  2.1044
 9867SOL    HW240821   0.561   2.678   4.501 -0.5791  1.3525  0.6064
 9868SOL     OW40822   2.344   8.610   1.338 -0.2663  0.4255  0.5887
 9868SOL    HW140823   2.288   8.637   1.416 -0.8899 -2.2555  1.1195
 9868SOL    HW240824   2.323   8.668   1.259 -1.5282  1.4471  1.6727
 9869SOL     OW40825   4.092   5.287   5.879  0.2924  0.0207  0.1056
 9869SOL    HW140826   3.995   5.263   5.872  0.1624  0.1083  1.5491
 9869SOL    HW240827   4.147   5.203   5.874  0.0587 -0.1796  0.9520
 9870SOL     OW40828   7.948   9.781   0.807 -0.3750 -0.8308  0.0796
 9870SOL    HW140829   7.878   9.720   0.845 -0.3556 -0.6382  0.4278
 9870SOL    HW240830   8.026   9.785   0.869 -1.6128  1.8520  1.5689
 9871SOL     OW40831   2.045   3.827   2.651 -0.2731 -0.2772 -0.1526
 9871SOL    HW140832   2.105   3.896   2.693 -1.4178  0.4685  0.2866
 9871SOL    HW240833   1.970   3.873   2.604 -2.0280 -1.2520  1.6135
 9872SOL     OW40834   0.720   3.530   5.662  0.2918  0.3803 -0.3528
 9872SOL    HW140835   0.621   3.520   5.662  0.3749 -0.4985  0.1078
 9872SOL    HW240836   0.762   3.443   5.634  0.9911  0.0462  1.6352
 9873SOL     OW40837   1.467   7.959   3.323 -0.2848 -0.0776  0.3578
 9873SOL    HW140838   1.393   7.902   3.286 -0.2003  0.8312 -1.2808
 9873SOL    HW240839   1.555   7.919   3.297 -0.2241  0.1462  0.2142
 9874SOL     OW40840   8.585   6.253   2.298 -0.2332 -0.1709  0.0853
 9874SOL    HW140841   8.634   6.170   2.328  0.5808 -0.3008 -1.5590
 9874SOL    HW240842   8.497   6.227   2.258  0.2502 -0.3014 -0.9127
 9875SOL     OW40843   0.251   4.636   2.508  0.1350  0.1641 -0.4026
 9875SOL    HW140844   0.323   4.644   2.439 -0.7998  2.0020 -1.1820
 9875SOL    HW240845   0.163   4.621   2.464 -0.0678 -1.6992  0.5385
 9876SOL     OW40846   7.196   6.776   5.680 -0.7226  1.0035 -0.3514
 9876SOL    HW140847   7.147   6.721   5.749  1.7421 -0.4099  0.3273
 9876SOL    HW240848   7.180   6.737   5.589 -0.6534  0.4065 -0.1098
 9877SOL     OW40849   3.296   9.931   3.244  1.0111  0.1717 -0.5910
 9877SOL    HW140850   3.314   9.861   3.175  0.1040  0.8556 -1.5258
 9877SOL    HW240851   3.298  10.022   3.202 -0.3217  0.5463  0.1186
 9878SOL     OW40852   2.773   2.228   6.394  0.0886 -0.3245 -0.3448
 9878SOL    HW140853   2.757   2.321   6.360 -0.7303 -0.7749 -1.2269
 9878SOL    HW240854   2.868   2.219   6.422 -0.3553  1.4562  1.8968
 9879SOL     OW40855   0.236   2.764   1.743  0.0727  0.0368 -0.5977
 9879SOL    HW140856   0.175   2.742   1.819  0.1035 -0.5706 -0.7514
 9879SOL    HW240857   0.292   2.844   1.767  0.0522 -0.1280  0.0013
 9880SOL     OW40858   4.764   0.553   4.474  0.2951 -0.2917  0.2623
 9880SOL    HW140859   4.700   0.527   4.546  0.2189 -0.1725  0.2385
 9880SOL    HW240860   4.726   0.629   4.421  1.2794  1.0333  1.4392
 9881SOL     OW40861   0.552   0.830   6.351  0.1434  0.1007  0.6388
 9881SOL    HW140862   0.614   0.774   6.406  0.7163 -0.0333 -0.1272
 9881SOL    HW240863   0.559   0.926   6.379 -0.7860 -0.1963  1.9050
 9882SOL     OW40864   3.404   7.457   2.040 -0.2880  0.3066  0.0495
 9882SOL    HW140865   3.439   7.447   2.134  0.8044  1.9642 -0.1639
 9882SOL    HW240866   3.412   7.369   1.992  0.4002 -0.2006  1.0741
 9883SOL     OW40867   7.908   8.612   2.616  0.1656  0.0440  0.9234
 9883SOL    HW140868   7.815   8.624   2.581 -0.1498  0.3034  1.8316
 9883SOL    HW240869   7.904   8.582   2.711  1.0155 -0.5456  0.7748
 9884SOL     OW40870   1.020   5.811   0.729  0.1726  0.4396 -0.4786
 9884SOL    HW140871   0.979   5.725   0.699  0.7676 -0.3526  0.9091
 9884SOL    HW240872   1.118   5.810   0.709 -0.5028  2.5812 -4.3595
 9885SOL     OW40873   1.796   7.845   1.708  0.2966  0.1646  0.1640
 9885SOL    HW140874   1.847   7.776   1.760  0.8861 -0.1023 -0.7632
 9885SOL    HW240875   1.826   7.936   1.737  1.8352  0.0106 -0.8737
 9886SOL     OW40876   5.553   2.331   3.889  0.6920  0.4918  0.2738
 9886SOL    HW140877   5.570   2.338   3.790  1.8266 -4.5521 -0.0162
 9886SOL    HW240878   5.455   2.342   3.907  0.1848 -0.5352 -1.6947
 9887SOL     OW40879   9.987   2.232   1.117  0.1799 -0.3988  0.6877
 9887SOL    HW140880   9.941   2.143   1.124 -0.4623 -0.0676  0.6582
 9887SOL    HW240881   9.967   2.286   1.198 -2.0847  0.9794 -0.7565
 9888SOL     OW40882   5.007   1.365   6.570 -0.3514 -0.3624 -0.2262
 9888SOL    HW140883   5.045   1.288   6.519 -1.2488 -1.2705  0.4573
 9888SOL    HW240884   4.909   1.372   6.551 -0.3425  0.4021 -0.0164
 9889SOL     OW40885   0.662   7.782   3.873 -0.1177  0.3239 -0.0933
 9889SOL    HW140886   0.745   7.823   3.837 -1.1407  1.6053 -1.0527
 9889SOL    HW240887   0.620   7.724   3.804 -0.3898  0.2396  0.1396
 9890SOL     OW40888   2.674   3.636   1.114  0.1108  0.5935 -0.0439
 9890SOL    HW140889   2.749   3.640   1.179 -0.6710  2.9401  0.7331
 9890SOL    HW240890   2.620   3.553   1.131  0.8170  0.3914  1.2637
 9891SOL     OW40891   7.843   8.866   3.875 -0.4967 -0.1329  0.1903
 9891SOL    HW140892   7.867   8.884   3.780  0.1773  0.3012  0.4399
 9891SOL    HW240893   7.924   8.881   3.933 -1.3027  1.1308  1.0126
 9892SOL     OW40894   9.144   7.873   4.070  0.4389 -0.2227  0.4751
 9892SOL    HW140895   9.133   7.895   3.973  1.0147 -2.2924 -0.0963
 9892SOL    HW240896   9.232   7.908   4.103  0.2148  0.5334  0.2704
 9893SOL     OW40897   3.150   3.342   4.954 -0.6506 -0.4055 -0.1347
 9893SOL    HW140898   3.156   3.247   4.983 -1.4981 -0.9569 -1.6993
 9893SOL    HW240899   3.134   3.401   5.034 -0.5035 -1.6029  0.7879
 9894SOL     OW40900   8.787   2.790   2.684 -0.2912  0.7586  0.6134
 9894SOL    HW140901   8.690   2.764   2.690 -0.1281  0.6379  3.9971
 9894SOL    HW240902   8.843   2.708   2.675 -0.5076  0.8629 -1.9017
 9895SOL     OW40903   2.644   7.581   3.786  0.1365  0.0641 -0.0216
 9895SOL    HW140904   2.601   7.596   3.875  0.3500  1.2927 -0.1220
 9895SOL    HW240905   2.580   7.530   3.727 -0.2984 -0.0857  0.5729
 9896SOL     OW40906   2.788   0.113   2.306  0.4504  0.6594 -0.1426
 9896SOL    HW140907   2.729   0.126   2.386 -0.5434 -2.9299 -0.1915
 9896SOL    HW240908   2.881   0.093   2.335  0.3134  0.3671  0.0913
 9897SOL     OW40909   3.162   4.014   1.378 -0.6685  0.2688  0.7152
 9897SOL    HW140910   3.193   4.076   1.306  1.2161 -0.1936  1.1190
 9897SOL    HW240911   3.160   3.920   1.343  0.0259  0.0732  1.1947
 9898SOL     OW40912   4.215   1.282   0.442 -0.1394  0.1052 -0.3166
 9898SOL    HW140913   4.160   1.349   0.393  0.3765  1.1766  0.5512
 9898SOL    HW240914   4.156   1.214   0.485 -0.6513 -0.0996 -1.3379
 9899SOL     OW40915   4.595   0.987   1.146 -0.0540  0.1396 -0.7787
 9899SOL    HW140916   4.641   0.969   1.233 -0.5327  0.8055 -0.3904
 9899SOL    HW240917   4.566   0.900   1.105  0.5583 -0.2006 -0.4832
 9900SOL     OW40918   9.164   8.646   6.209 -0.3943 -0.4944 -0.2800
 9900SOL    HW140919   9.245   8.705   6.205 -0.5815 -0.2109  0.0330
 9900SOL    HW240920   9.177   8.576   6.279 -0.8861  0.2711  0.5941
 9901SOL     OW40921   4.945   0.367   5.120 -0.2261  0.3155  0.0036
 9901SOL    HW140922   4.986   0.277   5.137  0.3541  0.3812 -1.0100
 9901SOL    HW240923   5.004   0.438   5.156 -0.7335  0.2956  0.8951
 9902SOL     OW40924   1.845   6.224   2.240 -0.3970  0.1616 -0.1168
 9902SOL    HW140925   1.835   6.171   2.156 -2.6328 -0.8451  0.7256
 9902SOL    HW240926   1.862   6.319   2.217 -0.1855 -0.2427 -1.7122
 9903SOL     OW40927   3.391   1.745   1.688 -0.3050  0.1978 -0.0860
 9903SOL    HW140928   3.414   1.648   1.679  0.9813  0.5641 -0.8978
 9903SOL    HW240929   3.295   1.754   1.711 -0.1870 -1.3102  1.1065
 9904SOL     OW40930   4.164   4.555   4.457 -0.2189 -0.1309  0.0490
 9904SOL    HW140931   4.157   4.592   4.365 -0.5904 -0.4661 -0.0575
 9904SOL    HW240932   4.074   4.553   4.500  0.0017  0.3193  0.5320
 9905SOL     OW40933   2.399   1.830   5.892 -0.8363  0.1654 -0.4224
 9905SOL    HW140934   2.440   1.834   5.801  0.3812  1.3510  0.1780
 9905SOL    HW240935   2.376   1.922   5.923 -0.9567 -0.2002  0.6018
 9906SOL     OW40936   5.087   1.055   2.353  0.2717 -0.7798  0.0153
 9906SOL    HW140937   5.019   1.081   2.421 -0.1558 -1.9930  0.0678
 9906SOL    HW240938   5.164   1.119   2.356 -0.1654 -0.2931  0.9996
 9907SOL     OW40939   9.979   4.096   3.615 -0.0445 -0.1695 -0.3190
 9907SOL    HW140940  10.009   4.001   3.601  0.8240  0.1370 -0.5812
 9907SOL    HW240941   9.885   4.096   3.650 -0.7941 -1.0594 -2.2855
 9908SOL     OW40942   7.796   7.279   1.659 -0.2088  0.5758  0.2009
 9908SOL    HW140943   7.831   7.223   1.735  0.3606  0.7062  0.0413
 9908SOL    HW240944   7.870   7.297   1.595 -0.3997  1.4615  0.2188
 9909SOL     OW40945   7.340   2.420   2.747 -0.0779 -0.3473  0.0547
 9909SOL    HW140946   7.394   2.413   2.663  0.2045 -0.8981  0.2763
 9909SOL    HW240947   7.398   2.397   2.825 -0.4879 -0.3942  0.3453
 9910SOL     OW40948   6.822   8.428   3.399 -0.4113 -0.1003 -0.1414
 9910SOL    HW140949   6.832   8.481   3.315  2.6479  0.7950  0.7352
 9910SOL    HW240950   6.875   8.344   3.393 -1.0905 -0.5884  0.4834
 9911SOL     OW40951   0.810   5.343   3.968 -0.7247  0.0336  0.0128
 9911SOL    HW140952   0.866   5.419   3.935 -0.2866 -0.8838 -1.3994
 9911SOL    HW240953   0.841   5.258   3.925 -0.9861 -1.0016  1.8384
 9912SOL     OW40954   9.399   4.305   1.224  0.0209 -0.2432 -0.4425
 9912SOL    HW140955   9.447   4.324   1.310 -0.9745  1.0028 -0.1401
 9912SOL    HW240956   9.310   4.263   1.244 -0.5357  0.7323 -0.8040
 9913SOL     OW40957   4.319   3.481   1.075  0.1006  0.3670  0.1078
 9913SOL    HW140958   4.326   3.494   0.976 -0.2345  1.0258  0.1708
 9913SOL    HW240959   4.237   3.526   1.109  0.6922  0.9332  0.8177
 9914SOL     OW40960   3.536   1.254   5.524  0.5920  0.1548  0.2809
 9914SOL    HW140961   3.635   1.262   5.512  0.5990 -1.3157 -0.8778
 9914SOL    HW240962   3.494   1.232   5.435 -0.8620  1.5625  0.6071
 9915SOL     OW40963   3.796   0.920   1.128  0.7566 -0.1261  0.0563
 9915SOL    HW140964   3.848   0.984   1.185 -0.1114 -1.0274  1.9308
 9915SOL    HW240965   3.710   0.963   1.101  1.1848  0.3175 -0.6214
 9916SOL     OW40966   8.456   7.956   5.813 -0.7627 -0.1118 -0.1860
 9916SOL    HW140967   8.544   7.988   5.778 -0.7387  1.7527  1.4846
 9916SOL    HW240968   8.462   7.859   5.835  0.9974  0.0956  0.2889
 9917SOL     OW40969   4.587   1.734   1.073  0.2493  0.2751 -0.1447
 9917SOL    HW140970   4.491   1.752   1.091 -0.1319 -0.1505 -1.6580
 9917SOL    HW240971   4.634   1.821   1.052 -0.1207  0.3072 -0.8389
 9918SOL     OW40972   2.095   3.541   2.601 -0.3892 -0.0709  0.3609
 9918SOL    HW140973   2.095   3.635   2.633 -0.2501  0.2324 -0.5268
 9918SOL    HW240974   2.111   3.539   2.502 -0.2445 -1.0287  0.3983
 9919SOL     OW40975   6.750   2.387   2.993 -0.4386 -0.4731  0.8819
 9919SOL    HW140976   6.720   2.292   2.995  0.2541 -0.6828  1.5310
 9919SOL    HW240977   6.781   2.414   3.085  1.4450 -0.3001  0.2056
 9920SOL     OW40978   8.729   9.464   5.788  0.2037  0.5200  0.4803
 9920SOL    HW140979   8.820   9.424   5.781 -0.7654 -1.7059  0.2588
 9920SOL    HW240980   8.710   9.518   5.706  0.7188 -0.3213 -0.2076
 9921SOL     OW40981   9.200   6.632   1.435  0.1151 -0.0803 -0.2084
 9921SOL    HW140982   9.285   6.619   1.385  1.6291 -2.7824  2.8922
 9921SOL    HW240983   9.216   6.687   1.517 -1.1553 -0.4377  0.3021
 9922SOL     OW40984   8.387   2.537   1.890  0.1119 -0.0324  0.3980
 9922SOL    HW140985   8.387   2.585   1.977  0.5416 -0.1154  0.4435
 9922SOL    HW240986   8.301   2.555   1.842  0.7112  1.6879 -0.0759
 9923SOL     OW40987   2.645   8.042   5.346  0.0293  0.6113 -0.3759
 9923SOL    HW140988   2.594   8.040   5.260 -0.3203 -0.1566 -0.1643
 9923SOL    HW240989   2.691   8.130   5.357 -1.5136  1.4483 -0.4377
 9924SOL     OW40990   3.526   3.430   1.469 -0.2148 -0.1106  0.0857
 9924SOL    HW140991   3.477   3.368   1.407 -0.1914  0.2246 -0.2646
 9924SOL    HW240992   3.621   3.439   1.440  0.0123 -0.6066  0.6537
 9925SOL     OW40993   1.499   8.303   5.650  0.3227  0.2351  0.5256
 9925SOL    HW140994   1.435   8.252   5.707 -0.1550 -0.2823 -0.4615
 9925SOL    HW240995   1.466   8.397   5.639 -1.3896 -0.5921 -1.6972
 9926SOL     OW40996   3.916   0.954   5.058 -0.5609  0.3739 -0.4205
 9926SOL    HW140997   3.990   0.887   5.048  0.1881  1.3322 -1.4816
 9926SOL    HW240998   3.834   0.908   5.093  0.5813 -0.6640  0.9503
 9927SOL     OW40999   8.561   2.346   4.546 -0.6491  0.2397  0.4994
 9927SOL    HW141000   8.596   2.392   4.465 -0.6474  0.6800  0.7494
 9927SOL    HW241001   8.517   2.413   4.606 -1.5852 -0.2550  0.3652
 9928SOL     OW41002   1.929   5.668   5.215 -0.3672  0.1473  0.1909
 9928SOL    HW141003   1.914   5.691   5.311  1.2001  0.3785  0.3901
 9928SOL    HW241004   2.008   5.719   5.180 -0.8633 -0.0061 -1.1931
 9929SOL     OW41005   3.095   4.523   6.740 -0.5595  0.1014  0.3318
 9929SOL    HW141006   3.131   4.559   6.653 -0.1127 -0.0109  0.4667
 9929SOL    HW241007   3.010   4.474   6.723 -1.2382  1.3446  0.1695
 9930SOL     OW41008   2.971   9.621   2.714 -0.0955 -0.4320  0.1006
 9930SOL    HW141009   2.945   9.717   2.703  0.2762 -0.3103  0.2701
 9930SOL    HW241010   3.038   9.596   2.644  1.3724  0.0137  1.3104
 9931SOL     OW41011   9.126   9.093   0.627 -0.4192 -0.2444 -0.6478
 9931SOL    HW141012   9.178   9.041   0.695 -1.0759 -0.5428 -0.3756
 9931SOL    HW241013   9.117   9.039   0.543 -2.2031 -1.1160  0.0713
 9932SOL     OW41014   1.983   6.347   3.220 -0.0552 -0.3652 -0.0225
 9932SOL    HW141015   1.958   6.348   3.317 -0.6116  3.4527 -0.1390
 9932SOL    HW241016   1.899   6.345   3.165  0.1119  1.5064 -0.3861
 9933SOL     OW41017   7.581   6.228   2.463  0.0426  0.3122 -0.0074
 9933SOL    HW141018   7.535   6.261   2.545  0.6535  0.3883  0.3100
 9933SOL    HW241019   7.674   6.198   2.487 -0.5852 -1.9142 -0.2042
 9934SOL     OW41020   0.745   0.256   4.137  0.0058  0.3202 -0.9696
 9934SOL    HW141021   0.785   0.294   4.221 -2.1991  1.4873 -0.4081
 9934SOL    HW241022   0.753   0.156   4.138  0.6848  0.3793  0.2595
 9935SOL     OW41023   1.640   1.521   2.516  0.0661 -0.2160  0.1944
 9935SOL    HW141024   1.594   1.573   2.444 -0.3638  0.5948  1.0376
 9935SOL    HW241025   1.738   1.542   2.516  0.0636 -0.2106 -0.1530
 9936SOL     OW41026   3.098   0.412   3.125  0.0517 -0.3142 -0.3309
 9936SOL    HW141027   3.114   0.507   3.100 -0.1618 -0.1955 -0.0220
 9936SOL    HW241028   3.173   0.356   3.092 -0.2858 -0.1806 -1.3410
 9937SOL     OW41029   9.446   6.908   3.157 -0.3159  0.2713 -0.0869
 9937SOL    HW141030   9.430   6.980   3.088  1.2038  0.3541 -0.3688
 9937SOL    HW241031   9.519   6.848   3.126 -1.8857 -1.7033 -0.0584
 9938SOL     OW41032   1.128   0.639   4.964  0.2037  0.2211 -0.0279
 9938SOL    HW141033   1.172   0.729   4.968  1.8320 -0.5025 -1.0113
 9938SOL    HW241034   1.196   0.568   4.980 -0.3459 -0.9845 -2.7875
 9939SOL     OW41035   2.788   4.773   3.284  0.5232  0.0101 -0.0347
 9939SOL    HW141036   2.802   4.691   3.339 -1.6592  0.5394  1.3742
 9939SOL    HW241037   2.820   4.853   3.336  3.4766  0.0140 -1.7574
 9940SOL     OW41038   7.563   2.291   4.397  0.2267  1.1439  0.7106
 9940SOL    HW141039   7.617   2.220   4.441 -1.6103 -0.8576 -0.1205
 9940SOL    HW241040   7.595   2.305   4.303  1.3188  2.2512  1.2402
 9941SOL     OW41041   1.863   1.214   4.968  0.3274  0.0540 -0.3654
 9941SOL    HW141042   1.916   1.195   5.051 -0.9991  0.4576  0.6000
 9941SOL    HW241043   1.830   1.128   4.929 -0.0476 -0.0578  0.2007
 9942SOL     OW41044   7.235   8.443   2.350  0.2489  0.2663 -0.4034
 9942SOL    HW141045   7.202   8.525   2.305  1.8314 -0.1537 -2.3896
 9942SOL    HW241046   7.334   8.450   2.364 -0.0181 -0.1263  1.9601
 9943SOL     OW41047   1.001   8.550   5.268  0.2916  0.3482  0.0850
 9943SOL    HW141048   1.008   8.645   5.238 -0.3929  0.2838 -0.2937
 9943SOL    HW241049   1.068   8.495   5.219  1.3119  0.7957  0.9772
 9944SOL     OW41050   9.100   9.350   0.671  0.2190  0.0080 -0.6626
 9944SOL    HW141051   9.106   9.250   0.670  1.5657  0.0721 -0.6766
 9944SOL    HW241052   9.126   9.384   0.762 -0.1328  0.3552 -0.6898
 9945SOL     OW41053   1.305   5.885   4.127  0.0441  0.3443 -0.1664
 9945SOL    HW141054   1.344   5.798   4.097 -0.4746  0.6411 -1.7483
 9945SOL    HW241055   1.378   5.945   4.159  0.4561 -0.4898  0.4770
 9946SOL     OW41056   1.551   8.348   1.443 -0.5652 -0.2277 -0.2700
 9946SOL    HW141057   1.637   8.399   1.434 -1.3253  1.1349  0.1075
 9946SOL    HW241058   1.497   8.358   1.360 -1.2698  0.6121  0.2884
 9947SOL     OW41059   1.286   4.079   4.253 -0.3660  0.1332  0.2123
 9947SOL    HW141060   1.385   4.075   4.263 -0.5134  0.3838  1.8728
 9947SOL    HW241061   1.252   3.990   4.222  0.3233 -0.0942  0.0961
 9948SOL     OW41062   8.600   4.269   0.024  0.1301  0.3366  0.5383
 9948SOL    HW141063   8.592   4.214  -0.059  0.0825 -0.7792  1.2752
 9948SOL    HW241064   8.576   4.364   0.004  0.6978  0.1843 -0.8520
 9949SOL     OW41065   8.284   6.317   3.957  0.3623  0.5161  0.2719
 9949SOL    HW141066   8.205   6.305   3.898  0.3702 -0.9181  0.5456
 9949SOL    HW241067   8.274   6.261   4.039  1.8593 -0.0428  0.0987
 9950SOL     OW41068   3.324   0.864   3.884  0.2565 -0.2241  0.0178
 9950SOL    HW141069   3.288   0.773   3.863 -1.5552  0.0544  1.7606
 9950SOL    HW241070   3.411   0.856   3.932  0.5907 -1.0049 -0.7165
 9951SOL     OW41071   3.014   8.739   1.020 -0.6468 -0.3837 -0.1109
 9951SOL    HW141072   2.954   8.798   0.967 -1.7248 -2.1769 -0.9251
 9951SOL    HW241073   2.964   8.699   1.096 -0.5137 -1.8529 -0.7696
 9952SOL     OW41074   2.305   5.837   1.652 -0.8392 -0.3326 -0.8338
 9952SOL    HW141075   2.207   5.831   1.674 -1.0066  2.0817 -0.8059
 9952SOL    HW241076   2.357   5.854   1.736 -0.6829  1.1228 -1.2182
 9953SOL     OW41077   1.570   2.488   4.744 -0.1671  0.4673  0.1597
 9953SOL    HW141078   1.656   2.538   4.759 -0.4654  0.3076  2.6127
 9953SOL    HW241079   1.588   2.390   4.747 -0.2143  0.4311 -0.7357
 9954SOL     OW41080   9.569   4.781   4.114 -0.3252 -0.4528  0.7716
 9954SOL    HW141081   9.521   4.722   4.049  0.9810  0.4564 -1.0489
 9954SOL    HW241082   9.512   4.861   4.134  0.1124  0.2587 -0.8076
 9955SOL     OW41083   0.152   8.658   4.105  0.2217  0.3719 -0.4499
 9955SOL    HW141084   0.161   8.663   4.005  0.6725 -1.4942 -0.5281
 9955SOL    HW241085   0.242   8.645   4.146 -0.1063 -0.2312  0.0962
 9956SOL     OW41086   3.842   4.131   6.549  0.1537 -0.6581 -0.1931
 9956SOL    HW141087   3.758   4.077   6.557 -0.3819  0.4208  2.0600
 9956SOL    HW241088   3.834   4.212   6.607  3.0849 -0.9747  0.7392
 9957SOL     OW41089   7.171   8.125   3.054  0.0482  0.5944 -0.0345
 9957SOL    HW141090   7.170   8.046   3.116  0.5635  0.7287  0.1501
 9957SOL    HW241091   7.078   8.157   3.040 -0.3262 -0.9512 -1.2668
 9958SOL     OW41092   4.034   2.179   4.326  0.1471 -0.0579 -0.1577
 9958SOL    HW141093   3.965   2.125   4.278 -0.0302  0.3858 -0.4061
 9958SOL    HW241094   4.108   2.202   4.262 -0.9002  1.9604 -0.6698
 9959SOL     OW41095   5.149   2.280   3.126 -0.1461  0.7262  0.2755
 9959SOL    HW141096   5.054   2.302   3.144 -0.1060  0.0465  1.3698
 9959SOL    HW241097   5.155   2.199   3.069 -0.2185  0.0821  1.1694
 9960SOL     OW41098   9.725   5.176   5.146  0.4468  0.0978  0.0447
 9960SOL    HW141099   9.668   5.226   5.211  0.2547 -2.4550  1.9304
 9960SOL    HW241100   9.671   5.104   5.103  1.6779 -0.9492  0.2291
 9961SOL     OW41101   7.606   6.402   5.267  0.1165  0.1019 -0.1549
 9961SOL    HW141102   7.582   6.306   5.287  0.7870 -0.3279 -1.3849
 9961SOL    HW241103   7.527   6.448   5.227 -0.0626 -0.0506  0.0170
 9962SOL     OW41104   0.751   5.526   1.600 -0.2911 -0.2145 -0.0911
 9962SOL    HW141105   0.781   5.532   1.505 -0.4576 -2.0699 -0.2812
 9962SOL    HW241106   0.720   5.433   1.619 -1.3910  0.4449  1.4472
 9963SOL     OW41107   6.984   7.863   4.876  0.3523 -0.6239  0.5791
 9963SOL    HW141108   6.964   7.955   4.910  1.0416 -0.8816  1.7020
 9963SOL    HW241109   6.899   7.811   4.870  0.0969 -0.2543  0.9718
 9964SOL     OW41110   2.523   0.369   2.739 -0.3346 -0.2719 -0.1360
 9964SOL    HW141111   2.511   0.468   2.728  1.3444 -0.2369 -1.9784
 9964SOL    HW241112   2.490   0.323   2.656 -1.9522 -1.3498  1.0770
 9965SOL     OW41113   3.528   4.999   3.336 -0.7772  0.2477 -0.2803
 9965SOL    HW141114   3.468   4.992   3.415 -1.8006  0.1981 -1.0451
 9965SOL    HW241115   3.553   5.095   3.322 -1.0428  0.3303 -0.2090
 9966SOL     OW41116   1.814   3.366   1.973 -0.0049  0.0477  0.6114
 9966SOL    HW141117   1.856   3.341   2.061  1.6421  1.9344  0.4187
 9966SOL    HW241118   1.751   3.443   1.987  0.5707  0.6194  0.0968
 9967SOL     OW41119   8.592   4.134   0.561 -0.4002 -0.0593 -0.1187
 9967SOL    HW141120   8.644   4.078   0.626 -3.3462  0.6432  3.0056
 9967SOL    HW241121   8.617   4.230   0.571 -1.6116  0.1805  0.8184
 9968SOL     OW41122   7.761   2.325   5.290 -0.1806  0.1238  0.1338
 9968SOL    HW141123   7.835   2.271   5.330  0.5738  1.6189  0.8104
 9968SOL    HW241124   7.685   2.330   5.355 -0.3500 -0.3336 -0.0304
 9969SOL     OW41125   6.714   2.854   4.764  0.0148  0.5189 -0.3984
 9969SOL    HW141126   6.675   2.942   4.793  0.4152  1.1162 -1.6330
 9969SOL    HW241127   6.791   2.870   4.702  0.6492 -0.6958  0.0491
 9970SOL     OW41128   5.190   5.216   0.351 -0.5424  0.3624  0.4377
 9970SOL    HW141129   5.258   5.286   0.334 -0.2297  0.3872  1.7548
 9970SOL    HW241130   5.155   5.181   0.264  0.2362  1.2291 -0.2238
 9971SOL     OW41131   7.576   3.723   1.513  0.0312 -0.6178  0.0709
 9971SOL    HW141132   7.552   3.639   1.465  0.0053 -0.3507 -0.3860
 9971SOL    HW241133   7.621   3.701   1.599 -0.8384 -1.1192  0.4069
 9972SOL     OW41134   8.646   6.040   1.061  0.3008 -0.1428 -0.2222
 9972SOL    HW141135   8.625   5.977   0.986  0.7916 -1.0277  0.3723
 9972SOL    HW241136   8.621   6.133   1.034  1.8023 -0.2370 -2.0388
 9973SOL     OW41137   6.436   5.620   0.652 -0.3006  0.5841 -0.4545
 9973SOL    HW141138   6.370   5.640   0.724  0.8405 -1.4320  1.2209
 9973SOL    HW241139   6.387   5.590   0.570 -1.5180 -1.3867  0.9246
 9974SOL     OW41140   4.375   1.855   0.492  0.3011 -0.9751  0.4850
 9974SOL    HW141141   4.348   1.774   0.544 -1.1816 -1.3946 -0.8849
 9974SOL    HW241142   4.439   1.828   0.420 -0.4290 -1.0127 -0.1666
 9975SOL     OW41143   3.615   8.233   4.536 -0.1676 -0.1988  0.7936
 9975SOL    HW141144   3.548   8.238   4.462 -1.9408 -2.9649  2.1020
 9975SOL    HW241145   3.570   8.254   4.623  1.3779  0.8121  1.3670
 9976SOL     OW41146   2.303   3.255   3.594 -0.3337  0.0759  0.0208
 9976SOL    HW141147   2.368   3.309   3.647  0.0103  1.3058 -1.6174
 9976SOL    HW241148   2.253   3.315   3.531 -3.3987 -0.7399  1.5448
 9977SOL     OW41149   9.013   0.573   4.445 -0.2222 -0.2358 -0.7575
 9977SOL    HW141150   8.977   0.570   4.538  0.7898 -1.7190 -0.4096
 9977SOL    HW241151   9.071   0.654   4.434  0.0070 -0.2937  0.0278
 9978SOL     OW41152   0.126   5.694   2.307  0.2253  0.1700  0.7113
 9978SOL    HW141153   0.037   5.654   2.331  0.0016 -0.0166 -0.3881
 9978SOL    HW241154   0.191   5.620   2.288  0.7928  0.2994  2.1255
 9979SOL     OW41155   2.174   5.867   0.236 -0.3278  0.4489  0.1391
 9979SOL    HW141156   2.210   5.787   0.283 -2.3243 -0.1258  0.7661
 9979SOL    HW241157   2.196   5.861   0.139  0.5097 -0.3046  0.3737
 9980SOL     OW41158   9.338   6.190   1.277  0.5229  0.5874 -0.6330
 9980SOL    HW141159   9.392   6.203   1.360  1.3922 -1.2583 -0.8907
 9980SOL    HW241160   9.295   6.100   1.279  0.0065  0.7919 -1.8961
 9981SOL     OW41161   8.041   1.168   2.755  0.3220  0.3056  0.1266
 9981SOL    HW141162   8.057   1.095   2.689  1.2611  0.7229 -0.1218
 9981SOL    HW241163   8.062   1.256   2.713 -0.3592  0.6835  0.5661
 9982SOL     OW41164   7.225   7.935   4.263 -0.6155 -0.0564 -0.3397
 9982SOL    HW141165   7.191   8.016   4.313  1.0122 -0.1212  0.9208
 9982SOL    HW241166   7.297   7.963   4.200  0.7162 -0.6356  0.8838
 9983SOL     OW41167   4.104   7.508   2.111  0.1433 -0.6700  0.1512
 9983SOL    HW141168   4.198   7.533   2.132  0.3892 -0.6753 -0.8822
 9983SOL    HW241169   4.043   7.583   2.135  0.7926  0.6547 -2.2179
 9984SOL     OW41170   9.793   6.334   4.941  0.0935 -0.3332 -0.3981
 9984SOL    HW141171   9.786   6.270   4.864  0.5062 -1.8507  0.8141
 9984SOL    HW241172   9.780   6.284   5.027 -0.9889  1.4527  0.4952
 9985SOL     OW41173   9.258   0.155   3.713  0.4058  0.0691 -0.2077
 9985SOL    HW141174   9.353   0.167   3.682  0.2568  0.2755 -0.5929
 9985SOL    HW241175   9.197   0.154   3.634  0.1252 -0.4810  0.0141
 9986SOL     OW41176   2.489   4.037   1.996 -0.0052  0.0989  0.2214
 9986SOL    HW141177   2.441   3.969   2.052  0.0890  0.1280  0.3376
 9986SOL    HW241178   2.586   4.012   1.990  0.0156  0.1854  0.2076
 9987SOL     OW41179   2.975   4.763   0.476  0.1339  0.4173 -0.1424
 9987SOL    HW141180   3.074   4.750   0.484  0.1885  0.1921 -1.1060
 9987SOL    HW241181   2.929   4.675   0.492 -0.0198  0.8606  1.9701
 9988SOL     OW41182   0.050   2.580   0.116 -0.0865  0.3180  0.0719
 9988SOL    HW141183  -0.030   2.566   0.058  0.8696 -1.1488 -0.9447
 9988SOL    HW241184   0.097   2.664   0.087 -0.1572  0.1110 -0.6636
 9989SOL     OW41185   8.336   3.608   0.147 -0.0830  0.1787  0.3818
 9989SOL    HW141186   8.241   3.595   0.177  0.0402 -1.5482  0.0750
 9989SOL    HW241187   8.342   3.689   0.089 -1.1961  0.8376  1.1623
 9990SOL     OW41188   7.622   6.600   0.512 -0.2717  0.0534  0.1421
 9990SOL    HW141189   7.714   6.572   0.540 -0.5329 -1.0170 -0.0551
 9990SOL    HW241190   7.556   6.577   0.584 -0.6525 -0.8842 -0.5023
 9991SOL     OW41191   4.597   2.292   2.349  0.2324  0.0348  0.3512
 9991SOL    HW141192   4.662   2.347   2.297  0.9604  0.0857  1.3099
 9991SOL    HW241193   4.529   2.253   2.287  1.3731 -0.3027 -0.6948
 9992SOL     OW41194   3.326   9.207   2.156  0.0895  0.6071 -0.0520
 9992SOL    HW141195   3.354   9.162   2.241  0.4401  0.3516 -0.3041
 9992SOL    HW241196   3.398   9.198   2.088 -0.8151 -0.5490 -0.8841
 9993SOL     OW41197   5.382   8.063   3.093  0.2667 -0.3240  0.1968
 9993SOL    HW141198   5.391   8.055   2.994  2.6156 -2.7376  0.5504
 9993SOL    HW241199   5.452   8.124   3.128  2.7518 -3.4009  0.8319
 9994SOL     OW41200   3.552   9.823   1.848  0.3868 -0.4191 -0.0613
 9994SOL    HW141201   3.508   9.786   1.766 -0.8054 -0.7453  0.7028
 9994SOL    HW241202   3.568   9.921   1.836 -1.7303 -0.0171  0.1004
 9995SOL     OW41203   9.299   6.918   1.059  0.5820 -0.5370 -0.7470
 9995SOL    HW141204   9.362   6.970   1.002  1.3250  0.6789  1.1109
 9995SOL    HW241205   9.326   6.822   1.061  2.8719  0.0937  0.6281
 9996SOL     OW41206   2.259   3.479   3.439  0.1400 -0.5062  0.5760
 9996SOL    HW141207   2.204   3.523   3.369 -0.6016 -0.5076  1.1501
 9996SOL    HW241208   2.354   3.472   3.408 -0.5087 -2.1029 -1.1607
 9997SOL     OW41209   0.004   1.245   2.764  0.0107 -0.3314  0.5299
 9997SOL    HW141210   0.007   1.344   2.777  1.6728 -0.4024  0.8249
 9997SOL    HW241211   0.059   1.221   2.683 -0.0332 -1.0548  0.7129
 9998SOL     OW41212   4.956   1.098   6.435 -0.8310 -0.7501 -0.4554
 9998SOL    HW141213   4.879   1.146   6.478 -0.3777  0.4097 -0.9199
 9998SOL    HW241214   4.923   1.047   6.355 -0.7428  1.6851 -2.0850
 9999SOL     OW41215   4.816   5.042   0.159  0.5115 -0.4475  0.6492
 9999SOL    HW141216   4.805   5.001   0.250  0.4803 -0.1381  0.7837
 9999SOL    HW241217   4.726   5.058   0.119  0.5336 -1.1376  0.3146
10000SOL     OW41218   8.291   7.170   3.135  0.2761 -0.4028 -0.3293
10000SOL    HW141219   8.291   7.207   3.228  0.8308  1.3201 -0.9914
10000SOL    HW241220   8.383   7.140   3.111 -0.6237 -4.6837  1.1066
10001SOL     OW41221   7.711   3.879   5.660 -0.0239 -0.4817 -0.2656
10001SOL    HW141222   7.796   3.931   5.650 -0.9018  1.0334 -0.0559
10001SOL    HW241223   7.661   3.880   5.573 -1.2012  1.1514  0.3891
10002SOL     OW41224   5.522   7.924   2.577 -0.3364 -0.1849  0.2044
10002SOL    HW141225   5.433   7.880   2.567 -0.7983  0.4651  1.3099
10002SOL    HW241226   5.553   7.958   2.488 -0.9581 -0.8479 -0.2707
10003SOL     OW41227   4.531   5.846   1.709 -0.1999  0.3344 -0.2457
10003SOL    HW141228   4.481   5.800   1.636  1.6592  1.1581 -2.0626
10003SOL    HW241229   4.497   5.939   1.719 -0.5701  0.1679  0.0684
10004SOL     OW41230   5.898   8.531   4.675  0.4380 -0.9528 -0.3644
10004SOL    HW141231   5.825   8.592   4.643  0.9024 -0.5623 -0.6851
10004SOL    HW241232   5.875   8.436   4.652 -0.7186 -1.0108  0.9298
10005SOL     OW41233   7.785   3.280   5.798  0.0526 -0.0051  0.1278
10005SOL    HW141234   7.844   3.206   5.767  1.5294  1.3474 -0.3782
10005SOL    HW241235   7.742   3.324   5.719 -1.2358 -0.6308  0.4592
10006SOL     OW41236   1.296   1.977   0.717 -0.3438 -0.0953  0.2936
10006SOL    HW141237   1.215   1.969   0.659 -1.3157 -2.2588  1.8795
10006SOL    HW241238   1.343   1.889   0.720  2.1208  1.1328 -0.6109
10007SOL     OW41239   4.941   7.093   2.856 -0.7965 -0.6508 -0.5853
10007SOL    HW141240   4.939   7.191   2.874 -0.5519 -1.0171  1.6394
10007SOL    HW241241   5.035   7.059   2.867 -0.8553 -1.1183 -1.4708
10008SOL     OW41242   9.692   4.794   4.378  0.1006 -0.0642  0.4849
10008SOL    HW141243   9.695   4.702   4.416  2.0061  0.2044  1.0356
10008SOL    HW241244   9.648   4.792   4.289 -1.2334 -1.2617  1.1476
10009SOL     OW41245   5.302   8.312   2.982  0.3435  0.2913  0.3048
10009SOL    HW141246   5.257   8.225   3.000  0.4239  0.5744  1.9969
10009SOL    HW241247   5.250   8.364   2.914 -1.4497  0.2465  1.5847
10010SOL     OW41248   2.997   2.662   2.015  0.1366 -0.2478  0.5233
10010SOL    HW141249   2.923   2.604   2.049  0.2597 -0.8109 -0.1458
10010SOL    HW241250   2.999   2.657   1.915  0.5293  0.4442  0.4961
10011SOL     OW41251   0.315   2.195   3.736 -0.3496 -0.0083  0.9426
10011SOL    HW141252   0.268   2.279   3.707 -1.5145 -0.9021  0.2040
10011SOL    HW241253   0.259   2.147   3.804  0.1023 -0.4177  1.0291
10012SOL     OW41254   6.142   1.121   1.576  0.1375 -0.5557  0.4370
10012SOL    HW141255   6.172   1.216   1.569 -1.4503 -0.1235 -0.7629
10012SOL    HW241256   6.222   1.061   1.578  1.1369  0.7424  0.2932
10013SOL     OW41257   3.442   7.841   2.230 -0.0656 -0.4512  0.0215
10013SOL    HW141258   3.511   7.774   2.257  1.5389  0.7360 -1.0438
10013SOL    HW241259   3.420   7.830   2.133 -0.3307  0.0806  0.0168
10014SOL     OW41260   1.117   6.729   5.346 -0.6398 -0.1204  0.3999
10014SOL    HW141261   1.047   6.740   5.274  0.0448  1.3442 -0.0657
10014SOL    HW241262   1.072   6.712   5.433 -1.5464 -0.2793 -0.0857
10015SOL     OW41263   7.454   8.857   3.747 -0.3908  0.3676  0.0833
10015SOL    HW141264   7.464   8.942   3.695 -0.0178  0.0856 -0.3071
10015SOL    HW241265   7.484   8.780   3.691  1.2535  0.1924  1.1719
10016SOL     OW41266   8.505   6.554   4.192 -0.2186 -0.2680  0.3200
10016SOL    HW141267   8.533   6.536   4.098  1.2530 -0.7748  0.8436
10016SOL    HW241268   8.556   6.495   4.254  0.3217  1.4899  1.5960
10017SOL     OW41269   2.584   5.353   4.387  0.2464 -0.3819  0.0078
10017SOL    HW141270   2.654   5.412   4.427 -0.2631  0.6294 -0.5563
10017SOL    HW241271   2.595   5.260   4.421  0.8581  0.1073  1.1830
10018SOL     OW41272   8.040   3.935   3.275  0.0528  0.0610 -0.6730
10018SOL    HW141273   7.954   3.888   3.256 -0.7594  1.2595 -0.1105
10018SOL    HW241274   8.022   4.011   3.338  1.4817  0.5032 -0.7850
10019SOL     OW41275   8.111   2.537   1.530 -0.3212 -0.0359  0.3896
10019SOL    HW141276   8.149   2.581   1.611 -0.5866 -0.3262  0.6745
10019SOL    HW241277   8.047   2.600   1.485 -0.2417  0.0914  0.4533
10020SOL     OW41278   3.111   7.404   0.900 -0.1979 -0.4866  0.4145
10020SOL    HW141279   3.075   7.455   0.822 -0.0447 -2.6127 -1.0789
10020SOL    HW241280   3.204   7.435   0.920 -0.4452  0.4497  0.1200
10021SOL     OW41281   0.997   2.161   5.794 -0.0651 -0.1191  0.7856
10021SOL    HW141282   0.923   2.166   5.861  1.2479 -0.3296  2.3040
10021SOL    HW241283   1.037   2.069   5.795  2.0616  0.7741  2.0730
10022SOL     OW41284   2.923   5.948   2.612  0.1198  0.2009 -0.1409
10022SOL    HW141285   2.893   6.019   2.677  2.0729  0.1174  0.8634
10022SOL    HW241286   2.859   5.871   2.615 -1.1897  1.2633 -0.1568
10023SOL     OW41287   3.746   7.086   1.927  0.7246 -0.0044 -0.3210
10023SOL    HW141288   3.698   7.033   1.997  0.2538  0.6484 -0.1405
10023SOL    HW241289   3.777   7.025   1.854 -0.7337 -0.3911 -0.6388
10024SOL     OW41290   7.825   3.612   6.688  0.0472 -0.4671  0.0487
10024SOL    HW141291   7.768   3.674   6.743 -0.5814 -1.2264  0.2636
10024SOL    HW241292   7.767   3.561   6.625  0.8924  1.1566 -2.0965
10025SOL     OW41293   6.120   8.570   2.392  0.7148 -0.0335  0.0654
10025SOL    HW141294   6.113   8.579   2.292  1.3721 -1.0228 -0.0837
10025SOL    HW241295   6.163   8.482   2.414  1.3025  0.5297  1.2031
10026SOL     OW41296   5.812   1.300   3.160  0.1854  0.4290 -0.1558
10026SOL    HW141297   5.800   1.201   3.172  1.6817  0.3365  0.6419
10026SOL    HW241298   5.823   1.320   3.063  0.7682 -0.2955 -0.2427
10027SOL     OW41299   3.070   2.868   4.331  0.3717  0.8667 -0.2184
10027SOL    HW141300   3.046   2.839   4.239 -1.6047 -0.6500  0.7479
10027SOL    HW241301   3.067   2.968   4.336  0.2852  0.9494 -1.7230
10028SOL     OW41302   8.130   3.244   4.771 -0.2453  0.1183 -0.8664
10028SOL    HW141303   8.111   3.273   4.678 -1.8837  0.5746 -0.4093
10028SOL    HW241304   8.140   3.145   4.775  0.3865  0.1501 -1.6073
10029SOL     OW41305   7.768   9.705   1.450  0.1323 -0.1246  0.3207
10029SOL    HW141306   7.773   9.805   1.449 -1.0132 -0.0739 -0.7394
10029SOL    HW241307   7.840   9.669   1.509  2.3132  1.2144 -1.4401
10030SOL     OW41308   4.202   2.124   3.160  0.2617  0.3071  0.7017
10030SOL    HW141309   4.109   2.104   3.191  0.5482 -0.4491  1.0881
10030SOL    HW241310   4.268   2.070   3.213  0.9154  0.7773  0.3785
10031SOL     OW41311   6.253   0.606   3.598 -0.0864  0.1406  0.0460
10031SOL    HW141312   6.165   0.626   3.555  0.6309 -0.1371 -1.5701
10031SOL    HW241313   6.252   0.512   3.633 -0.4166  0.1350  0.0253
10032SOL     OW41314   5.066   0.141   5.112  0.2360 -0.6437  0.0128
10032SOL    HW141315   5.132   0.118   5.040  1.0842 -1.0394  0.9038
10032SOL    HW241316   5.030   0.056   5.151  1.3748 -0.4640  1.4975
10033SOL     OW41317   9.488   0.632   0.851 -0.4211  0.2569 -0.3825
10033SOL    HW141318   9.487   0.611   0.949  2.3730  2.0633  0.0846
10033SOL    HW241319   9.531   0.556   0.802 -0.8686 -0.1883 -0.0997
10034SOL     OW41320   2.148   7.012   2.322  0.2138 -0.3603  0.2362
10034SOL    HW141321   2.117   6.926   2.363 -1.2310 -0.1539 -0.3714
10034SOL    HW241322   2.149   7.004   2.223 -1.4775  0.7909  0.0993
10035SOL     OW41323   4.527   2.657   2.001  0.0557  0.4432 -0.3770
10035SOL    HW141324   4.515   2.561   1.979  0.3158  0.7373 -1.8326
10035SOL    HW241325   4.625   2.677   2.012  0.0130  0.5753 -0.2345
10036SOL     OW41326   6.459   5.678   6.264 -0.3588 -0.3200  0.3752
10036SOL    HW141327   6.545   5.708   6.304 -2.0375  1.7923  2.5536
10036SOL    HW241328   6.470   5.667   6.166  2.5052 -0.5644  0.6852
10037SOL     OW41329   8.440   7.362   2.104 -0.1542 -0.0209  0.0472
10037SOL    HW141330   8.356   7.338   2.055 -0.4173 -0.7445  0.8527
10037SOL    HW241331   8.508   7.290   2.091  0.0553  0.1686  0.0839
10038SOL     OW41332   2.272   8.029   3.659 -0.1762 -0.7702  0.0155
10038SOL    HW141333   2.199   8.022   3.727 -0.2573 -1.3670 -0.1330
10038SOL    HW241334   2.356   7.988   3.696  0.5115  1.2343  0.7728
10039SOL     OW41335   7.482   8.702   3.530  0.5557  0.5930 -0.4841
10039SOL    HW141336   7.395   8.676   3.488 -1.0527  1.0885  2.4144
10039SOL    HW241337   7.539   8.621   3.542 -1.2238 -0.4318  1.3436
10040SOL     OW41338   8.665   7.908   1.576 -0.0086 -0.3501  0.5771
10040SOL    HW141339   8.746   7.920   1.633  0.7212 -1.4518 -0.2147
10040SOL    HW241340   8.651   7.990   1.520  0.2883  0.0192  1.0399
10041SOL     OW41341   1.989   8.270   0.759  0.1470 -0.5584  0.1993
10041SOL    HW141342   2.013   8.240   0.851  0.2465 -1.2513 -0.0489
10041SOL    HW241343   1.972   8.190   0.701 -0.5595 -0.1146 -0.2115
10042SOL     OW41344   8.000   7.528   4.386  0.2864  0.1098 -0.5207
10042SOL    HW141345   7.903   7.520   4.365 -0.1674  0.3870  1.4416
10042SOL    HW241346   8.043   7.593   4.322 -0.6486 -0.5895 -1.8631
10043SOL     OW41347   4.228   3.484   0.127  0.0785  0.4518 -0.5860
10043SOL    HW141348   4.219   3.385   0.118  0.4201  0.4476 -0.8706
10043SOL    HW241349   4.236   3.509   0.223  1.1001  0.1158 -0.5869
10044SOL     OW41350   5.364   9.844   2.188  0.1013  0.2385 -0.1642
10044SOL    HW141351   5.405   9.791   2.114  0.4425 -0.0384  0.2146
10044SOL    HW241352   5.299   9.910   2.151  0.9327  0.7136 -0.7833
10045SOL     OW41353   0.677   2.540   0.039  0.6221  0.3853 -0.0187
10045SOL    HW141354   0.732   2.582   0.111  0.2850 -0.3943  0.6989
10045SOL    HW241355   0.616   2.472   0.079  0.7120 -0.3373 -1.0951
10046SOL     OW41356   7.249   4.077   0.276 -0.6333  0.4429 -0.0632
10046SOL    HW141357   7.202   4.134   0.343 -0.4545  0.7663 -0.2085
10046SOL    HW241358   7.311   4.134   0.222 -0.4380  0.1065 -0.1972
10047SOL     OW41359   8.159   7.392   6.381  0.6227  0.0793 -0.1350
10047SOL    HW141360   8.151   7.371   6.283  0.3570 -0.8741  0.0926
10047SOL    HW241361   8.249   7.364   6.414  0.0462 -1.2694  0.3059
10048SOL     OW41362   8.259   8.532   4.474 -0.5986  0.2274  0.2972
10048SOL    HW141363   8.357   8.516   4.491 -1.1908 -2.6411  1.1980
10048SOL    HW241364   8.209   8.525   4.560 -1.5006  2.9529  0.0521
10049SOL     OW41365   2.429   4.406   5.267  0.0034 -0.2853  0.0302
10049SOL    HW141366   2.446   4.313   5.236  0.9540 -0.4951  1.1234
10049SOL    HW241367   2.488   4.469   5.216  3.0124 -0.8364  2.6399
10050SOL     OW41368   7.799   4.239   2.763 -0.3428 -0.0660 -0.4198
10050SOL    HW141369   7.848   4.325   2.753  1.7283 -1.1858 -0.3344
10050SOL    HW241370   7.766   4.210   2.673 -1.6976  1.1716 -0.3305
10051SOL     OW41371   2.608   2.182   2.346 -0.2543  0.1781  0.2286
10051SOL    HW141372   2.594   2.088   2.314  2.5212  0.1629 -1.0923
10051SOL    HW241373   2.670   2.182   2.424 -2.0495  0.7736  1.7105
10052SOL     OW41374   4.142   9.179   6.349  0.0145  0.5946  0.0459
10052SOL    HW141375   4.206   9.116   6.392 -0.2370  0.5346  0.3285
10052SOL    HW241376   4.065   9.195   6.410 -0.5070  0.2438 -0.5237
10053SOL     OW41377   6.407   4.762   0.647  0.4294  0.3140 -0.5454
10053SOL    HW141378   6.472   4.723   0.582  0.7724  1.4358 -0.8947
10053SOL    HW241379   6.411   4.862   0.641 -0.6243  0.3968  0.1333
10054SOL     OW41380   0.515   2.916   4.287  0.1674 -0.7236  0.6757
10054SOL    HW141381   0.537   2.903   4.190 -2.8178  0.5744 -0.2306
10054SOL    HW241382   0.521   2.828   4.335  1.3797 -1.4273 -0.7236
10055SOL     OW41383   0.075   4.575   3.852 -0.5999  0.3184 -0.0172
10055SOL    HW141384   0.161   4.553   3.807  0.3657  1.3163  1.3184
10055SOL    HW241385   0.035   4.491   3.890 -0.3425 -0.1792 -0.8263
10056SOL     OW41386   0.200   1.998   2.526  0.5767 -0.0767  0.1419
10056SOL    HW141387   0.173   1.914   2.477 -0.0605 -0.3089  0.8756
10056SOL    HW241388   0.121   2.060   2.529  1.3446  0.9940 -1.3021
10057SOL     OW41389   2.943   4.670   4.132 -0.3127 -0.1491  0.1369
10057SOL    HW141390   2.876   4.600   4.156 -0.6487  0.7266  1.8324
10057SOL    HW241391   2.994   4.640   4.051 -1.7113 -1.4961 -0.2939
10058SOL     OW41392   3.794   9.458   6.611  0.3486  0.1254 -0.2035
10058SOL    HW141393   3.743   9.478   6.694 -1.1535 -0.7178 -0.8984
10058SOL    HW241394   3.851   9.536   6.587  0.7782  0.3851  1.5887
10059SOL     OW41395   2.126   4.171   4.829 -0.0488 -0.5535  0.4235
10059SOL    HW141396   2.061   4.096   4.826 -1.4935  0.6688  0.5763
10059SOL    HW241397   2.118   4.219   4.917  0.4952  0.0868  0.1284
10060SOL     OW41398   3.277   5.388   5.249 -0.3876  0.1807 -0.1689
10060SOL    HW141399   3.235   5.453   5.186 -0.4978 -0.0985 -0.3825
10060SOL    HW241400   3.374   5.409   5.259 -0.6018  0.9545  0.4781
10061SOL     OW41401   1.553   5.873   5.391 -0.0665 -0.0999 -0.0082
10061SOL    HW141402   1.535   5.808   5.316  1.0661 -1.4831  0.8824
10061SOL    HW241403   1.489   5.949   5.385  0.9472  0.5940 -3.2936
10062SOL     OW41404   3.203   4.135   0.674 -0.2630  0.2223 -0.0533
10062SOL    HW141405   3.227   4.158   0.769 -0.9654 -0.2560  0.2422
10062SOL    HW241406   3.103   4.132   0.665 -0.1887 -0.5743 -0.6134
10063SOL     OW41407   0.760   0.802   2.140  0.7170  0.3494  0.4600
10063SOL    HW141408   0.738   0.884   2.086 -2.2170 -1.0111 -0.5507
10063SOL    HW241409   0.780   0.828   2.234  0.6509  2.3031 -0.0429
10064SOL     OW41410   3.822   1.678   1.825  0.1789  0.0672 -0.1001
10064SOL    HW141411   3.786   1.771   1.832  1.8281  0.6891  0.4929
10064SOL    HW241412   3.802   1.629   1.910  0.3459  0.2752  0.0629
10065SOL     OW41413   8.947   2.850   1.751 -0.4366  0.1305  0.0711
10065SOL    HW141414   9.034   2.846   1.800 -0.3370 -2.0395 -0.2398
10065SOL    HW241415   8.878   2.797   1.801 -0.8561 -0.4451 -1.0914
10066SOL     OW41416   1.140   2.224   4.325 -0.0323 -0.4417 -0.4760
10066SOL    HW141417   1.170   2.290   4.394 -0.5224 -0.4721 -0.2356
10066SOL    HW241418   1.212   2.214   4.256  0.4473 -0.3806  0.0044
10067SOL     OW41419   2.910   4.782   1.220 -0.0620 -0.0364 -0.0947
10067SOL    HW141420   2.831   4.726   1.194 -0.2425  0.5055 -0.7392
10067SOL    HW241421   2.878   4.865   1.265  0.1946 -0.3262  0.6311
10068SOL     OW41422   0.513   2.753   0.787 -0.2552 -0.1138  0.3921
10068SOL    HW141423   0.515   2.761   0.687  0.3821  0.8768  0.4733
10068SOL    HW241424   0.434   2.803   0.823  0.4943  1.0231  0.4950
10069SOL     OW41425   8.416   3.502   5.120  0.9259 -0.3008 -0.1569
10069SOL    HW141426   8.348   3.564   5.159  1.1882 -0.8087  1.1171
10069SOL    HW241427   8.374   3.449   5.046  0.7453  1.5102 -1.3969
10070SOL     OW41428   4.381   0.374   5.780 -0.1710 -0.2018 -0.1143
10070SOL    HW141429   4.330   0.314   5.718  3.9773 -0.5557 -3.4348
10070SOL    HW241430   4.441   0.318   5.837  0.7568  0.5167 -0.3837
10071SOL     OW41431   0.069   1.894   4.620 -0.4084 -0.4251 -0.1213
10071SOL    HW141432   0.118   1.970   4.664 -1.0882  0.5794 -1.0996
10071SOL    HW241433   0.098   1.887   4.525 -0.6305 -1.1571 -0.1318
10072SOL     OW41434   0.865   8.847   2.378  0.2379  0.3456 -0.7278
10072SOL    HW141435   0.791   8.915   2.381  1.1706  1.3200  1.0220
10072SOL    HW241436   0.837   8.770   2.321 -1.5370  1.3815 -1.3084
10073SOL     OW41437   9.121   7.471   3.387  0.2352  0.4145 -0.4924
10073SOL    HW141438   9.073   7.431   3.308  1.1937 -1.3998 -0.1770
10073SOL    HW241439   9.186   7.405   3.424 -1.2517  0.6747  2.7582
10074SOL     OW41440   8.628   3.351   4.240  0.7119  0.0468 -0.5045
10074SOL    HW141441   8.653   3.339   4.144 -2.0560  1.6666 -1.4678
10074SOL    HW241442   8.543   3.304   4.259  0.7987  0.4496  0.9520
10075SOL     OW41443   3.741   2.463   3.470 -0.7596  0.1298 -0.5462
10075SOL    HW141444   3.716   2.544   3.417 -1.3064  0.5248  0.3196
10075SOL    HW241445   3.665   2.398   3.469 -0.5585 -0.1078 -0.7041
10076SOL     OW41446   9.693   6.666   3.385 -0.2464 -0.5826  0.0812
10076SOL    HW141447   9.664   6.730   3.314 -0.8929 -1.4775 -0.4749
10076SOL    HW241448   9.649   6.691   3.472 -0.2344 -0.0783 -0.0569
10077SOL     OW41449   0.308   4.027   6.464  0.1529  0.1789  0.6282
10077SOL    HW141450   0.374   4.000   6.393 -1.0790  0.6004 -0.6984
10077SOL    HW241451   0.321   4.123   6.487  1.5086 -0.3218  2.0430
10078SOL     OW41452   4.374   4.669   4.651 -0.5547  0.1439  0.1518
10078SOL    HW141453   4.297   4.632   4.598  1.8225 -1.8471 -2.0816
10078SOL    HW241454   4.374   4.627   4.742 -0.7075 -1.6986 -0.6765
10079SOL     OW41455   5.368   9.679   2.411  0.2889 -0.2301  0.2804
10079SOL    HW141456   5.298   9.608   2.403  1.6598 -1.5252 -0.5293
10079SOL    HW241457   5.389   9.717   2.321 -0.6080  1.4070  0.7374
10080SOL     OW41458   1.216   8.839   0.192 -0.3276  0.1781  0.4486
10080SOL    HW141459   1.150   8.813   0.261 -1.9757 -2.3249 -1.9626
10080SOL    HW241460   1.297   8.781   0.199  0.1031  0.8577  1.1416
10081SOL     OW41461   4.731   1.987   0.960 -0.3278 -0.0032 -0.3556
10081SOL    HW141462   4.711   2.037   1.044  0.8884 -1.4168  0.7914
10081SOL    HW241463   4.715   2.047   0.881 -2.6379  0.9653  0.8056
10082SOL     OW41464   0.627   9.589   5.236  0.1499 -0.3020  0.5301
10082SOL    HW141465   0.720   9.574   5.205  0.5444  1.7436  0.6450
10082SOL    HW241466   0.621   9.569   5.334  0.3248 -0.9825  0.4043
10083SOL     OW41467   0.921   1.902   6.177  0.3908  0.3798  0.2599
10083SOL    HW141468   0.906   1.854   6.091 -0.1535 -1.0317  1.1275
10083SOL    HW241469   0.977   1.846   6.237 -0.3854  0.7447  1.3509
10084SOL     OW41470   2.877   0.200   4.840 -0.1195  0.4487  0.0598
10084SOL    HW141471   2.799   0.185   4.901 -0.2711  1.1357  0.0415
10084SOL    HW241472   2.962   0.193   4.893 -0.3230  3.1342  0.8112
10085SOL     OW41473   8.861   1.198   5.394 -0.0471 -0.5004 -0.1477
10085SOL    HW141474   8.902   1.255   5.465  1.4084 -2.5793  0.7355
10085SOL    HW241475   8.805   1.254   5.333  0.0515  1.5816  1.6446
10086SOL     OW41476   3.969   3.339   1.061  0.3366  0.0401  0.1846
10086SOL    HW141477   3.917   3.423   1.050  0.2227  0.1354  1.3891
10086SOL    HW241478   3.919   3.263   1.018 -1.1503  0.0105  1.9137
10087SOL     OW41479   4.150   9.379   3.840 -0.1125  0.0931  0.0865
10087SOL    HW141480   4.236   9.425   3.861  0.3296 -0.5613 -0.2458
10087SOL    HW241481   4.104   9.354   3.925  1.6267 -2.4783  0.3497
10088SOL     OW41482   3.257   0.843   2.058 -0.0131 -0.0864  0.1892
10088SOL    HW141483   3.328   0.786   2.100 -0.2684 -0.2577  0.3836
10088SOL    HW241484   3.274   0.848   1.959 -0.5305 -1.2806  0.0292
10089SOL     OW41485   5.481   1.973   1.340  0.1448  0.0586 -0.4613
10089SOL    HW141486   5.539   1.943   1.415  1.4742 -0.0317 -1.5021
10089SOL    HW241487   5.425   2.051   1.370  2.2413  1.4116 -0.0221
10090SOL     OW41488   3.541   2.921   0.030  0.0552  0.3781  1.1834
10090SOL    HW141489   3.534   2.832  -0.016  1.0955  0.4137  0.9297
10090SOL    HW241490   3.620   2.920   0.091 -0.1077  1.0338  1.4003
10091SOL     OW41491   6.929   0.774   0.367  0.2647 -0.0905  0.1613
10091SOL    HW141492   6.932   0.847   0.435  0.4914  0.6332 -0.6220
10091SOL    HW241493   7.022   0.737   0.353  0.0403 -1.0363  1.0933
10092SOL     OW41494   8.515   6.894   2.652  0.2596  0.4729 -0.1386
10092SOL    HW141495   8.588   6.897   2.721 -0.2887  1.8105  0.3999
10092SOL    HW241496   8.554   6.865   2.565  1.0982 -0.5546  0.5596
10093SOL     OW41497   1.872   0.611   0.066  0.4459 -0.0635  0.0380
10093SOL    HW141498   1.959   0.634   0.023  0.5217  0.2018  0.3318
10093SOL    HW241499   1.882   0.613   0.166  0.1775 -0.3110  0.0725
10094SOL     OW41500   2.730   9.419   4.268  0.1804  0.0830 -0.0769
10094SOL    HW141501   2.694   9.390   4.357  0.1527 -0.6508 -0.3221
10094SOL    HW241502   2.694   9.509   4.245 -0.4189 -0.0595  0.3020
10095SOL     OW41503   9.853   1.709   4.370  0.1596  0.2674  0.3963
10095SOL    HW141504   9.863   1.673   4.463 -0.8799 -0.4775  0.2332
10095SOL    HW241505   9.904   1.651   4.306 -1.0772 -0.6362  0.2036
10096SOL     OW41506   1.022   3.971   5.193  0.5769  0.0936  0.2598
10096SOL    HW141507   1.029   4.070   5.177  3.3076  0.3154  2.4233
10096SOL    HW241508   0.933   3.938   5.162 -1.2475  3.6288  1.5148
10097SOL     OW41509   9.573   1.329   2.638 -0.2832  0.1383  0.3019
10097SOL    HW141510   9.512   1.362   2.710  0.5699 -0.2315  1.2070
10097SOL    HW241511   9.633   1.258   2.675 -0.8576 -1.1324 -1.1582
10098SOL     OW41512   9.614   3.393   4.480  0.8959  0.6882  0.0081
10098SOL    HW141513   9.568   3.305   4.473 -1.1849  1.8905 -2.3734
10098SOL    HW241514   9.627   3.416   4.576 -1.2485 -0.8445  0.7164
10099SOL     OW41515   7.239   7.320   4.539 -0.2912 -0.1671  0.6266
10099SOL    HW141516   7.287   7.321   4.627 -0.8252 -0.2503  0.9162
10099SOL    HW241517   7.155   7.374   4.546 -1.1909 -1.5517  0.6424
10100SOL     OW41518   4.649   0.875   5.716 -0.1833  0.4594  0.2571
10100SOL    HW141519   4.630   0.849   5.811  1.3217 -0.8119  0.2353
10100SOL    HW241520   4.622   0.800   5.656 -2.0191  1.6351 -0.4354
10101SOL     OW41521   5.081   7.903   2.640  0.1691 -0.1665  0.2573
10101SOL    HW141522   5.149   7.860   2.582 -0.9777  0.7175 -1.8085
10101SOL    HW241523   5.115   7.992   2.671  1.0631 -0.9405  1.5424
10102SOL     OW41524   1.666   2.694   5.307 -0.1862 -0.1818 -0.1585
10102SOL    HW141525   1.592   2.752   5.273  1.5687  2.3207  0.1511
10102SOL    HW241526   1.671   2.703   5.407 -0.5167 -1.6646  0.0040
10103SOL     OW41527   4.187   4.374   6.072 -0.3531 -0.8029  0.1816
10103SOL    HW141528   4.246   4.428   6.132  0.9006  0.1675 -1.8699
10103SOL    HW241529   4.219   4.279   6.070  2.0504 -0.0208 -1.9247
10104SOL     OW41530   1.144   6.719   1.093  0.0075 -0.7099  0.1754
10104SOL    HW141531   1.142   6.706   0.994  0.4905  0.9829 -0.0702
10104SOL    HW241532   1.084   6.652   1.136  0.8030 -2.3240 -1.1473
10105SOL     OW41533   0.076   0.685   0.203 -0.2636  0.3953 -0.7733
10105SOL    HW141534   0.073   0.780   0.234  2.2658  0.5868 -1.0302
10105SOL    HW241535   0.061   0.682   0.104 -0.6704  0.5015 -0.7139
10106SOL     OW41536   4.224   8.574   3.562 -0.1428 -0.1391  0.0300
10106SOL    HW141537   4.269   8.639   3.624 -0.7703  0.6661 -0.3650
10106SOL    HW241538   4.252   8.592   3.468  0.5909 -1.1901  0.0324
10107SOL     OW41539   5.039   4.699   1.819  0.0502 -0.1615  0.1794
10107SOL    HW141540   5.025   4.798   1.818 -0.2642 -0.1524  2.1685
10107SOL    HW241541   4.951   4.654   1.832  0.3988 -0.6227  0.9588
10108SOL     OW41542   3.690   6.368   1.873 -0.0697 -0.2269 -0.0623
10108SOL    HW141543   3.741   6.288   1.841 -0.1637 -0.0828 -0.5712
10108SOL    HW241544   3.605   6.339   1.916  0.1686 -0.4337  0.2773
10109SOL     OW41545   0.774   0.334   4.769  0.2476  0.0665 -0.2230
10109SOL    HW141546   0.874   0.331   4.763  0.4179 -1.3228  2.5212
10109SOL    HW241547   0.747   0.388   4.848 -1.1919  0.5473 -1.0344
10110SOL     OW41548   1.453   7.937   2.101  0.3685  0.4670 -0.4063
10110SOL    HW141549   1.412   7.916   2.189  0.1525  1.1715 -0.3305
10110SOL    HW241550   1.477   8.034   2.098  2.5064 -0.0171 -0.2574
10111SOL     OW41551   6.196   0.105   3.734  0.2650  0.9544  0.7029
10111SOL    HW141552   6.210   0.109   3.636 -1.4088 -1.0423  0.3451
10111SOL    HW241553   6.279   0.073   3.779  0.6000  0.5630 -0.1945
10112SOL     OW41554   2.903   3.267   1.744  0.3395 -0.3014 -0.4185
10112SOL    HW141555   2.856   3.190   1.700 -1.5027  0.6931 -0.2399
10112SOL    HW241556   2.972   3.232   1.808 -1.1351 -1.8249  0.3593
10113SOL     OW41557   3.602   3.920   4.570 -0.0880 -0.0890  0.2012
10113SOL    HW141558   3.549   3.958   4.646  1.3946  2.0051  0.2369
10113SOL    HW241559   3.669   3.988   4.540  1.0943 -1.8824 -1.2701
10114SOL     OW41560   0.557   0.907   3.928 -0.7704 -0.2442  0.2195
10114SOL    HW141561   0.499   0.964   3.869 -0.0632 -1.2112 -1.4293
10114SOL    HW241562   0.554   0.813   3.897  1.2955 -0.3903  0.4454
10115SOL     OW41563   9.727   5.425   5.896 -0.4830 -0.1485  0.2385
10115SOL    HW141564   9.790   5.499   5.921 -0.9856  0.2984  0.1782
10115SOL    HW241565   9.779   5.340   5.885  0.3623  0.5681 -1.4643
10116SOL     OW41566   8.244   5.633   0.557 -0.8060  0.0880  0.4212
10116SOL    HW141567   8.264   5.547   0.604  0.6135  0.3623  0.3321
10116SOL    HW241568   8.235   5.707   0.623  1.5545  0.5445  0.2798
10117SOL     OW41569   4.175   9.353   0.506  0.1628 -0.0640  0.0269
10117SOL    HW141570   4.129   9.440   0.490  1.3137  0.5754  0.1042
10117SOL    HW241571   4.260   9.369   0.556  0.9332 -1.1031 -0.9132
10118SOL     OW41572   8.079   2.022   4.479  0.4558  0.1576 -0.2360
10118SOL    HW141573   8.096   1.986   4.571 -2.4913 -0.1378  0.2505
10118SOL    HW241574   8.088   2.121   4.479  1.2282  0.0891  0.1779
10119SOL     OW41575   9.171   0.279   1.115  0.1649  0.1312 -0.0160
10119SOL    HW141576   9.253   0.221   1.111 -0.7550 -1.1906 -0.1649
10119SOL    HW241577   9.092   0.227   1.081 -0.6314  1.5786 -0.3938
10120SOL     OW41578   7.176   4.001   1.789 -0.4559 -0.1861  0.6040
10120SOL    HW141579   7.274   3.981   1.777 -0.5134 -0.3795  0.4520
10120SOL    HW241580   7.148   3.979   1.882 -0.8735 -2.2760  0.0005
10121SOL     OW41581   9.849   5.544   1.880  0.2359 -0.3594  0.2650
10121SOL    HW141582   9.788   5.581   1.810  0.0669  1.9925  1.6061
10121SOL    HW241583   9.940   5.584   1.868  0.4949 -0.8266  0.6939
10122SOL     OW41584   3.586   5.338   3.960  0.3209  0.4596  0.9411
10122SOL    HW141585   3.554   5.252   4.000  2.9223 -1.1459 -0.2630
10122SOL    HW241586   3.554   5.344   3.865 -0.2418  1.0791  1.1605
10123SOL     OW41587   6.532   0.449   1.279 -0.2622  0.3378 -0.2691
10123SOL    HW141588   6.535   0.430   1.378 -0.1365  0.0690 -0.3232
10123SOL    HW241589   6.453   0.402   1.239 -0.1722  0.2439 -0.3376
10124SOL     OW41590   8.217   8.415   3.498  0.1928 -1.0484 -0.6349
10124SOL    HW141591   8.302   8.451   3.461 -0.7108  1.6461 -0.2068
10124SOL    HW241592   8.165   8.489   3.541 -2.0065 -2.7869 -0.1910
10125SOL     OW41593   4.051   0.899   1.728  0.1735  0.4766 -0.3673
10125SOL    HW141594   4.040   0.864   1.634  1.2199  2.1784 -1.1499
10125SOL    HW241595   4.107   0.835   1.781  0.0808 -0.2084 -1.0823
10126SOL     OW41596   9.872   8.092   3.067  0.1760 -0.6470  0.0718
10126SOL    HW141597   9.957   8.120   3.111 -0.1535  1.2419 -0.4553
10126SOL    HW241598   9.893   8.033   2.989  1.1680  1.6203 -1.4341
10127SOL     OW41599   3.611   2.168   5.486  0.0148 -0.1282 -0.3936
10127SOL    HW141600   3.664   2.135   5.408 -0.9628  1.7109 -1.8585
10127SOL    HW241601   3.542   2.099   5.510  0.6091 -0.8965 -0.8626
10128SOL     OW41602   9.598   2.538   4.008  0.1639  0.0323  0.6239
10128SOL    HW141603   9.522   2.501   3.954  0.1682  0.3373  0.4071
10128SOL    HW241604   9.684   2.510   3.968  0.1660 -0.4575  0.9695
10129SOL     OW41605   2.680   1.830   3.956  0.1235  0.6133  0.2851
10129SOL    HW141606   2.774   1.856   3.981  0.8928 -2.3200  0.6703
10129SOL    HW241607   2.644   1.766   4.024 -1.1857 -0.3061 -1.2331
10130SOL     OW41608   9.252   0.576   1.025  0.1225 -0.2253  0.1283
10130SOL    HW141609   9.281   0.551   0.933  3.0185 -1.3091  1.2887
10130SOL    HW241610   9.196   0.502   1.064  0.2986 -0.5066 -0.1524
10131SOL     OW41611   3.927   1.849   5.532  0.4079 -0.4220  0.5752
10131SOL    HW141612   3.843   1.899   5.554 -0.0995 -0.6026 -0.8915
10131SOL    HW241613   4.004   1.912   5.529  0.5156 -0.4074  2.9109
10132SOL     OW41614   7.276   3.497   4.716 -0.0237 -0.5823 -0.4970
10132SOL    HW141615   7.190   3.448   4.711  0.1340 -0.9323  0.1756
10132SOL    HW241616   7.351   3.433   4.730  0.4393 -0.3496 -1.8558
10133SOL     OW41617   0.620   6.894   6.714 -0.2607 -0.1088  0.5919
10133SOL    HW141618   0.692   6.957   6.685  0.8616 -0.6932  2.0470
10133SOL    HW241619   0.592   6.838   6.637  1.3896 -0.3882  0.1716
10134SOL     OW41620   0.735   7.012   4.591  0.2227 -0.1519 -0.2206
10134SOL    HW141621   0.759   6.987   4.497  0.8810  0.9198 -0.3488
10134SOL    HW241622   0.642   6.982   4.611 -1.1791  2.5777 -2.3420
10135SOL     OW41623   2.447   9.870   0.262 -0.0858 -0.0335  0.6922
10135SOL    HW141624   2.427   9.774   0.285 -0.1322 -0.1554  0.1528
10135SOL    HW241625   2.430   9.884   0.164  0.1358  0.4709  0.7300
10136SOL     OW41626   0.609   1.342   4.885 -0.1432  0.7932 -0.2666
10136SOL    HW141627   0.624   1.270   4.953  0.8554  1.6068  0.3940
10136SOL    HW241628   0.686   1.406   4.887 -0.9163  1.7582 -0.9939
10137SOL     OW41629   9.584   2.795   0.273  0.3049 -0.3829  0.4844
10137SOL    HW141630   9.538   2.710   0.300  1.5909 -1.0042  0.7463
10137SOL    HW241631   9.541   2.872   0.321 -0.6775 -0.9130  0.4703
10138SOL     OW41632   5.659   0.372   3.756  0.1372 -0.0573 -0.2290
10138SOL    HW141633   5.714   0.454   3.772  1.8817 -1.3401  0.4697
10138SOL    HW241634   5.698   0.319   3.680 -0.4755 -0.6983 -0.1070
10139SOL     OW41635   4.213   3.162   3.870  0.1059 -0.8370  0.0757
10139SOL    HW141636   4.137   3.156   3.935 -1.8659 -0.1811 -2.1016
10139SOL    HW241637   4.199   3.096   3.796  0.8788  0.3096 -1.1163
10140SOL     OW41638   0.900   5.660   2.652 -0.2780 -0.3705 -0.4654
10140SOL    HW141639   0.852   5.716   2.719  2.6370  1.5007  0.1268
10140SOL    HW241640   0.877   5.690   2.559 -1.2806 -0.4132 -0.2365
10141SOL     OW41641   1.330   9.176   5.314  0.1924 -0.8224  0.0996
10141SOL    HW141642   1.288   9.150   5.401 -2.0731  1.8198 -0.1127
10141SOL    HW241643   1.380   9.262   5.327 -0.9873  0.1152 -1.3820
10142SOL     OW41644   7.550   4.004   4.510  0.2652  0.5337  0.2861
10142SOL    HW141645   7.620   3.939   4.538  0.2242 -0.2888 -1.4375
10142SOL    HW241646   7.467   3.989   4.563  0.5566 -0.2035  0.5336
10143SOL     OW41647   3.893   7.771   3.922 -0.3537 -0.0548 -0.4418
10143SOL    HW141648   3.931   7.841   3.861 -0.6338 -0.6228 -1.2783
10143SOL    HW241649   3.895   7.805   4.017  2.0307  0.0057 -0.4840
10144SOL     OW41650   7.933   0.325   5.281 -0.1988 -0.1628  0.5433
10144SOL    HW141651   7.874   0.406   5.273  0.8685  0.4325 -1.4867
10144SOL    HW241652   7.993   0.336   5.360  0.4685  1.3833 -0.1567
10145SOL     OW41653   2.456   6.869   0.858 -0.5592 -0.0352  0.7549
10145SOL    HW141654   2.404   6.784   0.862  0.5579 -0.7010  1.5314
10145SOL    HW241655   2.505   6.882   0.944  0.0084  0.9313  0.2930
10146SOL     OW41656   7.328   3.650   1.982  0.1469 -0.4312 -0.3322
10146SOL    HW141657   7.232   3.657   2.010  0.0153 -0.1097 -0.8515
10146SOL    HW241658   7.372   3.574   2.030 -0.1091  0.0387  0.6464
10147SOL     OW41659   9.764   6.750   0.399 -0.1853  0.3609 -0.3213
10147SOL    HW141660   9.697   6.685   0.433  0.7901 -0.7537 -0.5065
10147SOL    HW241661   9.793   6.811   0.473  0.0434 -0.4037  0.2178
10148SOL     OW41662   2.828   3.432   0.969 -0.1563  0.3683  0.0335
10148SOL    HW141663   2.867   3.461   0.881 -0.0834  1.1528  0.3193
10148SOL    HW241664   2.777   3.508   1.009 -1.3010 -0.3961  0.0492
10149SOL     OW41665   9.519   5.207   4.604 -0.3629 -0.9187 -0.8050
10149SOL    HW141666   9.425   5.240   4.607 -0.1349 -0.2101 -1.3237
10149SOL    HW241667   9.572   5.253   4.676  0.3329  1.0562 -2.5444
10150SOL     OW41668   3.052   9.267   5.411 -0.5974 -0.0281  0.7278
10150SOL    HW141669   2.957   9.265   5.378  0.4633 -1.4695 -2.4228
10150SOL    HW241670   3.103   9.336   5.360 -0.5283  2.7222  4.3296
10151SOL     OW41671   1.996   5.761   4.837 -0.2301  0.5364  0.2070
10151SOL    HW141672   1.916   5.701   4.833 -0.5962  0.9981  0.5557
10151SOL    HW241673   2.072   5.719   4.787 -0.7485  0.1862 -0.2854
10152SOL     OW41674   7.446   7.622   4.625 -0.9506  0.2855 -0.3462
10152SOL    HW141675   7.476   7.715   4.602 -1.3427  1.1764  2.4993
10152SOL    HW241676   7.346   7.618   4.623 -0.9277 -0.1707 -0.7318
10153SOL     OW41677   1.502   4.220   2.264 -0.1648  0.2451 -0.0720
10153SOL    HW141678   1.409   4.236   2.297 -0.0767  0.5256  0.0410
10153SOL    HW241679   1.545   4.307   2.244 -0.0088  0.1028 -0.3584
10154SOL     OW41680   7.694   6.539   1.345  0.1179 -0.1347 -0.0872
10154SOL    HW141681   7.635   6.539   1.426 -0.5327 -0.1491 -0.5504
10154SOL    HW241682   7.702   6.446   1.309 -1.7750  0.2278 -1.5731
10155SOL     OW41683   8.013   2.096   0.238 -1.0555  0.2890 -0.0589
10155SOL    HW141684   8.108   2.093   0.209 -0.4156 -0.7636  2.0648
10155SOL    HW241685   7.994   2.184   0.283 -0.5976 -0.1855  1.0796
10156SOL     OW41686   2.140   6.165   3.081  0.1257 -0.3485 -0.2825
10156SOL    HW141687   2.128   6.068   3.061  1.6833 -0.8276  0.9850
10156SOL    HW241688   2.109   6.184   3.174  2.2001 -0.1528  0.3860
10157SOL     OW41689   5.731   0.748   4.848 -0.2213  0.0195 -0.2550
10157SOL    HW141690   5.704   0.671   4.906  0.9794  0.7673  1.3408
10157SOL    HW241691   5.824   0.734   4.815  1.0639  2.0356  2.3252
10158SOL     OW41692   3.127   6.149   4.598 -0.2742  0.1117  0.0009
10158SOL    HW141693   3.072   6.065   4.594 -0.2294  0.1407 -1.6779
10158SOL    HW241694   3.222   6.127   4.574 -0.2874  0.6584 -0.5536
10159SOL     OW41695   3.250   9.216   6.571  0.2846 -0.2400  0.1799
10159SOL    HW141696   3.262   9.162   6.488  1.0584  0.6496 -0.2951
10159SOL    HW241697   3.338   9.258   6.597  0.1978 -1.0073  1.7887
10160SOL     OW41698   2.726   3.425   3.987 -0.2789 -0.2222  0.2347
10160SOL    HW141699   2.733   3.510   4.040 -1.7240 -0.9150  1.5780
10160SOL    HW241700   2.814   3.379   3.986 -0.1952 -0.1473  1.9705
10161SOL     OW41701   3.869   1.303   3.172  0.1906  0.2303  0.1508
10161SOL    HW141702   3.857   1.379   3.236 -0.4848 -0.0629  0.3878
10161SOL    HW241703   3.855   1.335   3.079  0.4581  0.5152  0.2116
10162SOL     OW41704   0.344   6.714   5.077  0.6788  0.1947  0.1815
10162SOL    HW141705   0.264   6.653   5.083  1.3540 -0.7567 -0.2705
10162SOL    HW241706   0.366   6.748   5.168  1.1312 -1.3693  0.6863
10163SOL     OW41707   2.060   4.344   6.532  0.0201 -0.1393 -0.1901
10163SOL    HW141708   2.002   4.370   6.610 -0.1741 -1.5478  0.1380
10163SOL    HW241709   2.006   4.349   6.448  0.9482  4.0721 -0.6416
10164SOL     OW41710   8.708   6.090   6.321 -0.7474  0.2140 -0.7867
10164SOL    HW141711   8.649   6.018   6.285 -1.3264  0.6932 -0.8162
10164SOL    HW241712   8.684   6.109   6.416 -0.0499 -0.1959 -0.5280
10165SOL     OW41713   8.549   6.356   3.902  0.4817  0.2373 -0.1099
10165SOL    HW141714   8.451   6.356   3.922  0.4404  3.1780 -0.1004
10165SOL    HW241715   8.599   6.315   3.979 -0.5636  0.7853  0.8690
10166SOL     OW41716   9.929   4.306   5.195  0.2076  0.1942 -0.0618
10166SOL    HW141717  10.022   4.324   5.228 -0.3817  0.7829  1.2835
10166SOL    HW241718   9.903   4.212   5.218  0.4810  0.0021 -0.5091
10167SOL     OW41719   9.012   9.887   0.606 -0.2404 -0.3639 -0.0895
10167SOL    HW141720   9.070   9.863   0.528  1.4503  1.1448  0.6532
10167SOL    HW241721   8.997   9.806   0.663  2.4809 -0.4811  0.5385
10168SOL     OW41722   9.451   4.446   1.482  0.5419  0.4139  0.5679
10168SOL    HW141723   9.365   4.475   1.523  0.5789  1.1237  0.1624
10168SOL    HW241724   9.510   4.407   1.553  0.1735  0.6049  0.9843
10169SOL     OW41725   2.805   1.700   1.611  0.6676  0.3544  0.1335
10169SOL    HW141726   2.756   1.783   1.586 -0.2043  0.0278  0.7414
10169SOL    HW241727   2.782   1.675   1.705  0.2031 -1.0983 -0.3634
10170SOL     OW41728   0.100   8.976   1.727  0.0385 -0.1192 -0.6924
10170SOL    HW141729   0.014   8.929   1.746  0.3683 -0.0115  1.2223
10170SOL    HW241730   0.170   8.909   1.704 -0.0243 -0.3802 -0.1235
10171SOL     OW41731   3.075   7.393   3.173  0.2247  0.7578 -0.7593
10171SOL    HW141732   3.083   7.320   3.105  0.4059 -0.2245  0.3134
10171SOL    HW241733   3.123   7.366   3.257 -0.9412  1.5034  0.1511
10172SOL     OW41734   1.541   9.758   3.724 -0.2302  0.2530  0.1244
10172SOL    HW141735   1.487   9.697   3.780  1.7680  0.0233  1.8480
10172SOL    HW241736   1.614   9.799   3.779  0.8004  1.2433 -1.9065
10173SOL     OW41737   8.289   0.169   2.303 -0.1777 -0.0042 -0.6708
10173SOL    HW141738   8.286   0.092   2.367 -2.3481  0.4849 -0.1701
10173SOL    HW241739   8.385   0.194   2.286  0.4669  0.2285  2.8564
10174SOL     OW41740   8.119   0.118   6.586 -0.2988 -0.5248 -0.0399
10174SOL    HW141741   8.097   0.173   6.667  2.9282  0.4385  0.2797
10174SOL    HW241742   8.071   0.155   6.507 -2.1256 -0.3874  1.1188
10175SOL     OW41743   4.102   0.063   5.812  0.1195  1.0215 -0.0719
10175SOL    HW141744   4.099   0.147   5.758 -0.4697  1.0814  0.0558
10175SOL    HW241745   4.011   0.041   5.845 -0.0703 -0.6780 -1.6557
10176SOL     OW41746   1.488   0.301   4.489  0.2971  0.1336  0.3803
10176SOL    HW141747   1.440   0.355   4.419  0.4023  1.2568  1.1701
10176SOL    HW241748   1.451   0.209   4.490 -0.9091  0.6004  0.0238
10177SOL     OW41749   8.995   8.933   5.579  0.0652  0.2556 -0.2225
10177SOL    HW141750   8.915   8.984   5.549  0.3942  1.2898  0.6290
10177SOL    HW241751   9.017   8.958   5.674  3.4108  2.5240 -1.4939
10178SOL     OW41752   2.110   9.299   2.301 -0.2541  0.1717 -0.3145
10178SOL    HW141753   2.148   9.354   2.226 -0.8716 -0.0664 -0.8079
10178SOL    HW241754   2.178   9.233   2.332 -0.0068  0.2521 -0.6839
10179SOL     OW41755   3.572   8.500   2.433  0.2213  0.4776  0.1551
10179SOL    HW141756   3.657   8.493   2.381 -0.6875  1.4053 -1.4977
10179SOL    HW241757   3.546   8.409   2.468  1.8768  0.1951  0.6982
10180SOL     OW41758   8.215   1.222   3.533 -0.5034  0.0231  0.0680
10180SOL    HW141759   8.171   1.254   3.449 -0.1825  0.1518 -0.0554
10180SOL    HW241760   8.183   1.130   3.556 -1.5241  0.4759  0.4843
10181SOL     OW41761   6.059   7.521   4.180 -0.4656  0.6714 -0.6469
10181SOL    HW141762   6.087   7.617   4.169 -1.0582  0.8458 -0.6280
10181SOL    HW241763   5.967   7.517   4.219  0.7496  0.0825  2.3394
10182SOL     OW41764   8.192   2.390   2.022 -0.1132  0.1233  0.3196
10182SOL    HW141765   8.275   2.373   1.969 -0.4917 -0.3546 -0.1135
10182SOL    HW241766   8.170   2.488   2.017  0.2566  0.2039  0.1956
10183SOL     OW41767   3.227   6.253   1.073  0.6915  0.0277  0.1760
10183SOL    HW141768   3.142   6.304   1.087 -0.5029 -1.8809  0.0494
10183SOL    HW241769   3.251   6.255   0.976  0.2847 -0.2097  0.0688
10184SOL     OW41770   7.838   3.297   2.826  0.0669  0.4699  0.0092
10184SOL    HW141771   7.882   3.269   2.740 -1.3939  0.7909 -0.8669
10184SOL    HW241772   7.747   3.333   2.806 -0.6275 -0.2413  1.7983
10185SOL     OW41773   0.274   2.844   5.707 -0.5719 -0.4736 -0.7901
10185SOL    HW141774   0.222   2.920   5.668 -2.1249  0.0820  2.2544
10185SOL    HW241775   0.222   2.801   5.780  1.4301 -2.7711 -0.6430
10186SOL     OW41776   0.610   3.384   5.357 -0.1576  0.1009 -0.1417
10186SOL    HW141777   0.705   3.409   5.338 -0.6632 -0.2287 -3.3444
10186SOL    HW241778   0.557   3.466   5.376  0.4799  0.4263  0.2306
10187SOL     OW41779   9.596   2.499   4.902  0.1701 -0.4304  0.0391
10187SOL    HW141780   9.574   2.517   4.806  0.5236  2.8000  0.4937
10187SOL    HW241781   9.530   2.546   4.961  1.5717 -0.0651  1.3594
10188SOL     OW41782   4.662   3.443   1.136 -0.0957 -0.3056 -0.0408
10188SOL    HW141783   4.603   3.486   1.205 -2.4572 -1.5559 -1.2149
10188SOL    HW241784   4.673   3.346   1.158 -1.4182 -0.8588 -1.7764
10189SOL     OW41785   4.037   6.517   1.611  0.3249  0.3957  0.4165
10189SOL    HW141786   4.078   6.590   1.556 -0.9593  1.4056  0.7702
10189SOL    HW241787   3.939   6.512   1.592  0.7036 -2.5295 -1.0045
10190SOL     OW41788   7.221   1.161   0.413 -0.1240 -0.3418  0.1845
10190SOL    HW141789   7.209   1.245   0.361  1.1034  1.2383  2.3307
10190SOL    HW241790   7.143   1.148   0.475  1.0141  0.7949  1.9055
10191SOL     OW41791   0.826   2.142   1.587 -0.0756  1.1520 -0.9587
10191SOL    HW141792   0.855   2.106   1.676 -1.4819  2.1074 -0.0893
10191SOL    HW241793   0.892   2.114   1.517  0.5371 -0.4334  0.2082
10192SOL     OW41794   5.285   9.131   3.080 -1.2613  0.2934 -0.0095
10192SOL    HW141795   5.228   9.076   3.141 -1.5206  0.4075 -0.1467
10192SOL    HW241796   5.381   9.112   3.098 -1.3377  0.3413  0.4472
10193SOL     OW41797   2.708   3.865   2.973 -0.4053  0.4277 -0.5051
10193SOL    HW141798   2.735   3.958   2.948 -1.4181  0.8818  0.0699
10193SOL    HW241799   2.610   3.855   2.960 -0.1674 -0.8293 -1.3754
10194SOL     OW41800   0.147   5.580   4.326 -1.0842  0.7457  0.5282
10194SOL    HW141801   0.057   5.573   4.368 -1.0273 -1.1195  0.3874
10194SOL    HW241802   0.203   5.502   4.354 -0.9056 -0.3503 -2.6011
10195SOL     OW41803   5.221   8.453   4.000  0.2307  0.1749  0.3344
10195SOL    HW141804   5.230   8.410   3.910  0.6968 -2.0887  1.4453
10195SOL    HW241805   5.283   8.409   4.065  0.3191  2.1763  1.6456
10196SOL     OW41806   1.241   6.057   3.951 -0.2739  0.3226 -0.0399
10196SOL    HW141807   1.257   5.990   4.023  0.2624 -0.3834 -0.8099
10196SOL    HW241808   1.329   6.097   3.922 -0.2948 -0.6425 -1.4874
10197SOL     OW41809   2.923   3.532   1.627 -0.2406 -0.3445  0.0169
10197SOL    HW141810   3.021   3.548   1.627 -0.4414  0.8941  0.6220
10197SOL    HW241811   2.903   3.445   1.672  0.5772 -0.6206 -0.1509
10198SOL     OW41812   3.538   7.029   3.607 -0.0355  0.0577  0.2289
10198SOL    HW141813   3.514   6.981   3.691  1.2824 -0.3046  0.4183
10198SOL    HW241814   3.612   7.095   3.626  0.8310 -0.5954 -0.7820
10199SOL     OW41815   7.788   2.358   4.800 -0.3105  0.1408  0.1501
10199SOL    HW141816   7.709   2.334   4.744 -0.3465 -0.6601  0.5394
10199SOL    HW241817   7.872   2.337   4.751 -0.3376  1.3885 -0.4340
10200SOL     OW41818   5.582   9.554   4.445 -0.3676  0.1515 -0.1238
10200SOL    HW141819   5.525   9.567   4.364 -1.9819 -1.1832  0.7648
10200SOL    HW241820   5.530   9.578   4.527  0.0652 -1.7611  0.7601
10201SOL     OW41821   0.337   2.276   1.542 -0.2056  0.0608  0.0160
10201SOL    HW141822   0.381   2.210   1.604  1.0201  1.5945  0.8257
10201SOL    HW241823   0.400   2.300   1.469  0.2365  2.0908  1.0386
10202SOL     OW41824   6.363   1.941   3.879  0.1453  0.6050 -0.2417
10202SOL    HW141825   6.424   2.015   3.849  0.2541  0.4185 -0.4840
10202SOL    HW241826   6.353   1.875   3.805  1.3233 -0.4573  0.5437
10203SOL     OW41827   2.432   6.699   1.245  0.1703 -0.5610 -0.1004
10203SOL    HW141828   2.351   6.702   1.185  0.0021 -0.8739  0.1074
10203SOL    HW241829   2.402   6.704   1.340  0.5882  2.4155 -0.0996
10204SOL     OW41830   7.311   2.470   5.311 -0.0951  0.1964  0.6651
10204SOL    HW141831   7.334   2.467   5.214  1.8608 -0.0482  1.1178
10204SOL    HW241832   7.375   2.530   5.358 -1.3062  0.6616  1.7495
10205SOL     OW41833   9.525   9.300   2.871 -0.0155 -0.5726  0.1400
10205SOL    HW141834   9.548   9.217   2.922  1.5234  0.5035  1.2353
10205SOL    HW241835   9.536   9.379   2.931 -1.0606  0.4607 -1.0239
10206SOL     OW41836   6.748   8.156   4.192  0.6613 -0.1550  0.1857
10206SOL    HW141837   6.808   8.165   4.113  0.1972  2.1059  0.0769
10206SOL    HW241838   6.671   8.219   4.184 -0.3685 -1.1869  1.5706
10207SOL     OW41839   3.085   9.092   0.682 -0.3619  0.4618  0.1385
10207SOL    HW141840   3.084   8.994   0.664 -3.0645  1.0530 -3.4026
10207SOL    HW241841   2.999   9.119   0.726 -0.0730  1.3974  0.1398
10208SOL     OW41842   3.115   9.037   5.989 -0.6132 -0.1634 -0.1203
10208SOL    HW141843   3.184   8.969   5.965 -2.1215 -1.4121 -1.0300
10208SOL    HW241844   3.080   9.081   5.906 -1.7460 -0.4000  0.2129
10209SOL     OW41845   2.431   7.799   2.263  0.0666  0.2740 -0.1071
10209SOL    HW141846   2.381   7.723   2.304  1.0527 -0.2903  0.0557
10209SOL    HW241847   2.486   7.845   2.333 -0.6846  1.2759 -0.1606
10210SOL     OW41848   8.643   8.707   5.768 -0.4001 -0.5498 -0.5956
10210SOL    HW141849   8.698   8.635   5.726 -0.1078 -2.3997  2.7680
10210SOL    HW241850   8.548   8.676   5.775 -1.0598  0.9449 -2.5437
10211SOL     OW41851   8.147   7.512   3.594  0.2665  0.3340  0.3786
10211SOL    HW141852   8.246   7.514   3.612  0.3781 -0.2646 -0.1759
10211SOL    HW241853   8.112   7.606   3.591  0.8821  0.5613  0.2214
10212SOL     OW41854   2.800   9.839   5.543  0.1991 -0.0227  0.4396
10212SOL    HW141855   2.740   9.892   5.603 -0.4359 -0.1182 -0.1011
10212SOL    HW241856   2.778   9.742   5.551  0.8940 -0.1447  0.9084
10213SOL     OW41857   2.026   8.038   6.619 -0.5053  0.1429  0.4070
10213SOL    HW141858   1.952   8.056   6.555  0.3790  1.8897 -0.1270
10213SOL    HW241859   2.074   7.954   6.592  1.0718  1.8723 -2.3544
10214SOL     OW41860   5.266   2.696   3.555  0.3257  0.8776 -0.6431
10214SOL    HW141861   5.254   2.702   3.456 -1.8588  0.8267 -0.3949
10214SOL    HW241862   5.364   2.693   3.576  0.7990  0.2388 -2.8185
10215SOL     OW41863   3.181   9.366   0.691  0.4120  0.3250  0.0625
10215SOL    HW141864   3.195   9.406   0.601 -0.2292 -0.0713 -0.2105
10215SOL    HW241865   3.121   9.287   0.685  0.0308  0.5374  0.8887
10216SOL     OW41866   2.919   2.285   2.217  0.2700 -0.0110 -0.3601
10216SOL    HW141867   2.864   2.369   2.220 -0.4582 -0.5186  0.7437
10216SOL    HW241868   3.008   2.306   2.177 -0.5548  0.9186 -1.7510
10217SOL     OW41869   3.145   7.784   2.998 -1.2590  0.5997 -0.2466
10217SOL    HW141870   3.104   7.870   2.969  0.7845  1.7617  0.1836
10217SOL    HW241871   3.237   7.776   2.959 -0.6904 -0.4800  1.2512
10218SOL     OW41872   9.094   0.627   2.636 -0.4408 -0.0879  0.2456
10218SOL    HW141873   9.137   0.621   2.726 -1.6263  1.0517  0.8984
10218SOL    HW241874   9.163   0.655   2.568 -0.1973  2.0785  1.3440
10219SOL     OW41875   1.250   0.287   3.373 -0.0312  0.4578 -0.0638
10219SOL    HW141876   1.280   0.345   3.298 -2.1567  1.5762 -0.0962
10219SOL    HW241877   1.197   0.210   3.337 -0.5399  0.6645  0.2299
10220SOL     OW41878   3.368   0.578   4.553  0.2479 -0.3047  0.0641
10220SOL    HW141879   3.338   0.566   4.648 -1.1092  0.2880 -0.2751
10220SOL    HW241880   3.377   0.488   4.510 -1.4299 -0.5056  0.0769
10221SOL     OW41881   1.857   9.422   2.879 -0.2497  0.5013 -0.4563
10221SOL    HW141882   1.837   9.345   2.819  1.8835 -0.5045  0.0481
10221SOL    HW241883   1.900   9.496   2.826  0.1448  0.2650 -0.4679
10222SOL     OW41884   0.963   8.764   6.596 -0.0787 -0.0897  0.5116
10222SOL    HW141885   0.984   8.849   6.645  2.1520  0.3089 -1.0134
10222SOL    HW241886   1.018   8.690   6.634 -0.5371 -0.4068  0.5500
10223SOL     OW41887   1.875   1.340   3.405 -0.1020 -0.5406  0.3496
10223SOL    HW141888   1.812   1.281   3.456 -0.0491 -1.5100 -0.6668
10223SOL    HW241889   1.967   1.332   3.442 -0.0255 -1.3968 -0.0198
10224SOL     OW41890   4.868   1.147   1.407  0.4101 -0.2162  0.0923
10224SOL    HW141891   4.868   1.191   1.317  0.4574  0.8417  0.5999
10224SOL    HW241892   4.962   1.127   1.434  0.3651 -0.9329 -0.2873
10225SOL     OW41893   0.721   7.551   6.601  0.0705  0.2396  0.0153
10225SOL    HW141894   0.639   7.541   6.545 -0.2269  0.4234  0.4132
10225SOL    HW241895   0.777   7.626   6.567 -0.2087  0.4797  0.0798
10226SOL     OW41896   2.466   4.569   3.417 -0.1912 -0.7428  0.2676
10226SOL    HW141897   2.399   4.508   3.458  0.1028 -1.4726 -0.3339
10226SOL    HW241898   2.506   4.526   3.337 -0.8473  0.7204 -0.8641
10227SOL     OW41899   8.707   7.101   5.619 -0.4207  0.2588 -0.0672
10227SOL    HW141900   8.637   7.095   5.547  0.5806 -1.9860 -0.8894
10227SOL    HW241901   8.666   7.076   5.707 -1.4574  2.2439  0.0469
10228SOL     OW41902   2.977   8.120   5.485  0.3222 -0.5714  0.0605
10228SOL    HW141903   3.009   8.043   5.430 -0.0333 -0.2596 -0.5940
10228SOL    HW241904   2.901   8.165   5.437  2.2292  1.7867 -0.8115
10229SOL     OW41905   8.931   6.609   0.941  0.0191 -0.8780  0.2731
10229SOL    HW141906   8.966   6.602   0.848 -2.2009  0.8277 -0.7249
10229SOL    HW241907   8.970   6.689   0.986  0.0584 -0.9527  0.3745
10230SOL     OW41908   0.504   2.507   1.269  0.2538 -0.1073  0.4831
10230SOL    HW141909   0.552   2.422   1.291 -1.8248 -1.0109  1.6772
10230SOL    HW241910   0.538   2.580   1.329  1.2318 -0.3515  0.2402
10231SOL     OW41911   2.367   3.872   4.679 -0.0359  0.0050 -0.0442
10231SOL    HW141912   2.355   3.782   4.637 -0.9810 -0.2611  0.7866
10231SOL    HW241913   2.306   3.938   4.634  1.2183  0.4157 -1.1778
10232SOL     OW41914   8.449   0.540   2.938 -0.5499 -0.2336  0.1343
10232SOL    HW141915   8.508   0.461   2.922  1.0562  0.6157  1.7075
10232SOL    HW241916   8.462   0.607   2.864  1.7130  0.6560  1.2727
10233SOL     OW41917   0.965   1.857   0.965 -0.0953 -0.2267  0.4705
10233SOL    HW141918   0.885   1.904   0.928  1.0438  1.0192 -0.4701
10233SOL    HW241919   1.029   1.925   1.001  1.5628 -1.0594 -0.8739
10234SOL     OW41920   3.973   8.033   2.807  0.1771  0.0360  0.0083
10234SOL    HW141921   4.025   7.950   2.785 -0.7099 -0.3409 -0.7496
10234SOL    HW241922   4.028   8.093   2.864  1.4062 -0.3828 -0.7134
10235SOL     OW41923   9.186   5.300   4.755 -0.2874  0.1875 -0.0560
10235SOL    HW141924   9.247   5.331   4.683 -0.0994 -0.3610 -0.1402
10235SOL    HW241925   9.235   5.235   4.814 -1.0113 -0.8336 -0.5676
10236SOL     OW41926   0.473   3.097   3.801 -0.1460  0.2838  0.0186
10236SOL    HW141927   0.432   3.012   3.836  1.1089 -0.4935 -0.3711
10236SOL    HW241928   0.433   3.118   3.712 -1.6551  1.0109  0.8373
10237SOL     OW41929   7.123   1.535   6.357  0.8069  0.0135 -0.0350
10237SOL    HW141930   7.032   1.493   6.367  1.3400 -1.3053 -0.6362
10237SOL    HW241931   7.165   1.544   6.447  0.0563  0.6841  0.2557
10238SOL     OW41932   9.187   3.979   0.276  0.2920  0.2214 -0.2459
10238SOL    HW141933   9.107   4.039   0.273 -0.7699 -1.0854  1.3126
10238SOL    HW241934   9.198   3.934   0.188 -0.4596  0.7029 -0.5911
10239SOL     OW41935   3.890   9.483   2.263 -0.4327 -0.4642  0.0941
10239SOL    HW141936   3.813   9.477   2.327 -1.2591 -1.2864 -0.9592
10239SOL    HW241937   3.975   9.462   2.312 -0.8893  0.2416  1.2192
10240SOL     OW41938   8.741   7.122   4.045 -0.0161 -0.1588 -0.0633
10240SOL    HW141939   8.664   7.067   4.078  1.0103 -0.4630  1.9151
10240SOL    HW241940   8.756   7.198   4.108  2.6780 -1.3573  0.7832
10241SOL     OW41941   0.049   6.635   2.409 -1.0031  0.3387 -0.2262
10241SOL    HW141942   0.142   6.625   2.443 -1.3861  1.6277  1.2763
10241SOL    HW241943  -0.007   6.559   2.441 -0.0646 -1.4152 -2.6498
10242SOL     OW41944   6.072   8.972   5.107  0.0536  0.0696  0.0684
10242SOL    HW141945   6.143   8.944   5.172 -0.5371  0.4357  0.8870
10242SOL    HW241946   6.103   8.954   5.014  1.0974 -0.0498  0.4288
10243SOL     OW41947   1.355   5.311   2.521 -0.4924 -0.4176  0.6302
10243SOL    HW141948   1.285   5.340   2.586 -0.8849 -1.0571  0.5003
10243SOL    HW241949   1.433   5.272   2.570  0.1107  0.9886  0.8131
10244SOL     OW41950   7.402   9.056   4.385  0.1814  0.1061 -0.1017
10244SOL    HW141951   7.457   9.078   4.304  1.9102  0.8762  1.2342
10244SOL    HW241952   7.392   8.957   4.393 -0.8141  0.0604 -1.7692
10245SOL     OW41953   4.271   0.985   2.664  0.2189 -0.9021 -0.4965
10245SOL    HW141954   4.363   0.987   2.703 -0.4162  3.0350  1.0788
10245SOL    HW241955   4.217   0.915   2.709  2.4222 -3.3179 -1.4890
10246SOL     OW41956   7.381   3.913   1.517 -0.1971  0.3179  0.0855
10246SOL    HW141957   7.296   3.860   1.519  0.1849 -0.4048 -1.5306
10246SOL    HW241958   7.459   3.850   1.517  0.3424  0.9739  1.3688
10247SOL     OW41959   0.459   1.340   3.612 -0.2497 -0.0665 -0.5848
10247SOL    HW141960   0.489   1.434   3.595  1.0697 -0.9643 -3.7103
10247SOL    HW241961   0.420   1.302   3.528 -0.6013 -2.3651  0.5778
10248SOL     OW41962   3.227   3.679   5.469  0.3219  0.1071 -0.5825
10248SOL    HW141963   3.141   3.637   5.441 -0.7555  1.6754  0.2716
10248SOL    HW241964   3.255   3.746   5.400  0.7778 -0.2966 -0.7884
10249SOL     OW41965   6.786   9.480   3.080  0.2166  0.5110  0.2108
10249SOL    HW141966   6.781   9.566   3.130  1.1740  1.3422 -1.0685
10249SOL    HW241967   6.847   9.491   3.001  1.1728 -1.6476  0.6217
10250SOL     OW41968   4.219   3.492   0.809  0.1734  0.0844  0.2719
10250SOL    HW141969   4.260   3.513   0.720  0.0776 -0.7931  0.0150
10250SOL    HW241970   4.157   3.566   0.835 -0.3033  0.0371 -0.6979
10251SOL     OW41971   0.912   6.213   4.578  0.1743 -0.2646  0.0675
10251SOL    HW141972   0.835   6.213   4.641  0.2586  0.0647  0.1688
10251SOL    HW241973   0.943   6.119   4.563 -0.7224 -0.4650 -0.5636
10252SOL     OW41974   0.060   0.936   0.256  0.0990  0.2168  0.0054
10252SOL    HW141975   0.158   0.934   0.277  0.4110  1.4302 -1.3377
10252SOL    HW241976   0.025   1.029   0.264 -0.8021 -0.0870 -0.2514
10253SOL     OW41977   5.017   0.180   1.452 -0.2351  0.4785  0.3250
10253SOL    HW141978   5.013   0.108   1.522 -1.9650 -0.0059 -0.2445
10253SOL    HW241979   5.000   0.269   1.495 -1.8037  0.1263  0.4409
10254SOL     OW41980   0.794   4.276   2.106  0.8660 -0.2167  0.1883
10254SOL    HW141981   0.768   4.364   2.068 -0.6782 -1.3880 -1.5064
10254SOL    HW241982   0.722   4.208   2.089  0.6112 -1.1045  4.1362
10255SOL     OW41983   8.604   1.775   1.725  0.0455  0.7320 -0.1154
10255SOL    HW141984   8.594   1.871   1.750 -0.9573  0.5750  0.1163
10255SOL    HW241985   8.606   1.719   1.808  2.2990  0.6831 -0.1725
10256SOL     OW41986   4.043   7.112   1.902 -0.2144  0.0428 -0.1701
10256SOL    HW141987   3.945   7.101   1.888 -0.4302  1.0992  0.4343
10256SOL    HW241988   4.059   7.155   1.991  0.8702 -1.5816  0.4603
10257SOL     OW41989   4.242   8.154   3.254  0.2554  0.0419  0.1154
10257SOL    HW141990   4.157   8.185   3.210 -0.8931 -0.2049  2.0924
10257SOL    HW241991   4.302   8.233   3.268 -0.0306  0.3706 -0.4627
10258SOL     OW41992   1.376   9.983   1.071  0.5234  0.2731 -0.1034
10258SOL    HW141993   1.400   9.918   0.998 -0.3164  0.3243 -0.4342
10258SOL    HW241994   1.456   9.999   1.129  0.2078 -2.6456  1.2063
10259SOL     OW41995   6.300   8.817   5.191  0.0055  0.6686  0.5359
10259SOL    HW141996   6.369   8.789   5.124 -0.9323 -0.8393  0.1863
10259SOL    HW241997   6.320   8.774   5.279 -1.3847 -1.0708  0.0220
10260SOL     OW41998   4.640   8.010   2.101 -0.1389  0.7695  0.0622
10260SOL    HW141999   4.694   7.926   2.101 -2.5566 -0.8702 -2.1926
10260SOL    HW242000   4.555   7.995   2.151 -0.0271  2.3375  0.7782
10261SOL     OW42001   1.280   9.739   1.427  0.3532 -0.0418  0.3395
10261SOL    HW142002   1.370   9.750   1.385 -0.4306 -0.5689 -1.5450
10261SOL    HW242003   1.212   9.792   1.376  0.0492  2.7964  3.5298
10262SOL     OW42004   3.160   5.873   1.825 -0.1176  0.0664  0.5009
10262SOL    HW142005   3.191   5.778   1.821  0.9127  0.4814 -2.9648
10262SOL    HW242006   3.066   5.879   1.793  1.1163  0.6505 -3.2714
10263SOL     OW42007   1.240   7.306   1.744  0.1867 -0.5509  0.0947
10263SOL    HW142008   1.338   7.318   1.732  0.5189 -0.5133  2.6365
10263SOL    HW242009   1.219   7.209   1.755 -0.1567 -0.6155 -1.0217
10264SOL     OW42010   3.121   8.372   4.428 -0.2777  0.2195 -0.1657
10264SOL    HW142011   3.056   8.299   4.446 -0.2111  0.4693  1.1428
10264SOL    HW242012   3.115   8.441   4.501  2.1458 -0.2560  0.5331
10265SOL     OW42013   3.458   4.352   4.714  0.2932 -0.5963 -0.3755
10265SOL    HW142014   3.424   4.425   4.774  0.2337 -0.9953  0.0723
10265SOL    HW242015   3.390   4.334   4.642  0.8788  0.7047 -1.2789
10266SOL     OW42016   9.482   7.450   4.879  0.3420 -0.0297  0.0683
10266SOL    HW142017   9.513   7.360   4.849  1.5162  0.2181  0.5371
10266SOL    HW242018   9.545   7.520   4.847 -0.2238  0.5760  0.2488
10267SOL     OW42019   8.632   2.918   6.255 -0.4465 -0.0414 -0.1686
10267SOL    HW142020   8.615   2.820   6.271 -0.2474 -0.0375  0.0592
10267SOL    HW242021   8.653   2.963   6.342  0.3021  0.0437 -0.3938
10268SOL     OW42022   0.364   6.668   6.087  0.4368  0.3489  0.5344
10268SOL    HW142023   0.426   6.675   6.009  1.3542  0.6651  1.2794
10268SOL    HW242024   0.402   6.604   6.154 -0.0277  0.5706  1.0131
10269SOL     OW42025   6.158   5.586   1.290  0.7835  0.6522  0.6815
10269SOL    HW142026   6.080   5.637   1.256  0.9846 -0.1622 -1.0418
10269SOL    HW242027   6.129   5.524   1.363 -1.0816 -2.8310 -2.8379
10270SOL     OW42028   2.856   9.230   3.793 -0.1338 -0.6248  0.0311
10270SOL    HW142029   2.778   9.259   3.849  0.2447  0.6437 -0.0660
10270SOL    HW242030   2.834   9.246   3.696  0.6982  0.9394  0.0749
10271SOL     OW42031   2.726   6.107   3.922 -0.0241 -0.0730  0.3404
10271SOL    HW142032   2.769   6.158   3.996 -0.6418  0.5669  0.2654
10271SOL    HW242033   2.631   6.087   3.945  0.5329 -2.2030  0.8539
10272SOL     OW42034   9.420   9.347   0.058  0.5495  0.0759 -0.4150
10272SOL    HW142035   9.401   9.376   0.152  0.4123 -1.7168  0.1303
10272SOL    HW242036   9.367   9.403  -0.005 -2.5484 -1.4115  0.7970
10273SOL     OW42037   2.777   1.820   2.095  0.1302  0.4228 -0.0007
10273SOL    HW142038   2.715   1.886   2.054 -0.0957  0.0200 -0.3164
10273SOL    HW242039   2.800   1.750   2.027 -0.1609 -0.1910  0.5264
10274SOL     OW42040   2.626   1.112   1.889  0.3129  0.3285  0.4971
10274SOL    HW142041   2.607   1.055   1.968 -0.4151  0.5763  0.5071
10274SOL    HW242042   2.636   1.208   1.918  1.8458  0.1711  0.5248
10275SOL     OW42043   4.103   6.765   1.423  0.3530  0.4351  0.2117
10275SOL    HW142044   4.145   6.762   1.332 -0.4888  2.7059 -0.2906
10275SOL    HW242045   4.172   6.790   1.491  1.1578 -2.0290  0.3366
10276SOL     OW42046   8.438   1.643   2.409 -0.1954 -0.3555 -0.3685
10276SOL    HW142047   8.448   1.545   2.430  0.7269 -0.1713  0.0898
10276SOL    HW242048   8.512   1.672   2.349 -0.5113  0.0520 -0.5665
10277SOL     OW42049   9.470   5.378   2.599 -0.3233  0.0633  0.0257
10277SOL    HW142050   9.432   5.411   2.513  0.1518 -2.9042 -1.3761
10277SOL    HW242051   9.435   5.287   2.619  0.0862  0.4414  2.6617
10278SOL     OW42052   7.166   8.160   4.400  0.4585  0.6032  0.1692
10278SOL    HW142053   7.074   8.185   4.368  1.0241 -0.0771 -2.0494
10278SOL    HW242054   7.223   8.242   4.407  0.2077  0.8043 -0.1655
10279SOL     OW42055   1.954   0.674   0.779  0.5249  0.2285 -0.0049
10279SOL    HW142056   1.900   0.644   0.700  0.2195 -0.6918  0.5427
10279SOL    HW242057   2.030   0.612   0.793  0.6453  0.4588  0.3617
10280SOL     OW42058   4.788   0.173   2.042  0.6490  0.4894 -0.5030
10280SOL    HW142059   4.754   0.088   2.001 -1.0558  1.1630 -0.5293
10280SOL    HW242060   4.870   0.153   2.095  1.8057 -0.7073 -2.6903
10281SOL     OW42061   9.363   2.828   4.669  0.1743  0.2522  0.7765
10281SOL    HW142062   9.373   2.733   4.640 -0.4430  0.6362 -0.7355
10281SOL    HW242063   9.437   2.851   4.732  1.9769 -0.4225 -1.0184
10282SOL     OW42064   8.542   6.988   0.671 -0.3336  0.0662 -0.5004
10282SOL    HW142065   8.629   6.943   0.693 -0.2736 -0.1855 -1.2563
10282SOL    HW242066   8.474   6.918   0.649 -0.5827  0.2900 -0.4412
10283SOL     OW42067   7.835   8.594   3.898  0.2876 -0.3461 -0.2265
10283SOL    HW142068   7.826   8.544   3.812  0.8767  1.2717 -1.2521
10283SOL    HW242069   7.848   8.692   3.879 -0.4519  0.1640  1.7183
10284SOL     OW42070   7.639   0.098   5.952 -0.4578 -0.3575  0.1775
10284SOL    HW142071   7.585   0.157   5.891 -0.2795 -0.2797  0.0956
10284SOL    HW242072   7.588   0.015   5.971 -1.2332  0.3544  1.2641
10285SOL     OW42073   2.752   9.894   5.900 -0.2140 -0.1694 -0.4374
10285SOL    HW142074   2.762   9.795   5.899  0.9483 -0.0521 -0.8265
10285SOL    HW242075   2.779   9.929   5.990 -1.1267 -0.2502 -0.1262
10286SOL     OW42076   8.089   5.258   3.859 -0.3555  0.2962  0.0740
10286SOL    HW142077   8.075   5.274   3.956 -1.5981 -0.2333 -0.0076
10286SOL    HW242078   8.037   5.326   3.806  2.2848  2.1674 -0.2323
10287SOL     OW42079   8.203   7.581   4.060  0.2862  0.2720  0.8183
10287SOL    HW142080   8.106   7.605   4.073  0.6626  0.7282  3.0809
10287SOL    HW242081   8.210   7.500   4.002 -1.6135 -1.1761  2.5005
10288SOL     OW42082   9.014   3.196   6.290 -0.4595  0.2093 -0.0990
10288SOL    HW142083   9.086   3.207   6.359 -2.3146 -0.5701  2.0130
10288SOL    HW242084   9.015   3.274   6.228  2.8805 -0.3026 -0.7661
10289SOL     OW42085   2.401   3.156   0.707 -0.1356  0.0433 -0.1927
10289SOL    HW142086   2.404   3.131   0.803  0.3917 -1.1895 -0.5189
10289SOL    HW242087   2.482   3.120   0.660 -0.4011  0.6013 -1.1062
10290SOL     OW42088   0.384   7.835   3.784  0.1754 -0.1948  0.0567
10290SOL    HW142089   0.435   7.884   3.855 -0.9657 -1.2650  1.6367
10290SOL    HW242090   0.426   7.745   3.769 -0.5910 -0.6516  0.6035
10291SOL     OW42091   7.991   4.252   1.545  0.5155  0.1407 -0.2167
10291SOL    HW142092   8.052   4.331   1.551  0.1667  0.3456  0.8946
10291SOL    HW242093   7.922   4.258   1.618 -1.3634  0.3587 -1.9689
10292SOL     OW42094   7.089   2.820   0.993 -0.1253  0.2561 -0.1731
10292SOL    HW142095   7.164   2.832   1.058  0.6608  1.7391 -1.3272
10292SOL    HW242096   7.019   2.760   1.033  0.3242  1.1691  2.0220
10293SOL     OW42097   9.829   7.742   5.740  0.3243  0.2780  0.1042
10293SOL    HW142098   9.914   7.794   5.738  0.1083  0.6048 -0.5735
10293SOL    HW242099   9.828   7.676   5.665  1.0155 -1.3830  1.5029
10294SOL     OW42100   4.887   0.468   4.250  0.6837  0.2616  0.1613
10294SOL    HW142101   4.928   0.547   4.205 -1.6328  1.1256 -0.4947
10294SOL    HW242102   4.832   0.498   4.328 -0.4827 -0.6358 -0.2869
10295SOL     OW42103   1.562   1.030   6.432  0.0216 -0.4709 -0.2897
10295SOL    HW142104   1.633   0.967   6.463  0.7563  0.3597 -0.2803
10295SOL    HW242105   1.526   1.080   6.511  1.1363  0.8640 -0.6178
10296SOL     OW42106   1.389   4.071   0.828  0.2312  0.2184 -0.1044
10296SOL    HW142107   1.398   3.986   0.775 -1.6145  1.5884 -2.7945
10296SOL    HW242108   1.393   4.149   0.765 -0.3860  2.0072  2.0290
10297SOL     OW42109   8.508   3.840   6.361  0.3523 -0.2597 -0.1930
10297SOL    HW142110   8.428   3.888   6.400  1.6428  0.9856  0.9838
10297SOL    HW242111   8.564   3.905   6.311 -0.3923 -1.5386 -2.7413
10298SOL     OW42112   8.435   2.923   1.352 -0.1376 -0.1275  0.3538
10298SOL    HW142113   8.351   2.902   1.301 -0.3057  0.2674  0.4688
10298SOL    HW242114   8.501   2.850   1.338  0.6830  1.0763 -2.3317
10299SOL     OW42115   7.588   6.933   3.645  0.3027  0.1507  0.6331
10299SOL    HW142116   7.496   6.950   3.681  0.9028  0.2348  2.1769
10299SOL    HW242117   7.582   6.898   3.551 -1.2036  2.4074 -0.1428
10300SOL     OW42118   9.602   9.832   3.912 -0.6829 -0.2288 -0.0807
10300SOL    HW142119   9.651   9.779   3.844  0.7142 -0.1610  0.8356
10300SOL    HW242120   9.515   9.789   3.933  0.2830 -1.9749  0.4050
10301SOL     OW42121   8.342   1.391   1.616 -0.2893  0.1529  0.2146
10301SOL    HW142122   8.366   1.485   1.592 -2.6207  0.6572 -0.2351
10301SOL    HW242123   8.404   1.358   1.687  1.6587  1.4079 -0.8670
10302SOL     OW42124   9.389   5.257   6.121  0.0874 -0.4772  0.0400
10302SOL    HW142125   9.321   5.194   6.083 -2.8063  2.1467  0.7529
10302SOL    HW242126   9.420   5.319   6.049  0.5138 -0.6211  0.1007
10303SOL     OW42127   4.363   8.875   3.451  0.0401  0.2747 -0.1989
10303SOL    HW142128   4.360   8.975   3.450  0.9432  0.3072 -0.9990
10303SOL    HW242129   4.385   8.844   3.543  1.2490  0.8829 -0.2687
10304SOL     OW42130   7.440   2.971   2.206  0.1476  0.2217  0.0609
10304SOL    HW142131   7.459   3.048   2.267  0.7226 -0.3462  0.6154
10304SOL    HW242132   7.484   2.889   2.242  0.2936 -0.1734 -0.9980
10305SOL     OW42133   1.899   9.738   3.354 -0.2209  0.3334 -0.9018
10305SOL    HW142134   1.979   9.721   3.411 -1.1675  0.2087  0.3943
10305SOL    HW242135   1.823   9.681   3.384 -0.8220  0.4839 -2.0924
10306SOL     OW42136   2.345   7.148   2.535  0.7563 -0.2498  0.1154
10306SOL    HW142137   2.302   7.110   2.453 -1.5016 -2.5761  2.2952
10306SOL    HW242138   2.445   7.138   2.528  0.4699 -2.2205 -1.4462
10307SOL     OW42139   9.286   0.452   5.192  0.5594 -0.2340  0.2472
10307SOL    HW142140   9.204   0.414   5.151  1.0401 -1.3545  0.3171
10307SOL    HW242141   9.344   0.491   5.120 -0.6344  1.7709  0.3308
10308SOL     OW42142   8.790   0.937   4.141  0.5983  0.6675 -0.1856
10308SOL    HW142143   8.761   1.029   4.168  2.6310  1.3350 -0.1497
10308SOL    HW242144   8.888   0.938   4.122  0.7674 -1.6508  0.4138
10309SOL     OW42145   1.413   2.634   2.979 -0.1990  0.3049  0.1782
10309SOL    HW142146   1.494   2.658   3.033  0.9977 -1.2882 -0.8537
10309SOL    HW242147   1.396   2.536   2.987 -0.7543  0.2704 -1.3210
10310SOL     OW42148   0.782   6.663   1.951  0.7214 -0.3744 -0.1145
10310SOL    HW142149   0.705   6.677   2.013  1.2730 -3.9299  1.5476
10310SOL    HW242150   0.866   6.652   2.005  2.0551  1.3228 -1.7898
10311SOL     OW42151   6.701   6.996   5.769  0.3390  0.0969  0.3960
10311SOL    HW142152   6.775   6.973   5.832  0.8009 -0.9305 -0.5173
10311SOL    HW242153   6.704   7.094   5.748  1.7722 -0.0401 -0.0769
10312SOL     OW42154   2.449   5.841   3.193  0.1141 -0.1695 -0.4521
10312SOL    HW142155   2.461   5.853   3.292 -0.6110 -1.0006 -0.2555
10312SOL    HW242156   2.449   5.930   3.148  1.1541  0.1816  0.2117
10313SOL     OW42157   3.895   4.136   2.254  0.5831 -0.3640 -0.1528
10313SOL    HW142158   3.846   4.076   2.192  1.9814 -0.8616 -0.7854
10313SOL    HW242159   3.971   4.087   2.296  0.8984  0.5607  0.3813
10314SOL     OW42160   0.676   6.303   0.354 -0.2422 -0.1079  0.0038
10314SOL    HW142161   0.592   6.294   0.301 -0.3409 -0.9117  0.2838
10314SOL    HW242162   0.685   6.224   0.415  0.4151  0.2706  0.3993
10315SOL     OW42163   2.676   1.921   2.933  0.8038  0.1963 -0.6324
10315SOL    HW142164   2.617   2.000   2.915  1.3810  0.3220 -2.0497
10315SOL    HW242165   2.636   1.866   3.006  0.0058  1.3918 -0.1427
10316SOL     OW42166   3.736   1.072   6.058 -0.1074  0.2231 -0.4925
10316SOL    HW142167   3.761   1.069   5.961 -0.1747  2.5754 -0.6106
10316SOL    HW242168   3.637   1.079   6.067 -0.0926  0.1176 -0.2464
10317SOL     OW42169   8.235   0.855   5.788  0.4199  0.4981 -0.0769
10317SOL    HW142170   8.330   0.888   5.794  0.8617 -0.6527 -0.5269
10317SOL    HW242171   8.196   0.883   5.700 -0.0859  2.0724  0.6506
10318SOL     OW42172   2.791   3.520   2.576  0.3337  0.1168 -0.3316
10318SOL    HW142173   2.887   3.548   2.583  0.2881  0.0456  0.6861
10318SOL    HW242174   2.740   3.589   2.524  0.9433  0.1383 -0.8968
10319SOL     OW42175   8.401   8.025   3.491 -0.1052 -0.1963 -0.0708
10319SOL    HW142176   8.334   8.064   3.427 -0.8606  0.4694  1.0979
10319SOL    HW242177   8.369   7.935   3.521 -1.0048  0.5467  1.2568
10320SOL     OW42178   9.510   3.393   3.687 -0.0154  0.1192 -0.1267
10320SOL    HW142179   9.496   3.312   3.745 -0.7301  0.2713 -0.0882
10320SOL    HW242180   9.436   3.458   3.703 -0.7293 -0.2404 -1.9006
10321SOL     OW42181   2.270   7.452   0.827 -0.0544  0.3755 -0.1458
10321SOL    HW142182   2.366   7.456   0.799  0.3058 -0.0156  1.0069
10321SOL    HW242183   2.245   7.535   0.877 -0.3995  0.5917 -0.6627
10322SOL     OW42184   3.663   5.013   5.997  0.0406  0.0415  0.0937
10322SOL    HW142185   3.587   5.077   5.986  1.0162  1.2986  0.5526
10322SOL    HW242186   3.628   4.927   6.033 -1.1083  0.7622  0.7589
10323SOL     OW42187   2.768   0.025   5.030 -0.9660 -0.1556  0.2390
10323SOL    HW142188   2.843   0.003   5.091 -1.9988 -1.9397  0.8830
10323SOL    HW242189   2.685  -0.025   5.058 -2.2036  1.2108 -0.8818
10324SOL     OW42190   2.965   6.410   5.111  0.2939  0.3763  0.4188
10324SOL    HW142191   2.991   6.505   5.122 -2.4669  1.1080  0.9757
10324SOL    HW242192   2.992   6.378   5.020  1.7026  1.5022  0.4199
10325SOL     OW42193   3.123   2.363   4.177  0.1358 -0.3044  0.0163
10325SOL    HW142194   3.083   2.325   4.260  0.9170  4.4636  2.8005
10325SOL    HW242195   3.220   2.381   4.191  0.3701  0.2676 -2.0406
10326SOL     OW42196   4.843   5.562   1.486 -0.2215 -0.0199  0.2074
10326SOL    HW142197   4.885   5.571   1.576 -1.5624  1.3816  0.7263
10326SOL    HW242198   4.826   5.465   1.466 -0.7135 -0.2795  1.8525
10327SOL     OW42199   7.302   1.596   3.821  0.4365 -0.2845 -0.1752
10327SOL    HW142200   7.278   1.501   3.801 -1.1187  0.3533 -1.3551
10327SOL    HW242201   7.383   1.598   3.881  0.3120 -2.3433  0.0767
10328SOL     OW42202   0.504   7.488   6.449  0.0684 -0.6708 -0.1912
10328SOL    HW142203   0.499   7.398   6.407 -0.4744 -0.0597 -1.4676
10328SOL    HW242204   0.449   7.489   6.533  0.2368 -1.5663 -0.0652
10329SOL     OW42205   7.435   7.244   2.946  0.6191 -0.2753 -0.7243
10329SOL    HW142206   7.414   7.149   2.923  1.2825 -0.1355 -1.9749
10329SOL    HW242207   7.441   7.298   2.862  1.6790  0.5671 -0.1206
10330SOL     OW42208   7.816   9.398   1.356  0.1588 -0.6196  0.4587
10330SOL    HW142209   7.854   9.477   1.405  0.2194  0.5345 -1.3685
10330SOL    HW242210   7.735   9.427   1.304 -0.1912 -1.9056  0.2666
10331SOL     OW42211   2.349   3.597   6.587  0.3608  0.0736  0.2189
10331SOL    HW142212   2.428   3.547   6.553 -0.0875 -0.1336 -0.5510
10331SOL    HW242213   2.311   3.550   6.666  2.8420  1.8498  2.5363
10332SOL     OW42214   6.195   8.673   4.312 -0.0105 -0.5625  0.2556
10332SOL    HW142215   6.250   8.621   4.378 -0.1177 -1.1446 -0.1090
10332SOL    HW242216   6.159   8.611   4.243 -1.0440 -0.1663  0.4309
10333SOL     OW42217   1.407   0.032   0.335 -0.1626  0.0062 -0.0236
10333SOL    HW142218   1.505   0.022   0.316 -0.1713 -1.0807  0.4378
10333SOL    HW242219   1.393   0.107   0.399  0.5941 -1.2110  1.6054
10334SOL     OW42220   8.475   1.402   2.515 -0.6784  0.1954 -0.1206
10334SOL    HW142221   8.451   1.308   2.492 -0.0193  0.0930 -0.3852
10334SOL    HW242222   8.569   1.406   2.549 -0.4951  0.8435 -0.6834
10335SOL     OW42223   3.810   4.617   5.669 -0.4007 -0.1996 -0.3836
10335SOL    HW142224   3.822   4.667   5.583 -2.2824 -0.3903 -0.7734
10335SOL    HW242225   3.825   4.519   5.654  0.8716 -0.0439 -0.1435
10336SOL     OW42226   7.870   6.123   5.172 -0.3542 -0.1310  0.4036
10336SOL    HW142227   7.881   6.216   5.137  1.1504 -0.4059  0.1204
10336SOL    HW242228   7.867   6.126   5.272  4.3026 -0.1601  0.6391
10337SOL     OW42229   1.723   8.660   1.542  0.2013  0.0082 -0.2577
10337SOL    HW142230   1.762   8.632   1.630  3.2576  0.7738 -1.3270
10337SOL    HW242231   1.752   8.597   1.471 -0.1607  0.8382 -1.1554
10338SOL     OW42232   7.667   7.301   5.011 -0.0403 -0.3465  0.4374
10338SOL    HW142233   7.691   7.334   4.920 -1.0021 -0.4851  0.1333
10338SOL    HW242234   7.584   7.245   5.006 -0.0825 -0.3778  1.3872
10339SOL     OW42235   0.056   7.621   1.633 -0.0155  0.5058  0.3263
10339SOL    HW142236   0.130   7.630   1.566 -0.1059  1.8570  0.3990
10339SOL    HW242237   0.094   7.608   1.724  0.1150 -0.3058  0.1598
10340SOL     OW42238   1.184   3.628   3.749  0.5265 -0.4164 -0.0429
10340SOL    HW142239   1.241   3.584   3.818 -0.6577  0.3848  1.4887
10340SOL    HW242240   1.132   3.559   3.699  1.5636 -1.0165 -0.2949
10341SOL     OW42241   9.341   9.666   0.876  0.2622 -0.2859  0.0384
10341SOL    HW142242   9.295   9.747   0.914  1.9280  0.8926 -0.4223
10341SOL    HW242243   9.408   9.633   0.942  1.9400  0.7242 -1.1408
10342SOL     OW42244   7.694   4.181   3.292 -0.0284 -0.1363  0.1310
10342SOL    HW142245   7.703   4.166   3.194 -0.9952 -0.1330  0.0362
10342SOL    HW242246   7.693   4.279   3.311  0.7424 -0.1375  0.2090
10343SOL     OW42247   5.491   9.204   4.532 -0.7450 -0.1733  0.1277
10343SOL    HW142248   5.436   9.287   4.524 -0.1322  0.4119  1.7117
10343SOL    HW242249   5.431   9.125   4.549 -1.2050  0.2025  0.2414
10344SOL     OW42250   8.792   2.827   0.637 -0.2735  0.2982  0.4846
10344SOL    HW142251   8.789   2.802   0.541 -0.4733 -0.1603  0.6072
10344SOL    HW242252   8.715   2.785   0.685 -1.1498  1.9099  0.5244
10345SOL     OW42253   2.083   3.019   4.199 -0.0990 -0.4106 -0.1225
10345SOL    HW142254   2.120   3.092   4.141 -0.1635 -0.6037 -0.4075
10345SOL    HW242255   2.044   2.947   4.142 -1.2876 -0.0202  0.1790
10346SOL     OW42256   9.043   1.854   4.044 -0.0192  0.4615  0.1653
10346SOL    HW142257   9.018   1.914   4.121 -0.6361  1.5114 -0.8356
10346SOL    HW242258   8.972   1.786   4.031 -0.1538  0.5971  0.1932
10347SOL     OW42259   7.666   6.570   0.954  0.4133  0.3521  0.6355
10347SOL    HW142260   7.617   6.630   1.017  0.4996 -0.6326  1.6491
10347SOL    HW242261   7.602   6.503   0.915  0.8303 -0.5469  1.4947
10348SOL     OW42262   3.037   8.777   3.963 -0.1069 -0.7512  0.0129
10348SOL    HW142263   2.993   8.858   3.924  4.1555  1.7092  0.0735
10348SOL    HW242264   3.100   8.738   3.896  0.2807 -2.1159  1.1557
10349SOL     OW42265   0.371   4.181   1.669 -0.3067 -0.3037 -0.1500
10349SOL    HW142266   0.457   4.199   1.717 -0.3480  0.5563 -0.3859
10349SOL    HW242267   0.372   4.088   1.632  1.6245  0.5653 -2.4210
10350SOL     OW42268   0.796   2.351   3.935 -0.1851  0.3009 -0.4001
10350SOL    HW142269   0.784   2.421   4.005  0.2839  0.3137 -0.3341
10350SOL    HW242270   0.707   2.311   3.913 -0.3861  0.5706 -0.0806
10351SOL     OW42271   3.481   9.470   1.754  0.3575  0.7518  0.2031
10351SOL    HW142272   3.475   9.471   1.854 -2.7718  2.3211  0.0562
10351SOL    HW242273   3.475   9.563   1.719 -1.5909 -0.0035 -1.5768
10352SOL     OW42274   3.092   9.279   1.959 -0.4702  0.1467  0.5965
10352SOL    HW142275   3.021   9.307   2.023 -0.6056 -1.1541  1.0419
10352SOL    HW242276   3.177   9.262   2.008 -0.0772  0.9069  0.1771
10353SOL     OW42277   7.988   4.048   4.958 -0.1988 -0.4957  0.1056
10353SOL    HW142278   7.901   4.004   4.982 -0.3241 -1.4737 -2.0299
10353SOL    HW242279   8.025   4.095   5.039 -2.6814 -0.0826  1.0493
10354SOL     OW42280   8.090   6.799   6.018  0.2055 -0.3941  0.1148
10354SOL    HW142281   8.037   6.877   6.052  0.9395 -0.0994  0.5955
10354SOL    HW242282   8.121   6.818   5.925  0.0401 -0.2777  0.0829
10355SOL     OW42283   7.283   6.737   3.140 -0.5280 -0.3450 -0.9505
10355SOL    HW142284   7.355   6.806   3.149 -0.4116 -0.3803 -1.5879
10355SOL    HW242285   7.269   6.692   3.228 -1.3793  1.2509 -0.2316
10356SOL     OW42286   8.248   7.254   1.941 -0.5363 -0.1041 -0.5395
10356SOL    HW142287   8.237   7.252   1.841 -0.3726 -1.6206 -0.5504
10356SOL    HW242288   8.201   7.175   1.981  2.5892 -1.6958  0.2000
10357SOL     OW42289   4.240   1.820   5.322  0.2940 -0.2916  0.6024
10357SOL    HW142290   4.154   1.780   5.291  0.3254 -0.4797  0.7623
10357SOL    HW242291   4.295   1.847   5.243 -1.2140  2.6162  0.4518
10358SOL     OW42292   1.280   7.440   5.998  0.2795  0.9622  0.0027
10358SOL    HW142293   1.341   7.464   6.074  0.6915  0.7858 -0.2701
10358SOL    HW242294   1.327   7.457   5.912  0.4041 -0.4007 -0.1958
10359SOL     OW42295   4.591   0.104   2.651 -0.0986 -0.1061 -0.1958
10359SOL    HW142296   4.558   0.179   2.594 -1.1565 -0.5814 -0.2157
10359SOL    HW242297   4.690   0.094   2.639  0.1313  1.5433  0.1106
10360SOL     OW42298   1.033   0.323   5.291  0.0804 -0.1925  0.0129
10360SOL    HW142299   1.106   0.312   5.358 -0.5109 -3.1475  0.2403
10360SOL    HW242300   0.983   0.236   5.282 -1.8296  1.0728 -1.9394
10361SOL     OW42301   0.530   3.442   2.424  0.4463 -0.0902  0.3246
10361SOL    HW142302   0.613   3.452   2.479  0.6491 -0.9968  0.1929
10361SOL    HW242303   0.514   3.345   2.406 -1.4806 -0.0443  1.6482
10362SOL     OW42304   3.438   3.043   0.384 -0.0863 -0.1215 -0.2776
10362SOL    HW142305   3.468   3.071   0.475 -0.1493  0.0314 -0.3048
10362SOL    HW242306   3.518   3.030   0.325 -0.0871  0.5173 -0.4180
10363SOL     OW42307   2.877   9.103   2.760 -0.1246 -0.3444  0.3226
10363SOL    HW142308   2.916   9.018   2.724 -0.8009 -0.8614  0.8117
10363SOL    HW242309   2.835   9.085   2.849 -0.2297  0.5177  0.4477
10364SOL     OW42310   7.739   0.715   5.009  0.1257  0.1585  0.0162
10364SOL    HW142311   7.732   0.642   4.940  0.6212 -0.4939  0.6438
10364SOL    HW242312   7.825   0.705   5.059 -0.4791  0.2989  1.0905
10365SOL     OW42313   0.515   8.383   6.420  0.4753 -0.0748  0.3422
10365SOL    HW142314   0.464   8.391   6.506  0.3302  1.1867  0.1417
10365SOL    HW242315   0.594   8.444   6.422  1.0472 -0.8000 -0.0192
10366SOL     OW42316   4.378   2.568   4.437 -0.1176 -0.2889 -0.5660
10366SOL    HW142317   4.421   2.654   4.409  0.5271 -0.5907 -0.5170
10366SOL    HW242318   4.341   2.578   4.529 -0.4954  0.0910 -0.7551
10367SOL     OW42319   6.951   2.616   3.671  0.3436  0.2322  0.1654
10367SOL    HW142320   7.037   2.651   3.709 -0.0291 -1.9848  3.2307
10367SOL    HW242321   6.874   2.655   3.721 -0.4514  1.2528 -1.7680
10368SOL     OW42322   2.047   5.132   3.163 -0.2169 -0.2079 -0.6596
10368SOL    HW142323   1.950   5.113   3.176  0.0094 -1.1687 -0.2960
10368SOL    HW242324   2.097   5.106   3.246 -0.0286  3.1803  0.3505
10369SOL     OW42325   2.563   7.581   3.396 -0.3992 -0.6141  0.2944
10369SOL    HW142326   2.472   7.547   3.372 -0.0972 -0.9292 -0.4199
10369SOL    HW242327   2.616   7.596   3.313  0.6932 -1.7996  0.7447
10370SOL     OW42328   8.049   5.691   6.615 -0.2744 -0.2650 -0.0662
10370SOL    HW142329   8.089   5.642   6.538  0.0457 -0.4880  0.2381
10370SOL    HW242330   8.018   5.781   6.585  0.4110 -0.1057 -0.3184
10371SOL     OW42331   0.421   3.904   1.543 -0.3016  0.2028  0.5128
10371SOL    HW142332   0.452   3.809   1.552  0.7290  0.5491  0.6492
10371SOL    HW242333   0.342   3.907   1.482  1.9478 -0.3035 -2.5611
10372SOL     OW42334   7.984   3.114   2.329  0.4100  0.0980  0.1160
10372SOL    HW142335   8.068   3.096   2.278  0.0822  0.2895 -0.4964
10372SOL    HW242336   7.906   3.082   2.276 -0.0529  1.7506 -0.2311
10373SOL     OW42337   4.123   4.270   1.675  0.4169 -0.2230  0.2210
10373SOL    HW142338   4.154   4.177   1.696  0.1589 -0.4743 -0.4936
10373SOL    HW242339   4.056   4.298   1.744  2.2219  0.3428  1.7955
10374SOL     OW42340   2.114   6.177   3.415 -0.0722  0.1627 -0.3171
10374SOL    HW142341   2.127   6.092   3.364  1.2570  0.1130  0.0759
10374SOL    HW242342   2.042   6.164   3.483 -0.8491 -0.2087 -1.1910
10375SOL     OW42343   2.388   8.829   5.004 -0.1109  0.5206 -0.4242
10375SOL    HW142344   2.443   8.902   5.045 -0.5851 -0.0696  1.3125
10375SOL    HW242345   2.345   8.776   5.076 -0.3718 -1.0314 -1.7025
10376SOL     OW42346   7.453   6.246   2.990  0.9310  0.1589 -0.7166
10376SOL    HW142347   7.427   6.210   3.079  0.7819  1.1354 -0.3556
10376SOL    HW242348   7.528   6.192   2.952  1.2681 -0.0096  0.1856
10377SOL     OW42349   7.101   0.323   1.640  0.4810 -0.1907 -0.2512
10377SOL    HW142350   7.145   0.273   1.566  0.4821 -1.0556  0.3266
10377SOL    HW242351   7.158   0.319   1.722 -0.9058 -1.8072  0.6691
10378SOL     OW42352   0.926   4.000   0.041  0.2949  0.1809 -0.1898
10378SOL    HW142353   0.921   4.064  -0.035  2.4686  0.2954 -0.2572
10378SOL    HW242354   0.852   3.933   0.033  0.0954  0.6015 -2.0139
10379SOL     OW42355   0.839   4.175   5.440 -0.3494 -0.5669 -0.1953
10379SOL    HW142356   0.767   4.144   5.502  0.9294 -1.6235  0.7892
10379SOL    HW242357   0.867   4.268   5.465 -0.4202 -0.6783  0.2943
10380SOL     OW42358   8.807   6.250   5.779  0.0737 -0.7268 -0.1932
10380SOL    HW142359   8.788   6.153   5.765  1.7932 -0.8756 -1.7944
10380SOL    HW242360   8.903   6.261   5.807 -0.3854  0.4509  0.9994
10381SOL     OW42361   3.893   7.088   0.812 -0.1036  0.5440  0.7104
10381SOL    HW142362   3.888   6.998   0.769 -1.4299  1.1200 -0.3740
10381SOL    HW242363   3.937   7.079   0.902  2.3986 -0.7301 -0.5711
10382SOL     OW42364   9.598   7.698   0.074 -0.1259  0.4462  0.8653
10382SOL    HW142365   9.549   7.770   0.121  0.4402  0.7768  0.9606
10382SOL    HW242366   9.673   7.738   0.020 -0.3851  0.0195  0.1762
10383SOL     OW42367   2.109   5.430   4.744 -0.2980  0.7259 -0.2945
10383SOL    HW142368   2.163   5.348   4.729  0.4908  0.9309  1.2630
10383SOL    HW242369   2.166   5.501   4.785 -1.8478  0.7886  1.8594
10384SOL     OW42370   8.837   3.086   2.129 -0.3492 -0.2429  0.3380
10384SOL    HW142371   8.799   3.103   2.220 -0.5155  0.3760  0.1565
10384SOL    HW242372   8.782   3.017   2.082 -0.7853  0.0767  0.3755
10385SOL     OW42373   0.518   6.164   2.203 -0.1257  0.1673 -0.0281
10385SOL    HW142374   0.527   6.222   2.284  2.9406 -0.8330  0.4019
10385SOL    HW242375   0.478   6.076   2.229 -0.6003  0.4258  0.1181
10386SOL     OW42376   3.106   2.618   6.184  0.2442  0.3820 -0.0191
10386SOL    HW142377   3.023   2.665   6.213  0.9387  0.7611  1.4659
10386SOL    HW242378   3.186   2.671   6.215  1.0247 -0.5913 -0.3477
10387SOL     OW42379   4.666   4.606   2.415 -0.0950 -0.2486  0.2916
10387SOL    HW142380   4.701   4.524   2.369  0.0140  0.4850 -0.9417
10387SOL    HW242381   4.615   4.579   2.497 -0.0066 -1.5469 -0.0718
10388SOL     OW42382   8.445   4.732   3.903 -0.2710  0.0988  0.0601
10388SOL    HW142383   8.528   4.744   3.959 -0.1301 -0.6100  0.0039
10388SOL    HW242384   8.371   4.697   3.960  0.1570 -1.5930 -0.4032
10389SOL     OW42385   0.409   1.954   5.715 -0.2617 -0.0729  0.2794
10389SOL    HW142386   0.309   1.949   5.710 -0.2694  0.6590 -0.3806
10389SOL    HW242387   0.449   1.875   5.669 -0.5143  0.8144 -1.5225
10390SOL     OW42388   2.727   9.678   4.742 -0.4767 -0.1677 -0.1996
10390SOL    HW142389   2.694   9.676   4.836 -2.3487  0.3728 -0.8261
10390SOL    HW242390   2.724   9.772   4.708 -0.8071 -0.5191 -1.1512
10391SOL     OW42391   0.913   3.896   5.820 -0.5898 -0.5720 -0.3069
10391SOL    HW142392   1.005   3.920   5.792 -0.0129 -1.9212  0.3659
10391SOL    HW242393   0.865   3.977   5.854  0.8596 -0.1520  0.7507
10392SOL     OW42394   3.041   5.996   1.509 -0.0052 -0.0576 -0.4623
10392SOL    HW142395   3.058   5.920   1.446  1.5540  2.0408 -2.6508
10392SOL    HW242396   3.120   6.057   1.510 -1.1365  1.4305  1.4487
10393SOL     OW42397   3.174   2.548   4.777 -0.4218  0.0011  0.1254
10393SOL    HW142398   3.089   2.559   4.725  0.7655  1.4952 -1.5634
10393SOL    HW242399   3.252   2.549   4.715  0.8056 -2.4252  1.5612
10394SOL     OW42400   0.877   0.062   5.868 -0.0688 -0.1282 -0.9775
10394SOL    HW142401   0.808   0.014   5.922 -0.4363 -0.0184 -1.3546
10394SOL    HW242402   0.851   0.158   5.857  0.4187  0.0478 -0.6519
10395SOL     OW42403   7.135   7.241   1.152 -0.3458 -0.3023 -0.2908
10395SOL    HW142404   7.075   7.181   1.100 -2.4620 -0.0811  1.8480
10395SOL    HW242405   7.090   7.269   1.237  2.1854  1.0768  0.6537
10396SOL     OW42406   6.064   1.399   2.281  0.5337  0.4855  0.0394
10396SOL    HW142407   6.079   1.322   2.344  0.0036  0.6943  0.4178
10396SOL    HW242408   6.006   1.368   2.205 -0.6160  0.8128  0.7799
10397SOL     OW42409   0.132   8.349   1.633 -0.6441  0.0072  0.5597
10397SOL    HW142410   0.132   8.261   1.587  0.9218 -0.4167  1.3140
10397SOL    HW242411   0.146   8.422   1.567  0.2320 -0.4888  0.1893
10398SOL     OW42412   9.032   2.042   3.075  0.7411  0.6015 -0.3921
10398SOL    HW142413   9.065   1.956   3.038  1.2211  1.1664 -1.2987
10398SOL    HW242414   9.068   2.055   3.168  0.8999 -0.0376 -0.3675
10399SOL     OW42415   1.522   1.536   6.685  0.4102  0.3127 -0.1971
10399SOL    HW142416   1.455   1.609   6.692 -1.0038 -0.6302 -3.2484
10399SOL    HW242417   1.610   1.574   6.657  0.3285  1.1308  0.6240
10400SOL     OW42418   1.504   9.648   1.729 -0.1128 -0.0432  0.2140
10400SOL    HW142419   1.507   9.739   1.770  0.5891 -0.8267  1.9717
10400SOL    HW242420   1.567   9.644   1.652  0.7863  0.6074  0.9033
10401SOL     OW42421   8.455   7.101   5.389  0.6367 -0.8016 -0.2785
10401SOL    HW142422   8.444   7.074   5.484 -1.0986 -1.2099 -0.5614
10401SOL    HW242423   8.408   7.035   5.330 -1.7919  1.5744 -1.1435
10402SOL     OW42424   4.383   5.740   6.159 -0.5266 -0.9455 -0.1020
10402SOL    HW142425   4.331   5.824   6.175  0.2769 -0.7848  1.6684
10402SOL    HW242426   4.481   5.758   6.168 -0.2723 -1.7787 -1.0613
10403SOL     OW42427   0.730   2.489   5.155  0.5182 -0.6996 -0.0202
10403SOL    HW142428   0.733   2.404   5.206  0.6401 -0.1960  0.8232
10403SOL    HW242429   0.781   2.479   5.069  1.9900 -0.9575  0.8778
10404SOL     OW42430   3.469   2.895   2.034 -0.1764  0.1077  0.8067
10404SOL    HW142431   3.526   2.834   1.980  0.2825 -1.0134  2.5304
10404SOL    HW242432   3.471   2.987   1.995  0.5956 -0.5644 -0.7312
10405SOL     OW42433   1.777   8.202   6.006  0.0105 -0.4972 -0.4554
10405SOL    HW142434   1.789   8.267   5.931 -2.2532 -1.8911 -2.0625
10405SOL    HW242435   1.834   8.231   6.084  0.3485  2.4447 -1.7229
10406SOL     OW42436   7.993   7.638   0.761  0.0625 -0.2273  0.4993
10406SOL    HW142437   8.024   7.556   0.810  1.0391 -1.3182 -1.8126
10406SOL    HW242438   8.069   7.675   0.707 -1.5045 -0.4376 -1.9543
10407SOL     OW42439   8.442   5.542   2.328  0.4350 -1.0531  0.0667
10407SOL    HW142440   8.445   5.632   2.285  0.6478 -0.1088  2.0181
10407SOL    HW242441   8.524   5.491   2.303  0.5990 -0.4901 -0.5650
10408SOL     OW42442   9.154   4.954   5.761  0.2473 -0.3200  0.2031
10408SOL    HW142443   9.183   4.918   5.672  0.9267  0.4913  0.0846
10408SOL    HW242444   9.091   4.890   5.805 -0.1841 -0.6623 -0.9167
10409SOL     OW42445   9.137   1.681   6.578  0.8999 -0.1588 -0.4956
10409SOL    HW142446   9.097   1.635   6.498  1.6317 -1.6065 -0.0573
10409SOL    HW242447   9.235   1.693   6.564  1.0811 -0.6815  0.3071
10410SOL     OW42448   0.223   1.159   0.046  0.0739  0.1846  0.6099
10410SOL    HW142449   0.152   1.133  -0.019  1.0359 -1.7619  0.3282
10410SOL    HW242450   0.313   1.137   0.009  0.7609  1.2357  1.6081
10411SOL     OW42451   9.501   2.920   2.554 -0.4352 -0.0787 -0.4624
10411SOL    HW142452   9.419   2.863   2.544  0.1761 -1.2336  0.9070
10411SOL    HW242453   9.581   2.867   2.526  0.3998 -0.7071  2.9453
10412SOL     OW42454   8.004   3.733   1.529 -0.1453 -0.2314  0.5637
10412SOL    HW142455   7.968   3.660   1.471 -0.8615  0.1702  0.4883
10412SOL    HW242456   7.933   3.803   1.541  0.6463  0.6062  0.3617
10413SOL     OW42457   1.462   8.581   4.370  0.3457 -0.3731  0.4944
10413SOL    HW142458   1.371   8.572   4.408  0.2777 -0.6357  0.2745
10413SOL    HW242459   1.460   8.557   4.273 -0.0052  2.8453 -0.3450
10414SOL     OW42460   6.760   8.951   4.670 -0.8322  0.2375 -0.3290
10414SOL    HW142461   6.712   9.013   4.609 -1.4491 -0.1633 -0.2543
10414SOL    HW242462   6.713   8.862   4.671 -1.1485  0.4140  1.1510
10415SOL     OW42463   8.360   5.279   3.840  0.0573 -0.3317 -0.1377
10415SOL    HW142464   8.385   5.182   3.837 -0.9577 -0.5724 -0.8396
10415SOL    HW242465   8.264   5.288   3.867  0.1788  0.4803  0.0175
10416SOL     OW42466   2.718   5.120   3.715 -0.4191  0.1469 -0.3445
10416SOL    HW142467   2.726   5.189   3.642  0.7517 -0.1104 -0.4581
10416SOL    HW242468   2.762   5.154   3.798 -1.4364  0.2878  0.1450
10417SOL     OW42469   0.248   9.404   3.770 -1.1905 -0.0135 -0.1710
10417SOL    HW142470   0.266   9.307   3.788  2.5616  0.4892 -0.8036
10417SOL    HW242471   0.203   9.445   3.849 -0.7373 -1.7613  1.0140
10418SOL     OW42472   8.195   2.423   3.235  0.2179 -0.0543  0.5226
10418SOL    HW142473   8.133   2.499   3.250 -1.9662 -0.9643 -3.0740
10418SOL    HW242474   8.275   2.455   3.184  1.2744  0.5368  2.5029
10419SOL     OW42475   3.878   9.137   2.265  0.2154 -0.1871 -0.2607
10419SOL    HW142476   3.812   9.186   2.321  1.5227  0.6374  0.6080
10419SOL    HW242477   3.914   9.059   2.316  0.9669  0.2123 -0.1667
10420SOL     OW42478   1.053   1.785   2.837  0.1023  0.0014  0.2736
10420SOL    HW142479   0.977   1.724   2.859 -0.4990  0.3361 -0.8076
10420SOL    HW242480   1.117   1.737   2.777  1.7412 -0.9169  2.7041
10421SOL     OW42481   2.061   3.187   3.790  0.5355  0.4962  0.1816
10421SOL    HW142482   2.095   3.235   3.709  0.1941 -0.4280 -0.5228
10421SOL    HW242483   2.126   3.198   3.866  0.7820  1.4943 -0.1760
10422SOL     OW42484   3.614   9.960   4.002 -0.1314  0.3509 -0.3340
10422SOL    HW142485   3.661   9.970   4.090  1.2995  2.5172 -1.2993
10422SOL    HW242486   3.568   9.872   3.998 -0.1036  0.1772  2.5367
10423SOL     OW42487   0.708   4.053   6.497 -0.2216 -0.6895  0.3417
10423SOL    HW142488   0.744   4.138   6.538 -0.5902 -0.5681  0.4206
10423SOL    HW242489   0.665   4.074   6.410 -0.3347 -0.7913  0.3725
10424SOL     OW42490   1.933   8.406   4.714 -0.0356  0.4711 -0.2611
10424SOL    HW142491   1.841   8.371   4.732  0.6789 -0.9018  0.8734
10424SOL    HW242492   1.973   8.357   4.636  0.5121 -0.4288  0.5710
10425SOL     OW42493   5.194   8.550   4.488  0.3820 -0.4112 -0.5603
10425SOL    HW142494   5.208   8.624   4.422 -1.2499  0.3371 -0.1024
10425SOL    HW242495   5.123   8.488   4.455  1.1824 -1.3353 -0.5676
10426SOL     OW42496   6.988   5.766   6.712  0.2917  0.1698 -0.0570
10426SOL    HW142497   6.918   5.695   6.707 -1.1208  1.5369 -0.0962
10426SOL    HW242498   7.052   5.744   6.785  0.4878 -1.6749 -0.7608
10427SOL     OW42499   0.795   0.831   1.717  0.0260 -0.0462  0.0949
10427SOL    HW142500   0.714   0.869   1.673 -0.0313 -0.4527 -0.1524
10427SOL    HW242501   0.858   0.797   1.648  0.8745  1.1791  0.2312
10428SOL     OW42502   7.920   5.521   6.183  0.4205  0.2601 -0.1955
10428SOL    HW142503   8.012   5.523   6.144 -0.0012 -0.0118 -1.2264
10428SOL    HW242504   7.904   5.603   6.237  1.5440 -0.0604  0.6295
10429SOL     OW42505   3.520   8.459   1.592  0.0936 -0.0894 -0.3751
10429SOL    HW142506   3.445   8.454   1.526 -0.0432 -1.6881 -0.1205
10429SOL    HW242507   3.505   8.537   1.653 -0.1532  0.9644 -1.7569
10430SOL     OW42508   9.747   7.653   3.861 -0.2742 -0.5299  0.4733
10430SOL    HW142509   9.703   7.598   3.932 -0.2465  0.2520  1.1025
10430SOL    HW242510   9.781   7.739   3.901  1.1793 -0.7969 -0.1526
10431SOL     OW42511   6.948   6.376   4.464  0.1569  1.0393  0.4988
10431SOL    HW142512   6.916   6.329   4.382 -0.9046  0.2347  1.3541
10431SOL    HW242513   6.954   6.475   4.446 -1.1430  0.9943 -0.2033
10432SOL     OW42514   9.377   3.642   2.877 -0.2851  0.5352  0.4634
10432SOL    HW142515   9.432   3.559   2.873 -3.3667 -1.6229  0.4051
10432SOL    HW242516   9.318   3.647   2.797 -1.6935  1.6120  1.5262
10433SOL     OW42517   7.895   6.445   6.301  0.3115  0.0838 -0.6778
10433SOL    HW142518   7.938   6.499   6.228  1.5574  0.1847  0.1135
10433SOL    HW242519   7.965   6.390   6.347 -0.0872  1.5651  1.7843
10434SOL     OW42520   8.215   5.982   0.037  0.1456 -0.0070 -0.1513
10434SOL    HW142521   8.268   5.979  -0.048  2.2152 -0.2058  1.1338
10434SOL    HW242522   8.208   5.890   0.075 -0.8516  0.0688 -0.1278
10435SOL     OW42523   1.939   6.985   2.567 -0.3542 -0.8802 -0.3912
10435SOL    HW142524   1.869   6.995   2.638  0.2845  2.5142 -0.1575
10435SOL    HW242525   2.029   7.005   2.605  0.1433 -0.2061 -1.8580
10436SOL     OW42526   1.484   4.781   5.916  0.4245  0.5748 -0.0396
10436SOL    HW142527   1.477   4.723   5.997  1.9474  0.4696  0.0441
10436SOL    HW242528   1.415   4.852   5.920 -0.4399 -0.2795  0.6467
10437SOL     OW42529   8.319   2.688   6.058  0.5203  0.2458 -0.4724
10437SOL    HW142530   8.350   2.615   6.118 -0.4127 -0.5489 -0.9417
10437SOL    HW242531   8.397   2.741   6.026  0.9553  1.1635  2.0540
10438SOL     OW42532   5.040   7.564   4.455 -0.2711 -0.6243 -0.1452
10438SOL    HW142533   5.084   7.644   4.414  0.0321 -0.6925  0.0462
10438SOL    HW242534   4.940   7.573   4.448 -0.3462  1.2119  2.5239
10439SOL     OW42535   4.218   7.837   3.780  0.2084  0.3362  0.6065
10439SOL    HW142536   4.227   7.829   3.879 -1.0818 -0.7705  0.6497
10439SOL    HW242537   4.141   7.896   3.757  0.8236  1.0144  0.2499
10440SOL     OW42538   3.857   1.146   5.770  0.2928  0.0296 -0.0554
10440SOL    HW142539   3.947   1.127   5.731  0.8785  1.5602  0.5238
10440SOL    HW242540   3.790   1.083   5.731  1.1452  0.5341 -2.4023
10441SOL     OW42541   0.343   9.964   0.441  0.4197  0.1298 -0.2758
10441SOL    HW142542   0.326  10.062   0.424  0.0940  0.1771  0.3071
10441SOL    HW242543   0.292   9.910   0.374  1.3581  0.3802 -1.2021
10442SOL     OW42544   2.481   8.073   2.909 -0.0993 -0.8079 -0.9598
10442SOL    HW142545   2.531   8.038   2.830 -0.4705 -1.2706 -0.9912
10442SOL    HW242546   2.389   8.033   2.911 -0.0213 -0.9524 -0.1814
10443SOL     OW42547   1.778   2.365   0.195  0.1186 -0.0552 -0.3315
10443SOL    HW142548   1.802   2.394   0.103 -2.0731  0.5108 -0.7626
10443SOL    HW242549   1.700   2.303   0.192 -0.0286  0.0242  1.1286
10444SOL     OW42550   7.579   7.230   3.426 -0.0225 -0.4655  0.2393
10444SOL    HW142551   7.544   7.154   3.481  0.9964 -1.9256 -1.0780
10444SOL    HW242552   7.504   7.268   3.372 -0.3376 -1.2258  0.1307
10445SOL     OW42553   0.708   8.179   4.136 -0.1460 -0.1554  0.0670
10445SOL    HW142554   0.689   8.085   4.109  2.1200 -0.3826 -0.8991
10445SOL    HW242555   0.785   8.180   4.200  1.3412  1.1626 -1.6763
10446SOL     OW42556   3.271   3.444   1.985 -0.2312  0.0479  0.0810
10446SOL    HW142557   3.339   3.461   1.914  1.5190 -0.9569  1.4535
10446SOL    HW242558   3.278   3.515   2.055  0.1150 -0.5944  0.7131
10447SOL     OW42559   4.344   4.626   3.680 -0.3783 -0.2196  0.0334
10447SOL    HW142560   4.348   4.571   3.764  0.5426 -0.5566 -0.2270
10447SOL    HW242561   4.418   4.598   3.618 -0.8401  0.2661 -0.7458
10448SOL     OW42562   8.330   6.571   2.463 -0.3002 -0.2481  0.3729
10448SOL    HW142563   8.342   6.660   2.419 -1.7478 -0.1488  0.1426
10448SOL    HW242564   8.294   6.585   2.556 -0.5897 -0.6057  0.3111
10449SOL     OW42565   3.093   5.466   3.219  0.3558 -0.3757 -0.3377
10449SOL    HW142566   3.049   5.397   3.276 -0.7673 -0.1385 -0.9050
10449SOL    HW242567   3.030   5.496   3.147  0.8308  1.2427 -0.1054
10450SOL     OW42568   5.740   0.814   3.506  0.1400  0.1091  0.1414
10450SOL    HW142569   5.682   0.863   3.440 -0.9144  2.5200  2.7668
10450SOL    HW242570   5.688   0.796   3.589  2.2578 -0.4185  1.3864
10451SOL     OW42571   1.837   4.697   4.446 -0.1519  0.0616 -0.2579
10451SOL    HW142572   1.770   4.681   4.519  0.9033 -1.1968  0.4604
10451SOL    HW242573   1.853   4.795   4.436 -1.9613  0.3627 -0.3177
10452SOL     OW42574   9.241   7.673   1.746 -0.1010  0.4672  0.4234
10452SOL    HW142575   9.228   7.575   1.732  1.4305  0.1776  0.8577
10452SOL    HW242576   9.231   7.721   1.659  0.1223 -0.1964  0.0306
10453SOL     OW42577   3.297   4.591   1.595 -0.0537  0.4472  0.7007
10453SOL    HW142578   3.361   4.587   1.519 -1.2469 -0.3576 -0.2769
10453SOL    HW242579   3.244   4.506   1.600 -1.9249  1.5649  0.7045
10454SOL     OW42580   4.719   7.208   2.125 -0.2867 -0.4478  0.1216
10454SOL    HW142581   4.634   7.182   2.078 -0.5007 -0.1287  0.3236
10454SOL    HW242582   4.788   7.138   2.110 -0.4105 -0.4368 -0.5224
10455SOL     OW42583   7.764   3.470   6.259 -0.5106  0.6388  0.3903
10455SOL    HW142584   7.745   3.379   6.221 -2.1773  0.4135  1.7126
10455SOL    HW242585   7.755   3.539   6.187 -0.7461 -0.0883 -0.2828
10456SOL     OW42586   1.347   9.251   6.597  0.1155 -0.1156 -0.1833
10456SOL    HW142587   1.337   9.165   6.547 -1.8963 -0.7781  1.2920
10456SOL    HW242588   1.272   9.312   6.574 -1.0053 -0.5414  2.1646
10457SOL     OW42589   9.461   2.545   0.339  0.0184 -0.2891  0.4591
10457SOL    HW142590   9.368   2.521   0.366 -0.3967  0.8967  0.1320
10457SOL    HW242591   9.485   2.497   0.254 -0.4457 -0.2932  0.3290
10458SOL     OW42592   3.359   2.774   3.012 -0.4177  0.3277 -0.4082
10458SOL    HW142593   3.269   2.768   2.968 -0.7787 -0.2787  0.3957
10458SOL    HW242594   3.424   2.716   2.964 -0.5930  0.3525 -0.6755
10459SOL     OW42595   7.771   0.706   6.414  0.3978  0.5122 -0.2332
10459SOL    HW142596   7.726   0.623   6.447  0.2709  0.6768  0.0103
10459SOL    HW242597   7.721   0.742   6.335  1.1705 -0.3341 -1.1174
10460SOL     OW42598   1.699   5.000   6.039 -0.3340  0.0631 -0.1578
10460SOL    HW142599   1.670   4.920   5.987 -1.5626  0.0108  0.5917
10460SOL    HW242600   1.664   4.994   6.132  2.2368 -0.0584  0.8118
10461SOL     OW42601   8.026   4.085   3.052 -0.1676 -0.4725 -0.2948
10461SOL    HW142602   8.038   4.010   3.117  1.0509  0.9824  1.2013
10461SOL    HW242603   8.115   4.118   3.022 -0.7048  0.1661 -1.2027
10462SOL     OW42604   3.985   1.661   5.314 -0.6754  0.1771  0.0321
10462SOL    HW142605   3.994   1.699   5.222  0.6573  0.5703  0.3237
10462SOL    HW242606   3.944   1.729   5.374 -0.7322  0.2261 -0.0619
10463SOL     OW42607   3.129   3.491   1.072 -0.2127 -0.2722  0.1952
10463SOL    HW142608   3.038   3.527   1.053  0.6361  1.2884 -0.9852
10463SOL    HW242609   3.180   3.480   0.987  0.5873 -1.4904  0.8098
10464SOL     OW42610   8.649   2.409   2.649 -0.2074  0.6257 -0.1733
10464SOL    HW142611   8.722   2.471   2.675 -0.0900  0.1871  0.5534
10464SOL    HW242612   8.674   2.360   2.566  1.5007 -1.5149  1.5605
10465SOL     OW42613   9.333   1.091   1.909 -0.0403  0.1474 -0.5504
10465SOL    HW142614   9.259   1.157   1.925 -0.5634 -0.4280 -0.5832
10465SOL    HW242615   9.421   1.139   1.911 -0.4959  1.0579 -1.8666
10466SOL     OW42616   8.267   5.151   1.216 -0.1917  0.5186 -0.2901
10466SOL    HW142617   8.323   5.234   1.222  2.9348 -1.4352 -1.2411
10466SOL    HW242618   8.237   5.138   1.121 -1.1448  0.8471 -0.0358
10467SOL     OW42619   8.634   2.147   0.824 -0.4012 -0.4701 -0.1145
10467SOL    HW142620   8.716   2.111   0.781 -2.3151 -0.4027 -4.0666
10467SOL    HW242621   8.609   2.089   0.902  2.6289 -1.1921  0.3861
10468SOL     OW42622   7.466   6.370   0.878  0.6979  0.9775 -0.2092
10468SOL    HW142623   7.378   6.324   0.870  1.3301 -0.0893 -1.2360
10468SOL    HW242624   7.516   6.332   0.956  1.0758  0.1307 -0.8470
10469SOL     OW42625   0.206   3.137   6.410 -0.0103 -0.4614 -0.0894
10469SOL    HW142626   0.202   3.053   6.355 -0.2497 -2.7875  3.3210
10469SOL    HW242627   0.300   3.172   6.409  0.2812 -1.2346 -0.9061
10470SOL     OW42628   0.981   4.489   5.106 -0.1697  1.1879  0.5495
10470SOL    HW142629   0.954   4.556   5.036  1.2875  0.0399 -1.1416
10470SOL    HW242630   1.052   4.529   5.164 -0.1098  1.5069  0.2618
10471SOL     OW42631   2.416   6.697   2.917 -0.7357 -0.5161 -0.8090
10471SOL    HW142632   2.400   6.794   2.933 -2.1953 -1.0754  1.3543
10471SOL    HW242633   2.331   6.654   2.884  0.0048 -0.9906 -2.1381
10472SOL     OW42634   1.771   5.364   4.168  0.2611  0.5663  0.0115
10472SOL    HW142635   1.828   5.433   4.213 -1.0134  1.5005  0.2007
10472SOL    HW242636   1.778   5.374   4.069  0.1562  0.8890  0.0390
10473SOL     OW42637   6.520   0.070   5.329 -0.0270 -0.4019 -0.5876
10473SOL    HW142638   6.454   0.099   5.399 -0.2954  0.1337 -1.0594
10473SOL    HW242639   6.493  -0.019   5.292  0.4899 -1.0128  0.4674
10474SOL     OW42640   0.673   8.627   2.576 -0.3812 -0.3722  0.4478
10474SOL    HW142641   0.689   8.530   2.560 -0.4024 -0.6179  1.8624
10474SOL    HW242642   0.759   8.672   2.600 -0.3742 -0.0403 -0.1869
10475SOL     OW42643   2.690   4.872   5.493 -0.7359 -0.2718 -0.1036
10475SOL    HW142644   2.629   4.942   5.530 -1.0461  0.4309 -1.8554
10475SOL    HW242645   2.785   4.900   5.506 -0.8611  1.0000 -1.6739
10476SOL     OW42646   1.276   5.524   4.981 -0.9516 -0.1383 -0.0165
10476SOL    HW142647   1.283   5.466   4.900  2.3493 -1.8017  1.3604
10476SOL    HW242648   1.278   5.621   4.953 -0.2774 -0.6807 -1.9386
10477SOL     OW42649   0.710   5.681   2.199 -0.5327 -0.3479 -0.2966
10477SOL    HW142650   0.632   5.661   2.141 -0.7711  1.3829 -0.5917
10477SOL    HW242651   0.742   5.774   2.182  0.5578 -0.4614  1.0071
10478SOL     OW42652   4.489   5.014   4.284 -0.4247 -0.1316 -0.5304
10478SOL    HW142653   4.466   5.103   4.325  1.0824  0.0703 -0.0910
10478SOL    HW242654   4.501   4.946   4.357 -1.4137 -0.6705 -0.8554
10479SOL     OW42655   0.240   3.447   0.713 -0.2054  0.1068 -0.4340
10479SOL    HW142656   0.339   3.439   0.715 -0.2507 -0.2727  0.8930
10479SOL    HW242657   0.199   3.359   0.737 -0.8750 -0.0042 -1.9542
10480SOL     OW42658   0.047   6.675   0.369 -0.0467  0.2894  0.5361
10480SOL    HW142659   0.111   6.745   0.336 -1.1718  1.1171  0.0735
10480SOL    HW242660  -0.042   6.717   0.386 -0.8724 -1.1271 -0.1883
10481SOL     OW42661   8.262   8.127   1.613  0.2582  0.3968 -0.2099
10481SOL    HW142662   8.317   8.081   1.682 -0.0918  1.6767  0.9748
10481SOL    HW242663   8.318   8.194   1.564  0.1833  0.4625 -0.2075
10482SOL     OW42664   2.907   2.041   5.590 -0.5957  0.1489 -0.5353
10482SOL    HW142665   2.955   2.017   5.674  0.0549 -2.2924 -1.5575
10482SOL    HW242666   2.843   2.115   5.608  1.8268  1.8703  1.3810
10483SOL     OW42667   0.120   8.914   3.651  0.3316  0.0243 -0.8109
10483SOL    HW142668   0.118   9.014   3.652  0.9142  0.0231  0.2825
10483SOL    HW242669   0.192   8.883   3.589  0.3278  0.2755 -0.9431
10484SOL     OW42670   9.322   6.567   3.965 -0.1695  0.2952 -0.5276
10484SOL    HW142671   9.259   6.494   3.937 -0.5961  1.0951 -1.6666
10484SOL    HW242672   9.330   6.634   3.892 -1.2468  2.3863  1.2037
10485SOL     OW42673   6.405   2.262   3.204 -0.3009  0.1660  0.0865
10485SOL    HW142674   6.381   2.308   3.119 -2.3842 -1.3704 -0.1875
10485SOL    HW242675   6.339   2.287   3.276 -1.4651 -2.3101 -0.0663
10486SOL     OW42676   8.952   4.093   5.200 -0.1029  0.4678 -0.7264
10486SOL    HW142677   9.014   4.014   5.208  1.9130  2.0184 -0.6762
10486SOL    HW242678   8.940   4.116   5.104 -1.5705 -0.5481 -0.8044
10487SOL     OW42679   3.708   3.700   5.743 -0.1490 -0.4920 -0.1941
10487SOL    HW142680   3.629   3.669   5.689  0.5686 -2.3508 -0.2011
10487SOL    HW242681   3.689   3.686   5.840 -0.7144  1.1652 -0.0524
10488SOL     OW42682   1.939   8.875   4.051 -0.1693 -0.1024 -0.3236
10488SOL    HW142683   1.904   8.952   3.998 -0.9767 -0.9904 -1.1113
10488SOL    HW242684   1.949   8.795   3.992 -1.8156 -1.3294  0.9778
10489SOL     OW42685   9.811   3.974   0.459 -0.1943  0.2613 -0.0948
10489SOL    HW142686   9.746   3.955   0.385  0.0307 -1.2248  0.0654
10489SOL    HW242687   9.800   4.068   0.490 -1.7538  0.2602 -0.5902
10490SOL     OW42688   1.384   0.464   5.900  0.2041  1.1335 -0.1647
10490SOL    HW142689   1.303   0.457   5.842 -0.6214 -2.4233  1.2829
10490SOL    HW242690   1.464   0.432   5.850 -0.2062 -0.2622  0.0458
10491SOL     OW42691   3.921   4.768   6.580 -0.0109  0.1586 -0.0051
10491SOL    HW142692   3.964   4.796   6.495  0.2641  0.3556  0.1983
10491SOL    HW242693   3.986   4.776   6.655  0.5166 -2.3601 -0.1525
10492SOL     OW42694   7.354   3.880   4.622  0.1900  0.4785  0.3779
10492SOL    HW142695   7.354   3.814   4.548 -0.6338  0.5240  0.3325
10492SOL    HW242696   7.297   3.846   4.697 -0.3837  1.2077  0.2809
10493SOL     OW42697   1.746   3.725   4.314 -0.0598  0.3748  0.1555
10493SOL    HW142698   1.751   3.763   4.407 -0.6527  0.4242  0.1697
10493SOL    HW242699   1.833   3.682   4.291  0.0311  0.1953  0.8118
10494SOL     OW42700   2.542   8.101   5.803 -0.0294 -0.0067 -0.3615
10494SOL    HW142701   2.517   8.021   5.749 -1.5697  0.7041 -0.7142
10494SOL    HW242702   2.606   8.073   5.875  1.3491 -1.1102 -1.9728
10495SOL     OW42703   8.887   4.827   5.059  0.4379 -0.0755 -0.0345
10495SOL    HW142704   8.895   4.903   5.123  2.4942  1.1945 -1.7175
10495SOL    HW242705   8.963   4.763   5.074 -0.8648 -1.4245  0.8837
10496SOL     OW42706   7.936   1.049   0.602 -0.0564  0.4041 -0.6331
10496SOL    HW142707   7.947   1.082   0.508 -1.8001 -0.9989 -1.3627
10496SOL    HW242708   7.932   0.949   0.602  1.8906  0.3036  1.1723
10497SOL     OW42709   9.522   4.530   5.342  0.1331  0.1905  0.0816
10497SOL    HW142710   9.425   4.532   5.315 -0.4230 -1.4249  1.8933
10497SOL    HW242711   9.534   4.585   5.425  0.6973  0.0273  0.1071
10498SOL     OW42712   3.845   0.459   1.152 -0.2111 -0.9696  0.4087
10498SOL    HW142713   3.764   0.406   1.125 -0.4420  0.2390 -1.3828
10498SOL    HW242714   3.818   0.531   1.216 -0.5444 -0.6209 -0.1203
10499SOL     OW42715   3.707   0.648   5.771 -0.1975 -0.2830  0.8064
10499SOL    HW142716   3.724   0.730   5.825  2.2502 -0.1053 -0.1744
10499SOL    HW242717   3.629   0.599   5.809 -0.3035  1.3238  2.7533
10500SOL     OW42718   8.336   9.675   5.167  0.2124  0.2285 -0.1037
10500SOL    HW142719   8.316   9.709   5.076  0.4899  2.4449  0.6460
10500SOL    HW242720   8.257   9.689   5.227  0.9811  1.2673  0.6872
10501SOL     OW42721   7.023   8.245   3.352 -0.7011 -0.8748  0.1243
10501SOL    HW142722   7.122   8.238   3.364 -0.7306 -0.4487  0.6681
10501SOL    HW242723   7.000   8.240   3.255 -0.2037 -1.6621  0.0494
10502SOL     OW42724   9.163   0.160   4.182  0.2549 -0.5665 -0.1054
10502SOL    HW142725   9.186   0.210   4.099  1.0572 -1.7498 -0.6036
10502SOL    HW242726   9.154   0.224   4.258  0.6604  0.3981 -0.8667
10503SOL     OW42727   2.431   4.408   4.625 -0.6160  0.3186 -0.0530
10503SOL    HW142728   2.391   4.384   4.536 -4.5200  2.4827  0.9994
10503SOL    HW242729   2.457   4.505   4.625 -0.9584  0.4239  1.2437
10504SOL     OW42730   9.387   1.028   0.035  0.4732 -0.6781  0.4206
10504SOL    HW142731   9.312   1.007  -0.028  0.0440  2.2977 -0.1408
10504SOL    HW242732   9.371   0.981   0.122 -0.3436 -2.6588 -0.7492
10505SOL     OW42733   1.593   8.818   5.591 -0.3372 -0.0748  0.0714
10505SOL    HW142734   1.602   8.813   5.491 -1.0201 -0.1486  0.0074
10505SOL    HW242735   1.499   8.845   5.614  0.3559  1.9445  0.6499
10506SOL     OW42736   3.799   7.554   2.457  0.1713  0.0882 -0.8158
10506SOL    HW142737   3.856   7.606   2.521 -0.6623  0.3720 -0.2943
10506SOL    HW242738   3.855   7.486   2.410  0.8068 -0.0673  0.1615
10507SOL     OW42739   8.446   3.890   0.737  0.1598 -0.3165  0.1639
10507SOL    HW142740   8.536   3.857   0.767 -0.6911 -2.1481  0.8119
10507SOL    HW242741   8.422   3.847   0.650  0.1447  0.5991 -0.2904
10508SOL     OW42742   2.996   3.202   3.198 -0.5644  0.9015 -0.5264
10508SOL    HW142743   3.044   3.289   3.208 -0.4820  0.6758  1.0818
10508SOL    HW242744   2.903   3.219   3.166 -0.0769  1.4740 -1.6784
10509SOL     OW42745   2.245   5.840   3.620  0.3846  0.3625 -0.0403
10509SOL    HW142746   2.239   5.775   3.544 -1.2578  2.4464 -1.7676
10509SOL    HW242747   2.155   5.848   3.664  0.9064  0.4396  1.0119
10510SOL     OW42748   0.308   4.961   4.458 -0.0051 -0.2560  0.2910
10510SOL    HW142749   0.294   5.007   4.370 -0.2083  3.0450  2.0052
10510SOL    HW242750   0.396   4.914   4.457  0.1308 -0.0207 -1.5655
10511SOL     OW42751   2.779   6.106   0.414  0.3160 -0.8730 -0.0561
10511SOL    HW142752   2.830   6.100   0.328 -1.0314  0.2535 -0.9614
10511SOL    HW242753   2.814   6.182   0.468  0.3576 -0.8249 -0.1506
10512SOL     OW42754   1.987   0.477   6.493  0.2054  0.2205 -0.1390
10512SOL    HW142755   1.926   0.402   6.469  0.2528  0.1562 -0.0591
10512SOL    HW242756   1.968   0.556   6.435 -1.4251  0.9348  1.3271
10513SOL     OW42757   1.276   1.560   5.020  0.0784  0.8729  0.5779
10513SOL    HW142758   1.278   1.646   4.969 -1.1555  1.1304  0.9474
10513SOL    HW242759   1.195   1.558   5.079 -1.1780 -1.5539 -1.1853
10514SOL     OW42760   7.992   1.460   4.093  0.2421 -0.4652 -0.3258
10514SOL    HW142761   8.083   1.447   4.052  0.3478  2.7287 -1.2069
10514SOL    HW242762   7.932   1.506   4.028 -1.3337 -0.4816  1.0783
10515SOL     OW42763   2.671   6.554   2.411  0.1590 -0.4754 -0.5923
10515SOL    HW142764   2.651   6.652   2.412 -0.1742 -0.5437  0.8864
10515SOL    HW242765   2.601   6.506   2.358  0.1479  0.0471 -1.0552
10516SOL     OW42766   2.290   3.614   1.393  0.2240 -0.2706 -0.0012
10516SOL    HW142767   2.232   3.672   1.335  2.2846  2.6288  0.7614
10516SOL    HW242768   2.358   3.670   1.440  1.2029 -3.1031  2.1257
10517SOL     OW42769   2.929   0.529   2.198  0.3995  0.2849 -0.4445
10517SOL    HW142770   2.975   0.569   2.277  1.4599  0.4517 -1.1263
10517SOL    HW242771   2.910   0.601   2.131  0.6697 -0.0509 -0.8895
10518SOL     OW42772   3.969   9.670   2.543 -0.0029 -0.1829 -0.7147
10518SOL    HW142773   3.953   9.709   2.452 -0.9347 -1.4085 -1.0915
10518SOL    HW242774   3.988   9.573   2.534 -1.2600 -0.5493  0.4853
10519SOL     OW42775   1.752   2.908   3.707 -0.6460 -0.3585 -0.4517
10519SOL    HW142776   1.729   2.842   3.779  1.6802  1.6122  2.2039
10519SOL    HW242777   1.848   2.896   3.681 -0.2977  1.6979 -0.1966
10520SOL     OW42778   9.823   4.034   1.701 -0.1332  0.8795  0.3964
10520SOL    HW142779   9.892   3.975   1.741 -0.9743  0.3613  1.1038
10520SOL    HW242780   9.866   4.115   1.661  1.1112 -0.5707 -1.2624
10521SOL     OW42781   6.562   0.955   1.893  0.4041  0.6439 -0.2288
10521SOL    HW142782   6.568   0.863   1.854  0.8451  0.7207 -0.3421
10521SOL    HW242783   6.466   0.985   1.895  0.1387 -0.2495  0.8125
10522SOL     OW42784   0.208   9.577   5.106 -0.0918  0.0946  0.0618
10522SOL    HW142785   0.218   9.625   5.019 -2.0754  0.0095 -0.2369
10522SOL    HW242786   0.134   9.510   5.099  1.4292 -1.7332  1.0397
10523SOL     OW42787   1.623   4.502   1.890  0.1810  0.2561  0.3380
10523SOL    HW142788   1.709   4.453   1.904  1.2485  1.3474 -2.0584
10523SOL    HW242789   1.554   4.440   1.855  0.9395  0.0134 -0.7658
10524SOL     OW42790   0.068   5.762   2.060  0.6381  0.8269 -0.1843
10524SOL    HW142791   0.068   5.731   2.155 -0.1313  1.1834 -0.0667
10524SOL    HW242792   0.085   5.683   2.000 -1.3706  0.1303  0.1143
10525SOL     OW42793   8.585   2.684   4.008 -0.8315 -0.0138  0.2439
10525SOL    HW142794   8.509   2.624   3.983 -0.2583 -0.3101 -0.8192
10525SOL    HW242795   8.665   2.629   4.032 -0.4513  0.3134 -0.2564
10526SOL     OW42796   0.988   1.808   5.349  0.3770  0.2744 -0.2657
10526SOL    HW142797   1.049   1.887   5.356  1.0187 -0.1882 -0.5289
10526SOL    HW242798   1.040   1.730   5.313  0.1943 -0.7422  1.6349
10527SOL     OW42799   0.290   6.172   2.716 -0.4142 -0.0109 -0.4779
10527SOL    HW142800   0.216   6.167   2.648  0.0514 -0.1563 -0.9785
10527SOL    HW242801   0.378   6.159   2.670 -0.1592 -1.0835  0.2870
10528SOL     OW42802   9.427   4.112   0.305 -0.4400  0.1979 -0.1873
10528SOL    HW142803   9.334   4.075   0.312 -0.4180 -0.3458 -2.3308
10528SOL    HW242804   9.426   4.195   0.249  0.1588  1.0182  1.0025
10529SOL     OW42805   2.125   3.117   6.059 -0.5381  0.3543 -0.6470
10529SOL    HW142806   2.177   3.134   6.143 -0.9794 -2.2397  0.2071
10529SOL    HW242807   2.073   3.198   6.034 -0.3739  1.1639  1.5843
10530SOL     OW42808   3.943   5.820   2.455  0.3955 -0.1094 -0.2884
10530SOL    HW142809   3.897   5.810   2.544  0.4091 -1.2883 -0.4041
10530SOL    HW242810   4.040   5.837   2.469  0.4982 -0.8596 -0.0804
10531SOL     OW42811   2.286   4.391   5.496  0.0626 -1.1543 -0.4547
10531SOL    HW142812   2.349   4.385   5.419  0.5823  0.0334 -0.1387
10531SOL    HW242813   2.206   4.445   5.470 -0.2593 -1.6422 -0.4828
10532SOL     OW42814   1.979   0.004   5.028 -0.0943 -0.2946  0.3849
10532SOL    HW142815   2.029  -0.083   5.033  0.1620 -0.0786  2.1702
10532SOL    HW242816   2.016   0.060   4.953  1.0687 -0.9251  0.4731
10533SOL     OW42817   6.070   9.635   2.361  1.0873  0.2103 -0.2929
10533SOL    HW142818   6.168   9.656   2.365  1.2110 -0.3757 -0.2168
10533SOL    HW242819   6.029   9.651   2.451  1.9023 -3.3634  0.7824
10534SOL     OW42820   3.012   4.986   3.039 -0.2219 -0.0494 -0.0495
10534SOL    HW142821   3.017   4.886   3.046  1.2217  0.0608  0.6986
10534SOL    HW242822   3.095   5.026   3.076 -0.0398  1.3787 -1.9565
10535SOL     OW42823   2.775   0.472   2.822  0.6998 -0.2416  0.2259
10535SOL    HW142824   2.701   0.451   2.759  0.4576 -1.7216  0.9811
10535SOL    HW242825   2.863   0.447   2.780  0.7381  0.8924 -0.4023
10536SOL     OW42826   2.810   3.151   2.079  0.0449 -0.3196 -0.2656
10536SOL    HW142827   2.903   3.158   2.044 -0.2613  0.6752 -0.9115
10536SOL    HW242828   2.793   3.058   2.112  2.0357  0.1165  2.0696
10537SOL     OW42829   2.274   5.090   0.434 -0.2144 -0.3377 -0.2271
10537SOL    HW142830   2.212   5.136   0.497  0.8086  0.4430  0.2285
10537SOL    HW242831   2.301   5.002   0.471  0.7280  0.3079  0.6399
10538SOL     OW42832   8.785   7.932   4.355 -0.2015 -0.0357  0.1414
10538SOL    HW142833   8.823   7.861   4.295 -0.4385  0.5678 -0.7225
10538SOL    HW242834   8.688   7.914   4.372  0.1877 -0.9793  1.4823
10539SOL     OW42835   1.106   0.975   3.473 -0.1229 -0.4163  0.4482
10539SOL    HW142836   1.025   0.919   3.487 -0.7383  0.2515 -0.3939
10539SOL    HW242837   1.082   1.057   3.420  1.1720 -0.4325 -0.1916
10540SOL     OW42838   3.101   8.396   4.724 -0.4991  0.3814 -0.5435
10540SOL    HW142839   3.113   8.356   4.814 -1.8735  0.4462 -0.3323
10540SOL    HW242840   3.005   8.419   4.709 -0.2800  0.4247 -1.9996
10541SOL     OW42841   7.641   8.202   3.738 -0.3160  0.8665 -0.7431
10541SOL    HW142842   7.622   8.247   3.826  0.6283 -0.3372  0.0890
10541SOL    HW242843   7.581   8.123   3.727 -1.2766  1.7182 -1.7507
10542SOL     OW42844   8.431   7.991   0.074 -0.2231  0.2858 -0.2908
10542SOL    HW142845   8.341   7.994   0.031 -1.2758 -0.3819  1.8019
10542SOL    HW242846   8.425   7.943   0.161  2.0029  0.9885  0.2895
10543SOL     OW42847   9.399   0.697   5.605 -0.1649 -0.2040  0.2557
10543SOL    HW142848   9.382   0.714   5.508 -0.8687 -0.6594  0.2912
10543SOL    HW242849   9.377   0.602   5.626  4.2109 -1.3666 -0.0485
10544SOL     OW42850   9.001   6.545   0.016  0.5671  0.1887 -0.2351
10544SOL    HW142851   8.974   6.561  -0.078  1.2839  0.9236 -0.3224
10544SOL    HW242852   8.974   6.452   0.043  1.1789 -0.3567 -1.4553
10545SOL     OW42853   1.718   3.630   1.710  0.3294 -0.0956  0.2460
10545SOL    HW142854   1.777   3.710   1.716 -0.3567  0.3918  0.5347
10545SOL    HW242855   1.704   3.591   1.801 -3.1550  2.2714  0.8447
10546SOL     OW42856   5.202   9.800   1.486  0.1566  0.3773  0.6455
10546SOL    HW142857   5.300   9.808   1.472  0.1519  0.8920  0.8976
10546SOL    HW242858   5.156   9.786   1.398  0.7822 -3.4230  0.8255
10547SOL     OW42859   3.334   4.997   6.656 -0.3720 -0.8623 -0.3025
10547SOL    HW142860   3.412   5.042   6.698  0.5306 -1.1992 -1.5771
10547SOL    HW242861   3.254   5.057   6.660 -0.1562 -0.6681  1.3493
10548SOL     OW42862   0.227   6.811   3.877 -0.2041  0.2318 -0.1407
10548SOL    HW142863   0.147   6.871   3.870 -1.6533 -1.7553 -1.3447
10548SOL    HW242864   0.297   6.839   3.812 -0.5778  1.0220 -0.2045
10549SOL     OW42865   8.429   9.080   1.466  0.2659 -0.3926 -0.6464
10549SOL    HW142866   8.376   8.999   1.491  1.5842 -0.9347  0.4204
10549SOL    HW242867   8.483   9.060   1.384 -0.7710 -0.0064 -1.4322
10550SOL     OW42868   0.957   1.261   3.082 -0.2687 -0.6566 -0.3032
10550SOL    HW142869   0.860   1.238   3.096 -0.1784 -1.9844 -1.6879
10550SOL    HW242870   0.981   1.245   2.987  1.1380  0.4051 -0.1359
10551SOL     OW42871   6.859   2.374   4.811  0.6793 -0.7481  0.2684
10551SOL    HW142872   6.769   2.330   4.811  0.4667 -0.3275  0.8551
10551SOL    HW242873   6.900   2.366   4.901  0.6487  0.2190  0.3732
10552SOL     OW42874   1.292   7.633   6.702 -0.4451  0.4993  0.2526
10552SOL    HW142875   1.317   7.545   6.662 -0.0878  0.8461 -0.2904
10552SOL    HW242876   1.373   7.679   6.738 -0.1491  1.9859 -2.2328
10553SOL     OW42877   2.187   6.752   1.055  0.0557 -0.3193  0.1279
10553SOL    HW142878   2.181   6.806   1.139 -0.3926 -0.8636  0.4437
10553SOL    HW242879   2.141   6.800   0.981  0.6710  0.2802  0.1298
10554SOL     OW42880   4.507   9.778   0.980 -0.4003  0.1869 -0.4024
10554SOL    HW142881   4.572   9.709   1.010 -0.0126 -0.7476 -3.2218
10554SOL    HW242882   4.421   9.767   1.030 -0.0468 -1.7899 -0.1992
10555SOL     OW42883   8.189   7.244   0.607  0.1114 -0.0606 -0.0556
10555SOL    HW142884   8.244   7.165   0.579  1.4835  0.0415  2.2187
10555SOL    HW242885   8.246   7.326   0.605 -0.7514  0.5257 -0.4431
10556SOL     OW42886   8.010   6.153   4.182  0.2212  0.5663 -0.0533
10556SOL    HW142887   7.985   6.086   4.252  0.4832  0.3253 -0.1882
10556SOL    HW242888   8.107   6.177   4.191  0.0837  1.0776  0.1194
10557SOL     OW42889   5.313   1.953   4.902  0.1543  0.2782  0.2753
10557SOL    HW142890   5.256   1.986   4.826  0.2041  1.6031  0.7922
10557SOL    HW242891   5.271   1.978   4.989 -0.0890 -1.5795  0.6969
10558SOL     OW42892   7.199   4.176   6.667 -0.1627 -0.7034  0.2043
10558SOL    HW142893   7.230   4.125   6.587 -1.5237  1.3664 -1.6835
10558SOL    HW242894   7.134   4.120   6.718  0.7817 -2.0757 -0.0625
10559SOL     OW42895   9.385   1.796   6.516  0.2853 -0.1541 -0.0800
10559SOL    HW142896   9.343   1.884   6.495 -2.6677 -1.2817  0.8889
10559SOL    HW242897   9.458   1.809   6.584 -0.2152  1.5034  0.1540
10560SOL     OW42898   2.981   7.225   0.114 -0.2701  0.4074 -0.0647
10560SOL    HW142899   2.937   7.238   0.025 -0.2101  0.2288 -0.1199
10560SOL    HW242900   2.996   7.314   0.157  0.6830  0.5655 -0.7106
10561SOL     OW42901   3.264   2.481   3.197  0.0062  0.0093 -0.1924
10561SOL    HW142902   3.312   2.412   3.143  0.0570  1.5570 -2.1871
10561SOL    HW242903   3.167   2.478   3.177 -0.5227 -1.7432  2.3158
10562SOL     OW42904   8.935   0.926   5.862 -0.0101  0.0626 -0.1564
10562SOL    HW142905   8.841   0.941   5.893  0.0354 -0.1737  0.0994
10562SOL    HW242906   8.999   0.961   5.930  0.0872  0.6317 -0.5344
10563SOL     OW42907   1.297   4.582   3.240  0.1009 -0.1951 -0.1999
10563SOL    HW142908   1.357   4.504   3.220  0.3184 -0.0196 -0.2403
10563SOL    HW242909   1.304   4.605   3.337  1.5335  1.0003 -0.5582
10564SOL     OW42910   6.600   1.037   1.488 -0.1573  0.8278  0.1194
10564SOL    HW142911   6.646   0.949   1.475  0.2542  1.0355  0.1441
10564SOL    HW242912   6.551   1.062   1.405  2.5669  2.2243 -1.1288
10565SOL     OW42913   0.230   8.592   2.164  0.0126  0.3511 -0.3436
10565SOL    HW142914   0.138   8.609   2.199  0.1616  2.0833 -0.7385
10565SOL    HW242915   0.292   8.576   2.241 -0.4648 -0.0595 -0.0383
10566SOL     OW42916   3.391   0.789   4.937  0.2345  0.8338 -0.4814
10566SOL    HW142917   3.370   0.828   5.027  0.7496 -0.3602  0.1854
10566SOL    HW242918   3.488   0.805   4.917  0.8849 -1.5209  0.5736
10567SOL     OW42919   2.779   5.008   4.285  0.1067  0.0867  0.0404
10567SOL    HW142920   2.724   5.033   4.205 -0.2098  1.9943  0.8194
10567SOL    HW242921   2.731   5.036   4.368  0.8887 -0.9750  0.8600
10568SOL     OW42922   3.585   8.609   3.328  0.4605 -0.0188  0.7925
10568SOL    HW142923   3.649   8.565   3.265 -0.2249 -1.2797  0.9443
10568SOL    HW242924   3.569   8.549   3.407 -0.8034  0.3084  0.8069
10569SOL     OW42925   2.405   0.419   0.765 -0.9178 -0.1914  1.1200
10569SOL    HW142926   2.381   0.324   0.784 -1.2495 -0.0648  1.3359
10569SOL    HW242927   2.440   0.426   0.671  0.1632 -0.7149  1.4755
10570SOL     OW42928   7.688   9.964   1.107 -0.4668  0.2950  0.2084
10570SOL    HW142929   7.717   9.980   1.013 -0.4286 -0.3490  0.1032
10570SOL    HW242930   7.724   9.875   1.138 -1.9072 -0.2836  0.2420
10571SOL     OW42931   6.342   1.582   3.519 -0.2483 -0.2119 -0.7751
10571SOL    HW142932   6.246   1.566   3.497 -1.1256  0.2183  2.4035
10571SOL    HW242933   6.390   1.495   3.529 -0.6921 -0.4685 -0.8925
10572SOL     OW42934   2.792   9.112   4.296  0.3152 -0.3765 -0.0104
10572SOL    HW142935   2.859   9.109   4.222  1.4349  0.5951  0.9496
10572SOL    HW242936   2.803   9.031   4.355 -0.2722 -0.9159 -0.6376
10573SOL     OW42937   1.230   5.772   6.609 -0.3591 -0.2023  0.3165
10573SOL    HW142938   1.268   5.864   6.624 -0.4875 -0.2069  0.6729
10573SOL    HW242939   1.179   5.771   6.523 -1.8946  0.5573  1.1945
10574SOL     OW42940   0.720   1.611   2.506 -0.0347  0.0437 -0.4725
10574SOL    HW142941   0.724   1.515   2.533  3.1053  0.2187 -0.0977
10574SOL    HW242942   0.727   1.669   2.587  2.2655  0.5564 -0.9887
10575SOL     OW42943   4.057   1.449   0.747 -0.0523 -0.3143 -0.5507
10575SOL    HW142944   4.145   1.441   0.700 -1.5693 -2.6579 -3.1674
10575SOL    HW242945   4.031   1.359   0.783 -1.1315  0.4828  0.6814
10576SOL     OW42946   8.775   4.147   5.580  0.0469  0.3813 -0.1110
10576SOL    HW142947   8.773   4.201   5.664 -0.3148 -0.5832  0.5026
10576SOL    HW242948   8.866   4.110   5.565  0.3182  1.2385 -0.5829
10577SOL     OW42949   8.561   6.971   5.067  0.1500  0.7254  0.6036
10577SOL    HW142950   8.641   7.029   5.083 -0.9982  1.7209  2.9625
10577SOL    HW242951   8.489   7.026   5.023 -0.3185  0.6479  1.2659
10578SOL     OW42952   7.331   6.279   6.101 -0.2661 -0.3112  0.0629
10578SOL    HW142953   7.365   6.199   6.053 -0.2243 -0.4061  0.2483
10578SOL    HW242954   7.343   6.267   6.200  0.0131  0.0488  0.0773
10579SOL     OW42955   0.024   6.545   5.566 -0.1984  0.4204  0.2309
10579SOL    HW142956   0.030   6.466   5.627 -0.4402  0.9919  1.0070
10579SOL    HW242957  -0.012   6.624   5.617 -1.0468  0.7291 -0.8244
10580SOL     OW42958   7.196   3.779   0.562 -0.1647 -0.1735  0.0671
10580SOL    HW142959   7.240   3.869   0.572 -0.6908  0.3408 -2.0449
10580SOL    HW242960   7.258   3.708   0.596  1.2652  0.7712 -0.4855
10581SOL     OW42961   8.477   8.490   3.487 -0.1294 -0.3011  0.4048
10581SOL    HW142962   8.527   8.404   3.498 -0.5452 -0.7583 -1.0973
10581SOL    HW242963   8.480   8.517   3.390 -2.7309 -0.2939  0.3155
10582SOL     OW42964   7.900   8.359   3.389  0.3655  0.0086  0.0385
10582SOL    HW142965   7.994   8.393   3.377  0.4304 -0.7989 -1.8566
10582SOL    HW242966   7.837   8.417   3.337  0.0075 -0.4332 -0.0204
10583SOL     OW42967   1.179   3.898   3.582  0.1069 -0.1917 -0.6424
10583SOL    HW142968   1.096   3.953   3.592 -0.5209 -1.3296  0.6068
10583SOL    HW242969   1.171   3.815   3.637  2.1243 -0.2610 -0.3987
10584SOL     OW42970   8.256   5.620   4.780 -0.4339 -0.2613  0.8220
10584SOL    HW142971   8.261   5.670   4.693 -1.0056  0.1025  1.0022
10584SOL    HW242972   8.330   5.552   4.783 -0.0297  0.1522  0.3198
10585SOL     OW42973   0.712   3.963   4.569 -0.0212  0.3561  0.2520
10585SOL    HW142974   0.714   4.044   4.510 -0.2379 -0.0472 -0.3184
10585SOL    HW242975   0.798   3.957   4.620  0.7566 -0.0560 -1.0764
10586SOL     OW42976   2.620   7.016   6.115  0.3681  1.0016 -0.2050
10586SOL    HW142977   2.539   7.031   6.058  0.9198 -0.7946 -1.5104
10586SOL    HW242978   2.615   7.074   6.197 -2.0695  1.1448 -0.4249
10587SOL     OW42979   4.664   2.323   4.798  0.3131  0.2948 -0.1233
10587SOL    HW142980   4.568   2.296   4.808  0.4098 -0.5927 -1.4966
10587SOL    HW242981   4.700   2.352   4.887 -0.8700 -0.5431  0.6387
10588SOL     OW42982   4.154   7.644   1.019 -0.2889  0.1892 -0.0496
10588SOL    HW142983   4.161   7.727   1.075  2.0848 -0.2787  0.3969
10588SOL    HW242984   4.146   7.564   1.079 -0.3875 -0.0855 -0.4257
10589SOL     OW42985   7.877   5.830   0.490  0.1925  0.4967  0.6288
10589SOL    HW142986   7.976   5.812   0.482 -0.3172 -2.2387 -0.0866
10589SOL    HW242987   7.851   5.825   0.586  0.4830 -0.4083  0.6674
10590SOL     OW42988   9.350   8.001   4.156 -0.2289 -0.2230 -0.3652
10590SOL    HW142989   9.322   8.014   4.251 -0.4543  0.5811 -0.5402
10590SOL    HW242990   9.449   7.987   4.152 -0.0143  1.1903 -0.1443
10591SOL     OW42991   1.544   7.823   1.590 -0.1399 -0.0183  0.2684
10591SOL    HW142992   1.640   7.819   1.617 -0.0043 -1.7679 -0.4182
10591SOL    HW242993   1.534   7.884   1.511  0.2607  0.8588  0.8820
10592SOL     OW42994   1.291   4.532   1.560 -0.2653 -0.0310  0.5441
10592SOL    HW142995   1.286   4.606   1.626  0.7039  0.8111 -0.3120
10592SOL    HW242996   1.306   4.569   1.468  0.9099 -1.3045  0.1938
10593SOL     OW42997   7.971   7.369   1.454 -0.2152  0.9155 -0.1835
10593SOL    HW142998   7.950   7.460   1.419 -2.5766  0.1245 -0.9846
10593SOL    HW242999   7.970   7.304   1.378 -2.5516 -0.3860  0.9129
10594SOL     OW43000   3.893   7.739   2.137 -0.8753 -0.2262 -0.4460
10594SOL    HW143001   3.895   7.804   2.061 -1.8698 -1.7171 -1.7675
10594SOL    HW243002   3.827   7.667   2.118  1.8439 -2.9322 -0.0967
10595SOL     OW43003   9.518   8.131   2.540  0.7022  0.1516  0.1750
10595SOL    HW143004   9.571   8.167   2.617  1.8120  2.3582 -1.5722
10595SOL    HW243005   9.557   8.044   2.510 -0.5289 -1.4307  2.8735
10596SOL     OW43006   8.728   1.491   4.476  0.2356  0.0078  0.5525
10596SOL    HW143007   8.796   1.558   4.508 -1.5142  1.4074  1.4237
10596SOL    HW243008   8.732   1.485   4.376  1.6204  0.0766  0.5880
10597SOL     OW43009   9.303   8.565   5.907 -0.5726 -0.9156 -0.4684
10597SOL    HW143010   9.258   8.637   5.959  0.8022 -0.9029  0.7562
10597SOL    HW243011   9.342   8.603   5.824 -1.0916 -0.5404 -0.5431
10598SOL     OW43012   6.778   0.838   5.131  0.4809 -0.0245 -0.1046
10598SOL    HW143013   6.732   0.916   5.090  0.0952 -0.0585  0.2560
10598SOL    HW243014   6.762   0.756   5.076 -1.9910 -0.5554  1.3488
10599SOL     OW43015   8.501   1.273   3.530 -0.1605  0.3108 -0.0451
10599SOL    HW143016   8.535   1.350   3.476 -0.8545 -0.0127 -0.9482
10599SOL    HW243017   8.401   1.267   3.521 -0.0225 -1.2328 -0.7089
10600SOL     OW43018   8.607   6.445   4.409 -0.2453 -0.1342  0.6285
10600SOL    HW143019   8.549   6.500   4.469  0.4152  1.0757  0.1611
10600SOL    HW243020   8.703   6.464   4.429 -0.0168  0.2079 -0.7492
10601SOL     OW43021   3.269   2.265   2.961 -0.3567 -0.3450  0.1468
10601SOL    HW143022   3.182   2.244   3.006 -0.2192 -0.0708  0.5399
10601SOL    HW243023   3.338   2.198   2.989 -0.3954 -0.4567 -0.0262
10602SOL     OW43024   4.746   4.018   3.349  0.1297  0.0424 -0.3100
10602SOL    HW143025   4.668   4.027   3.288  0.5786  1.5415 -0.6649
10602SOL    HW243026   4.721   3.959   3.426 -1.2931  0.3979 -0.4949
10603SOL     OW43027   7.108   9.242   5.197 -1.6411 -0.2745  0.2385
10603SOL    HW143028   7.099   9.193   5.283 -2.1418  0.2261  0.4688
10603SOL    HW243029   7.112   9.176   5.122  3.1111 -0.9364  0.9383
10604SOL     OW43030   3.062   0.408   4.448  0.2341 -0.1458  0.0578
10604SOL    HW143031   3.061   0.500   4.485  0.7375 -0.4792  0.9119
10604SOL    HW243032   3.050   0.342   4.522 -0.9204 -0.7424 -0.6478
10605SOL     OW43033   2.084   0.952   0.047 -0.5230 -0.0407 -0.4808
10605SOL    HW143034   1.989   0.977   0.067 -0.6415 -0.5269 -0.4307
10605SOL    HW243035   2.145   0.992   0.116 -0.6417  0.6780 -0.7918
10606SOL     OW43036   5.737   1.545   3.666 -0.6390 -0.3455  0.4290
10606SOL    HW143037   5.743   1.449   3.696 -0.4108 -0.9900 -1.6349
10606SOL    HW243038   5.827   1.577   3.637 -1.2479 -0.4426 -1.6404
10607SOL     OW43039   0.089   0.939   5.243  0.3966 -0.6265  0.0279
10607SOL    HW143040   0.141   0.948   5.158  0.7699 -1.5881  0.1396
10607SOL    HW243041  -0.001   0.980   5.233  0.8851  0.3486 -0.4324
10608SOL     OW43042   2.947   7.982   1.438 -0.2797  0.1179 -0.1896
10608SOL    HW143043   2.999   7.922   1.500  0.0506  1.5102  0.8926
10608SOL    HW243044   2.942   8.074   1.476 -2.1280  0.4238 -1.0972
10609SOL     OW43045   1.283   1.387   1.621  0.1650  0.2607  0.2364
10609SOL    HW143046   1.215   1.403   1.692 -0.3946 -0.6945 -0.0789
10609SOL    HW243047   1.255   1.310   1.564  0.4683  1.1876 -1.1930
10610SOL     OW43048   0.144   9.792   3.311  0.3034 -0.0722  0.2596
10610SOL    HW143049   0.130   9.819   3.216 -1.0393 -1.8066 -0.0534
10610SOL    HW243050   0.098   9.857   3.371 -1.0498 -0.4192 -0.3919
10611SOL     OW43051   4.093   5.761   2.071  0.3115  0.0960 -0.1500
10611SOL    HW143052   4.092   5.740   1.973  1.4815 -0.1066 -0.1271
10611SOL    HW243053   4.162   5.704   2.117 -0.9997 -0.6146  0.9844
10612SOL     OW43054   2.218   9.924   6.015  0.0347 -0.2003 -0.0197
10612SOL    HW143055   2.148   9.853   6.021  2.3687 -2.4107  2.2977
10612SOL    HW243056   2.187  10.006   6.063 -1.2150 -0.9245  0.4209
10613SOL     OW43057   7.122   1.298   3.227  0.7310  0.6038 -0.5734
10613SOL    HW143058   7.070   1.358   3.289 -1.5540 -1.1172 -0.7497
10613SOL    HW243059   7.216   1.290   3.260 -0.1910  0.4639  2.1831
10614SOL     OW43060   7.298   3.341   1.060  0.0500 -0.0506 -0.4314
10614SOL    HW143061   7.339   3.347   0.969  2.1450  2.9787  0.6422
10614SOL    HW243062   7.274   3.433   1.091 -3.4424 -1.3328  0.8819
10615SOL     OW43063   0.281   8.481   5.990 -0.3260  0.6182 -0.4504
10615SOL    HW143064   0.221   8.485   5.910 -2.0982 -0.9663  0.7901
10615SOL    HW243065   0.282   8.388   6.027  1.2036  1.1293  0.8341
10616SOL     OW43066   6.712   3.023   2.791 -0.1966  0.1287  0.5982
10616SOL    HW143067   6.676   3.101   2.842  1.4367 -0.3514  2.5202
10616SOL    HW243068   6.671   2.939   2.824  0.8383 -0.1838  1.0861
10617SOL     OW43069   5.153   8.406   4.985 -0.0347  1.1230 -0.1598
10617SOL    HW143070   5.191   8.316   4.966 -1.5129  0.4102  0.1923
10617SOL    HW243071   5.147   8.459   4.900 -1.8224 -0.1594 -0.8541
10618SOL     OW43072   0.914   0.692   0.554  0.0232 -0.3469 -0.3133
10618SOL    HW143073   0.957   0.641   0.629 -2.1413 -1.1399  0.4280
10618SOL    HW243074   0.819   0.712   0.577 -0.1950  0.8817 -2.1509
10619SOL     OW43075   5.969   2.269   4.131  0.3890  0.7318  0.1765
10619SOL    HW143076   5.897   2.338   4.127 -0.0448  0.3437  1.1716
10619SOL    HW243077   5.972   2.230   4.223  1.2841  0.1227 -0.1136
10620SOL     OW43078   8.832   9.212   0.138  0.2733  0.4371 -0.5028
10620SOL    HW143079   8.844   9.306   0.168  0.7235  0.4342 -0.6819
10620SOL    HW243080   8.743   9.203   0.093  0.6800  1.0195 -1.4389
10621SOL     OW43081   2.839   6.655   3.001  0.2533  0.1922  0.1119
10621SOL    HW143082   2.800   6.710   2.927 -1.0684 -3.0089 -1.6871
10621SOL    HW243083   2.766   6.610   3.052  1.2742  0.4830  1.8533
10622SOL     OW43084   7.407   9.628   5.080  0.3892  0.1486  0.1688
10622SOL    HW143085   7.325   9.681   5.056  0.9329  1.4140  1.0738
10622SOL    HW243086   7.379   9.537   5.111 -0.6514  0.3931 -0.0164
10623SOL     OW43087   7.491   0.386   3.371  0.0515 -0.1269  0.0269
10623SOL    HW143088   7.531   0.399   3.280  1.5946 -1.0247  0.5510
10623SOL    HW243089   7.398   0.350   3.362  0.2790 -0.4359 -1.1920
10624SOL     OW43090   2.310   2.730   1.808  0.1020 -0.0585  0.0475
10624SOL    HW143091   2.397   2.705   1.850  0.0986  1.0255  0.7087
10624SOL    HW243092   2.256   2.647   1.792  0.6885 -0.6108  0.8869
10625SOL     OW43093   8.990   5.170   0.728 -0.2802 -0.7082 -0.2221
10625SOL    HW143094   8.942   5.210   0.806 -0.8939  1.9348 -1.8764
10625SOL    HW243095   8.924   5.136   0.661  0.1674 -0.0335 -1.0276
10626SOL     OW43096   1.010   8.857   5.210 -0.1229 -0.1777  0.9240
10626SOL    HW143097   0.933   8.885   5.268 -1.9107 -1.6890 -0.6629
10626SOL    HW243098   0.996   8.891   5.117  2.7471  2.2578  1.3246
10627SOL     OW43099   9.642   7.060   4.092  0.4852  0.3824  0.3257
10627SOL    HW143100   9.546   7.085   4.088  0.6452  1.1172  1.0150
10627SOL    HW243101   9.652   6.969   4.133  0.1957  1.0316  1.8768
10628SOL     OW43102   3.493   6.584   1.197 -0.0489 -0.2409 -0.3286
10628SOL    HW143103   3.400   6.576   1.231 -0.6127 -0.7921 -1.9638
10628SOL    HW243104   3.521   6.497   1.156  1.4065 -0.2714  0.6694
10629SOL     OW43105   3.244   8.029   4.287 -0.2163  0.5569  0.3317
10629SOL    HW143106   3.241   8.126   4.312  0.7681  0.7544 -0.2959
10629SOL    HW243107   3.181   8.013   4.210 -1.2517  0.4607  1.1837
10630SOL     OW43108   5.600   6.235   1.657  0.0777 -0.2697  0.0494
10630SOL    HW143109   5.541   6.284   1.721  0.2341 -1.1292  0.8605
10630SOL    HW243110   5.606   6.139   1.684  0.0933 -0.6559 -1.2927
10631SOL     OW43111   1.994   1.917   2.974 -0.3786  0.1086  0.4538
10631SOL    HW143112   2.034   1.900   2.884 -0.1047  0.7104  0.4653
10631SOL    HW243113   1.911   1.861   2.984 -0.2136 -0.2289 -0.0296
10632SOL     OW43114   7.911   6.588   4.295 -0.4528  0.1392  0.6307
10632SOL    HW143115   8.010   6.580   4.282 -0.1255  1.4503  2.1462
10632SOL    HW243116   7.872   6.641   4.219 -0.4928 -3.0360 -1.6275
10633SOL     OW43117   2.872   6.002   4.336 -0.0335 -0.4150  0.3244
10633SOL    HW143118   2.874   5.995   4.436 -0.6918 -1.0676  0.2998
10633SOL    HW243119   2.956   5.961   4.298 -0.1737 -0.9467  0.5742
10634SOL     OW43120   6.273   2.244   4.429 -0.1232 -0.3693  0.4360
10634SOL    HW143121   6.250   2.332   4.387  1.0488 -0.8734 -1.3277
10634SOL    HW243122   6.205   2.176   4.401 -1.0865 -0.0437  1.8807
10635SOL     OW43123   9.222   5.774   6.578 -0.5368 -0.3150  0.3041
10635SOL    HW143124   9.197   5.701   6.642 -0.3625  0.1169  0.8672
10635SOL    HW243125   9.236   5.735   6.487 -1.7503 -0.7821  0.3182
10636SOL     OW43126   9.799   2.224   5.365 -0.0430  0.2206 -0.3200
10636SOL    HW143127   9.749   2.205   5.449  2.5099  1.5135  1.5910
10636SOL    HW243128   9.774   2.158   5.295 -2.2343 -0.9019  1.4636
10637SOL     OW43129   8.082   5.545   5.323 -0.5797 -0.1787  0.0542
10637SOL    HW143130   8.108   5.620   5.262  2.5260 -0.5312  0.8616
10637SOL    HW243131   8.054   5.584   5.412  1.6450  0.0361  0.6863
10638SOL     OW43132   9.339   4.859   1.402 -0.2936  0.0402 -0.8438
10638SOL    HW143133   9.393   4.927   1.352 -0.2798 -1.7586 -3.3648
10638SOL    HW243134   9.395   4.778   1.419 -1.2498 -0.5941 -0.6836
10639SOL     OW43135   4.545   8.954   5.178 -0.2237  0.4653 -0.8981
10639SOL    HW143136   4.544   8.875   5.240 -1.0820 -0.2558 -1.8270
10639SOL    HW243137   4.490   8.934   5.097  1.5650  1.0827 -2.2995
10640SOL     OW43138   6.814   6.603   4.225 -0.0577  0.2847  0.0000
10640SOL    HW143139   6.895   6.654   4.197  0.1497  0.5726  1.0765
10640SOL    HW243140   6.762   6.657   4.292 -0.4286 -0.4495  0.3106
10641SOL     OW43141   0.096   4.832   0.424  0.0088 -0.1640 -0.4506
10641SOL    HW143142   0.106   4.735   0.405  1.0606 -0.3215  0.7999
10641SOL    HW243143   0.166   4.860   0.490 -0.2905  1.4359 -0.7832
10642SOL     OW43144   9.791   4.863   3.132  0.1402  0.7140  0.4718
10642SOL    HW143145   9.795   4.843   3.034 -0.3347 -1.1299  0.8113
10642SOL    HW243146   9.847   4.943   3.152  1.5572  0.1322 -1.0573
10643SOL     OW43147   3.815   8.585   2.310 -0.2459 -0.2780 -0.0380
10643SOL    HW143148   3.907   8.566   2.345 -0.5308  0.6207  1.2134
10643SOL    HW243149   3.799   8.683   2.310 -1.6002 -0.4905  0.7336
10644SOL     OW43150   6.118   1.428   5.929 -0.1832 -0.4204  0.4391
10644SOL    HW143151   6.108   1.518   5.888 -1.2919 -0.1571  1.2476
10644SOL    HW243152   6.044   1.369   5.898 -0.8066 -0.3349  1.7292
10645SOL     OW43153   8.178   7.946   6.142 -0.3350  0.1490  0.2464
10645SOL    HW143154   8.159   7.995   6.057  2.2195  2.4029  0.8969
10645SOL    HW243155   8.226   7.861   6.121 -0.1992  0.4272 -0.5978
10646SOL     OW43156   2.717   5.865   1.910  0.1666  0.8036  0.0447
10646SOL    HW143157   2.744   5.957   1.938 -0.4020  1.6562 -2.0818
10646SOL    HW243158   2.783   5.831   1.843  0.1213 -0.1514  0.4891
10647SOL     OW43159   2.183   6.599   5.670  0.1635 -0.4363  0.7437
10647SOL    HW143160   2.188   6.685   5.720 -0.6223 -0.4450  0.8454
10647SOL    HW243161   2.247   6.601   5.593 -0.0724  0.3584  0.5618
10648SOL     OW43162   0.189   3.066   5.610 -0.2445 -0.4870 -0.3894
10648SOL    HW143163   0.167   3.117   5.693 -1.6451  0.0471 -1.0673
10648SOL    HW243164   0.252   3.119   5.554 -0.2741 -0.2996 -0.2446
10649SOL     OW43165   0.263   8.147   6.051  0.4595  0.6842  0.1579
10649SOL    HW143166   0.169   8.176   6.033 -0.0166 -0.9463 -0.0864
10649SOL    HW243167   0.292   8.082   5.980  0.7241 -1.0758  1.8161
10650SOL     OW43168   6.678   4.700   0.921 -0.3296  0.0297 -0.1298
10650SOL    HW143169   6.726   4.708   1.008 -0.2380  0.9203 -0.2574
10650SOL    HW243170   6.580   4.689   0.939 -0.2529 -0.3095  0.0956
10651SOL     OW43171   2.481   2.386   1.827  0.1470 -0.1417 -0.3771
10651SOL    HW143172   2.442   2.308   1.877  1.7763 -2.2583 -2.2967
10651SOL    HW243173   2.581   2.379   1.828  0.3173  2.1586 -0.2585
10652SOL     OW43174   4.462   2.963   0.272  0.4589  0.0708 -0.6518
10652SOL    HW143175   4.535   2.940   0.337  0.2679  0.7341 -0.1979
10652SOL    HW243176   4.382   2.905   0.291  0.4335  0.2033 -0.3485
10653SOL     OW43177   8.469   5.433   0.702  0.0564  0.3008  0.1131
10653SOL    HW143178   8.376   5.429   0.664  0.6943 -0.6747 -1.3795
10653SOL    HW243179   8.535   5.414   0.630  1.3110 -1.6600  1.7459
10654SOL     OW43180   4.105   8.420   3.926 -0.4417  0.0957 -0.5670
10654SOL    HW143181   4.179   8.487   3.933  0.5022 -1.0744  0.8463
10654SOL    HW243182   4.030   8.448   3.986  0.7799 -1.1291  1.5972
10655SOL     OW43183   4.647   3.163   1.180 -0.3874  0.0095  0.1019
10655SOL    HW143184   4.643   3.127   1.087  0.4198  1.6403 -0.5899
10655SOL    HW243185   4.707   3.106   1.236 -0.0648 -0.3983 -0.6546
10656SOL     OW43186   2.828   1.683   5.214  0.4541  0.5993 -0.4501
10656SOL    HW143187   2.922   1.703   5.188  0.1607  0.8855 -1.2979
10656SOL    HW243188   2.793   1.757   5.271  0.5700  0.7352 -0.5554
10657SOL     OW43189   3.354   5.406   3.250 -0.1206  0.1018 -0.3669
10657SOL    HW143190   3.380   5.356   3.167 -2.0941  0.5980 -1.3134
10657SOL    HW243191   3.261   5.441   3.240 -0.0081  1.0483  1.6630
10658SOL     OW43192   0.865   8.343   5.845 -0.1942 -0.1707  0.1245
10658SOL    HW143193   0.941   8.348   5.910 -2.2762  0.7921  2.5846
10658SOL    HW243194   0.899   8.361   5.753  2.6380 -0.2782  1.0995
10659SOL     OW43195   9.258   7.367   0.607 -0.2459  0.0006 -0.2943
10659SOL    HW143196   9.325   7.301   0.571 -0.7751  1.2066 -3.6089
10659SOL    HW243197   9.168   7.324   0.608 -0.1002 -0.3065  0.4460
10660SOL     OW43198   9.156   7.404   1.742  0.4934 -0.0377  0.6548
10660SOL    HW143199   9.240   7.373   1.696 -1.2003 -1.4598 -1.5880
10660SOL    HW243200   9.102   7.324   1.770 -1.2367  0.8519 -0.0849
10661SOL     OW43201   8.030   9.521   1.490 -0.1881 -0.2458  0.1194
10661SOL    HW143202   8.061   9.616   1.477 -1.7370  0.3956  0.9965
10661SOL    HW243203   8.106   9.459   1.469  1.6137  1.2754  1.8096
10662SOL     OW43204   1.867   6.646   0.903 -0.6778  0.2229 -0.3392
10662SOL    HW143205   1.915   6.615   0.821  1.4068 -0.5820  1.1234
10662SOL    HW243206   1.808   6.573   0.937 -0.8849  0.2516 -0.6356
10663SOL     OW43207   2.991   8.756   2.920  0.2424  0.0592  0.5300
10663SOL    HW143208   2.983   8.722   3.014  1.2073 -0.3295  0.4732
10663SOL    HW243209   3.064   8.823   2.915  0.5889 -0.3578 -0.0684
10664SOL     OW43210   8.487   7.485   3.150 -0.1036 -1.0195  0.3107
10664SOL    HW143211   8.473   7.483   3.249  0.7948  0.0431  0.4703
10664SOL    HW243212   8.530   7.400   3.120  0.6380 -0.8895  0.9915
10665SOL     OW43213   5.774   6.200   0.921 -0.4286  0.0564 -0.5977
10665SOL    HW143214   5.809   6.112   0.953  1.4787  1.2363  0.6661
10665SOL    HW243215   5.722   6.244   0.995  1.4771  1.4775 -0.0907
10666SOL     OW43216   3.191   9.675   1.068  0.0874  0.3400 -0.3494
10666SOL    HW143217   3.279   9.628   1.075  0.4387  0.6774 -2.1413
10666SOL    HW243218   3.156   9.665   0.975 -1.5103  0.6765  0.2122
10667SOL     OW43219   7.564   0.873   4.828  0.1234  0.0395  0.1984
10667SOL    HW143220   7.630   0.854   4.900 -0.0304 -0.3841  0.2236
10667SOL    HW243221   7.603   0.941   4.765  0.8422 -0.7054 -0.1610
10668SOL     OW43222   1.362   8.577   4.746 -0.3433 -0.3296 -0.3831
10668SOL    HW143223   1.289   8.509   4.741 -0.8705  0.2196 -0.2192
10668SOL    HW243224   1.374   8.607   4.840 -0.7279  0.4695 -0.5859
10669SOL     OW43225   8.686   7.319   6.182 -0.0428  0.3279  0.2019
10669SOL    HW143226   8.769   7.280   6.143 -0.3017  0.1541 -0.1708
10669SOL    HW243227   8.703   7.414   6.209  0.4404  0.1106  0.6530
10670SOL     OW43228   1.073   4.511   4.020  0.0262  0.0750  0.0124
10670SOL    HW143229   0.997   4.535   4.080 -0.9790  0.1552 -1.2790
10670SOL    HW243230   1.118   4.428   4.055 -0.9119 -0.2125  0.5638
10671SOL     OW43231   3.399   8.819   1.383 -0.0075  0.1729  0.3320
10671SOL    HW143232   3.392   8.729   1.427 -0.3696  0.7543  1.4821
10671SOL    HW243233   3.309   8.850   1.355  0.1826 -0.0464 -0.5392
10672SOL     OW43234   9.565   1.894   6.700 -0.1453  0.1078 -0.5022
10672SOL    HW143235   9.510   1.927   6.777 -1.8915 -0.5313 -1.4686
10672SOL    HW243236   9.662   1.895   6.726 -0.5345  1.8636  0.9879
10673SOL     OW43237   0.044   4.847   2.406  0.1619  0.7071 -0.0899
10673SOL    HW143238   0.029   4.939   2.442  1.2776  0.9612 -0.2622
10673SOL    HW243239   0.010   4.841   2.312  1.3197  1.3300 -0.5459
10674SOL     OW43240   8.088   6.537   5.542 -0.6043 -0.1014  0.1368
10674SOL    HW143241   8.181   6.505   5.525 -0.5375  0.3552 -0.3703
10674SOL    HW243242   8.051   6.577   5.459 -0.4313  1.7561  0.9278
10675SOL     OW43243   1.561   9.150   3.806  0.1901  0.6514 -0.4717
10675SOL    HW143244   1.483   9.140   3.744  0.0689  0.4677 -0.2910
10675SOL    HW243245   1.533   9.203   3.886  0.4092  1.0873 -0.6865
10676SOL     OW43246   9.393   1.525   0.689  0.0267  0.5637 -0.2210
10676SOL    HW143247   9.476   1.576   0.666 -0.5717  0.8827 -1.7084
10676SOL    HW243248   9.343   1.503   0.606 -1.5944  0.7132  0.6922
10677SOL     OW43249   7.536   2.850   1.727 -0.2712  0.5950 -0.1050
10677SOL    HW143250   7.456   2.880   1.779 -1.7529 -0.3611 -1.7987
10677SOL    HW243251   7.612   2.835   1.790 -1.7232  0.4920  1.6721
10678SOL     OW43252   0.525   1.706   6.248 -0.2876 -0.2918  0.5727
10678SOL    HW143253   0.578   1.636   6.200 -1.6753 -0.6992 -0.3975
10678SOL    HW243254   0.512   1.785   6.188  0.6596  0.5141  1.4111
10679SOL     OW43255   9.184   7.558   4.401 -0.0253 -0.4738  0.1806
10679SOL    HW143256   9.226   7.648   4.414 -0.3700 -0.0944 -1.2311
10679SOL    HW243257   9.248   7.487   4.431  0.5938  0.2082  0.4916
10680SOL     OW43258   2.481   0.935   1.727  0.2210  0.2085  0.2070
10680SOL    HW143259   2.431   0.970   1.648 -1.6315 -0.7410  0.9205
10680SOL    HW243260   2.504   1.011   1.788  2.0260  0.9961 -1.4264
10681SOL     OW43261   7.359   9.245   4.570 -0.0135  0.1712 -0.3641
10681SOL    HW143262   7.382   9.336   4.537 -3.1500  0.6915 -1.2463
10681SOL    HW243263   7.378   9.178   4.498 -0.2450  0.4668 -0.7031
10682SOL     OW43264   2.829   6.849   0.984 -0.3561 -0.8381 -0.4447
10682SOL    HW143265   2.888   6.912   1.034 -0.2235 -0.0210 -1.6203
10682SOL    HW243266   2.832   6.759   1.029 -0.9729  0.1072  1.5462
10683SOL     OW43267   3.050   6.951   3.988 -0.1557 -0.3247 -0.1383
10683SOL    HW143268   3.131   6.909   3.947  1.4417  1.5797  0.9315
10683SOL    HW243269   3.077   7.034   4.037 -3.1096  1.8079 -1.9149
10684SOL     OW43270   4.217   9.491   2.481  0.1213  0.1191 -0.1261
10684SOL    HW143271   4.189   9.398   2.507 -0.0444  0.5346  1.2479
10684SOL    HW243272   4.310   9.488   2.443 -0.1687 -0.7082 -0.7840
10685SOL     OW43273   6.591   9.842   4.867  0.3731 -0.6255 -0.6511
10685SOL    HW143274   6.644   9.906   4.812  1.3911 -0.2013  0.8260
10685SOL    HW243275   6.546   9.776   4.806  0.3820  0.6644 -2.0796
10686SOL     OW43276   4.644   9.195   4.474  0.4347 -0.0483 -0.1582
10686SOL    HW143277   4.606   9.250   4.400  0.2108  0.0972  0.0639
10686SOL    HW243278   4.579   9.124   4.500  0.9708 -0.7896 -0.8476
10687SOL     OW43279   6.843   0.870   1.196 -0.5958  0.4166 -0.3611
10687SOL    HW143280   6.769   0.935   1.176 -0.7000  0.3667 -0.1426
10687SOL    HW243281   6.805   0.778   1.202 -0.4614  0.3469 -0.5844
10688SOL     OW43282   8.296   3.554   1.523  0.3177  0.1196 -0.0025
10688SOL    HW143283   8.221   3.488   1.518  1.2822 -0.9115 -1.1781
10688SOL    HW243284   8.343   3.558   1.435  1.3453  1.1074  0.5782
10689SOL     OW43285   4.127   1.998   2.521  0.3341 -0.2180 -0.1826
10689SOL    HW143286   4.110   2.082   2.469 -0.5579 -1.0744 -1.3140
10689SOL    HW243287   4.223   1.973   2.513  1.2548  2.2270  2.5328
10690SOL     OW43288   9.220   3.559   2.291  0.6213 -0.0709 -0.2558
10690SOL    HW143289   9.148   3.602   2.347  0.9443  0.9410 -0.6138
10690SOL    HW243290   9.308   3.599   2.315  0.8962 -0.3894 -0.7410
10691SOL     OW43291   9.595   0.567   6.670  0.4991 -0.1240  0.1838
10691SOL    HW143292   9.626   0.603   6.758  0.2193 -0.8591  0.5966
10691SOL    HW243293   9.664   0.505   6.634  0.7497  0.4195 -0.2681
10692SOL     OW43294   8.688   9.503   0.970  0.3520 -0.4503  0.4357
10692SOL    HW143295   8.682   9.404   0.965  0.5439 -0.4598  0.3806
10692SOL    HW243296   8.598   9.541   0.993  0.9326 -0.8023  3.3844
10693SOL     OW43297   0.151   4.981   6.255  0.0492 -0.1035  0.5227
10693SOL    HW143298   0.057   5.015   6.252  0.2160  0.2515 -2.7557
10693SOL    HW243299   0.150   4.882   6.272 -0.8699  0.0836  1.5592
10694SOL     OW43300   2.943   9.277   0.446  0.1828  0.3599  0.1418
10694SOL    HW143301   2.938   9.219   0.364 -0.3357  0.5769  0.0153
10694SOL    HW243302   3.023   9.336   0.439  0.0370  0.5114 -0.3021
10695SOL     OW43303   2.265   6.921   6.202 -0.2419 -0.3970 -0.3617
10695SOL    HW143304   2.336   6.934   6.271 -0.6571 -1.6771  0.3296
10695SOL    HW243305   2.240   7.010   6.163 -1.4945  0.6631  2.6880
10696SOL     OW43306   7.833   4.814   0.820  0.4013 -0.6264  0.0815
10696SOL    HW143307   7.809   4.755   0.897  0.4026 -0.2070  0.4031
10696SOL    HW243308   7.922   4.788   0.784  0.7730 -0.2823  0.7509
10697SOL     OW43309   3.627   2.994   3.921 -0.0920  0.0793 -0.2543
10697SOL    HW143310   3.626   2.969   3.825 -0.5132  0.7298 -0.4274
10697SOL    HW243311   3.721   2.994   3.955  0.2410  1.5926 -1.1468
10698SOL     OW43312   7.554   4.383   2.838  0.3871 -0.1754 -0.3817
10698SOL    HW143313   7.644   4.344   2.818  0.3297  0.1981 -1.3634
10698SOL    HW243314   7.549   4.408   2.935  2.4918  2.8226 -0.9992
10699SOL     OW43315   4.234   2.909   0.482 -0.5809 -0.2367  0.2518
10699SOL    HW143316   4.188   2.949   0.403 -0.1430  1.3839  0.7900
10699SOL    HW243317   4.169   2.901   0.558 -0.5724 -0.1196  0.2732
10700SOL     OW43318   9.781   8.913   4.980 -0.4576 -0.4944  0.4453
10700SOL    HW143319   9.750   8.966   5.058  1.6668  1.3594  0.0642
10700SOL    HW243320   9.703   8.863   4.941 -1.5205 -1.5922  3.7877
10701SOL     OW43321   0.749   7.516   0.319  0.4171  0.4044 -0.6427
10701SOL    HW143322   0.840   7.475   0.317 -0.2507 -1.1879  0.8140
10701SOL    HW243323   0.735   7.561   0.407 -0.1433  0.7949 -0.9293
10702SOL     OW43324   4.719   9.647   4.602 -0.1350 -0.1076 -0.2164
10702SOL    HW143325   4.749   9.648   4.507  2.7228 -0.2026  0.6460
10702SOL    HW243326   4.735   9.556   4.641 -1.6372 -0.1830  0.2651
10703SOL     OW43327   2.621   1.849   0.167  0.7379 -0.0579 -0.0752
10703SOL    HW143328   2.665   1.765   0.197  1.6591  0.1879 -0.7036
10703SOL    HW243329   2.543   1.828   0.108  0.6904 -0.4712  0.1360
10704SOL     OW43330   6.266   0.086   2.987  0.0905 -0.7608  0.9224
10704SOL    HW143331   6.293   0.181   2.967 -0.0601 -0.8821  0.1276
10704SOL    HW243332   6.343   0.026   2.970 -0.3305 -0.9820 -0.3069
10705SOL     OW43333   9.842   8.694   1.084 -0.4036 -0.4435 -0.0334
10705SOL    HW143334   9.843   8.753   1.165 -0.6960 -1.4821  0.7404
10705SOL    HW243335   9.750   8.657   1.071 -0.0546 -1.3228 -0.0656
10706SOL     OW43336   8.107   1.371   3.772 -0.4709 -0.5509  0.1941
10706SOL    HW143337   8.139   1.297   3.712  0.3014 -0.0084 -0.0690
10706SOL    HW243338   8.175   1.388   3.843 -1.5746 -1.4824  1.4969
10707SOL     OW43339   0.694   8.093   6.567 -0.0329 -0.1752 -0.1889
10707SOL    HW143340   0.726   8.177   6.522  2.8395 -1.6040 -0.9283
10707SOL    HW243341   0.700   8.017   6.503  1.1892 -1.6789  1.6788
10708SOL     OW43342   3.872   0.259   2.154  0.5055  0.0951 -0.2907
10708SOL    HW143343   3.864   0.329   2.225 -2.2543 -1.0906  0.6180
10708SOL    HW243344   3.883   0.304   2.065  1.9010  1.6195  0.6184
10709SOL     OW43345   2.386   7.520   6.438  0.1574 -0.2918  0.0205
10709SOL    HW143346   2.449   7.458   6.485  0.6211 -0.6205 -1.0136
10709SOL    HW243347   2.416   7.614   6.452 -1.5000 -0.1412  3.0062
10710SOL     OW43348   4.347   1.609   2.325  0.5838  0.6505  0.7075
10710SOL    HW143349   4.406   1.533   2.296 -0.3120  0.3113 -0.2856
10710SOL    HW243350   4.401   1.692   2.334  1.4802  0.0115  1.2755
10711SOL     OW43351   1.928   3.769   2.063 -0.1088 -0.7642 -0.3678
10711SOL    HW143352   1.982   3.851   2.082  2.6058 -2.6139  0.1569
10711SOL    HW243353   1.966   3.721   1.984 -1.3863 -1.7672 -0.3971
10712SOL     OW43354   9.881   4.156   6.317 -1.1998 -0.1261 -0.2665
10712SOL    HW143355   9.837   4.223   6.257  0.5104 -0.6131 -2.1103
10712SOL    HW243356   9.863   4.063   6.283  1.1122 -0.3380 -1.0149
10713SOL     OW43357   7.042   9.808   2.906 -0.2730  0.3543 -0.1877
10713SOL    HW143358   7.140   9.810   2.925  0.1668 -2.5152 -1.7643
10713SOL    HW243359   7.017   9.886   2.848  1.2004  0.7524 -0.3094
10714SOL     OW43360   0.568   4.761   6.612  0.1509  0.4853 -0.5207
10714SOL    HW143361   0.599   4.822   6.539 -2.0995  2.1834 -0.1388
10714SOL    HW243362   0.471   4.738   6.597  0.2186 -0.7814  0.8488
10715SOL     OW43363   5.202   1.684   4.018  0.0750  0.1706  0.5720
10715SOL    HW143364   5.144   1.606   4.040 -1.9349  1.3579 -0.4087
10715SOL    HW243365   5.289   1.651   3.980  0.4035 -1.6362  2.8204
10716SOL     OW43366   0.367   8.310   3.546  0.2712  0.0078  0.0176
10716SOL    HW143367   0.423   8.292   3.627  0.0717  0.1856  0.1958
10716SOL    HW243368   0.291   8.246   3.544  0.5651 -0.3355 -0.3076
10717SOL     OW43369   0.783   8.159   1.258  0.2626 -0.7207  0.6262
10717SOL    HW143370   0.776   8.131   1.354  1.6306 -1.7637  0.4370
10717SOL    HW243371   0.878   8.185   1.238 -0.2211  0.4813 -0.1853
10718SOL     OW43372   0.008   1.912   0.423  0.6417  0.0314 -0.1443
10718SOL    HW143373   0.017   1.817   0.451  1.2994  0.6572  1.8626
10718SOL    HW243374  -0.089   1.935   0.411  0.5646 -1.4541 -2.8003
10719SOL     OW43375   2.811   8.651   1.182 -0.1216 -0.2406  0.6341
10719SOL    HW143376   2.754   8.728   1.213  2.2097  0.9576  2.0852
10719SOL    HW243377   2.780   8.567   1.228 -0.8449  0.3520  1.2551
10720SOL     OW43378   9.096   9.035   3.135 -0.3472  0.2202 -0.5967
10720SOL    HW143379   9.126   8.942   3.113 -0.1196  0.1895 -0.1549
10720SOL    HW243380   9.123   9.096   3.061 -1.3539 -0.2260 -1.3542
10721SOL     OW43381   7.531   9.697   4.858  0.1917  0.0043  0.5807
10721SOL    HW143382   7.487   9.658   4.939  0.4631 -0.1902  0.6368
10721SOL    HW243383   7.501   9.791   4.846 -0.2893 -0.1472  0.5812
10722SOL     OW43384   3.484   8.571   4.556  0.0235 -0.1644 -0.3152
10722SOL    HW143385   3.426   8.583   4.475 -1.3669 -1.3358  0.4985
10722SOL    HW243386   3.579   8.591   4.532 -0.4122 -0.2693 -2.1768
10723SOL     OW43387   8.281   8.793   5.669 -0.2330  0.3696  0.3407
10723SOL    HW143388   8.319   8.855   5.738  0.5106  1.3406 -0.9052
10723SOL    HW243389   8.329   8.807   5.583  0.5258 -2.5758  0.2481
10724SOL     OW43390   6.026   9.888   4.104  0.1462 -0.2488  0.0230
10724SOL    HW143391   5.945   9.854   4.150  0.1505  0.7092  0.7559
10724SOL    HW243392   6.101   9.896   4.170  0.0666  1.4141 -0.0846
10725SOL     OW43393   8.977   9.538   4.654  0.0147 -0.3181  0.1926
10725SOL    HW143394   9.013   9.453   4.617 -0.8588  0.3164 -2.1747
10725SOL    HW243395   8.909   9.517   4.725  2.3122 -1.5180  2.0998
10726SOL     OW43396   3.951   1.219   0.809 -0.0944 -0.0026 -0.0064
10726SOL    HW143397   3.866   1.223   0.862  0.6812 -1.0377  1.3111
10726SOL    HW243398   4.000   1.134   0.830 -1.0663 -1.7748 -4.3178
10727SOL     OW43399   4.934   0.880   5.641  0.0364  0.4945 -0.4682
10727SOL    HW143400   4.841   0.916   5.633  0.4951  1.4784 -1.6506
10727SOL    HW243401   4.999   0.951   5.612  1.2015  0.0929  1.1194
10728SOL     OW43402   9.448   7.135   0.864 -0.2166  0.3263  0.1991
10728SOL    HW143403   9.395   7.142   0.780 -0.4706  0.4790  0.3689
10728SOL    HW243404   9.434   7.218   0.919  1.7915  1.2637 -0.6798
10729SOL     OW43405   1.932   2.839   5.693  0.4998  0.5570  0.3938
10729SOL    HW143406   2.022   2.797   5.688  0.2882 -0.2198  2.5810
10729SOL    HW243407   1.929   2.904   5.769 -1.3436 -0.8562  1.5727
10730SOL     OW43408   4.500   0.460   3.468 -0.0862  0.1844  0.5624
10730SOL    HW143409   4.499   0.419   3.376 -1.2015  0.6359  0.3565
10730SOL    HW243410   4.446   0.402   3.530 -0.7831  0.7689  0.5156
10731SOL     OW43411   2.192   6.588   6.314  0.7523 -0.2065 -0.1996
10731SOL    HW143412   2.131   6.633   6.249  0.5435 -1.5520 -0.9442
10731SOL    HW243413   2.286   6.619   6.298  0.3916  1.1927  0.3660
10732SOL     OW43414   0.786   6.889   1.568 -0.5349  0.2593 -0.9718
10732SOL    HW143415   0.719   6.834   1.519 -0.5948 -0.7370  0.1859
10732SOL    HW243416   0.872   6.890   1.516 -0.6770 -0.5529 -1.2386
10733SOL     OW43417   9.532   3.725   4.747 -0.5189 -0.8214  0.2414
10733SOL    HW143418   9.592   3.799   4.715 -1.5085  0.3476  1.0550
10733SOL    HW243419   9.586   3.642   4.759  0.5697 -0.2955 -0.8940
10734SOL     OW43420   6.822   9.219   4.781 -0.1584  0.1925  0.3253
10734SOL    HW143421   6.909   9.232   4.732 -0.7610  2.4178 -0.2234
10734SOL    HW243422   6.839   9.220   4.879  0.4933  0.2218  0.2166
10735SOL     OW43423   4.034   5.078   3.245 -0.0364  0.4638  0.2537
10735SOL    HW143424   3.989   5.162   3.274 -0.2521  0.4138  0.0663
10735SOL    HW243425   4.133   5.091   3.244  0.0075  0.2641  1.6390
10736SOL     OW43426   4.487   8.068   3.376 -0.1518 -0.1267  0.3552
10736SOL    HW143427   4.389   8.053   3.362 -0.1998  0.2327  0.2935
10736SOL    HW243428   4.531   8.089   3.289 -0.6651  3.3415  0.8777
10737SOL     OW43429   3.821   0.786   0.601  0.1523  0.1977 -1.0324
10737SOL    HW143430   3.896   0.770   0.537 -0.9201  1.5430 -2.6717
10737SOL    HW243431   3.857   0.815   0.689  1.5798  0.0563 -1.5551
10738SOL     OW43432   4.253   8.914   1.017  0.8465  0.0713 -0.1474
10738SOL    HW143433   4.261   9.004   0.973 -1.1130  0.1424 -0.3739
10738SOL    HW243434   4.204   8.852   0.957  1.5833 -0.9752  0.3146
10739SOL     OW43435   8.457   9.598   1.043  0.2598 -0.3191 -0.6234
10739SOL    HW143436   8.476   9.691   1.074  2.2407 -0.9888  0.2167
10739SOL    HW243437   8.390   9.556   1.105  0.2541  0.1358 -0.3135
10740SOL     OW43438   7.993   8.424   3.115 -0.2737  0.0660 -0.5622
10740SOL    HW143439   8.079   8.442   3.163 -1.2378 -0.6791  1.5285
10740SOL    HW243440   7.920   8.480   3.154 -1.2328 -1.0735 -0.6817
10741SOL     OW43441   0.552   0.395   3.440  0.0472  0.4862  0.2574
10741SOL    HW143442   0.566   0.302   3.406 -0.4060 -0.0729  1.5936
10741SOL    HW243443   0.485   0.394   3.514 -1.8932  2.1997 -1.3939
10742SOL     OW43444   1.245   9.820   4.828 -0.0877 -0.7004 -0.3201
10742SOL    HW143445   1.226   9.748   4.895 -0.6077 -1.4994 -1.3089
10742SOL    HW243446   1.276   9.779   4.742 -0.9007  0.2181 -1.0670
10743SOL     OW43447   8.482   4.421   5.442  0.2070 -0.1436  0.1784
10743SOL    HW143448   8.554   4.439   5.376  1.0606 -1.2081  0.8026
10743SOL    HW243449   8.399   4.392   5.394  0.5334  0.0065 -0.4793
10744SOL     OW43450   1.423   1.821   3.892  0.1139 -0.1639 -0.5338
10744SOL    HW143451   1.503   1.841   3.948 -0.7629  0.0184  0.6790
10744SOL    HW243452   1.413   1.892   3.822 -0.1548  0.9546  0.6168
10745SOL     OW43453   9.067   2.713   4.891 -1.1038 -0.4520 -0.5388
10745SOL    HW143454   9.027   2.640   4.946  0.4004 -0.0931  1.0734
10745SOL    HW243455   9.074   2.683   4.796 -4.5431 -0.7615 -0.7602
10746SOL     OW43456   8.462   0.568   4.077  0.1675  0.1009  0.6185
10746SOL    HW143457   8.453   0.664   4.103  0.5000 -0.2576  2.1267
10746SOL    HW243458   8.546   0.531   4.115  0.8734 -0.3568 -1.3730
10747SOL     OW43459   9.971   0.922   5.611 -0.4162 -0.3418 -0.1196
10747SOL    HW143460   9.974   0.824   5.632 -0.1977 -0.0582  1.2601
10747SOL    HW243461   9.883   0.945   5.570 -0.7410 -1.0066  0.1968
10748SOL     OW43462   5.074   1.767   1.134  0.1702  0.5220  0.5534
10748SOL    HW143463   5.000   1.757   1.068 -1.1388  1.7105  1.7804
10748SOL    HW243464   5.151   1.711   1.107 -1.3914 -1.1965 -0.4576
10749SOL     OW43465   8.589   6.031   5.142  0.3517  0.0261 -0.5621
10749SOL    HW143466   8.502   6.035   5.191  0.2382 -2.4402 -0.5078
10749SOL    HW243467   8.664   6.051   5.205 -0.0563  0.4894 -0.2256
10750SOL     OW43468   3.554   3.568   3.530  0.5195 -0.0283 -0.3238
10750SOL    HW143469   3.564   3.517   3.444  0.1602 -1.8575  0.6907
10750SOL    HW243470   3.644   3.594   3.564  0.6372  1.2247 -1.5353
10751SOL     OW43471   0.249   5.336   3.836 -0.1636 -0.1309  0.0736
10751SOL    HW143472   0.258   5.291   3.747  0.7281  2.7943 -1.3816
10751SOL    HW243473   0.339   5.343   3.879 -0.2485  0.5016  0.1533
10752SOL     OW43474   8.133   9.816   5.782  0.0108  0.0807  0.3702
10752SOL    HW143475   8.210   9.767   5.739  0.5959  0.2913  1.1697
10752SOL    HW243476   8.116   9.779   5.873 -0.9930 -0.1157  0.1006
10753SOL     OW43477   0.127   1.692   1.833 -0.3898 -0.6468 -0.5824
10753SOL    HW143478   0.226   1.692   1.815 -0.1487  0.6939  0.6557
10753SOL    HW243479   0.111   1.720   1.928 -1.9619 -0.9640 -0.7461
10754SOL     OW43480   3.344   4.942   3.532 -0.3377 -0.5095 -0.0565
10754SOL    HW143481   3.263   4.890   3.558 -1.8272  0.9875 -1.5890
10754SOL    HW243482   3.368   5.006   3.605  0.1787 -1.7422  0.8826
10755SOL     OW43483   0.917   0.958   5.531 -0.7989 -0.4474 -0.5167
10755SOL    HW143484   0.941   0.885   5.467  2.5257  0.8453 -0.8271
10755SOL    HW243485   0.857   0.921   5.602 -1.6667 -2.7283 -2.3736
10756SOL     OW43486   6.640   6.698   4.975  0.0098  0.2440 -0.1083
10756SOL    HW143487   6.558   6.730   5.022  0.7763  1.5832  0.3643
10756SOL    HW243488   6.672   6.613   5.015 -1.0274 -0.1727 -0.1600
10757SOL     OW43489   8.843   5.811   3.576  0.3103  0.8986  0.0128
10757SOL    HW143490   8.832   5.901   3.619  1.0353  1.0201 -0.0580
10757SOL    HW243491   8.786   5.806   3.494 -1.7972  0.3491  1.4685
10758SOL     OW43492   0.013   6.293   3.455  0.5946  0.5869  0.4796
10758SOL    HW143493   0.096   6.338   3.489  0.2075  0.3820  1.7107
10758SOL    HW243494  -0.054   6.363   3.429  1.0301  0.7476 -0.2556
10759SOL     OW43495   9.774   4.633   3.615 -0.8059  0.0628 -0.2466
10759SOL    HW143496   9.751   4.536   3.626 -2.5698  0.5692  0.7779
10759SOL    HW243497   9.808   4.669   3.702  1.3959  0.0066 -1.0367
10760SOL     OW43498   4.052   4.050   1.314 -0.0837 -0.5216  0.0039
10760SOL    HW143499   4.108   4.024   1.235  0.6273  0.9607 -0.0045
10760SOL    HW243500   4.091   4.131   1.357 -1.6152 -0.1171  0.6692
10761SOL     OW43501   4.109   1.468   1.329  0.4648  0.2240 -0.8543
10761SOL    HW143502   4.071   1.547   1.280  0.0758  0.5260 -0.0777
10761SOL    HW243503   4.171   1.500   1.400 -0.1331 -0.1352 -0.1623
10762SOL     OW43504   9.164   2.011   6.208 -0.3382  0.2750 -0.0229
10762SOL    HW143505   9.171   2.047   6.115 -0.5988  0.4292  0.0185
10762SOL    HW243506   9.103   1.932   6.208  0.0704 -0.0467 -0.0750
10763SOL     OW43507   6.608   0.606   0.422 -0.0860 -0.1748 -0.4010
10763SOL    HW143508   6.624   0.514   0.459 -0.5158 -0.0026  0.2116
10763SOL    HW243509   6.567   0.664   0.492  1.5811  0.9322 -0.2960
10764SOL     OW43510   1.765   0.300   6.464  0.7683 -0.1282  0.2705
10764SOL    HW143511   1.725   0.365   6.530 -0.2371  0.4627 -0.8910
10764SOL    HW243512   1.755   0.207   6.499 -3.5230 -0.2075 -0.8093
10765SOL     OW43513   9.067   1.650   5.101  0.0286 -0.2441 -0.4523
10765SOL    HW143514   9.051   1.734   5.154  0.5315 -0.4581  0.0410
10765SOL    HW243515   9.104   1.579   5.161  4.7334  0.8237 -1.9269
10766SOL     OW43516   3.838   5.581   5.601 -0.1172 -0.1819 -0.0082
10766SOL    HW143517   3.926   5.629   5.603  0.6120 -1.5139  0.0085
10766SOL    HW243518   3.835   5.521   5.522 -0.1551 -1.7330  1.1593
10767SOL     OW43519   9.704   6.224   0.015 -0.0232  0.3000 -0.6325
10767SOL    HW143520   9.606   6.234   0.032  0.1838  1.7180 -0.1623
10767SOL    HW243521   9.743   6.313  -0.011  1.3508  0.0101  0.3555
10768SOL     OW43522   4.825   4.995   0.434 -0.3690 -0.0809 -0.0389
10768SOL    HW143523   4.883   5.027   0.508 -0.6342  0.5068 -0.0839
10768SOL    HW243524   4.751   4.938   0.471 -1.2720  1.2801  0.2975
10769SOL     OW43525   6.338   2.368   2.925  0.3902  0.0594  0.1017
10769SOL    HW143526   6.271   2.308   2.968 -2.1594  2.1716 -0.7547
10769SOL    HW243527   6.329   2.363   2.826  1.2678  0.6545 -0.0190
10770SOL     OW43528   0.905   5.666   4.224  0.4054  0.8778  0.0481
10770SOL    HW143529   0.948   5.752   4.250  0.3305  0.7245  0.6918
10770SOL    HW243530   0.807   5.681   4.208  0.6864  1.2331 -1.4539
10771SOL     OW43531   0.292   7.008   1.688  0.5938 -0.4042 -0.0015
10771SOL    HW143532   0.381   7.053   1.684 -0.0804  1.0596  1.2782
10771SOL    HW243533   0.288   6.950   1.770 -0.1974  0.7527  0.7825
10772SOL     OW43534   1.217   7.475   1.420  0.4992  0.0023  0.1821
10772SOL    HW143535   1.277   7.511   1.490 -0.5432 -0.1398  1.1701
10772SOL    HW243536   1.132   7.443   1.462  0.1205 -0.6713 -1.0638
10773SOL     OW43537   2.822   5.519   1.454 -0.2714  0.6010  0.3053
10773SOL    HW143538   2.767   5.472   1.386  1.4017  0.8564 -1.2457
10773SOL    HW243539   2.882   5.585   1.409  0.7282  0.9010  2.0348
10774SOL     OW43540   1.947   5.667   3.866  0.3236 -0.5427 -0.5545
10774SOL    HW143541   1.908   5.665   3.774 -1.3245 -1.2291  0.1379
10774SOL    HW243542   1.886   5.719   3.927  1.5725  0.2050  0.0737
10775SOL     OW43543   4.172   0.666   2.954  0.4814 -0.1560  0.0011
10775SOL    HW143544   4.164   0.725   2.875  2.2070 -0.4938 -0.4496
10775SOL    HW243545   4.115   0.701   3.029  2.1640  2.5809  0.0467
10776SOL     OW43546   0.802   7.568   4.003  0.3161 -0.4705 -0.3718
10776SOL    HW143547   0.727   7.626   3.970 -1.8882 -3.4375 -0.8162
10776SOL    HW243548   0.786   7.543   4.098  0.6166 -1.2729 -0.5243
10777SOL     OW43549   3.845   0.621   6.391 -0.7507 -0.2207 -0.1437
10777SOL    HW143550   3.863   0.719   6.395 -0.0248 -0.2249 -2.4474
10777SOL    HW243551   3.931   0.570   6.398 -0.8244 -0.5761 -1.5665
10778SOL     OW43552   1.822   2.722   0.099  0.0929 -0.2689 -0.1163
10778SOL    HW143553   1.850   2.814   0.069 -0.4484 -0.3554 -0.9170
10778SOL    HW243554   1.891   2.656   0.073 -0.1953 -0.2877 -0.8473
10779SOL     OW43555   5.202   5.489   0.628  0.0985  0.4767  0.3174
10779SOL    HW143556   5.217   5.506   0.531 -1.3475  1.6459  0.2852
10779SOL    HW243557   5.249   5.405   0.655  0.0970 -0.1205 -1.4966
10780SOL     OW43558   7.791   7.832   0.913 -0.6375  0.1190 -0.3617
10780SOL    HW143559   7.796   7.807   1.010 -1.3733  0.2184 -0.2904
10780SOL    HW243560   7.856   7.777   0.860 -1.7508 -1.4777 -0.1165
10781SOL     OW43561   5.227   7.281   2.980 -0.2094 -0.8099  0.1074
10781SOL    HW143562   5.245   7.321   3.069 -0.7056  0.8712 -0.5244
10781SOL    HW243563   5.146   7.325   2.939  1.2581 -0.0384 -2.0723
10782SOL     OW43564   4.876   5.518   2.208  0.5267 -0.3043 -0.3449
10782SOL    HW143565   4.866   5.520   2.108 -1.8007 -0.5054 -0.1620
10782SOL    HW243566   4.796   5.562   2.249  1.6021  0.0187  1.4390
10783SOL     OW43567   8.606   2.929   4.957 -0.1909 -0.1155  0.3604
10783SOL    HW143568   8.517   2.963   4.988 -0.1395 -0.2483  0.6455
10783SOL    HW243569   8.644   2.992   4.889 -1.1193 -0.7353 -0.7698
10784SOL     OW43570   0.988   5.792   4.858  0.0938 -0.3466  1.1851
10784SOL    HW143571   0.945   5.813   4.770  2.6077 -3.9468 -1.0749
10784SOL    HW243572   0.921   5.748   4.918 -1.0204 -0.1607  0.0888
10785SOL     OW43573   2.409   3.064   4.003  0.5557  0.2967 -0.3910
10785SOL    HW143574   2.379   2.988   3.945  1.1083 -0.1018 -0.1659
10785SOL    HW243575   2.469   3.125   3.951 -1.7858  1.9146 -1.2857
10786SOL     OW43576   1.774   7.350   0.148 -0.8391  0.0507  0.2973
10786SOL    HW143577   1.770   7.335   0.049 -1.4979  0.7663  0.2128
10786SOL    HW243578   1.869   7.359   0.176 -0.5903 -1.1689 -0.1161
10787SOL     OW43579   1.310   5.127   5.124  0.0716  0.3158 -0.6577
10787SOL    HW143580   1.407   5.119   5.100  0.2354  0.3771 -0.0214
10787SOL    HW243581   1.258   5.057   5.075  0.1397  1.5376 -2.5470
10788SOL     OW43582   3.539   8.273   4.243 -0.5254 -0.7423 -0.2711
10788SOL    HW143583   3.466   8.273   4.311  0.5484 -0.9847  0.8960
10788SOL    HW243584   3.505   8.237   4.157 -1.5994 -1.4952  0.4644
10789SOL     OW43585   1.024   6.529   5.892 -0.2663  0.0018 -0.3098
10789SOL    HW143586   1.068   6.499   5.976  0.1591 -1.7631 -1.1312
10789SOL    HW243587   0.928   6.550   5.910  0.0476  0.5473  0.7883
10790SOL     OW43588   4.347   1.640   0.058  0.0091 -0.3525  0.1961
10790SOL    HW143589   4.272   1.605   0.114 -1.1767  1.3206 -0.2837
10790SOL    HW243590   4.364   1.577  -0.018 -0.2892 -1.2161  0.8457
10791SOL     OW43591   8.888   7.948   3.677 -1.1742  0.6756  0.0088
10791SOL    HW143592   8.824   7.902   3.616  1.2540 -2.9605  0.0289
10791SOL    HW243593   8.861   7.931   3.772  0.7872 -2.5410  0.0635
10792SOL     OW43594   1.499   4.113   2.000  0.2235 -0.6874 -0.3184
10792SOL    HW143595   1.487   4.127   2.099  0.9576  0.2966 -0.3637
10792SOL    HW243596   1.564   4.039   1.985  1.9370  0.7171 -0.0359
10793SOL     OW43597   0.482   7.211   4.418 -0.1926  0.2660 -0.0069
10793SOL    HW143598   0.489   7.124   4.467 -0.8268  0.4742  0.4658
10793SOL    HW243599   0.393   7.217   4.373  0.4730 -0.0174 -1.3733
10794SOL     OW43600   9.625   4.580   0.539 -0.0558  0.3147 -0.2472
10794SOL    HW143601   9.636   4.591   0.638 -0.8693  1.5091 -0.2839
10794SOL    HW243602   9.699   4.628   0.492  0.3410 -0.2671 -0.2283
10795SOL     OW43603   1.984   3.673   1.822 -0.1224  0.3526  0.2353
10795SOL    HW143604   1.938   3.751   1.781 -0.9873 -0.4348 -0.3302
10795SOL    HW243605   2.053   3.638   1.758  1.2308  1.4692  1.0400
10796SOL     OW43606   2.325   4.111   1.356  0.2398  0.3171 -0.3096
10796SOL    HW143607   2.300   4.035   1.296  1.1821  0.7851 -1.3123
10796SOL    HW243608   2.424   4.121   1.358  0.1438  1.3272  0.0632
10797SOL     OW43609   1.344   2.036   3.692  0.5067  0.1347 -1.0243
10797SOL    HW143610   1.362   2.128   3.726  0.5788 -1.1026  2.5720
10797SOL    HW243611   1.245   2.020   3.691  0.5565 -0.2859 -0.0165
10798SOL     OW43612   3.694   3.789   4.313 -0.5087 -0.1823 -0.1421
10798SOL    HW143613   3.793   3.780   4.314 -0.3396  1.4264 -0.5246
10798SOL    HW243614   3.665   3.844   4.392 -1.0716 -0.3713 -0.2131
10799SOL     OW43615   4.310   4.003   2.549  0.2124  0.0973 -0.4053
10799SOL    HW143616   4.230   3.943   2.550 -0.0442  0.4284 -0.9430
10799SOL    HW243617   4.333   4.028   2.455  0.5832  0.4903 -0.2157
10800SOL     OW43618   0.604   6.050   2.566 -0.6958 -0.1809  0.3724
10800SOL    HW143619   0.597   6.035   2.665 -1.6688  0.9547  0.4827
10800SOL    HW243620   0.556   5.977   2.519  0.6348 -1.2988  0.6884
10801SOL     OW43621   5.977   1.258   3.611  0.1420  0.5027  0.0615
10801SOL    HW143622   5.884   1.257   3.648  0.4626 -0.4966  0.8773
10801SOL    HW243623   5.981   1.202   3.528  0.0906  0.2724  0.2146
10802SOL     OW43624   9.371   6.891   4.168  0.6850  0.0647 -0.3733
10802SOL    HW143625   9.333   6.959   4.105 -0.3056 -1.2030 -1.1799
10802SOL    HW243626   9.359   6.923   4.262  2.5773  2.1863 -0.8022
10803SOL     OW43627   1.769   5.546   1.995 -0.3163  0.2256 -0.0973
10803SOL    HW143628   1.674   5.515   1.995 -0.4926  0.5620 -3.6741
10803SOL    HW243629   1.784   5.608   2.072 -2.9837  0.0984  0.5661
10804SOL     OW43630   8.251   1.489   2.984 -0.3057  0.2767 -0.0466
10804SOL    HW143631   8.151   1.488   2.979 -0.3746 -0.2957  1.1405
10804SOL    HW243632   8.289   1.490   2.892 -1.3764 -1.5765 -0.5269
10805SOL     OW43633   1.005   8.651   6.060 -0.1736  0.0378  0.4873
10805SOL    HW143634   1.006   8.729   6.122  1.3489  0.8992 -0.6191
10805SOL    HW243635   1.020   8.567   6.112 -0.6441  0.5796  1.5096
10806SOL     OW43636   4.119   2.195   4.737 -0.4961 -0.1073  0.6351
10806SOL    HW143637   4.023   2.222   4.733 -1.0390 -2.2633 -2.0295
10806SOL    HW243638   4.167   2.231   4.656  0.3357 -1.2092  0.6300
10807SOL     OW43639   7.904   1.993   2.143  0.3625 -0.1922 -0.7151
10807SOL    HW143640   7.829   1.937   2.179  0.7573  0.0659  0.5253
10807SOL    HW243641   7.966   1.934   2.091  0.4153 -0.8002  0.0173
10808SOL     OW43642   0.379   7.440   1.327  0.6317  0.1846  0.0910
10808SOL    HW143643   0.396   7.391   1.412 -1.3562 -1.2705 -0.3089
10808SOL    HW243644   0.388   7.538   1.342 -2.1856  0.1267  2.6363
10809SOL     OW43645   0.764   1.524   3.124  0.5426  0.4176 -0.0370
10809SOL    HW143646   0.802   1.616   3.138 -0.9118  1.1871 -1.0022
10809SOL    HW243647   0.675   1.518   3.168  0.4079 -0.3572 -0.4172
10810SOL     OW43648   3.855   1.208   0.172  0.3388  1.0349 -0.3320
10810SOL    HW143649   3.774   1.171   0.126  1.3687 -2.0036  0.1667
10810SOL    HW243650   3.930   1.215   0.107  1.0173 -0.6994  0.2407
10811SOL     OW43651   8.994   9.683   5.278  0.3059 -0.3908  0.4930
10811SOL    HW143652   8.899   9.677   5.249 -0.0212 -1.7331  1.7550
10811SOL    HW243653   9.004   9.754   5.347 -0.0739 -1.1735  1.3744
10812SOL     OW43654   9.775   3.753   6.477 -0.2536 -0.2004  0.0288
10812SOL    HW143655   9.857   3.729   6.529  0.5155  0.6573 -0.7599
10812SOL    HW243656   9.709   3.679   6.482  1.7521 -2.1786 -1.7580
10813SOL     OW43657   0.855   9.482   5.059  0.0296 -0.2639 -0.0497
10813SOL    HW143658   0.903   9.419   5.119  1.6998  0.6322 -0.4232
10813SOL    HW243659   0.782   9.433   5.010  0.9584 -1.7770  0.0565
10814SOL     OW43660   1.945   9.269   6.111 -0.0857  0.4736  0.1345
10814SOL    HW143661   1.853   9.237   6.088 -0.9836  2.8306  0.2967
10814SOL    HW243662   1.951   9.286   6.210  0.2982  0.9534  0.0354
10815SOL     OW43663   2.427   3.060   4.757  0.0641 -0.2353  0.1035
10815SOL    HW143664   2.387   3.082   4.668 -0.6035  0.7637  0.6407
10815SOL    HW243665   2.527   3.061   4.750  0.0166 -2.0216 -1.0719
10816SOL     OW43666   4.333   0.514   4.970  0.3723 -0.2466  0.0397
10816SOL    HW143667   4.390   0.595   4.988  1.0549 -0.6317 -0.3740
10816SOL    HW243668   4.391   0.434   4.961 -0.3853 -0.9630  1.4078
10817SOL     OW43669   8.449   8.273   3.101 -0.2029  0.1329  0.7335
10817SOL    HW143670   8.453   8.178   3.072 -0.2101  0.3431  0.0185
10817SOL    HW243671   8.482   8.332   3.027  0.4143  0.6429  1.4037
10818SOL     OW43672   9.236   7.068   2.178  0.4643 -0.0025  0.8003
10818SOL    HW143673   9.202   7.132   2.246  1.2942  1.6591 -0.3020
10818SOL    HW243674   9.330   7.041   2.202  0.4364 -0.1025  0.7954
10819SOL     OW43675   3.865   5.794   0.201 -0.0129  0.0270 -0.7994
10819SOL    HW143676   3.887   5.720   0.137 -0.0621 -0.2997 -0.4310
10819SOL    HW243677   3.849   5.757   0.292  0.8401  0.5717 -0.4171
10820SOL     OW43678   1.663   8.798   2.993 -0.1826 -0.3070  0.0976
10820SOL    HW143679   1.627   8.823   2.903 -0.4906  0.9922  0.5657
10820SOL    HW243680   1.633   8.865   3.060  0.0457 -1.2706  1.1769
10821SOL     OW43681   1.518   8.822   0.238  0.2782 -0.0264 -0.3295
10821SOL    HW143682   1.590   8.766   0.196  1.8359  0.3045  1.8467
10821SOL    HW243683   1.520   8.914   0.198  0.2869 -0.3518 -1.0942
10822SOL     OW43684   1.830   3.348   1.433 -0.2940  0.2562  0.5646
10822SOL    HW143685   1.780   3.344   1.519 -1.4241  1.5917 -0.0151
10822SOL    HW243686   1.847   3.443   1.408 -0.8164 -0.0931 -1.1627
10823SOL     OW43687   2.232   4.235   0.975  0.5226  0.3324 -0.0077
10823SOL    HW143688   2.177   4.317   0.994 -2.1154 -1.5931  0.9242
10823SOL    HW243689   2.234   4.219   0.876  0.9369  1.4556 -0.1833
10824SOL     OW43690   3.194   8.284   5.303 -0.9337 -0.9716  0.0752
10824SOL    HW143691   3.135   8.345   5.357  1.6673 -1.0433  3.1715
10824SOL    HW243692   3.274   8.335   5.270 -0.1159 -2.0432  0.3563
10825SOL     OW43693   0.003   3.056   3.354  0.0291 -0.1336  0.1232
10825SOL    HW143694   0.038   3.136   3.305  1.4767 -1.5219 -1.1959
10825SOL    HW243695   0.033   3.060   3.449  0.1999  0.8266  0.0349
10826SOL     OW43696   0.011   4.315   4.323  1.0373 -0.0849  0.2029
10826SOL    HW143697   0.022   4.353   4.415  0.9033 -0.8492  0.5357
10826SOL    HW243698   0.075   4.360   4.261  0.2271  1.3636  0.3846
10827SOL     OW43699   4.266   9.016   5.407 -1.0359  0.3012  0.1358
10827SOL    HW143700   4.191   9.078   5.383 -0.0454  1.3293 -0.3581
10827SOL    HW243701   4.252   8.982   5.500 -1.4191  1.5210  0.5366
10828SOL     OW43702   0.458   1.169   0.642  0.1120 -0.3524  0.1041
10828SOL    HW143703   0.422   1.244   0.587 -1.5371 -0.9258  0.3909
10828SOL    HW243704   0.505   1.206   0.722  1.8179  0.4586 -1.2078
10829SOL     OW43705   1.073   2.790   0.175 -0.1597  0.2923 -0.2538
10829SOL    HW143706   0.999   2.812   0.238  2.1845  0.8614  2.4139
10829SOL    HW243707   1.098   2.693   0.186  1.5259  0.8554  1.1565
10830SOL     OW43708   2.651   8.677   2.114 -0.2884  0.1493 -0.0662
10830SOL    HW143709   2.570   8.660   2.058 -0.3233  2.4144 -0.7534
10830SOL    HW243710   2.714   8.600   2.105 -2.1784 -1.4845  0.1991
10831SOL     OW43711   6.486   0.727   0.653 -0.0191 -0.0121  0.5960
10831SOL    HW143712   6.531   0.675   0.726  1.0495 -0.1023 -0.1111
10831SOL    HW243713   6.473   0.821   0.682  0.6959  0.0314  0.7854
10832SOL     OW43714   9.973   6.108   1.528  0.3733 -0.0466  0.5213
10832SOL    HW143715   9.892   6.060   1.560 -0.9292  1.0924 -0.9933
10832SOL    HW243716  10.028   6.047   1.471 -0.6230 -0.1201 -0.3673
10833SOL     OW43717   7.574   6.064   4.824 -0.1451 -0.4056 -0.5490
10833SOL    HW143718   7.638   6.053   4.748 -1.1519  1.1166 -1.6425
10833SOL    HW243719   7.619   6.039   4.910  1.3699 -0.9869 -1.4937
10834SOL     OW43720   3.612   9.035   6.020  0.0744 -1.0201  0.2589
10834SOL    HW143721   3.653   9.028   5.929 -1.2300 -1.3761 -0.3074
10834SOL    HW243722   3.523   9.079   6.013  0.3500 -0.2719  1.4800
10835SOL     OW43723   2.220   0.849   2.164  0.3944  0.5350 -0.4657
10835SOL    HW143724   2.153   0.793   2.212 -0.2082 -0.2932 -2.2216
10835SOL    HW243725   2.285   0.887   2.229  0.9291 -2.3486  0.7773
10836SOL     OW43726   2.651   7.841   4.747  0.4510  0.2236  0.6935
10836SOL    HW143727   2.600   7.803   4.824 -0.2875  0.8699  0.5287
10836SOL    HW243728   2.607   7.816   4.661  1.2866 -0.5161  0.4727
10837SOL     OW43729   9.515   3.475   1.834  0.1888 -0.4337 -0.0473
10837SOL    HW143730   9.524   3.397   1.772  0.2319 -0.5519  0.1057
10837SOL    HW243731   9.587   3.542   1.815 -0.0171 -0.3023 -0.3638
10838SOL     OW43732   4.014   4.940   2.795 -0.3352 -0.4536  0.3322
10838SOL    HW143733   4.009   5.039   2.807  1.6959 -0.2774 -0.1709
10838SOL    HW243734   4.083   4.903   2.857  1.2342 -1.1299 -1.7622
10839SOL     OW43735   2.017   7.825   2.712  0.0215  0.3307  0.0980
10839SOL    HW143736   2.063   7.914   2.702 -1.5563  1.2318  0.6834
10839SOL    HW243737   1.969   7.803   2.628 -1.5341  1.1723  0.7437
10840SOL     OW43738   9.493   3.830   1.374 -0.3535 -0.1891 -0.1344
10840SOL    HW143739   9.440   3.882   1.441  1.2366  0.2251  0.8176
10840SOL    HW243740   9.436   3.755   1.339 -0.4212 -2.0899  3.6641
10841SOL     OW43741   2.308   8.123   2.211  0.1751 -1.2058 -0.0761
10841SOL    HW143742   2.302   8.032   2.252 -0.5274 -2.8209 -3.5774
10841SOL    HW243743   2.216   8.162   2.202  0.2127 -1.3624 -1.1689
10842SOL     OW43744   3.309   4.652   5.701  0.5200  0.0492 -0.4166
10842SOL    HW143745   3.250   4.644   5.781  2.1345 -2.0493  0.6117
10842SOL    HW243746   3.316   4.564   5.656  2.4008  0.4002 -0.8512
10843SOL     OW43747   7.447   9.101   3.603  0.4475 -0.0948 -0.1632
10843SOL    HW143748   7.377   9.105   3.531  0.4858 -0.0921 -0.2001
10843SOL    HW243749   7.512   9.176   3.590  0.2347  0.1332  0.1019
10844SOL     OW43750   2.493   2.781   4.858 -0.2681 -0.9425  0.0742
10844SOL    HW143751   2.502   2.866   4.806  1.3196 -0.0978  1.6792
10844SOL    HW243752   2.419   2.726   4.819 -1.4488  1.2438 -0.8550
10845SOL     OW43753   2.047   9.403   3.649 -0.2744 -0.1275  0.7251
10845SOL    HW143754   2.067   9.332   3.582 -0.0118 -0.2217  0.8994
10845SOL    HW243755   2.038   9.361   3.740  2.4059  0.3531  1.2590
10846SOL     OW43756   0.161   2.120   1.847 -0.7816 -0.3402 -0.1168
10846SOL    HW143757   0.246   2.148   1.802  0.4518 -1.5623  1.3642
10846SOL    HW243758   0.101   2.074   1.782  0.4341 -0.9655 -0.8074
10847SOL     OW43759   8.017   6.517   3.034 -0.1288  0.0854  0.2139
10847SOL    HW143760   7.929   6.471   3.033  0.2737 -0.7089 -2.5303
10847SOL    HW243761   8.089   6.451   3.055  0.1643  0.0176 -0.9916
10848SOL     OW43762   6.462   1.918   4.813 -0.0181  0.4570  0.1422
10848SOL    HW143763   6.554   1.935   4.777  1.0540 -2.7080  1.2488
10848SOL    HW243764   6.427   1.832   4.776 -1.1085 -0.1025  2.3962
10849SOL     OW43765   0.903   2.400   3.616  0.2094 -0.8836 -0.1303
10849SOL    HW143766   0.838   2.474   3.635 -1.1341 -2.1346  0.2091
10849SOL    HW243767   0.949   2.373   3.701 -1.1367 -2.1218  0.2330
10850SOL     OW43768   0.298   9.515   5.410  0.5731  0.2765 -0.5198
10850SOL    HW143769   0.201   9.489   5.411  0.5556  0.3542 -0.1426
10850SOL    HW243770   0.314   9.580   5.336  0.0179  1.4678  0.3873
10851SOL     OW43771   9.763   4.230   0.584  0.3410  0.5829 -0.5649
10851SOL    HW143772   9.783   4.254   0.679  1.5002  0.4797 -0.7779
10851SOL    HW243773   9.664   4.231   0.569 -0.0005 -1.8329  1.2897
10852SOL     OW43774   1.192   8.738   2.248 -0.4757 -0.1498 -0.0783
10852SOL    HW143775   1.167   8.807   2.315  0.4518  0.4161 -0.2960
10852SOL    HW243776   1.223   8.655   2.295  1.0019  0.5508  0.2119
10853SOL     OW43777   0.743   8.734   3.225 -0.0738  0.5426  0.1673
10853SOL    HW143778   0.742   8.832   3.243 -0.1271  0.6444 -0.4003
10853SOL    HW243779   0.730   8.717   3.127  0.2481 -0.0166  0.2171
10854SOL     OW43780   3.046   0.817   1.173 -0.3907  0.5533  0.2551
10854SOL    HW143781   3.080   0.901   1.131 -1.1653  0.1581 -1.1844
10854SOL    HW243782   2.957   0.835   1.215 -0.7726  0.3522 -0.4572
10855SOL     OW43783   6.299   1.797   3.658  0.1567  0.2055  0.1319
10855SOL    HW143784   6.315   1.713   3.607 -2.7476 -0.2913 -0.0443
10855SOL    HW243785   6.294   1.874   3.595  0.8282  0.2312  0.1040
10856SOL     OW43786   2.197   9.577   0.691 -0.3722  0.3509 -0.7776
10856SOL    HW143787   2.118   9.590   0.752 -0.4378  0.1791 -0.8256
10856SOL    HW243788   2.193   9.644   0.618 -1.3403 -0.6678 -1.6819
10857SOL     OW43789   1.221   0.925   2.879  0.2171  0.0890  0.3368
10857SOL    HW143790   1.192   0.891   2.790 -0.4395  1.5191 -0.0048
10857SOL    HW243791   1.171   0.878   2.951 -0.4039  0.0732 -0.1071
10858SOL     OW43792   9.710   4.127   1.945 -0.2093 -0.4638  0.7005
10858SOL    HW143793   9.610   4.125   1.938 -0.1429 -2.1382 -0.1911
10858SOL    HW243794   9.750   4.101   1.857  1.0365  1.2126  0.7591
10859SOL     OW43795   8.196   4.082   1.550  0.2831  0.3576  1.0465
10859SOL    HW143796   8.112   4.133   1.528  0.8775  1.0393  0.3120
10859SOL    HW243797   8.192   4.051   1.644  0.5172  3.0521  2.0035
10860SOL     OW43798   9.266   8.877   0.761 -0.0984  0.0131  0.3954
10860SOL    HW143799   9.366   8.878   0.764 -0.0808  0.0728 -0.0732
10860SOL    HW243800   9.235   8.785   0.736 -0.1169  0.3088 -0.6846
10861SOL     OW43801   3.832   5.098   6.665 -0.0146  0.3753  0.1673
10861SOL    HW143802   3.926   5.065   6.665 -0.0821  0.1834  0.1806
10861SOL    HW243803   3.772   5.029   6.706 -0.0615  0.7779  0.7775
10862SOL     OW43804   4.861   9.242   3.470  0.1714 -0.2886 -0.3787
10862SOL    HW143805   4.943   9.240   3.413 -0.3478 -0.9847 -1.1276
10862SOL    HW243806   4.809   9.157   3.457 -0.8077  0.2591 -0.1399
10863SOL     OW43807   9.129   2.135   4.617  0.9913 -0.3312 -0.0023
10863SOL    HW143808   9.206   2.195   4.641 -0.5736  1.6753  0.2101
10863SOL    HW243809   9.057   2.190   4.574 -1.3203 -1.6769  2.0176
10864SOL     OW43810   3.318   0.011   1.639 -0.3590 -0.2581  0.6450
10864SOL    HW143811   3.292  -0.076   1.598 -1.2009  0.5620 -0.5918
10864SOL    HW243812   3.237   0.059   1.672 -0.0824  0.7301 -0.0590
10865SOL     OW43813   4.388   1.628   5.074 -0.1550 -0.0931  0.0932
10865SOL    HW143814   4.383   1.728   5.082  0.8409 -0.0501  0.2112
10865SOL    HW243815   4.351   1.600   4.985 -2.9719  0.1431  1.1222
10866SOL     OW43816   3.986   4.777   6.092  0.2432  0.0476 -0.4691
10866SOL    HW143817   3.952   4.868   6.067  0.8536  0.5997  0.6620
10866SOL    HW243818   4.001   4.723   6.009  1.9792  1.7459 -1.3048
10867SOL     OW43819   2.104   7.461   6.393  0.4082 -0.3580  0.4157
10867SOL    HW143820   2.201   7.483   6.403  0.7765 -1.9760  0.5919
10867SOL    HW243821   2.053   7.502   6.468  1.1720 -0.7718  1.1653
10868SOL     OW43822   4.315   8.117   2.834  0.6343  0.1731  0.0405
10868SOL    HW143823   4.229   8.146   2.876 -0.0361  0.8934 -1.7680
10868SOL    HW243824   4.328   8.019   2.850 -0.1455  0.2148  0.9918
10869SOL     OW43825   2.044   4.534   1.639 -0.5230 -0.2039 -0.4561
10869SOL    HW143826   2.025   4.499   1.547  0.5576  1.4709 -1.3468
10869SOL    HW243827   2.078   4.628   1.632 -1.3174  0.2779  1.7213
10870SOL     OW43828   2.142   9.937   3.114  0.4288 -0.1231 -0.2843
10870SOL    HW143829   2.159  10.013   3.052 -0.7335  0.5179  0.1491
10870SOL    HW243830   2.043   9.928   3.129  0.5357 -1.9379 -0.5918
10871SOL     OW43831   5.989   1.528   4.764 -0.0843 -0.1902  0.1688
10871SOL    HW143832   6.057   1.459   4.740 -1.9150 -1.6111 -1.0109
10871SOL    HW243833   5.928   1.491   4.834 -0.6321  0.5177  0.0657
10872SOL     OW43834   3.593   6.684   0.871 -0.1300 -0.0391 -0.2054
10872SOL    HW143835   3.512   6.626   0.881 -0.2414 -0.2724 -2.2950
10872SOL    HW243836   3.569   6.779   0.891 -0.8657 -0.1498 -0.5526
10873SOL     OW43837   9.323   1.237   5.076  0.1713 -0.3695  0.3315
10873SOL    HW143838   9.389   1.168   5.048  0.4526 -0.0889  0.3054
10873SOL    HW243839   9.361   1.328   5.062  0.5714 -0.2153  2.2132
10874SOL     OW43840   8.111   3.823   3.909 -0.4980  0.3904  0.0577
10874SOL    HW143841   8.201   3.844   3.871  0.4334 -1.0692  1.3407
10874SOL    HW243842   8.042   3.880   3.866  0.9323  0.9706 -1.5368
10875SOL     OW43843   4.934   5.433   1.215 -0.0764  0.0449  0.4766
10875SOL    HW143844   4.890   5.523   1.215  0.6595  0.4180 -0.0404
10875SOL    HW243845   5.032   5.444   1.234  0.2426 -0.5162 -0.7603
10876SOL     OW43846   1.498   8.495   4.085  0.4442  0.0528  0.2979
10876SOL    HW143847   1.459   8.484   3.994 -2.8209  0.5073  1.5593
10876SOL    HW243848   1.589   8.535   4.078  0.3788 -0.2202 -2.7497
10877SOL     OW43849   9.869   2.182   0.853 -0.1600  0.1589  0.2611
10877SOL    HW143850   9.902   2.207   0.944  0.8120 -0.1830  0.0073
10877SOL    HW243851   9.927   2.110   0.815 -1.0322 -0.2508 -0.3117
10878SOL     OW43852   9.882   5.899   3.048 -0.7692  0.0266 -0.7650
10878SOL    HW143853   9.895   5.941   2.958  1.3735  0.4188 -0.3013
10878SOL    HW243854   9.932   5.952   3.117  0.7368 -2.3977  0.0668
10879SOL     OW43855   1.610   3.167   2.210  0.0930  0.6057  0.3457
10879SOL    HW143856   1.659   3.083   2.187  0.2136  0.6839  0.3159
10879SOL    HW243857   1.641   3.200   2.299 -3.0635 -1.7524  2.4336
10880SOL     OW43858   0.216   5.461   2.671  0.2683  0.3603  0.1736
10880SOL    HW143859   0.263   5.550   2.674  0.0590  0.4252  1.7513
10880SOL    HW243860   0.272   5.392   2.717 -0.7483  0.2322  1.2323
10881SOL     OW43861   4.372   4.318   0.829  0.0575  0.0902  0.2558
10881SOL    HW143862   4.328   4.404   0.854 -0.0570 -0.2721  1.3330
10881SOL    HW243863   4.428   4.286   0.905 -1.0032 -1.4883  0.4012
10882SOL     OW43864   9.409   2.869   5.347 -0.2719 -0.7124  0.4385
10882SOL    HW143865   9.393   2.960   5.309 -0.5603 -0.8483  0.2369
10882SOL    HW243866   9.326   2.837   5.395 -1.4364 -2.3784 -2.5695
10883SOL     OW43867   7.268   7.372   4.918  0.4664 -0.0393 -0.5700
10883SOL    HW143868   7.177   7.382   4.959 -0.0047  0.2649 -1.6746
10883SOL    HW243869   7.310   7.462   4.908  2.0043 -0.3808  2.3944
10884SOL     OW43870   9.458   2.170   6.076 -0.2658 -0.3883  0.5102
10884SOL    HW143871   9.543   2.212   6.106 -1.5809  2.0575  0.9341
10884SOL    HW243872   9.391   2.174   6.150 -1.4481 -0.2847 -0.5426
10885SOL     OW43873   4.882   1.938   2.852 -0.8179 -0.0435  0.0960
10885SOL    HW143874   4.875   1.853   2.800 -1.8403  0.7246 -1.0404
10885SOL    HW243875   4.791   1.967   2.882 -0.6117  1.2178 -0.4628
10886SOL     OW43876   2.900   2.105   2.397 -0.1572 -0.8915  0.2045
10886SOL    HW143877   2.982   2.049   2.407  0.0963 -0.4098  0.8929
10886SOL    HW243878   2.915   2.173   2.325  0.7120  0.3295  1.4953
10887SOL     OW43879   1.663   3.000   6.515 -0.0452 -0.5092 -0.0925
10887SOL    HW143880   1.635   3.039   6.427 -1.2028 -0.1087  0.4550
10887SOL    HW243881   1.759   2.973   6.510 -0.0468 -0.2918 -1.4156
10888SOL     OW43882   1.059   2.296   1.989 -0.0473 -0.2131 -0.2934
10888SOL    HW143883   0.992   2.359   1.951  1.4058  1.0800 -0.7770
10888SOL    HW243884   1.097   2.239   1.915  0.1707 -0.1817 -0.2080
10889SOL     OW43885   7.292   0.705   2.084  0.5945  0.3524  0.4509
10889SOL    HW143886   7.286   0.685   1.986 -0.4111 -0.0695  0.5977
10889SOL    HW243887   7.292   0.804   2.097  0.0732  0.4033  0.0722
10890SOL     OW43888   0.345   5.826   2.028  0.5734 -0.4617  0.4521
10890SOL    HW143889   0.254   5.798   2.056  0.8984 -1.1393  0.8414
10890SOL    HW243890   0.339   5.883   1.946 -0.1607 -0.8665  0.2280
10891SOL     OW43891   0.718   6.245   3.643  0.3954 -0.2164  0.4501
10891SOL    HW143892   0.724   6.151   3.675  0.5492 -1.1065 -2.0988
10891SOL    HW243893   0.793   6.264   3.580 -0.0045  1.4052  0.4346
10892SOL     OW43894   8.053   0.911   4.042 -0.9495 -0.2613 -0.3476
10892SOL    HW143895   8.019   0.821   4.070  0.0687 -0.6272 -0.2839
10892SOL    HW243896   8.099   0.955   4.119 -0.4689 -0.1490 -0.6965
10893SOL     OW43897   3.434   7.415   3.563 -0.4890 -0.5600  0.1888
10893SOL    HW143898   3.519   7.455   3.596 -0.3629 -0.1966 -0.5481
10893SOL    HW243899   3.391   7.362   3.635  0.7279 -1.3355  0.3440
10894SOL     OW43900   7.422   2.081   6.426 -0.1273  0.9104 -0.3401
10894SOL    HW143901   7.327   2.069   6.397 -0.5288 -0.1708  1.3225
10894SOL    HW243902   7.459   1.993   6.454  0.9809  1.5275  0.1672
10895SOL     OW43903   0.122   3.037   0.148 -0.4410  0.3605  0.2649
10895SOL    HW143904   0.082   2.991   0.227 -1.1841 -0.4329 -0.5754
10895SOL    HW243905   0.150   3.129   0.175 -1.3558  0.3602  1.2739
10896SOL     OW43906   1.403   7.205   4.010  0.0392 -0.1705 -0.0312
10896SOL    HW143907   1.401   7.153   3.925 -2.6734 -0.8827  0.4185
10896SOL    HW243908   1.318   7.189   4.061  0.5914  2.1076  1.6863
10897SOL     OW43909   9.565   6.066   5.219  0.8373  0.0512  0.5219
10897SOL    HW143910   9.655   6.103   5.194  1.1002  0.7805  2.4651
10897SOL    HW243911   9.495   6.136   5.203  0.8069 -0.0059  0.4032
10898SOL     OW43912   2.274   3.554   0.957  0.3864  0.2893  0.2628
10898SOL    HW143913   2.349   3.617   0.939  0.7211 -0.0545  0.4424
10898SOL    HW243914   2.191   3.605   0.977  0.1156  0.6922 -1.7641
10899SOL     OW43915   4.448   2.897   1.904  0.7093  0.0377 -0.1048
10899SOL    HW143916   4.488   2.808   1.925  0.6539  0.6061  2.7515
10899SOL    HW243917   4.350   2.887   1.889  0.7751 -0.4579 -0.1950
10900SOL     OW43918   3.374   4.592   3.372  0.2389  0.1487 -0.3652
10900SOL    HW143919   3.419   4.588   3.461 -1.7492 -0.1891  0.6574
10900SOL    HW243920   3.360   4.500   3.338 -1.6265  0.1466  0.3553
10901SOL     OW43921   8.518   9.490   5.228  0.0689  0.2093 -0.1358
10901SOL    HW143922   8.442   9.554   5.211  0.2409  0.3531 -0.3595
10901SOL    HW243923   8.499   9.403   5.184 -0.7812 -0.3350  1.2691
10902SOL     OW43924   8.556   4.311   2.577  0.1875 -0.1992 -0.1322
10902SOL    HW143925   8.569   4.296   2.675 -0.4485 -0.0472 -0.0228
10902SOL    HW243926   8.637   4.280   2.527  0.3411 -0.6651  0.4071
10903SOL     OW43927   5.061   9.626   3.700  0.7721  0.1330  0.3187
10903SOL    HW143928   4.990   9.678   3.653 -0.2403  0.0451  1.7131
10903SOL    HW243929   5.074   9.664   3.792  1.5120 -0.7680  0.5909
10904SOL     OW43930   1.118   6.846   4.335  0.0901 -0.5759  0.1308
10904SOL    HW143931   1.153   6.884   4.249  0.9594 -0.3605  0.5674
10904SOL    HW243932   1.178   6.771   4.364 -0.3277 -0.7930  0.4285
10905SOL     OW43933   4.847   1.318   3.918  0.1838  0.0317 -0.3756
10905SOL    HW143934   4.831   1.302   3.821 -0.6270 -2.4243  0.1196
10905SOL    HW243935   4.776   1.377   3.955 -0.8322 -0.9070 -0.8000
10906SOL     OW43936   0.392   9.105   3.690  0.4582  0.0018 -0.0967
10906SOL    HW143937   0.308   9.133   3.644  0.3077 -1.4392 -0.7310
10906SOL    HW243938   0.381   9.114   3.789  0.0335  1.0884 -0.2341
10907SOL     OW43939   4.710   8.324   3.724  0.0974 -0.1879 -0.1690
10907SOL    HW143940   4.712   8.236   3.771 -0.4392 -0.3068 -0.3613
10907SOL    HW243941   4.643   8.321   3.650 -1.8529  1.1947  1.4493
10908SOL     OW43942   2.021   7.339   6.098  0.4487 -0.3370 -0.3644
10908SOL    HW143943   1.975   7.392   6.169  1.5162 -0.5333  0.4995
10908SOL    HW243944   2.064   7.401   6.032  1.7127 -0.0881  0.6537
10909SOL     OW43945   3.025   0.708   4.473  0.4083  0.2597  0.0244
10909SOL    HW143946   2.949   0.773   4.467  0.3325  0.1828  0.1679
10909SOL    HW243947   3.106   0.748   4.428  0.3604  0.4520  0.1072
10910SOL     OW43948   4.653   2.126   0.714 -0.0597 -0.1091  0.2039
10910SOL    HW143949   4.721   2.085   0.653 -0.2420 -0.8828  0.5171
10910SOL    HW243950   4.572   2.151   0.660  0.3475  0.5387 -0.1164
10911SOL     OW43951   0.844   7.745   2.249  0.0983  0.2193  0.0370
10911SOL    HW143952   0.807   7.658   2.282  0.6119 -0.6193 -1.5524
10911SOL    HW243953   0.768   7.803   2.217 -0.2037  0.2067  0.7103
10912SOL     OW43954   4.696   2.770   0.338  0.3930 -0.0882  0.3159
10912SOL    HW143955   4.634   2.763   0.416  0.2769 -1.3943  0.1207
10912SOL    HW243956   4.783   2.726   0.360  0.4296 -0.2860 -0.2083
10913SOL     OW43957   0.127   5.973   5.317 -0.0320 -0.0271  0.1590
10913SOL    HW143958   0.170   5.957   5.228 -0.1262 -0.6859  0.2255
10913SOL    HW243959   0.107   6.070   5.328 -0.1878  0.0286 -0.6144
10914SOL     OW43960   1.814   0.209   5.136  0.3948 -0.5870  0.6941
10914SOL    HW143961   1.864   0.131   5.099 -0.0634 -0.4819 -0.1779
10914SOL    HW243962   1.767   0.182   5.220  0.6196 -1.1271  0.6482
10915SOL     OW43963   9.475   2.747   5.075  0.3050  0.6568 -0.2014
10915SOL    HW143964   9.391   2.793   5.046 -0.2765  0.4352  1.0955
10915SOL    HW243965   9.492   2.767   5.172  1.0065 -0.4088 -0.0998
10916SOL     OW43966   1.803   2.719   3.399  0.2015 -0.5679  0.1969
10916SOL    HW143967   1.761   2.789   3.457 -1.6096 -1.3095 -0.1746
10916SOL    HW243968   1.831   2.760   3.312 -1.6248 -0.4400 -0.3549
10917SOL     OW43969   3.983   9.101   1.372 -0.1880 -0.0660  0.1554
10917SOL    HW143970   3.896   9.093   1.420 -0.2374 -0.0906  0.0622
10917SOL    HW243971   3.990   9.028   1.304 -0.4421  0.4038 -0.3827
10918SOL     OW43972   6.525   8.223   3.347 -0.1232 -0.0582 -0.4412
10918SOL    HW143973   6.580   8.141   3.330  2.5845  1.6728 -0.2730
10918SOL    HW243974   6.525   8.244   3.444 -0.7039  0.2513 -0.5039
10919SOL     OW43975   1.661   2.774   5.560  0.1228 -0.4431 -0.2838
10919SOL    HW143976   1.616   2.859   5.589  0.5171  0.3463 -1.9172
10919SOL    HW243977   1.754   2.771   5.597 -0.4953 -1.0320  1.2644
10920SOL     OW43978   7.834   9.640   0.343 -0.4963  0.2695 -0.0724
10920SOL    HW143979   7.811   9.626   0.247 -0.9818  0.5782 -0.0050
10920SOL    HW243980   7.932   9.630   0.356 -0.4232  0.2857 -0.6080
10921SOL     OW43981   3.090   3.554   5.112  0.1292 -0.5327 -0.3877
10921SOL    HW143982   3.185   3.564   5.141 -0.2836  1.0065  0.5097
10921SOL    HW243983   3.030   3.555   5.192 -0.8111  0.9140 -1.0821
10922SOL     OW43984   3.713   7.588   3.900  1.0495 -0.6367 -0.5909
10922SOL    HW143985   3.625   7.634   3.914  0.4437 -1.4848 -1.5104
10922SOL    HW243986   3.786   7.656   3.895  0.2616  0.1828 -1.2292
10923SOL     OW43987   2.846   8.350   4.960  0.3057 -0.0202  0.4827
10923SOL    HW143988   2.816   8.416   5.029 -0.2594  0.5097 -0.2700
10923SOL    HW243989   2.773   8.335   4.894  1.3430  0.5857 -0.8341
10924SOL     OW43990   8.666   7.951   5.498 -0.3156  0.1431  0.3983
10924SOL    HW143991   8.593   7.896   5.458 -0.7336 -0.3095  1.7631
10924SOL    HW243992   8.671   8.039   5.451 -1.3814 -0.0206 -0.0347
10925SOL     OW43993   1.686   1.420   3.933 -0.3132  0.1492  0.2338
10925SOL    HW143994   1.742   1.369   3.999 -0.5166  1.1231  1.1690
10925SOL    HW243995   1.710   1.517   3.937  0.2613  0.1120 -1.7238
10926SOL     OW43996   9.882   0.880   1.725 -0.3276  0.7685 -0.1247
10926SOL    HW143997   9.931   0.959   1.760  0.0032 -0.5133  2.4027
10926SOL    HW243998   9.947   0.805   1.708 -0.9183  0.3029 -0.3846
10927SOL     OW43999   2.683   6.038   0.786 -0.2050  0.2387 -0.5129
10927SOL    HW144000   2.623   6.009   0.861 -0.4544  0.8874 -0.4551
10927SOL    HW244001   2.631   6.097   0.723  1.0753  3.0511  0.9914
10928SOL     OW44002   8.406   9.638   0.042 -0.4980  0.0848 -0.6563
10928SOL    HW144003   8.477   9.705   0.018 -1.2739  0.7055 -1.2135
10928SOL    HW244004   8.372   9.658   0.134 -0.1169 -0.0791 -0.4760
10929SOL     OW44005   0.177   0.638   2.488 -0.3469  0.0801  0.4862
10929SOL    HW144006   0.277   0.632   2.491 -0.2440 -0.1477 -2.1619
10929SOL    HW244007   0.151   0.709   2.423 -1.9138 -2.9741 -2.3547
10930SOL     OW44008   9.069   9.990   2.444  0.1883 -0.3307 -0.0062
10930SOL    HW144009   9.069   9.925   2.368  2.3236  0.0684 -0.3977
10930SOL    HW244010   9.009   9.957   2.517 -1.8309 -0.7583 -1.8135
10931SOL     OW44011   1.374   8.949   5.107 -0.5332  0.1394  0.0295
10931SOL    HW144012   1.396   8.989   5.196 -2.3084  1.0874  0.0651
10931SOL    HW244013   1.293   8.891   5.116  0.5110 -1.4410 -0.5598
10932SOL     OW44014   8.579   3.849   4.042 -0.2681  0.3397  0.3095
10932SOL    HW144015   8.495   3.810   4.079 -0.3511  0.9068  0.7207
10932SOL    HW244016   8.656   3.789   4.065 -0.2812  0.8127  1.6150
10933SOL     OW44017   9.966   8.331   2.809  0.2893  0.5029  0.2895
10933SOL    HW144018  10.023   8.258   2.846 -0.5015  0.3284  1.1693
10933SOL    HW244019   9.869   8.310   2.825  0.0927  2.4099  1.8314
10934SOL     OW44020   1.682   0.073   0.328  0.6510 -0.1188  0.1099
10934SOL    HW144021   1.716  -0.019   0.311  0.1267 -0.3516  0.3294
10934SOL    HW244022   1.666   0.119   0.240 -2.5071 -1.4931 -0.0781
10935SOL     OW44023   2.026   8.737   6.458  0.1541  0.6609  0.5107
10935SOL    HW144024   1.943   8.791   6.468  0.3869  0.5834  3.0057
10935SOL    HW244025   2.072   8.729   6.546  1.9684 -0.6534 -0.5238
10936SOL     OW44026   3.575   6.226   0.753 -0.0519 -0.0528  0.6523
10936SOL    HW144027   3.646   6.156   0.748  1.5855  1.6713 -1.4693
10936SOL    HW244028   3.557   6.261   0.661 -1.2431  1.9186  1.6026
10937SOL     OW44029   1.020   8.386   1.902 -0.0595  0.6546  0.4234
10937SOL    HW144030   0.941   8.326   1.893  0.6448 -0.0387 -1.3679
10937SOL    HW244031   1.052   8.413   1.812  2.2723  0.2383  1.0947
10938SOL     OW44032   4.963   0.793   0.923 -0.3753  0.0562  0.3280
10938SOL    HW144033   4.935   0.856   0.851  0.5753  0.1778  0.0577
10938SOL    HW244034   4.989   0.845   1.004 -2.4657 -0.1171  1.1544
10939SOL     OW44035   2.752   3.303   2.376  1.0576  0.6503 -0.0450
10939SOL    HW144036   2.745   3.312   2.276 -0.8421 -1.5795 -0.1751
10939SOL    HW244037   2.727   3.389   2.419  0.8264  1.3242 -1.4831
10940SOL     OW44038   2.199   9.970   0.348  0.3184  0.3251 -0.2844
10940SOL    HW144039   2.291   9.970   0.309  0.5125  0.4955  0.1801
10940SOL    HW244040   2.132   9.968   0.273  0.6983 -1.1892 -0.6075
10941SOL     OW44041   0.160   9.103   2.364 -0.0705 -0.0070 -0.0863
10941SOL    HW144042   0.071   9.066   2.391 -0.5471  0.6836 -0.7224
10941SOL    HW244043   0.167   9.104   2.265 -0.4294  2.4924 -0.1149
10942SOL     OW44044   1.005   8.560   4.227  0.0504  0.7276 -0.0014
10942SOL    HW144045   0.915   8.550   4.184 -0.6337 -1.3845  1.8223
10942SOL    HW244046   1.076   8.551   4.157 -1.0869 -0.2677 -1.0535
10943SOL     OW44047   0.451   0.406   5.223  0.1535 -0.1952  0.3597
10943SOL    HW144048   0.393   0.457   5.286 -0.7855 -0.7517 -0.0535
10943SOL    HW244049   0.395   0.350   5.163  0.9486  1.1243 -1.7116
10944SOL     OW44050   0.214   4.817   1.090 -0.8568 -0.7708  0.2645
10944SOL    HW144051   0.117   4.824   1.113 -0.4333 -1.3795  2.2550
10944SOL    HW244052   0.269   4.845   1.168  0.5920  0.8094 -1.2687
10945SOL     OW44053   4.959   0.494   3.900 -0.2063 -0.1816  0.0334
10945SOL    HW144054   4.905   0.426   3.949 -0.7208 -0.1866 -0.5359
10945SOL    HW244055   5.032   0.449   3.848  0.1710 -0.1984  0.5746
10946SOL     OW44056   0.406   1.441   2.068  0.0452  0.0316  0.0669
10946SOL    HW144057   0.457   1.500   2.130 -0.2469 -0.5279  0.8485
10946SOL    HW244058   0.309   1.444   2.092 -0.2931  1.0579 -1.3849
10947SOL     OW44059   0.535   4.511   1.478  0.3366  0.4895  0.1763
10947SOL    HW144060   0.461   4.488   1.414  0.6261 -0.4012  0.1686
10947SOL    HW244061   0.606   4.441   1.475 -0.6273 -0.6870  3.0192
10948SOL     OW44062   1.463   7.516   2.139 -0.5225  0.0479  0.4445
10948SOL    HW144063   1.541   7.455   2.130 -0.5872 -0.1410  1.1567
10948SOL    HW244064   1.463   7.581   2.063 -0.0707 -0.3976  0.0605
10949SOL     OW44065   9.480   3.994   3.691  0.1390 -0.2501  0.2663
10949SOL    HW144066   9.569   4.037   3.708  0.6540 -0.7640 -1.0621
10949SOL    HW244067   9.418   4.061   3.651  0.9129 -0.6831 -1.7184
10950SOL     OW44068   8.602   4.566   2.297 -0.1860  0.8490  0.0602
10950SOL    HW144069   8.689   4.583   2.344  1.3917  0.7004 -2.7001
10950SOL    HW244070   8.609   4.482   2.243 -0.8114  2.6592 -2.9503
10951SOL     OW44071   1.924   2.116   5.728  0.6346 -0.2141  0.0224
10951SOL    HW144072   1.881   2.143   5.814 -1.3246 -1.5419 -0.4944
10951SOL    HW244073   2.020   2.143   5.728 -0.0337  2.2784  1.4814
10952SOL     OW44074   8.726   0.949   5.529 -0.6395  0.1021  0.4455
10952SOL    HW144075   8.804   0.905   5.572 -0.7480 -2.1265 -1.5717
10952SOL    HW244076   8.754   1.038   5.493  0.2846  0.4658  1.9836
10953SOL     OW44077   7.908   3.143   0.625 -0.8289  0.2688 -0.0540
10953SOL    HW144078   7.947   3.170   0.713 -2.0910  1.6129  0.1218
10953SOL    HW244079   7.896   3.044   0.623 -0.1752  0.1563  1.0240
10954SOL     OW44080   0.572   7.343   1.802 -0.0537  0.0816  0.4472
10954SOL    HW144081   0.608   7.429   1.841  0.3087 -0.0344  0.3744
10954SOL    HW244082   0.552   7.279   1.876 -0.2463  0.2000  0.4971
10955SOL     OW44083   6.952   3.970   1.621  0.2507  0.6103 -0.0217
10955SOL    HW144084   7.029   4.002   1.676 -0.3691  0.6423  0.8315
10955SOL    HW244085   6.909   3.892   1.667  0.0281  0.3298 -0.7046
10956SOL     OW44086   2.112   9.571   5.907  0.1150  0.0675 -0.0922
10956SOL    HW144087   2.105   9.575   6.007  1.9453 -0.8614  0.0918
10956SOL    HW244088   2.032   9.614   5.866 -0.0638  1.5555  1.7791
10957SOL     OW44089   7.121   9.616   2.510  0.6755  0.7698 -0.5611
10957SOL    HW144090   7.028   9.651   2.511  1.0917  1.9009 -0.9752
10957SOL    HW244091   7.147   9.592   2.416 -0.3053 -2.5966 -0.0576
10958SOL     OW44092   7.448   1.651   4.776  0.3528 -0.3743  0.0251
10958SOL    HW144093   7.460   1.730   4.715 -0.2453 -1.1002 -1.0479
10958SOL    HW244094   7.534   1.602   4.785  0.5925  0.0855  0.2582
10959SOL     OW44095   7.568   9.130   1.859  0.3491 -0.0078  0.2404
10959SOL    HW144096   7.520   9.052   1.820  0.4429 -1.0770  2.2182
10959SOL    HW244097   7.626   9.171   1.789 -1.7079 -0.0625 -1.5486
10960SOL     OW44098   3.957   6.161   2.125 -0.2466  0.4289  0.0776
10960SOL    HW144099   3.863   6.161   2.159 -0.4232  0.7354 -0.4124
10960SOL    HW244100   3.957   6.155   2.025  0.2852 -0.8581  0.1504
10961SOL     OW44101   3.106   7.093   4.388  0.0334  0.2945  0.3153
10961SOL    HW144102   3.044   7.168   4.406 -2.6357 -2.3498  2.5510
10961SOL    HW244103   3.106   7.072   4.290 -2.1909  0.7109  0.2152
10962SOL     OW44104   8.290   8.523   2.762  0.3380 -0.1144 -0.4018
10962SOL    HW144105   8.231   8.603   2.752 -0.3091 -0.6755 -1.1176
10962SOL    HW244106   8.240   8.449   2.804  1.7333  0.7159  2.8766
10963SOL     OW44107   7.408   4.407   5.622  0.2163 -0.1072  0.0396
10963SOL    HW144108   7.354   4.401   5.705 -0.7089  1.0434 -0.4602
10963SOL    HW244109   7.498   4.446   5.643 -0.2299  0.7225  0.4073
10964SOL     OW44110   4.418   1.426   0.846 -0.3312 -0.0515 -0.2866
10964SOL    HW144111   4.366   1.456   0.926  0.4610 -0.1778  0.2784
10964SOL    HW244112   4.453   1.505   0.796  0.2618  0.0045  0.2134
10965SOL     OW44113   1.403   6.702   1.316  0.4511 -0.2626  0.4292
10965SOL    HW144114   1.339   6.665   1.248 -0.6417  0.5808  0.9856
10965SOL    HW244115   1.439   6.789   1.284  0.4073 -0.1636  0.6496
10966SOL     OW44116   2.698   3.601   3.052 -0.0267  0.5813  0.0450
10966SOL    HW144117   2.742   3.689   3.033  0.7438 -0.0238 -1.0396
10966SOL    HW244118   2.622   3.588   2.988 -0.2355  0.5264  0.3037
10967SOL     OW44119   8.241   3.682   5.272 -0.6355 -0.3725  0.2629
10967SOL    HW144120   8.295   3.693   5.356 -1.6127  0.5431  0.7767
10967SOL    HW244121   8.156   3.635   5.293 -1.1689  0.4254 -0.1064
10968SOL     OW44122   2.406   9.696   0.862 -0.1202  0.0426 -0.6954
10968SOL    HW144123   2.473   9.711   0.789  0.8819 -1.5002 -0.1147
10968SOL    HW244124   2.328   9.646   0.824  0.7071 -1.3578 -0.5698
10969SOL     OW44125   4.946   1.630   4.319  0.9869 -0.4833  0.0384
10969SOL    HW144126   4.982   1.544   4.281  1.0429 -1.0906  1.4215
10969SOL    HW244127   4.876   1.609   4.387  0.8927  0.5742  0.2656
10970SOL     OW44128   2.038   0.067   1.969  0.1432  0.7410 -0.3806
10970SOL    HW144129   2.094   0.054   2.051  1.9718  1.1069 -1.5438
10970SOL    HW244130   2.028  -0.020   1.921 -0.9533  0.5200  0.2144
10971SOL     OW44131   4.064   1.172   6.758 -0.3596 -0.2955 -0.1145
10971SOL    HW144132   4.159   1.190   6.785 -0.0004 -1.7519 -0.3092
10971SOL    HW244133   4.054   1.188   6.660  0.1662 -1.8891 -0.4461
10972SOL     OW44134   4.969   7.857   3.039  0.1318  0.0181  0.2169
10972SOL    HW144135   4.940   7.816   2.952 -1.7131  1.8870 -0.0781
10972SOL    HW244136   4.892   7.859   3.102  1.0111  0.2759  1.2912
10973SOL     OW44137   8.599   5.123   1.069 -0.2003  0.2080 -0.1214
10973SOL    HW144138   8.576   5.149   1.163 -0.1153  0.2243 -0.1045
10973SOL    HW244139   8.522   5.075   1.028  0.2108 -0.9269  0.3862
10974SOL     OW44140   7.744   5.712   4.975  0.0112 -0.2029 -0.4473
10974SOL    HW144141   7.836   5.687   4.944  0.2977 -0.9198  0.9440
10974SOL    HW244142   7.678   5.645   4.940  0.3622 -1.1406  0.6577
10975SOL     OW44143   3.949   9.922   1.871 -0.0935  0.0461 -0.5940
10975SOL    HW144144   3.988   9.902   1.961  2.0101 -0.5357 -1.5968
10975SOL    HW244145   3.954  10.021   1.855  1.7345 -0.0993 -1.0271
10976SOL     OW44146   7.542   1.372   6.423  0.2699 -0.0382 -0.2143
10976SOL    HW144147   7.480   1.294   6.427  1.0821 -0.6281  1.3462
10976SOL    HW244148   7.533   1.427   6.506  0.6938  0.7569 -0.6830
10977SOL     OW44149   4.738   0.023   5.654  0.0554 -0.1582  0.3181
10977SOL    HW144150   4.827  -0.017   5.673 -0.2567 -0.7777  0.4913
10977SOL    HW244151   4.667  -0.046   5.667 -0.5302  0.5738  1.0407
10978SOL     OW44152   0.775   9.900   1.805  0.1500 -0.1524  0.1253
10978SOL    HW144153   0.685   9.860   1.821 -0.4083  1.2230  0.4846
10978SOL    HW244154   0.828   9.840   1.745 -1.6846 -0.0454 -1.6582
10979SOL     OW44155   2.960   5.276   0.596  0.2679 -0.1621  0.6370
10979SOL    HW144156   2.994   5.184   0.618 -0.7182 -0.1271  2.4168
10979SOL    HW244157   2.933   5.322   0.681  0.9251  1.8524 -0.2163
10980SOL     OW44158   4.047   3.749   0.661  0.3346  0.0549  0.0682
10980SOL    HW144159   4.141   3.784   0.664  0.3051  0.0639  1.0888
10980SOL    HW244160   4.039   3.683   0.587  1.8470 -1.8937  1.5710
10981SOL     OW44161   1.667   1.643   3.616 -0.2307  1.0377  0.1790
10981SOL    HW144162   1.654   1.663   3.714  0.6184  0.5134  0.3976
10981SOL    HW244163   1.617   1.559   3.593 -0.9329  1.4922  0.0228
10982SOL     OW44164   2.111   5.229   0.602 -0.1961 -0.5820 -0.1888
10982SOL    HW144165   2.020   5.268   0.620 -0.0905 -1.0864  1.5507
10982SOL    HW244166   2.168   5.240   0.684  0.9456 -1.2815 -0.8872
10983SOL     OW44167   9.501   4.228   6.098  0.4020 -0.0054  0.3519
10983SOL    HW144168   9.587   4.275   6.117  0.8344 -0.4634 -0.4653
10983SOL    HW244169   9.513   4.130   6.112 -0.1479 -0.0084  0.8038
10984SOL     OW44170   7.147   4.241   0.458  0.4666 -0.0655  0.3796
10984SOL    HW144171   7.158   4.241   0.558  1.0099  0.8082  0.3204
10984SOL    HW244172   7.126   4.333   0.427  1.4396 -0.1057 -0.4308
10985SOL     OW44173   0.703   1.977   3.528  0.0074  0.5814  0.1893
10985SOL    HW144174   0.726   1.890   3.485 -0.5781  1.1453 -1.3059
10985SOL    HW244175   0.620   1.966   3.584 -1.3144  0.6358 -1.7020
10986SOL     OW44176   1.446   7.080   2.118  0.8147 -0.1401 -0.3181
10986SOL    HW144177   1.509   7.125   2.181  0.6645 -1.0861  0.5081
10986SOL    HW244178   1.378   7.027   2.169  0.5806 -0.7700 -1.2604
10987SOL     OW44179   1.281   6.670   3.715 -0.2758  0.7863  0.2967
10987SOL    HW144180   1.305   6.742   3.649  1.9322  0.3414  0.5818
10987SOL    HW244181   1.287   6.708   3.807 -1.6352  0.9193  0.3405
10988SOL     OW44182   9.420   7.363   5.850 -0.1357  0.0017 -0.0462
10988SOL    HW144183   9.490   7.435   5.854 -1.2411  1.1826 -1.3861
10988SOL    HW244184   9.409   7.333   5.755 -3.3489  1.7628 -0.2830
10989SOL     OW44185   5.043   0.243   1.865 -0.3220  0.5939 -0.2242
10989SOL    HW144186   5.059   0.154   1.907  0.3489  0.8152  0.0015
10989SOL    HW244187   5.106   0.255   1.788 -0.9332  0.5615 -0.7320
10990SOL     OW44188   2.593   9.352   2.980 -0.3370  0.2003 -0.0058
10990SOL    HW144189   2.539   9.398   3.051  0.6462  0.7187  0.4157
10990SOL    HW244190   2.597   9.410   2.898 -2.3052 -0.8341 -0.8517
10991SOL     OW44191   2.198   6.309   6.451  0.0826 -0.5653  0.1401
10991SOL    HW144192   2.275   6.280   6.509  0.6132  1.0922  0.2875
10991SOL    HW244193   2.233   6.362   6.374 -1.0386  1.9847  1.3144
10992SOL     OW44194   3.692   3.483   0.479  0.6463 -0.3439 -0.6409
10992SOL    HW144195   3.593   3.494   0.477  0.5019 -1.4042  0.2965
10992SOL    HW244196   3.732   3.523   0.396 -0.5813 -0.2032 -1.1738
10993SOL     OW44197   2.746   2.971   2.808 -0.0750  0.4122  0.0075
10993SOL    HW144198   2.784   2.942   2.896 -0.3199  0.5459  0.1581
10993SOL    HW244199   2.820   2.995   2.746  0.1384 -0.7237 -0.1838
10994SOL     OW44200   1.003   3.670   5.483 -0.5091 -0.0442 -0.4249
10994SOL    HW144201   1.006   3.765   5.515  1.8039 -0.6814  1.3652
10994SOL    HW244202   0.940   3.618   5.540 -0.0692 -0.0748  0.0418
10995SOL     OW44203   2.698   6.383   2.950  0.3122 -0.4979 -0.1491
10995SOL    HW144204   2.664   6.449   2.885  1.0186 -0.1927 -0.2163
10995SOL    HW244205   2.628   6.313   2.968 -0.5873  0.4996  0.2533
10996SOL     OW44206   3.662   4.974   2.921  0.4606  0.0817 -0.3625
10996SOL    HW144207   3.651   5.063   2.877  1.6568 -0.0480 -0.9415
10996SOL    HW244208   3.748   4.972   2.971 -0.1472 -0.3270  0.6908
10997SOL     OW44209   7.704   2.287   1.935  0.2097  0.5009  0.5982
10997SOL    HW144210   7.609   2.260   1.950  0.1608  0.7021  0.6481
10997SOL    HW244211   7.762   2.244   2.004  0.3530 -0.7926 -0.2908
10998SOL     OW44212   6.967   2.262   0.016 -0.1141  0.5106 -0.4641
10998SOL    HW144213   6.965   2.356  -0.020  0.2475  0.7495  0.1329
10998SOL    HW244214   7.046   2.214  -0.022  0.0343  0.6315 -0.3058
10999SOL     OW44215   1.326   4.878   4.590  0.9178 -0.1233 -0.4797
10999SOL    HW144216   1.381   4.920   4.662  2.7220 -0.0881 -1.8381
10999SOL    HW244217   1.384   4.862   4.510 -0.7281 -1.4368 -1.4207
11000SOL     OW44218   3.549   4.793   5.687  0.3428  0.0917 -0.2782
11000SOL    HW144219   3.460   4.749   5.696  1.4780 -2.3565 -0.5183
11000SOL    HW244220   3.621   4.726   5.707  2.1260  2.0532  0.0303
11001SOL     OW44221   5.730   8.811   2.624 -0.0283 -0.1202  0.1084
11001SOL    HW144222   5.754   8.800   2.721 -2.1019  0.4228  0.7103
11001SOL    HW244223   5.647   8.760   2.604 -0.1556  0.5721 -1.1698
11002SOL     OW44224   1.239   7.286   4.933 -0.4419 -0.0696  0.0789
11002SOL    HW144225   1.268   7.312   4.841 -0.4676  0.2417  0.1572
11002SOL    HW244226   1.233   7.187   4.939 -1.0410 -0.0707 -0.4425
11003SOL     OW44227   0.199   8.426   5.086  0.0438  0.1011 -0.3908
11003SOL    HW144228   0.284   8.472   5.110  1.3423 -1.8156 -1.2253
11003SOL    HW244229   0.160   8.384   5.168  0.7313 -0.3796 -0.3124
11004SOL     OW44230   2.301   0.435   6.254  0.4877 -0.7122  0.5875
11004SOL    HW144231   2.337   0.524   6.226  0.5097 -0.7605  0.4614
11004SOL    HW244232   2.376   0.377   6.286  0.5565 -0.8984  0.0932
11005SOL     OW44233   1.667   8.399   1.119 -0.3317 -0.2178 -0.5103
11005SOL    HW144234   1.568   8.387   1.116 -0.3247 -1.1750  1.8481
11005SOL    HW244235   1.713   8.312   1.102  0.0310 -0.3258  0.9236
11006SOL     OW44236   7.711   0.661   6.746  0.2206  0.0880 -0.2302
11006SOL    HW144237   7.747   0.569   6.764 -0.3013  0.2357  1.6949
11006SOL    HW244238   7.641   0.683   6.814  1.0138  2.2775 -0.0906
11007SOL     OW44239   7.053   1.212   5.688  0.9802 -0.0719 -0.2453
11007SOL    HW144240   7.133   1.185   5.634  0.8896 -2.0753  0.5758
11007SOL    HW244241   7.005   1.130   5.720 -1.2781  1.1147 -0.5304
11008SOL     OW44242   6.955   4.421   1.628  0.2205  0.2310  0.1850
11008SOL    HW144243   7.034   4.471   1.592 -0.1114  0.8334  0.3074
11008SOL    HW244244   6.954   4.329   1.587  0.3015  0.6358 -0.7395
11009SOL     OW44245   1.208   7.448   3.994  0.2399 -0.3693  0.2262
11009SOL    HW144246   1.277   7.494   4.050  0.2149 -0.4460  0.3188
11009SOL    HW244247   1.251   7.407   3.914  0.2060  0.1682 -0.0742
11010SOL     OW44248   1.061   6.137   2.111 -0.0444 -0.1547 -0.0471
11010SOL    HW144249   1.059   6.229   2.151  1.2284  0.2407 -0.8505
11010SOL    HW244250   1.054   6.069   2.184  0.5506  0.5780  0.7085
11011SOL     OW44251   8.057   0.523   3.718 -0.5711  0.3962 -0.0346
11011SOL    HW144252   8.125   0.556   3.784 -0.6613  0.3243  0.0955
11011SOL    HW244253   8.090   0.540   3.625 -0.1370 -0.1247  0.0233
11012SOL     OW44254   8.828   3.729   4.097 -0.3485 -0.0911  0.2645
11012SOL    HW144255   8.843   3.803   4.162  0.2704 -0.0450  0.0783
11012SOL    HW244256   8.856   3.643   4.138 -0.2425 -0.1010  0.1726
11013SOL     OW44257   9.653   2.033   5.842 -0.2744 -0.3862 -0.1193
11013SOL    HW144258   9.691   2.116   5.884  0.9623 -0.2369 -1.4994
11013SOL    HW244259   9.671   1.955   5.900  0.5907 -0.0324  0.0991
11014SOL     OW44260   9.952   2.775   5.789 -0.0281 -0.5207 -0.0346
11014SOL    HW144261   9.889   2.699   5.807 -0.0353 -0.8978 -1.6118
11014SOL    HW244262   9.903   2.862   5.800 -0.1055 -0.7390  1.4425
11015SOL     OW44263   9.310   5.104   1.554  0.3972 -0.5619 -0.1250
11015SOL    HW144264   9.327   5.015   1.511 -2.6769 -1.3317  0.1647
11015SOL    HW244265   9.363   5.110   1.638  1.2399 -1.7885 -0.5345
11016SOL     OW44266   4.997   2.301   0.901  0.4038  0.1059 -0.0530
11016SOL    HW144267   5.079   2.246   0.885  1.1336  0.4840  2.1244
11016SOL    HW244268   4.984   2.312   1.000 -2.7998 -0.7306 -0.3236
11017SOL     OW44269   7.381   3.994   2.812  0.6843  0.0298 -0.0032
11017SOL    HW144270   7.344   3.909   2.851 -2.8922  1.6485  0.3095
11017SOL    HW244271   7.387   4.064   2.883  2.1374  0.5354 -0.5983
11018SOL     OW44272   0.780   7.796   5.603  0.4123  0.1767  0.5966
11018SOL    HW144273   0.831   7.882   5.594 -0.3926  0.7124  1.0770
11018SOL    HW244274   0.688   7.808   5.565  0.9716 -1.0882 -1.1891
11019SOL     OW44275   2.119   0.180   3.400  0.4662 -0.3091 -0.0340
11019SOL    HW144276   2.173   0.263   3.416 -1.8489  1.5766 -1.7133
11019SOL    HW244277   2.147   0.139   3.313  1.1481 -0.9244  0.4731
11020SOL     OW44278   2.723   0.201   0.652 -0.0615 -0.3956 -0.0278
11020SOL    HW144279   2.700   0.180   0.747 -0.0111  1.0311  0.3162
11020SOL    HW244280   2.723   0.300   0.639 -0.7555 -0.5946 -1.6942
11021SOL     OW44281   2.391   9.190   3.537 -0.5025  0.5315 -0.0157
11021SOL    HW144282   2.293   9.211   3.539 -0.3173  1.7106 -2.1675
11021SOL    HW244283   2.422   9.184   3.442  0.9088 -2.9013  0.6036
11022SOL     OW44284   3.225   7.822   5.531 -0.3446  0.3021 -0.2804
11022SOL    HW144285   3.291   7.882   5.485  0.1070 -1.5797 -2.1193
11022SOL    HW244286   3.234   7.729   5.497 -0.9481 -0.8940  2.6411
11023SOL     OW44287   1.078   2.173   6.134 -0.2648 -0.3784 -0.7953
11023SOL    HW144288   1.112   2.185   6.040  0.7077 -0.5159 -0.4673
11023SOL    HW244289   1.066   2.075   6.152 -0.8504 -0.3276 -0.9159
11024SOL     OW44290   3.249   4.937   6.174 -0.0986 -0.2146 -0.1824
11024SOL    HW144291   3.274   5.017   6.229 -1.7036 -0.1744  0.5069
11024SOL    HW244292   3.328   4.876   6.166  0.7033  0.7152  0.5277
11025SOL     OW44293   1.424   7.073   3.741 -0.5354  0.6391 -0.1663
11025SOL    HW144294   1.419   6.976   3.717 -0.5512  0.6274 -0.1167
11025SOL    HW244295   1.396   7.127   3.662  1.8105  0.6944 -0.9898
11026SOL     OW44296   9.260   2.177   0.266  0.2841  0.1427 -0.3743
11026SOL    HW144297   9.341   2.229   0.291  0.7189 -0.9278  0.4507
11026SOL    HW244298   9.203   2.232   0.205  1.6064  0.9123 -0.9367
11027SOL     OW44299   7.858   5.538   4.749 -0.3035 -0.3298  0.2904
11027SOL    HW144300   7.923   5.575   4.816  0.6596 -2.4589  0.5734
11027SOL    HW244301   7.896   5.546   4.657 -1.0537  1.3725  0.1083
11028SOL     OW44302   2.623   8.299   6.176 -1.0850 -0.1015 -0.1483
11028SOL    HW144303   2.693   8.302   6.105 -1.4758 -1.1651 -0.6039
11028SOL    HW244304   2.663   8.320   6.265 -0.5517  1.0505 -0.6542
11029SOL     OW44305   2.073   0.444   4.495 -0.1864  1.0809  0.6217
11029SOL    HW144306   2.108   0.429   4.588  1.4033 -0.2815 -0.1811
11029SOL    HW244307   2.063   0.542   4.478  0.0821  1.3599  2.0088
11030SOL     OW44308   4.559   7.425   2.710 -0.2835  0.4671 -0.0756
11030SOL    HW144309   4.549   7.518   2.745  2.6826  0.1454  1.8240
11030SOL    HW244310   4.628   7.424   2.637  0.4754 -0.4184  0.6534
11031SOL     OW44311   3.021   8.819   0.682  0.0770 -0.1016 -0.3252
11031SOL    HW144312   2.950   8.791   0.617 -0.3880  1.1064 -0.3610
11031SOL    HW244313   2.978   8.854   0.765  0.6714 -1.8584  0.7501
11032SOL     OW44314   3.256   5.068   3.144 -0.1757 -0.2966  0.1387
11032SOL    HW144315   3.352   5.094   3.155 -0.4167  0.1604  1.1617
11032SOL    HW244316   3.243   4.975   3.177  0.0945 -0.6933 -0.8465
11033SOL     OW44317   1.289   3.455   3.948 -0.0493 -0.3938  0.1479
11033SOL    HW144318   1.383   3.475   3.976 -1.0581  0.0066  3.4821
11033SOL    HW244319   1.270   3.358   3.960  0.2099 -0.6548 -1.4541
11034SOL     OW44320   8.750   3.297   4.016 -0.0167 -0.0567  0.6006
11034SOL    HW144321   8.724   3.338   3.929 -1.7278  2.0876  2.0446
11034SOL    HW244322   8.850   3.294   4.023  0.1599  2.1632 -0.3734
11035SOL     OW44323   5.009   9.002   3.571  0.6507 -0.1447  0.1105
11035SOL    HW144324   4.944   8.977   3.643 -0.0565 -0.1311 -0.5186
11035SOL    HW244325   5.063   9.080   3.601  1.2564 -0.9442  1.1503
11036SOL     OW44326   6.874   1.573   5.323 -0.1621  0.6650  0.5575
11036SOL    HW144327   6.783   1.537   5.303  0.0697  0.5854 -0.3773
11036SOL    HW244328   6.866   1.659   5.373 -0.7307 -0.3254  2.2214
11037SOL     OW44329   1.934   8.992   6.214  0.0795 -0.4507  0.0676
11037SOL    HW144330   1.855   8.983   6.153 -1.4415  0.9637  1.7575
11037SOL    HW244331   2.012   9.028   6.163 -0.2707 -2.0877 -1.6786
11038SOL     OW44332   8.638   9.229   0.797 -0.4030  0.3992 -0.6356
11038SOL    HW144333   8.691   9.145   0.785 -2.3188 -0.7458 -1.4374
11038SOL    HW244334   8.560   9.210   0.857 -1.3599  1.3632 -1.5558
11039SOL     OW44335   4.827   0.617   1.778 -0.6277 -0.2058  0.2004
11039SOL    HW144336   4.871   0.617   1.867 -2.9334  0.8692  1.3671
11039SOL    HW244337   4.822   0.524   1.743 -0.4979 -0.7412  1.5822
11040SOL     OW44338   8.064   6.211   5.392 -0.2584 -0.4943 -0.3739
11040SOL    HW144339   8.136   6.251   5.449  0.0411 -0.4355 -0.7953
11040SOL    HW244340   8.089   6.219   5.296 -0.4062 -1.2829 -0.4847
11041SOL     OW44341   5.361   1.017   3.735 -0.9711  0.1898 -0.4695
11041SOL    HW144342   5.303   1.061   3.804  2.3328  0.8076  2.0291
11041SOL    HW244343   5.411   1.086   3.683  2.1745 -0.4051  1.6289
11042SOL     OW44344   8.902   8.576   5.914  0.1466 -0.2482  0.1065
11042SOL    HW144345   8.888   8.538   5.823 -1.4793  0.1935  0.1651
11042SOL    HW244346   8.925   8.503   5.978 -0.4159 -0.7769 -0.2978
11043SOL     OW44347   3.286   4.323   5.164  0.0786 -0.5183  0.2699
11043SOL    HW144348   3.325   4.232   5.151  0.7100 -0.2852  0.4860
11043SOL    HW244349   3.355   4.383   5.204 -0.2748  0.1053 -0.0438
11044SOL     OW44350   2.892   3.387   3.001  0.1065 -0.2193  0.4501
11044SOL    HW144351   2.880   3.332   2.918 -0.5908  1.6418 -0.7143
11044SOL    HW244352   2.816   3.452   3.009  1.0799  0.7991  1.6130
11045SOL     OW44353   5.395   5.218   1.556 -0.1658 -0.0616 -0.4724
11045SOL    HW144354   5.386   5.315   1.535 -0.8836 -0.3184 -1.3799
11045SOL    HW244355   5.492   5.195   1.566  0.1756  0.1965 -2.9282
11046SOL     OW44356   0.487   0.044   6.469  0.1950 -0.1758  0.7719
11046SOL    HW144357   0.421   0.103   6.516  0.6998  1.2041 -0.2140
11046SOL    HW244358   0.579   0.084   6.476  0.1066  0.6938 -2.3660
11047SOL     OW44359   8.954   7.139   1.379 -0.0966 -0.9388  0.2581
11047SOL    HW144360   9.044   7.096   1.374 -0.4805 -1.8770  1.2769
11047SOL    HW244361   8.915   7.125   1.470 -0.5884  0.8545  0.3455
11048SOL     OW44362   0.674   0.511   5.082  0.6430  0.1858  0.2083
11048SOL    HW144363   0.757   0.509   5.137  1.1875 -0.4465 -0.6371
11048SOL    HW244364   0.594   0.500   5.142  1.2987 -2.0462  0.6949
11049SOL     OW44365   0.655   4.334   0.074 -0.0540  0.5286 -0.4285
11049SOL    HW144366   0.673   4.313   0.170 -2.8259 -1.1021 -0.2251
11049SOL    HW244367   0.645   4.433   0.063 -0.7337  0.6562  1.1535
11050SOL     OW44368   7.220   8.712   3.443  0.4505  0.4338 -0.3177
11050SOL    HW144369   7.211   8.743   3.348  0.1813  1.0322 -0.1039
11050SOL    HW244370   7.132   8.676   3.474  1.0113 -1.4758 -0.8749
11051SOL     OW44371   1.729   3.860   5.278 -0.1110  1.1762  0.2571
11051SOL    HW144372   1.808   3.913   5.248 -0.3072  0.6676 -1.1544
11051SOL    HW244373   1.656   3.866   5.210  0.3528 -1.9874 -0.6058
11052SOL     OW44374   8.596   0.434   1.790 -0.1599  0.3266 -0.3592
11052SOL    HW144375   8.594   0.360   1.858 -0.5378 -0.8613 -1.6359
11052SOL    HW244376   8.680   0.427   1.737 -0.0825  0.9759 -0.3210
11053SOL     OW44377   8.059   6.126   2.909  0.0103 -0.2104 -0.2905
11053SOL    HW144378   8.117   6.051   2.938  1.3625  1.4348  1.4288
11053SOL    HW244379   8.055   6.196   2.981 -0.4560  1.7875 -2.1664
11054SOL     OW44380   9.803   7.354   0.385 -0.1827  0.1938 -0.1114
11054SOL    HW144381   9.775   7.394   0.472  0.3312 -0.0397  0.1614
11054SOL    HW244382   9.744   7.277   0.363 -2.2653  2.1027 -1.4562
11055SOL     OW44383   8.902   6.309   4.291 -0.3141 -0.3409  0.5078
11055SOL    HW144384   8.995   6.297   4.256 -0.9242 -0.2751 -1.1353
11055SOL    HW244385   8.903   6.380   4.362  0.4218  1.7330 -1.5119
11056SOL     OW44386   8.447   6.338   6.716  0.2575 -0.1333 -0.7558
11056SOL    HW144387   8.415   6.277   6.788  0.1591  0.2372 -0.4825
11056SOL    HW244388   8.368   6.376   6.667  0.3305 -0.4922 -1.1496
11057SOL     OW44389   7.359   0.401   0.572  0.1502  0.1992 -0.3915
11057SOL    HW144390   7.356   0.353   0.484 -0.2672 -0.9292  0.2167
11057SOL    HW244391   7.450   0.389   0.613  0.7021  1.6595 -1.1651
11058SOL     OW44392   1.540   6.102   1.137  0.9137 -0.3407 -0.0761
11058SOL    HW144393   1.525   6.167   1.211  0.9347 -0.6208  0.1760
11058SOL    HW244394   1.519   6.145   1.049 -0.0581 -0.3179  0.1671
11059SOL     OW44395   4.091   3.851   6.379  0.5482  0.2393  0.2017
11059SOL    HW144396   4.141   3.885   6.459 -0.6281  2.0053  0.2241
11059SOL    HW244397   4.032   3.924   6.344 -0.8668 -1.3370 -0.7309
11060SOL     OW44398   1.095   8.444   2.577 -0.6297  0.1598 -0.4730
11060SOL    HW144399   1.078   8.385   2.498 -0.3618  1.2848 -1.3787
11060SOL    HW244400   1.041   8.527   2.568  0.0916  0.6933  0.0793
11061SOL     OW44401   2.801   6.054   5.723  0.3172 -0.3206  0.5852
11061SOL    HW144402   2.869   6.126   5.709 -0.0657  0.7175  3.7137
11061SOL    HW244403   2.815   5.981   5.655  0.6685  2.6759 -2.7010
11062SOL     OW44404   0.064   2.117   2.130  0.2456 -0.3969  0.1228
11062SOL    HW144405  -0.031   2.144   2.145 -0.0991 -1.4800 -0.0305
11062SOL    HW244406   0.082   2.113   2.032  0.3128 -0.6377  0.1448
11063SOL     OW44407   0.248   4.843   1.817 -0.2718  0.0698 -0.5217
11063SOL    HW144408   0.280   4.934   1.841 -0.9086  0.4137 -0.9703
11063SOL    HW244409   0.317   4.796   1.763  0.0592  0.2796 -0.2818
11064SOL     OW44410   4.352   9.017   1.287 -0.4762 -0.0873 -0.1699
11064SOL    HW144411   4.306   8.985   1.205  0.8476 -0.1517 -0.8895
11064SOL    HW244412   4.339   8.950   1.361  1.6382 -1.9380 -1.4390
11065SOL     OW44413   3.251   2.647   1.781 -0.1226  0.2376  0.2032
11065SOL    HW144414   3.276   2.741   1.804  0.5284 -0.4173  2.3392
11065SOL    HW244415   3.261   2.632   1.683  2.1111  1.6967  0.1784
11066SOL     OW44416   0.484   4.276   3.039  1.0758  0.3428  0.5564
11066SOL    HW144417   0.427   4.211   2.988  1.0618  0.4450  0.4405
11066SOL    HW244418   0.544   4.324   2.974 -0.0855  1.6465  0.4287
11067SOL     OW44419   4.229   2.631   1.684 -0.0283 -0.1840 -0.1968
11067SOL    HW144420   4.284   2.580   1.619  2.5083  0.0350  1.7081
11067SOL    HW244421   4.236   2.729   1.666  0.8624 -0.1084  0.5121
11068SOL     OW44422   9.707   0.044   2.396 -0.6173 -0.6724 -0.3523
11068SOL    HW144423   9.751   0.003   2.476 -1.1851  2.0828  1.4490
11068SOL    HW244424   9.776   0.081   2.335 -0.3170  1.3402  1.1830
11069SOL     OW44425   7.422   6.326   4.347  0.1735 -0.4658  0.2060
11069SOL    HW144426   7.337   6.284   4.380 -1.0775  0.9446 -1.0876
11069SOL    HW244427   7.425   6.422   4.376  0.7762 -0.1967 -0.7260
11070SOL     OW44428   7.203   4.525   5.050  0.5757 -0.1168 -0.0085
11070SOL    HW144429   7.239   4.571   5.132 -0.7500  0.5559  0.2189
11070SOL    HW244430   7.204   4.589   4.973 -2.7593  0.9187  0.6799
11071SOL     OW44431   6.801   7.161   4.553  0.3797 -0.4181  0.5242
11071SOL    HW144432   6.856   7.078   4.563 -1.3341 -1.3781  2.4210
11071SOL    HW244433   6.837   7.232   4.614  0.9915 -0.2288 -0.0524
11072SOL     OW44434   4.082   2.302   1.756  0.7574  0.1483  0.0287
11072SOL    HW144435   4.041   2.272   1.843  1.6400  1.5212  0.9428
11072SOL    HW244436   4.063   2.235   1.685 -1.6851 -0.0373  0.8196
11073SOL     OW44437   1.692   3.337   4.358  0.0930  0.1916  0.5678
11073SOL    HW144438   1.594   3.331   4.373 -0.0401 -1.1076 -0.6351
11073SOL    HW244439   1.730   3.245   4.353  1.6700  0.6986  2.8146
11074SOL     OW44440   9.109   5.005   1.849 -0.8682  0.0083  0.1015
11074SOL    HW144441   9.046   4.981   1.924 -0.2762  0.7583  0.8527
11074SOL    HW244442   9.160   4.924   1.821 -2.2286 -0.6313 -0.5719
11075SOL     OW44443   3.759   0.218   3.735  0.4814 -0.0033 -0.9920
11075SOL    HW144444   3.737   0.120   3.727 -1.5525  0.4610 -1.1929
11075SOL    HW244445   3.836   0.239   3.674  0.5007 -1.3519 -1.4521
11076SOL     OW44446   9.337   3.192   1.695 -1.1023  0.2373 -0.2717
11076SOL    HW144447   9.334   3.141   1.781 -1.4364  0.2718 -0.2640
11076SOL    HW244448   9.431   3.223   1.678 -1.1313  0.6733  0.3423
11077SOL     OW44449   8.710   8.554   0.489 -0.3641 -0.2410 -0.2337
11077SOL    HW144450   8.676   8.460   0.503 -1.4598  0.1493 -0.2259
11077SOL    HW244451   8.663   8.594   0.410  0.8761 -0.0626 -0.8844
11078SOL     OW44452   8.300   3.265   0.254 -0.3224  0.4025  0.1983
11078SOL    HW144453   8.221   3.204   0.246 -0.9686  1.0712  1.3742
11078SOL    HW244454   8.377   3.225   0.204 -0.3058 -2.0817  2.1034
11079SOL     OW44455   7.143   3.756   1.480  0.2159  0.0388  0.0205
11079SOL    HW144456   7.084   3.822   1.526  1.1332  0.6082  0.3740
11079SOL    HW244457   7.146   3.777   1.382 -0.7557 -0.4437 -0.1262
11080SOL     OW44458   9.537   8.966   2.444  0.0680 -0.1630  0.3233
11080SOL    HW144459   9.593   8.924   2.515  0.4409 -0.6617 -0.2552
11080SOL    HW244460   9.596   9.014   2.379 -0.2575  0.1703  0.2715
11081SOL     OW44461   7.865   0.476   5.604  0.5584  0.3543 -0.5750
11081SOL    HW144462   7.822   0.512   5.521  1.5044  1.6342 -0.5357
11081SOL    HW244463   7.803   0.413   5.650 -0.6113  0.9099 -1.3796
11082SOL     OW44464   7.086   2.328   1.938 -0.3582  0.1583 -0.3298
11082SOL    HW144465   7.067   2.351   1.842  0.2533  2.2588  0.0284
11082SOL    HW244466   7.185   2.331   1.954 -0.4763  0.0466  0.4350
11083SOL     OW44467   7.607   3.445   1.406  0.6744 -0.2117 -0.1254
11083SOL    HW144468   7.645   3.353   1.404  0.2279 -0.4373  1.1013
11083SOL    HW244469   7.587   3.475   1.313  3.6386 -0.1457 -0.7766
11084SOL     OW44470   1.758   5.291   0.154 -0.3649 -0.6134  0.0983
11084SOL    HW144471   1.781   5.385   0.128 -0.8747 -0.7283 -0.7865
11084SOL    HW244472   1.710   5.292   0.242  0.5026 -0.1373  0.5781
11085SOL     OW44473   1.487   1.721   5.742 -0.2668 -0.0310 -0.0296
11085SOL    HW144474   1.483   1.816   5.712 -1.6505 -1.2667 -4.2431
11085SOL    HW244475   1.407   1.699   5.797 -1.0124  0.7603 -0.7891
11086SOL     OW44476   2.618   7.123   0.555 -0.5203 -0.0497  0.2803
11086SOL    HW144477   2.695   7.151   0.498 -1.6869  0.4133 -1.1074
11086SOL    HW244478   2.651   7.097   0.645  1.0416  2.1301  0.3871
11087SOL     OW44479   0.989   2.144   2.211  0.0166 -0.5261 -0.6916
11087SOL    HW144480   1.021   2.195   2.131  0.1415 -0.3996 -0.5634
11087SOL    HW244481   1.068   2.104   2.258  0.1206  0.8189  0.3298
11088SOL     OW44482   7.818   6.263   1.284 -0.0198  0.0989 -0.0478
11088SOL    HW144483   7.918   6.262   1.280 -0.0306 -0.3760 -0.2024
11088SOL    HW244484   7.787   6.213   1.364 -0.1485 -0.1953 -0.2789
11089SOL     OW44485   8.978   9.642   3.640 -0.0154 -0.2139  0.4858
11089SOL    HW144486   9.038   9.714   3.606 -1.8322  1.3309  0.4370
11089SOL    HW244487   8.997   9.557   3.592  1.7985  0.3542  0.1552
11090SOL     OW44488   2.028   6.128   0.648 -0.4231 -0.0173  0.0903
11090SOL    HW144489   2.049   6.132   0.746  1.2227 -1.0757 -0.1921
11090SOL    HW244490   2.113   6.132   0.596 -1.3859  2.1167 -1.3762
11091SOL     OW44491   0.755   9.576   0.000 -0.1121  0.2354 -0.0368
11091SOL    HW144492   0.855   9.566  -0.004 -0.1528 -0.3592  0.3868
11091SOL    HW244493   0.731   9.673  -0.001  0.5672  0.4469  1.7953
11092SOL     OW44494   8.608   4.271   6.055 -0.1618 -0.7182 -0.1105
11092SOL    HW144495   8.596   4.335   6.130  0.4437 -1.5275  0.6727
11092SOL    HW244496   8.702   4.275   6.021 -0.5652  0.0194 -1.1737
11093SOL     OW44497   8.659   7.227   5.233 -0.0742 -0.6792  0.4047
11093SOL    HW144498   8.696   7.287   5.305 -0.6906  1.4362 -0.9930
11093SOL    HW244499   8.578   7.180   5.268  0.3289 -0.5833  1.4937
11094SOL     OW44500   2.431   9.129   2.925  0.2091 -0.1160  0.1117
11094SOL    HW144501   2.480   9.203   2.971  0.8395  0.2620 -1.1471
11094SOL    HW244502   2.351   9.166   2.879  0.6795 -0.1467 -0.7559
11095SOL     OW44503   2.284   1.607   1.832  0.5989  0.0979 -0.4399
11095SOL    HW144504   2.218   1.672   1.870  1.8323  0.3432  1.3728
11095SOL    HW244505   2.308   1.633   1.739 -1.0042  0.6420 -0.7087
11096SOL     OW44506   0.374   8.726   1.766  0.0521 -0.0037  0.2590
11096SOL    HW144507   0.337   8.760   1.680  1.7900 -0.6325 -0.7580
11096SOL    HW244508   0.304   8.731   1.837 -1.4397  0.3623 -1.2258
11097SOL     OW44509   4.119   2.063   2.180 -0.4173  0.0409 -0.2100
11097SOL    HW144510   4.051   2.073   2.252 -0.5307 -1.6528 -0.0645
11097SOL    HW244511   4.171   1.979   2.194 -0.2474 -0.1679 -1.9534
11098SOL     OW44512   5.684   9.561   2.743 -0.2211  0.6130  0.2273
11098SOL    HW144513   5.683   9.505   2.660 -1.6597  1.2855 -0.2142
11098SOL    HW244514   5.734   9.513   2.814 -0.8175 -0.9225 -0.3664
11099SOL     OW44515   2.429   0.012   5.297 -0.3412  0.5415  0.0715
11099SOL    HW144516   2.442   0.079   5.224  1.1239  0.4939  0.2613
11099SOL    HW244517   2.446   0.055   5.386 -1.7368  0.5062  0.3677
11100SOL     OW44518   3.849   3.956   3.121 -0.0417 -0.3077 -0.2929
11100SOL    HW144519   3.876   3.887   3.053 -0.3992 -0.2140 -0.5330
11100SOL    HW244520   3.756   3.987   3.101 -0.2439 -0.4679  0.3892
11101SOL     OW44521   0.601   5.115   2.755  0.4615  0.9125 -0.2559
11101SOL    HW144522   0.684   5.167   2.774  1.1175  0.6274 -2.2702
11101SOL    HW244523   0.625   5.018   2.742 -0.3156  0.6774  0.0347
11102SOL     OW44524   4.931   9.342   5.452  0.2427  0.0080  0.4141
11102SOL    HW144525   4.979   9.413   5.503 -0.0257  0.7413 -0.3518
11102SOL    HW244526   4.851   9.381   5.407 -0.0003 -0.8144  0.1170
11103SOL     OW44527   2.360   8.618   6.504 -0.3600  0.5135 -0.3494
11103SOL    HW144528   2.300   8.650   6.578 -1.0043  1.9004 -1.4581
11103SOL    HW244529   2.310   8.551   6.448  0.3805 -1.1169  0.8865
11104SOL     OW44530   1.276   2.104   1.249 -0.2920  0.3415  0.0541
11104SOL    HW144531   1.251   2.115   1.153 -0.8699  1.0179  0.2824
11104SOL    HW244532   1.262   2.009   1.277  0.9115 -0.1121 -0.8210
11105SOL     OW44533   7.230   9.989   5.889 -0.7335  0.3987  0.3481
11105SOL    HW144534   7.201   9.916   5.827 -0.7860 -0.4162  1.3102
11105SOL    HW244535   7.154  10.053   5.902 -0.2925  1.3239 -1.4632
11106SOL     OW44536   5.130   6.808   2.309 -0.1589  0.0381 -0.5389
11106SOL    HW144537   5.115   6.893   2.258 -0.4530 -0.9861 -2.1927
11106SOL    HW244538   5.166   6.830   2.400 -0.2787  1.9319 -0.9243
11107SOL     OW44539   2.728   3.560   0.112 -0.5515 -0.0738  0.2466
11107SOL    HW144540   2.720   3.647   0.064 -1.5498  0.1748  0.8421
11107SOL    HW244541   2.640   3.511   0.109 -0.5646 -0.1652  1.5820
11108SOL     OW44542   0.996   0.773   1.541  0.3057 -0.1957  0.0809
11108SOL    HW144543   0.934   0.800   1.468  1.6118 -0.3497 -1.0980
11108SOL    HW244544   1.084   0.746   1.502  1.2303  0.3325  1.7588
11109SOL     OW44545   8.993   6.238   4.969  0.4010  0.2681  1.0951
11109SOL    HW144546   8.902   6.197   4.978  1.2015 -1.3950  1.8416
11109SOL    HW244547   9.056   6.172   4.928  1.2813  1.3928  0.6127
11110SOL     OW44548   3.323   2.088   3.726 -0.5375 -0.1667  0.5537
11110SOL    HW144549   3.338   2.143   3.808 -1.6137  0.7292  0.1662
11110SOL    HW244550   3.225   2.086   3.706 -0.2920 -0.5073 -0.6159
11111SOL     OW44551   0.383   9.401   3.249 -0.3369 -0.0702  0.2703
11111SOL    HW144552   0.294   9.430   3.284 -1.1957 -1.8605 -0.3584
11111SOL    HW244553   0.387   9.418   3.150 -1.0045 -2.4091 -0.1765
11112SOL     OW44554   4.136   0.150   1.596  0.0108 -0.4648  0.0165
11112SOL    HW144555   4.087   0.093   1.530  1.1566 -1.3923 -0.0326
11112SOL    HW244556   4.169   0.233   1.551  0.0303 -0.6819 -0.3652
11113SOL     OW44557   8.429   1.308   0.336 -0.8929 -0.6031  0.1886
11113SOL    HW144558   8.409   1.304   0.238  0.3601  0.6016 -0.1277
11113SOL    HW244559   8.515   1.261   0.354 -0.9427 -0.5154  0.6744
11114SOL     OW44560   9.538   2.151   6.505 -0.4376  0.0777  0.6009
11114SOL    HW144561   9.528   2.061   6.547 -0.2170 -0.3713 -0.3081
11114SOL    HW244562   9.635   2.169   6.489 -0.3506  1.0953  2.1156
11115SOL     OW44563   5.305   0.175   1.045 -0.1490 -0.1180 -0.5148
11115SOL    HW144564   5.403   0.169   1.025  0.2253 -1.1722  1.5288
11115SOL    HW244565   5.290   0.165   1.144 -2.3864 -0.7127 -0.8865
11116SOL     OW44566   4.556   8.847   4.324  0.1540 -0.6916  0.4560
11116SOL    HW144567   4.641   8.804   4.353 -0.8597 -2.0282  1.4991
11116SOL    HW244568   4.569   8.890   4.235  2.0879 -0.3220  0.8986
11117SOL     OW44569   4.177   8.454   5.877 -0.0232  0.1974  0.3754
11117SOL    HW144570   4.250   8.456   5.808 -0.5794  1.1217 -0.1912
11117SOL    HW244571   4.195   8.379   5.941  0.9389 -0.1593 -0.2860
11118SOL     OW44572   3.520   1.074   0.162  0.9002 -0.1743  0.3229
11118SOL    HW144573   3.454   1.131   0.212  0.6390  0.3110 -0.5659
11118SOL    HW244574   3.487   0.980   0.159 -1.2677  0.5921 -2.6551
11119SOL     OW44575   8.360   3.981   5.420 -0.5826  0.2633  0.3764
11119SOL    HW144576   8.411   3.956   5.503 -0.1931  0.2278  0.1278
11119SOL    HW244577   8.415   4.043   5.365 -0.3142 -0.7303 -0.4796
11120SOL     OW44578   0.041   4.559   6.105 -0.1391 -0.1241  0.1591
11120SOL    HW144579   0.115   4.538   6.041 -1.6798  1.5245 -2.2544
11120SOL    HW244580  -0.042   4.511   6.077 -1.9995  3.9086 -1.7032
11121SOL     OW44581   3.413   9.174   1.266 -0.3980  0.2104 -0.0295
11121SOL    HW144582   3.362   9.089   1.258 -1.4027  0.8195 -0.1771
11121SOL    HW244583   3.377   9.228   1.342  1.2506 -0.1761  1.0626
11122SOL     OW44584   9.159   4.623   3.513 -0.3394  0.3584 -0.5405
11122SOL    HW144585   9.073   4.654   3.473 -1.1446 -0.5765  0.4460
11122SOL    HW244586   9.223   4.700   3.517 -1.3517  1.2220 -0.6596
11123SOL     OW44587   0.655   5.710   6.004  0.1634  0.4399  0.3792
11123SOL    HW144588   0.640   5.692   6.101 -1.4944  2.0770  0.4508
11123SOL    HW244589   0.752   5.732   5.989  0.2070  1.3084  1.8466
11124SOL     OW44590   8.647   3.334   5.613 -0.3277  0.0485 -0.2462
11124SOL    HW144591   8.608   3.363   5.701  1.3200  1.3359  0.0746
11124SOL    HW244592   8.746   3.329   5.621 -0.1965 -0.1785 -1.9404
11125SOL     OW44593   9.526   8.899   6.034  0.2385  0.0220  0.3908
11125SOL    HW144594   9.595   8.969   6.054  0.0090  0.2686  0.3252
11125SOL    HW244595   9.572   8.812   6.016  0.6994  0.6827 -1.8850
11126SOL     OW44596   5.083   0.161   4.405 -0.3599  0.4366  1.0430
11126SOL    HW144597   5.132   0.106   4.337 -1.9772 -1.2911  1.1989
11126SOL    HW244598   5.100   0.258   4.389  0.9935 -0.0334 -0.4945
11127SOL     OW44599   4.315   3.978   0.258 -0.1288  0.4543  0.0066
11127SOL    HW144600   4.234   3.928   0.228 -0.9129  1.0525  1.0912
11127SOL    HW244601   4.305   4.075   0.236  1.5015  0.1359 -2.3246
11128SOL     OW44602   8.925   7.678   2.388  0.1677  0.2752 -0.4415
11128SOL    HW144603   8.859   7.605   2.369  0.4334 -0.3896  1.1463
11128SOL    HW244604   9.013   7.655   2.346 -0.0781  0.2724 -0.9637
11129SOL     OW44605   1.074   5.239   4.252  0.2950 -0.9854  0.0614
11129SOL    HW144606   1.080   5.335   4.279 -0.5023 -1.1184  0.7085
11129SOL    HW244607   1.008   5.229   4.178  0.2541 -1.0618  0.1076
11130SOL     OW44608   7.556   0.779   1.060  0.2582 -0.0408 -0.0795
11130SOL    HW144609   7.598   0.774   1.151 -1.8589 -0.0691  0.9181
11130SOL    HW244610   7.554   0.688   1.019 -1.7148 -0.6239  1.2271
11131SOL     OW44611   9.995   7.098   3.733  0.4108 -0.1633 -0.0732
11131SOL    HW144612   9.926   7.048   3.681  0.2520 -0.2325  0.2045
11131SOL    HW244613  10.050   7.154   3.671  1.4338 -1.6702 -0.5478
11132SOL     OW44614   8.151   1.832   6.330 -0.2009  0.1793 -0.2122
11132SOL    HW144615   8.165   1.822   6.428 -0.1848 -1.9619 -0.4218
11132SOL    HW244616   8.054   1.817   6.309  0.3055 -2.4062 -0.8627
11133SOL     OW44617   9.110   4.953   4.895  0.5562  0.1196  0.1500
11133SOL    HW144618   9.054   4.932   4.975  0.5235 -0.9809 -0.1615
11133SOL    HW244619   9.125   4.870   4.841  1.6359  0.6065 -0.3119
11134SOL     OW44620   9.693   6.938   2.549 -0.0661 -0.0523  0.1869
11134SOL    HW144621   9.660   6.946   2.455  0.9448 -1.3851 -0.3035
11134SOL    HW244622   9.779   6.886   2.550  1.9240  3.0808  1.4371
11135SOL     OW44623   2.998   3.174   1.384  0.5618 -0.0876 -0.2437
11135SOL    HW144624   2.973   3.200   1.290 -0.6881  1.3664  0.4677
11135SOL    HW244625   2.922   3.124   1.426  0.0219  1.6398  0.8891
11136SOL     OW44626   2.384   2.838   4.520 -0.3379 -0.7532 -0.3077
11136SOL    HW144627   2.461   2.779   4.543 -1.0895 -1.7178 -0.2775
11136SOL    HW244628   2.415   2.934   4.519  0.3673 -0.9262  1.8736
11137SOL     OW44629   5.364   9.140   4.186  0.4290  0.2804  0.0966
11137SOL    HW144630   5.368   9.069   4.116 -0.9171  0.1112  0.1768
11137SOL    HW244631   5.268   9.157   4.211  0.7773  1.6143  0.5879
11138SOL     OW44632   2.713   4.893   0.404  0.3334  0.0788  0.2410
11138SOL    HW144633   2.796   4.864   0.452  0.4288  0.3227  0.2249
11138SOL    HW244634   2.683   4.819   0.343 -0.3842 -0.6361  1.4388
11139SOL     OW44635   9.098   0.336   3.455 -0.2241 -0.0591  0.0418
11139SOL    HW144636   9.066   0.379   3.539  0.4682  0.3432  0.0985
11139SOL    HW244637   9.172   0.390   3.415 -0.8396 -0.0138 -1.0611
11140SOL     OW44638   7.263   3.272   3.377 -0.5276 -0.8302  0.3437
11140SOL    HW144639   7.332   3.210   3.340  0.6278 -0.1788  1.3771
11140SOL    HW244640   7.201   3.222   3.438 -0.0139 -1.1015  0.6400
11141SOL     OW44641   0.571   8.995   4.713  0.9212  0.9085  0.7928
11141SOL    HW144642   0.559   9.038   4.623 -1.2195  0.8851  1.0461
11141SOL    HW244643   0.483   8.989   4.760  1.2041 -3.4294  0.9640
11142SOL     OW44644   9.210   3.367   0.685  0.3737  0.2804 -0.2740
11142SOL    HW144645   9.266   3.387   0.766  0.8942  0.1267 -0.6006
11142SOL    HW244646   9.124   3.418   0.692  0.9471  1.2596 -0.2334
11143SOL     OW44647   7.348   8.727   5.171 -0.2057 -0.5290  0.1385
11143SOL    HW144648   7.317   8.733   5.076  1.2738 -0.4180 -0.3525
11143SOL    HW244649   7.281   8.676   5.225 -2.3942  1.7327 -0.3546
11144SOL     OW44650   5.103   5.625   2.261  0.7079  0.5629  0.5515
11144SOL    HW144651   5.022   5.567   2.266  1.9060 -1.1998  0.0492
11144SOL    HW244652   5.124   5.662   2.352 -1.0033  1.5446  0.5612
11145SOL     OW44653   7.197   1.065   1.716  0.4682 -0.5473  0.2391
11145SOL    HW144654   7.130   1.111   1.657  0.2670 -1.6086 -0.3659
11145SOL    HW244655   7.150   1.011   1.785  0.6756 -1.9321 -0.6820
11146SOL     OW44656   3.262   3.265   2.376  0.3319 -0.0880  0.7531
11146SOL    HW144657   3.347   3.286   2.327 -0.2204  0.4643  0.0223
11146SOL    HW244658   3.199   3.342   2.367 -0.7385 -1.0243  0.2272
11147SOL     OW44659   0.767   6.555   4.663  0.0939 -0.5399 -0.2727
11147SOL    HW144660   0.804   6.591   4.577  1.3844 -1.1950 -0.0074
11147SOL    HW244661   0.757   6.456   4.657  0.5362 -0.6385  0.4442
11148SOL     OW44662   6.980   9.831   3.170 -0.7312 -0.3298  0.7220
11148SOL    HW144663   6.901   9.772   3.184 -1.7287  0.9167  0.3995
11148SOL    HW244664   6.990   9.850   3.072 -1.5680  1.5782  0.9925
11149SOL     OW44665   7.451   1.452   2.145  0.0561 -0.3340 -0.7347
11149SOL    HW144666   7.514   1.522   2.113  0.8472 -0.7795 -0.1592
11149SOL    HW244667   7.466   1.435   2.243 -0.4146 -1.0073 -0.7732
11150SOL     OW44668   9.904   8.579   3.505  0.1294 -0.1214  0.3036
11150SOL    HW144669   9.908   8.554   3.408 -1.1366  0.9603 -0.0516
11150SOL    HW244670   9.988   8.552   3.551  0.8153 -0.4663 -1.1474
11151SOL     OW44671   5.378   7.579   2.643  0.1284 -0.1882 -0.5223
11151SOL    HW144672   5.431   7.574   2.728 -0.1732 -2.2496 -0.4188
11151SOL    HW244673   5.418   7.518   2.575 -0.8672 -0.1612 -1.1419
11152SOL     OW44674   1.922   4.371   1.814  0.2438  0.2867 -0.0525
11152SOL    HW144675   1.970   4.396   1.899 -0.0204  0.4692  0.0437
11152SOL    HW244676   1.963   4.421   1.738  1.0866 -0.5834 -0.1698
11153SOL     OW44677   7.072   7.881   2.614  0.5167  0.2916  0.4115
11153SOL    HW144678   6.986   7.932   2.616  0.7002  0.5814  2.0096
11153SOL    HW244679   7.148   7.944   2.597  0.2186 -0.3345 -3.8487
11154SOL     OW44680   0.603   6.744   4.333 -0.6512 -0.2077 -0.2207
11154SOL    HW144681   0.564   6.703   4.416  1.3879 -0.3563  0.6990
11154SOL    HW244682   0.545   6.722   4.255 -0.4864 -3.5728  0.4994
11155SOL     OW44683   5.782   0.967   2.477  0.3294 -0.2983  0.3657
11155SOL    HW144684   5.787   0.870   2.452  1.9975 -0.2066  0.3228
11155SOL    HW244685   5.686   0.997   2.474 -0.3809 -2.2811  1.6667
11156SOL     OW44686   8.231   1.141   6.116 -0.3079  0.2646 -0.3413
11156SOL    HW144687   8.147   1.174   6.072 -0.7602 -0.3014  0.0833
11156SOL    HW244688   8.208   1.069   6.182  0.6464 -0.7438 -1.0918
11157SOL     OW44689   3.405   3.860   2.506  0.3249 -0.5958  0.8924
11157SOL    HW144690   3.362   3.949   2.496 -0.8796 -1.3977 -1.5733
11157SOL    HW244691   3.499   3.864   2.471 -0.2372 -0.6521 -0.6492
11158SOL     OW44692   7.482   6.687   5.633  0.4564  0.1514  0.9397
11158SOL    HW144693   7.487   6.611   5.697  0.7402 -0.9415 -0.3404
11158SOL    HW244694   7.392   6.730   5.638 -0.5062 -1.6913  0.1233
11159SOL     OW44695   2.316   4.369   2.774  0.4704  0.2401 -0.3194
11159SOL    HW144696   2.359   4.386   2.685  0.9348 -2.2004 -0.5777
11159SOL    HW244697   2.386   4.348   2.842 -0.1078 -1.3279 -0.1828
11160SOL     OW44698   3.455   2.216   0.255 -0.4328  0.1365 -0.2784
11160SOL    HW144699   3.436   2.312   0.235 -0.5645  0.3550  0.8788
11160SOL    HW244700   3.379   2.160   0.222 -2.6472  0.9008  3.2620
11161SOL     OW44701   8.445   3.967   0.089 -0.1493 -0.0997 -0.1909
11161SOL    HW144702   8.453   3.936   0.184 -0.2346  0.4075 -0.0150
11161SOL    HW244703   8.366   4.029   0.081  0.8773  1.2102 -0.2387
11162SOL     OW44704   8.596   5.191   6.512 -0.3476  0.3143 -0.0130
11162SOL    HW144705   8.594   5.291   6.519 -1.4414  0.5222 -2.7429
11162SOL    HW244706   8.566   5.164   6.421 -2.0492 -2.6210  1.3633
11163SOL     OW44707   8.474   5.837   0.875  0.0404  0.0786  0.3570
11163SOL    HW144708   8.463   5.769   0.948  1.9017 -1.5641 -0.8370
11163SOL    HW244709   8.539   5.802   0.807 -0.0895  2.4621 -1.0252
11164SOL     OW44710   7.567   6.965   0.984  0.3937  0.3684 -0.3394
11164SOL    HW144711   7.572   6.877   1.032  1.1691 -0.5383 -2.0490
11164SOL    HW244712   7.545   7.037   1.050  3.6497 -0.4832  1.7711
11165SOL     OW44713   2.792   0.319   0.198  0.2545 -0.4903  0.8748
11165SOL    HW144714   2.706   0.284   0.235 -0.3211 -0.4935 -0.4619
11165SOL    HW244715   2.781   0.339   0.101  0.6932  2.9887  1.4835
11166SOL     OW44716   3.922   4.266   3.105 -0.1573 -0.1800 -0.6376
11166SOL    HW144717   3.855   4.193   3.115  2.2692 -2.3948  0.0552
11166SOL    HW244718   3.923   4.323   3.187 -1.9068  0.5341 -1.0951
11167SOL     OW44719   6.646   0.937   0.178 -0.3303 -0.0994  0.0330
11167SOL    HW144720   6.667   0.840   0.165  1.6793  0.2465  0.5539
11167SOL    HW244721   6.635   0.981   0.088 -0.7292 -0.6920 -0.2114
11168SOL     OW44722   9.475   4.367   5.122  0.3616 -0.9272 -0.2255
11168SOL    HW144723   9.517   4.277   5.113  0.0085 -1.4442  2.7632
11168SOL    HW244724   9.522   4.419   5.193 -0.6599  0.5355 -0.5874
11169SOL     OW44725   8.845   8.048   5.165 -0.0787  0.3041  0.0732
11169SOL    HW144726   8.774   8.082   5.103  1.2024  0.1989 -1.4733
11169SOL    HW244727   8.872   8.121   5.228 -1.8522  0.2195  0.9634
11170SOL     OW44728   8.896   1.379   6.678  0.3327  0.1323  0.4482
11170SOL    HW144729   8.827   1.424   6.621  1.1194 -1.7047 -2.0883
11170SOL    HW244730   8.956   1.448   6.718 -0.9146  1.5538 -0.0684
11171SOL     OW44731   2.444   9.880   3.507  0.0452  0.1151 -0.1572
11171SOL    HW144732   2.439   9.782   3.524 -1.1804 -0.2189 -2.3281
11171SOL    HW244733   2.435   9.899   3.409  0.4907  2.3837  0.1925
11172SOL     OW44734   3.289   6.315   1.890 -0.5823 -0.2071 -0.0215
11172SOL    HW144735   3.335   6.345   1.806  1.1279 -2.1695  0.1627
11172SOL    HW244736   3.338   6.352   1.969 -0.9479 -0.0622  0.1338
11173SOL     OW44737   6.474   1.723   2.251  0.1773 -0.2069  0.2477
11173SOL    HW144738   6.540   1.649   2.237 -2.7468 -2.8615 -0.0097
11173SOL    HW244739   6.425   1.708   2.337 -2.6051 -0.3057 -1.3160
11174SOL     OW44740   2.445   4.711   4.877  0.3154  0.4454  0.4145
11174SOL    HW144741   2.480   4.654   4.951  0.6000 -0.0911 -0.1274
11174SOL    HW244742   2.513   4.715   4.804  0.1276  1.1531  0.2734
11175SOL     OW44743   8.965   1.346   2.190  0.2166 -0.4377  0.5985
11175SOL    HW144744   9.004   1.422   2.243 -2.4200 -0.1418  2.1962
11175SOL    HW244745   8.903   1.293   2.248 -3.1789  0.1934 -2.3089
11176SOL     OW44746   3.634   8.168   0.889 -0.3773 -0.1027 -0.1920
11176SOL    HW144747   3.561   8.167   0.957 -1.2091  0.7011 -1.0563
11176SOL    HW244748   3.653   8.263   0.862 -0.8249 -0.4607 -1.8634
11177SOL     OW44749   7.218   1.273   5.458  0.0259  0.2267  0.4933
11177SOL    HW144750   7.190   1.367   5.440 -1.6180 -0.4369 -0.5104
11177SOL    HW244751   7.318   1.267   5.454  0.1139  1.7836 -0.0870
11178SOL     OW44752   5.439   2.245   2.486 -0.3398 -0.2571 -0.6056
11178SOL    HW144753   5.387   2.160   2.480 -0.3127 -0.3935  0.9281
11178SOL    HW244754   5.434   2.281   2.579  0.8229  0.6764 -0.8894
11179SOL     OW44755   7.192   0.055   4.728  0.3264 -0.0734 -0.1265
11179SOL    HW144756   7.146   0.051   4.816  0.2306 -1.1932 -0.2250
11179SOL    HW244757   7.178   0.146   4.687  1.0355  0.7273  1.3542
11180SOL     OW44758   7.725   0.064   0.787  0.4565  0.2623  0.6051
11180SOL    HW144759   7.814   0.101   0.811  1.0222 -1.3341  1.0389
11180SOL    HW244760   7.732   0.009   0.704  0.0249 -0.3743  0.9770
11181SOL     OW44761   2.062   4.495   5.407  0.1084  0.2330  0.5168
11181SOL    HW144762   1.980   4.463   5.455  1.0660 -1.6271  0.9457
11181SOL    HW244763   2.044   4.497   5.308 -0.1143 -1.2766  0.5094
11182SOL     OW44764   0.084   3.147   5.142  0.2557 -0.8946 -0.0027
11182SOL    HW144765   0.150   3.100   5.201  0.4732 -1.4663 -0.7000
11182SOL    HW244766  -0.009   3.114   5.162  0.0458  0.5725  1.6294
11183SOL     OW44767   0.034   5.040   2.129 -0.6025 -0.4442  0.0060
11183SOL    HW144768   0.125   5.055   2.167  0.0200 -0.6330 -1.3872
11183SOL    HW244769  -0.012   5.128   2.116 -0.4659 -0.3237  0.3438
11184SOL     OW44770   6.965   1.268   6.341  0.1057 -0.2926  0.0042
11184SOL    HW144771   6.870   1.259   6.373 -0.1705  0.0140 -0.7128
11184SOL    HW244772   7.022   1.201   6.387  0.1851  1.6876  2.9136
11185SOL     OW44773   5.211   7.551   4.660  0.2304  0.1312 -0.4723
11185SOL    HW144774   5.152   7.561   4.579  0.5646 -0.8960 -0.8437
11185SOL    HW244775   5.214   7.455   4.687  1.0758  0.3074  0.0542
11186SOL     OW44776   9.753   2.176   4.076  0.2831  0.2728  0.5229
11186SOL    HW144777   9.687   2.189   4.002  0.8861  1.0143  0.1148
11186SOL    HW244778   9.781   2.080   4.080 -1.4056 -0.2104  1.1947
11187SOL     OW44779   4.281   3.583   0.573  0.6994 -0.1997  0.1346
11187SOL    HW144780   4.217   3.553   0.503 -1.2016 -0.7917  2.0672
11187SOL    HW244781   4.317   3.673   0.549 -3.0265  1.4096  0.3960
11188SOL     OW44782   9.669   5.728   1.831 -0.4196  0.1805  0.2765
11188SOL    HW144783   9.716   5.816   1.825 -0.6251  0.3386  0.9270
11188SOL    HW244784   9.592   5.735   1.895 -0.0465 -0.6388  0.8354
11189SOL     OW44785   1.687   7.454   5.843 -0.1525  0.2363  0.1082
11189SOL    HW144786   1.608   7.516   5.842 -0.1070  0.2911 -0.1786
11189SOL    HW244787   1.726   7.452   5.936  0.4120  1.3716 -0.0880
11190SOL     OW44788   9.669   2.591   3.694 -0.2500 -0.1574 -0.7420
11190SOL    HW144789   9.721   2.536   3.758 -0.4643  0.2520 -0.2185
11190SOL    HW244790   9.582   2.619   3.735 -0.3673  0.1529 -1.1828
11191SOL     OW44791   4.545   4.085   3.194  0.1000 -0.3737  0.3197
11191SOL    HW144792   4.551   4.000   3.141  2.5531  0.2608 -0.4559
11191SOL    HW244793   4.451   4.119   3.190 -0.3931 -1.8093 -1.2917
11192SOL     OW44794   3.836   9.721   4.098 -0.2792 -0.3172 -0.2317
11192SOL    HW144795   3.808   9.793   4.161 -1.1378 -0.2728 -0.6507
11192SOL    HW244796   3.865   9.641   4.149 -0.7061 -0.1815  0.2238
11193SOL     OW44797   1.995   2.031   0.095  0.2116  0.2785 -0.4936
11193SOL    HW144798   1.922   2.014   0.162 -1.2186 -1.0721 -2.3105
11193SOL    HW244799   2.080   2.052   0.143 -0.6271 -1.1955  1.7594
11194SOL     OW44800   6.517   8.726   5.015  0.4650 -0.1061  0.3144
11194SOL    HW144801   6.450   8.676   4.960  1.1877 -1.5100  0.6853
11194SOL    HW244802   6.526   8.819   4.979 -1.7727  0.1561  0.3589
11195SOL     OW44803   3.996   0.136   1.113  0.2282  0.4484  0.4296
11195SOL    HW144804   4.089   0.148   1.148  0.2547 -0.3753  0.6340
11195SOL    HW244805   3.931   0.177   1.177  0.5823  2.8583 -0.6985
11196SOL     OW44806   2.657   8.677   6.089 -0.1446  0.2244  0.3016
11196SOL    HW144807   2.565   8.708   6.063  0.2790  0.3504 -1.0796
11196SOL    HW244808   2.720   8.755   6.086  0.7449 -0.5705 -2.2959
11197SOL     OW44809   9.812   5.064   5.398 -0.1804  0.0925  0.0450
11197SOL    HW144810   9.831   4.967   5.411 -2.3175 -0.2855  0.4695
11197SOL    HW244811   9.833   5.090   5.304 -0.1772 -0.9267 -0.2342
11198SOL     OW44812   0.126   5.236   1.420 -0.4760  0.1410 -0.0258
11198SOL    HW144813   0.054   5.298   1.451  1.1518  0.9230  2.3263
11198SOL    HW244814   0.131   5.157   1.482 -0.9178 -1.1397 -1.5983
11199SOL     OW44815   4.757   4.740   1.121 -0.1464  0.4673  0.1415
11199SOL    HW144816   4.672   4.793   1.123  0.0801  0.8038  1.3232
11199SOL    HW244817   4.792   4.736   1.027 -1.4629  0.3288 -0.3477
11200SOL     OW44818   3.500   3.094   1.037 -0.6795  0.3913 -0.5101
11200SOL    HW144819   3.519   3.188   1.065  2.0714 -0.5029  0.8843
11200SOL    HW244820   3.467   3.042   1.116 -0.2235 -0.2917 -0.7628
11201SOL     OW44821   3.977   2.909   2.940 -0.2161 -0.2374  0.6360
11201SOL    HW144822   4.024   2.986   2.896 -2.1941 -0.3881 -1.8680
11201SOL    HW244823   4.034   2.827   2.930 -0.5025 -0.2166 -1.5161
11202SOL     OW44824   0.595   0.638   3.840  0.0645 -0.2801  0.2816
11202SOL    HW144825   0.507   0.596   3.861 -0.4631  0.9215  0.5087
11202SOL    HW244826   0.629   0.603   3.752 -0.9161 -0.2944 -0.0913
11203SOL     OW44827   2.821   4.650   3.001 -0.1897 -1.0797 -0.0227
11203SOL    HW144828   2.919   4.668   3.012 -0.1206  0.1696 -2.3195
11203SOL    HW244829   2.773   4.672   3.086  1.0832  1.5924  0.0544
11204SOL     OW44830   8.432   8.156   2.706 -0.2915  0.2392  0.1303
11204SOL    HW144831   8.462   8.190   2.617 -1.5650 -0.2634 -0.5044
11204SOL    HW244832   8.477   8.069   2.725 -0.2563  0.1942 -0.1608
11205SOL     OW44833   9.287   1.277   0.307  0.6633  0.0503 -0.6984
11205SOL    HW144834   9.369   1.221   0.321  0.8586  0.6027  0.4515
11205SOL    HW244835   9.206   1.218   0.309  0.9415 -0.3251 -0.4541
11206SOL     OW44836   7.921   2.666   5.325 -0.2066 -0.1835  0.6038
11206SOL    HW144837   7.994   2.644   5.390 -0.9421 -0.4587  1.3497
11206SOL    HW244838   7.847   2.600   5.336 -0.9860  0.6777  0.5280
11207SOL     OW44839   2.805   7.853   0.704 -0.8762 -0.8272 -0.4675
11207SOL    HW144840   2.716   7.894   0.680  0.7949  3.6492  0.5277
11207SOL    HW244841   2.858   7.840   0.620 -0.0168  2.6745 -0.5357
11208SOL     OW44842   8.698   0.824   3.636  0.2287  0.4059  0.6997
11208SOL    HW144843   8.780   0.833   3.692 -0.6537 -0.5560  2.1925
11208SOL    HW244844   8.627   0.885   3.672 -0.7234 -1.0682  1.3545
11209SOL     OW44845   0.744   0.837   5.710 -0.4963  0.3332 -0.3427
11209SOL    HW144846   0.776   0.764   5.770  0.4938  0.1410 -1.0824
11209SOL    HW244847   0.689   0.902   5.763  0.2544  0.0996  0.7548
11210SOL     OW44848   9.781   2.875   3.735  0.8094  0.4453  0.0046
11210SOL    HW144849   9.746   2.968   3.729 -0.0321  0.2459  1.4103
11210SOL    HW244850   9.843   2.857   3.659  1.2918  2.2800 -0.0660
11211SOL     OW44851   4.074   0.903   3.968 -0.4575 -0.2171 -0.4846
11211SOL    HW144852   4.066   0.989   4.018 -0.4015 -0.6920  0.3446
11211SOL    HW244853   4.160   0.902   3.917 -1.1153  0.8062 -1.6274
11212SOL     OW44854   7.357   2.451   6.110 -0.4991 -0.5121  0.2160
11212SOL    HW144855   7.433   2.432   6.172 -1.4403  0.9712  1.8915
11212SOL    HW244856   7.275   2.405   6.143 -0.9777  0.1827  0.0089
11213SOL     OW44857   8.158   8.230   4.440  0.0154  0.5766 -0.3436
11213SOL    HW144858   8.119   8.189   4.358 -1.4287  1.4575 -0.1268
11213SOL    HW244859   8.257   8.225   4.436 -0.0863 -3.0723 -0.2309
11214SOL     OW44860   3.688   0.216   4.769 -0.1394  0.0102  0.5576
11214SOL    HW144861   3.692   0.247   4.674 -0.4628  0.8440  0.8164
11214SOL    HW244862   3.777   0.230   4.812  0.0129 -0.3849  0.3735
11215SOL     OW44863   6.229   9.973   1.060 -0.1399 -0.1322  0.6852
11215SOL    HW144864   6.238  10.051   1.121  2.6788  0.2400 -0.1337
11215SOL    HW244865   6.176   9.901   1.105  1.5278  0.2907  3.4587
11216SOL     OW44866   9.874   7.900   4.452 -0.0852  0.3577  0.5054
11216SOL    HW144867   9.894   7.895   4.550 -1.3352  2.1122  0.8535
11216SOL    HW244868   9.856   7.994   4.426  1.4361  0.0913 -1.6794
11217SOL     OW44869   5.464   0.049   1.747 -0.2567 -0.1772 -0.0077
11217SOL    HW144870   5.527   0.117   1.709  0.2662 -0.9120 -0.4496
11217SOL    HW244871   5.414   0.090   1.823 -2.7722  1.9641 -2.6874
11218SOL     OW44872   4.882   1.314   1.180  0.0001 -0.0988  0.2170
11218SOL    HW144873   4.871   1.414   1.179 -1.5218 -0.2478 -0.6807
11218SOL    HW244874   4.905   1.282   1.088  2.4574 -0.3934  0.9257
11219SOL     OW44875   5.811   0.763   5.299 -0.0784 -0.4945 -0.1673
11219SOL    HW144876   5.862   0.795   5.379 -0.8591 -1.5809  0.7828
11219SOL    HW244877   5.860   0.685   5.258  1.4249  1.3653 -2.0263
11220SOL     OW44878   3.113   7.371   3.621  0.4128  0.1655  0.0405
11220SOL    HW144879   3.162   7.388   3.536  1.0261 -0.6779  0.2144
11220SOL    HW244880   3.128   7.277   3.650 -3.1990 -0.8049 -1.0860
11221SOL     OW44881   8.208   0.623   2.170 -0.5008 -0.9184 -0.4215
11221SOL    HW144882   8.121   0.625   2.121 -0.4011  0.5121 -0.5808
11221SOL    HW244883   8.203   0.686   2.248  0.5379 -0.4773 -0.7063
11222SOL     OW44884   5.434   6.866   1.941  0.4809 -0.4586 -0.5576
11222SOL    HW144885   5.412   6.963   1.931  0.6753 -0.4254 -0.6717
11222SOL    HW244886   5.524   6.857   1.985  0.0147 -0.5987  0.3809
11223SOL     OW44887   1.156   4.337   4.937 -0.1506  0.0109 -0.6212
11223SOL    HW144888   1.097   4.387   5.000 -0.9805  0.1395 -1.4810
11223SOL    HW244889   1.104   4.261   4.896  1.2269 -1.8647  1.0365
11224SOL     OW44890   0.396   3.002   3.356  0.1927  0.1859  0.7270
11224SOL    HW144891   0.339   2.923   3.381 -0.1389  0.6271  1.3980
11224SOL    HW244892   0.486   2.970   3.327  0.8766 -0.3443  3.2390
11225SOL     OW44893   0.627   4.928   3.860 -0.3521  0.2807  0.3374
11225SOL    HW144894   0.710   4.880   3.888 -0.1703  0.4557  0.1028
11225SOL    HW244895   0.623   4.933   3.760  0.3445  1.9937  0.3806
11226SOL     OW44896   7.053   5.900   0.886  0.4537 -0.6352 -0.6600
11226SOL    HW144897   7.111   5.921   0.964  0.5312 -1.0128 -0.6130
11226SOL    HW244898   7.032   5.802   0.885  0.8543 -0.7175 -1.3908
11227SOL     OW44899   2.882   5.040   1.382  0.3524 -0.2132 -0.2527
11227SOL    HW144900   2.790   5.076   1.390  1.5583  2.9151  0.2186
11227SOL    HW244901   2.907   4.992   1.467 -0.2225  0.4492  0.2926
11228SOL     OW44902   9.470   5.684   3.844 -0.0592  0.1026 -0.0213
11228SOL    HW144903   9.477   5.703   3.746  1.4751 -3.0019 -0.6003
11228SOL    HW244904   9.513   5.758   3.896  0.0924  1.2476 -1.7477
11229SOL     OW44905   0.374   8.773   5.588 -0.1854  0.0648 -0.1118
11229SOL    HW144906   0.358   8.872   5.593 -1.4416 -0.1590  0.6125
11229SOL    HW244907   0.344   8.730   5.673  3.2901 -0.5786  0.8406
11230SOL     OW44908   7.871   5.995   1.087  0.2148 -0.5910  0.3276
11230SOL    HW144909   7.837   5.956   1.173  2.3678 -0.4207  1.2784
11230SOL    HW244910   7.854   6.094   1.087 -0.5605 -0.7173  0.1691
11231SOL     OW44911   9.735   1.963   4.408 -0.5479 -0.4987  0.1852
11231SOL    HW144912   9.781   1.874   4.411 -2.9510 -1.7480  1.4001
11231SOL    HW244913   9.662   1.960   4.341 -1.0040  0.3806  0.6405
11232SOL     OW44914   0.990   5.487   1.836 -0.1555 -0.0938  0.2650
11232SOL    HW144915   0.973   5.505   1.933 -1.4174 -0.1371  0.0599
11232SOL    HW244916   0.919   5.426   1.801 -0.0430  0.4030 -0.8311
11233SOL     OW44917   3.292   6.566   3.787  0.1624 -0.6629  0.1054
11233SOL    HW144918   3.230   6.517   3.849 -1.2852  0.5658 -0.3519
11233SOL    HW244919   3.274   6.538   3.693 -0.8827  0.9473 -0.1882
11234SOL     OW44920   6.724   0.678   0.186  0.3198 -0.3229 -0.2495
11234SOL    HW144921   6.660   0.663   0.261  0.6940 -0.0844  0.1173
11234SOL    HW244922   6.813   0.704   0.222 -0.1615  2.2830 -0.8321
11235SOL     OW44923   9.663   5.983   6.383  0.1622 -0.4673 -0.0923
11235SOL    HW144924   9.686   5.932   6.300 -1.8320 -0.3005 -0.7786
11235SOL    HW244925   9.617   6.068   6.358 -0.6705 -0.5292  1.2022
11236SOL     OW44926   5.867   0.315   2.879  0.7217 -0.3415  0.3486
11236SOL    HW144927   5.930   0.361   2.816  1.4429 -2.3985 -0.4492
11236SOL    HW244928   5.826   0.236   2.834  0.5651 -1.3284  2.1749
11237SOL     OW44929   0.934   3.886   6.406  0.0137 -0.6715 -0.1905
11237SOL    HW144930   0.903   3.880   6.311  2.4433 -0.5687 -1.0102
11237SOL    HW244931   0.862   3.930   6.461 -1.7260 -1.4156 -1.7914
11238SOL     OW44932   1.140   2.595   1.814  0.6046 -0.0109  0.2639
11238SOL    HW144933   1.210   2.528   1.838  2.8789  1.8295 -1.0804
11238SOL    HW244934   1.159   2.682   1.861  0.8142  1.3414 -2.2577
11239SOL     OW44935   8.356   1.410   5.096  0.0004  0.0053  0.3650
11239SOL    HW144936   8.425   1.454   5.039  0.9407 -2.5201 -0.5306
11239SOL    HW244937   8.401   1.355   5.166 -1.0148 -2.1068 -0.5614
11240SOL     OW44938   2.818   9.146   0.705 -0.1558  0.2308 -0.6388
11240SOL    HW144939   2.718   9.144   0.701 -0.0742 -0.0371 -3.1646
11240SOL    HW244940   2.852   9.213   0.640  1.3577 -0.7800 -0.9056
11241SOL     OW44941   6.488   4.266   0.190  0.5407 -0.0954 -0.6275
11241SOL    HW144942   6.539   4.203   0.249  1.9499  0.3027 -1.3923
11241SOL    HW244943   6.550   4.306   0.123 -0.8698  0.1200 -1.8312
11242SOL     OW44944   9.193   3.300   2.428  0.6200  0.1812  0.0807
11242SOL    HW144945   9.274   3.248   2.452  0.6136 -1.0248 -2.4157
11242SOL    HW244946   9.219   3.388   2.387  0.6404  0.3928  0.5386
11243SOL     OW44947   8.179   5.273   1.705  0.1238 -0.0422  0.4676
11243SOL    HW144948   8.163   5.355   1.650 -0.4279  0.0760  0.8022
11243SOL    HW244949   8.095   5.219   1.710  0.5235 -0.7077  0.1254
11244SOL     OW44950   0.759   5.568   1.311  0.4783  0.1728  0.4710
11244SOL    HW144951   0.787   5.518   1.229 -0.3872 -0.1904  0.3903
11244SOL    HW244952   0.725   5.659   1.285 -0.7360 -0.3101  0.3100
11245SOL     OW44953   8.196   3.886   4.376  0.8526  0.3496 -0.3321
11245SOL    HW144954   8.151   3.801   4.401 -0.2271  0.8002 -0.7000
11245SOL    HW244955   8.232   3.878   4.283  0.4170  0.4232 -0.5081
11246SOL     OW44956   7.597   5.585   4.651  0.0854 -0.0385  0.5926
11246SOL    HW144957   7.578   5.616   4.558 -0.5060 -1.1001  0.3453
11246SOL    HW244958   7.696   5.586   4.667  0.2295 -0.3540 -0.2337
11247SOL     OW44959   9.568   8.065   1.194  0.3698  0.9822  0.5031
11247SOL    HW144960   9.528   7.982   1.156  0.3004  1.1601  0.1808
11247SOL    HW244961   9.576   8.134   1.122 -1.1778  1.8474  1.1417
11248SOL     OW44962   5.357   4.797   1.266  0.0707  0.0292  0.5730
11248SOL    HW144963   5.283   4.792   1.199  0.1874 -0.7007  0.4904
11248SOL    HW244964   5.332   4.860   1.339 -0.7714 -0.4524  0.7094
11249SOL     OW44965   7.970   9.971   3.604 -0.6360 -0.3145  0.2215
11249SOL    HW144966   7.946   9.877   3.578 -1.5442 -0.0618  0.1390
11249SOL    HW244967   8.061   9.992   3.569 -0.3714 -1.2090  0.3474
11250SOL     OW44968   0.426   2.402   0.133  0.0339 -0.6386 -0.6675
11250SOL    HW144969   0.386   2.314   0.108 -1.7020  0.2584 -1.1293
11250SOL    HW244970   0.362   2.452   0.192  0.2971  0.9938 -1.7440
11251SOL     OW44971   0.311   0.735   6.211  0.0559 -0.3344 -0.1815
11251SOL    HW144972   0.383   0.764   6.273  0.3208  1.6806 -1.4004
11251SOL    HW244973   0.351   0.707   6.123 -0.5619 -0.0306 -0.5654
11252SOL     OW44974   3.267   2.483   5.204  0.3001 -0.2656  0.7393
11252SOL    HW144975   3.205   2.466   5.281  0.4351 -2.5977  0.3709
11252SOL    HW244976   3.285   2.397   5.156  0.6939  1.0418 -1.5522
11253SOL     OW44977   1.187   7.502   2.183 -0.6715 -0.2531  0.4132
11253SOL    HW144978   1.285   7.517   2.170 -0.5832 -2.6371 -2.1479
11253SOL    HW244979   1.172   7.464   2.274  0.9456 -0.8896  0.4531
11254SOL     OW44980   7.606   2.091   2.415 -0.4058 -0.2899  0.2785
11254SOL    HW144981   7.512   2.066   2.435 -0.8620  1.3225  0.2459
11254SOL    HW244982   7.638   2.158   2.482  0.8756 -1.1887  0.5734
11255SOL     OW44983   2.666   9.814   1.021  0.4588  0.3062  0.0588
11255SOL    HW144984   2.742   9.750   1.006  1.3504  1.6189 -1.0821
11255SOL    HW244985   2.592   9.766   1.067  0.8795 -1.7127 -1.2929
11256SOL     OW44986   9.902   2.634   3.136 -0.5199 -0.8438  0.1937
11256SOL    HW144987   9.852   2.686   3.205 -2.3131 -0.0608 -1.6501
11256SOL    HW244988   9.954   2.696   3.078 -2.5186 -1.0642 -1.9041
11257SOL     OW44989   9.814   9.887   2.880  0.2195  0.4034 -0.0371
11257SOL    HW144990   9.816   9.806   2.940  0.2390 -0.2471 -0.9056
11257SOL    HW244991   9.879   9.955   2.915 -1.9753  1.3001  2.4194
11258SOL     OW44992   4.385   7.567   2.176  0.4070 -0.8015 -0.0402
11258SOL    HW144993   4.466   7.527   2.218  0.9385 -1.1694 -1.4073
11258SOL    HW244994   4.407   7.657   2.139 -0.7166  0.6789  2.7685
11259SOL     OW44995   4.413   3.233   3.322 -0.2013 -0.2708 -0.2166
11259SOL    HW144996   4.419   3.333   3.320 -1.7298 -0.1852 -1.1909
11259SOL    HW244997   4.382   3.204   3.412 -0.6708  0.1907 -0.2255
11260SOL     OW44998   1.847   2.112   4.715 -0.2192  0.1731 -0.2625
11260SOL    HW144999   1.850   2.211   4.727 -3.6257  0.0759  2.2360
11260SOL    HW245000   1.866   2.089   4.620 -0.0676  3.2784 -1.0222
11261SOL     OW45001   9.669   7.996   5.871 -0.3608 -0.9273  0.0172
11261SOL    HW145002   9.712   7.908   5.847  0.5403 -0.2125 -1.0713
11261SOL    HW245003   9.635   7.992   5.964  0.9049 -1.9794  0.4593
11262SOL     OW45004   8.148   9.117   2.647 -0.2864 -0.1069  0.4676
11262SOL    HW145005   8.065   9.062   2.639 -0.0629 -0.4446  0.4555
11262SOL    HW245006   8.126   9.203   2.692 -0.7343  0.0088  0.0299
11263SOL     OW45007   6.851   1.164   4.253 -0.4068  0.8976  0.0040
11263SOL    HW145008   6.894   1.253   4.236  1.1391 -0.2146 -2.1068
11263SOL    HW245009   6.905   1.092   4.210 -3.2506 -0.7816 -0.8706
11264SOL     OW45010   6.954   1.821   6.489 -0.7053 -0.0028 -0.2225
11264SOL    HW145011   6.971   1.798   6.393 -3.1782 -2.2719 -0.1624
11264SOL    HW245012   7.031   1.789   6.544  0.4708  0.8042 -1.3449
11265SOL     OW45013   9.331   5.488   6.755 -0.1177  0.2198  0.9713
11265SOL    HW145014   9.352   5.450   6.846  0.1579 -1.3120  0.2789
11265SOL    HW245015   9.233   5.486   6.740  0.0026 -2.0061  0.2108
11266SOL     OW45016   3.220   6.131   3.417  0.1408 -0.0455  0.8405
11266SOL    HW145017   3.155   6.204   3.392 -1.6285 -1.3178  1.6231
11266SOL    HW245018   3.219   6.060   3.347 -0.3223 -0.6974  1.4890
11267SOL     OW45019   9.796   1.920   0.082  0.3298 -0.7748 -0.0706
11267SOL    HW145020   9.795   1.840   0.143  2.7844 -0.1716  0.8469
11267SOL    HW245021   9.861   1.904   0.008 -0.6277 -0.3981 -1.0062
11268SOL     OW45022   0.209   9.702   6.399  0.2473  0.1755  0.1633
11268SOL    HW145023   0.166   9.774   6.453 -1.4095 -1.6362  1.3224
11268SOL    HW245024   0.255   9.742   6.320 -0.5090  2.5059  0.8841
11269SOL     OW45025   6.990   0.450   1.333  0.0382 -0.2854 -0.1448
11269SOL    HW145026   6.997   0.527   1.397 -0.8331 -0.3095 -0.0086
11269SOL    HW245027   6.983   0.364   1.384 -4.1644 -0.0517 -0.1047
11270SOL     OW45028   2.149   8.444   4.123  0.7766  0.7433  0.2642
11270SOL    HW145029   2.101   8.514   4.177  1.3423  0.6145  0.9416
11270SOL    HW245030   2.230   8.484   4.080  1.2472  0.4488  0.8665
11271SOL     OW45031   4.906   9.904   3.721 -0.2823 -0.4005 -0.5118
11271SOL    HW145032   4.844   9.845   3.668 -0.0968 -0.0764 -1.0934
11271SOL    HW245033   4.926   9.986   3.668  1.1709 -0.8016 -0.5998
11272SOL     OW45034   7.892   5.653   4.306 -0.0066  0.2555 -0.2177
11272SOL    HW145035   7.842   5.569   4.285  1.1542 -0.1688 -1.3835
11272SOL    HW245036   7.896   5.710   4.223  0.4871  0.7840  0.1730
11273SOL     OW45037   3.077   3.813   5.766  0.0659  0.5697 -0.2277
11273SOL    HW145038   3.058   3.875   5.842  3.1541  0.5586  0.6084
11273SOL    HW245039   3.090   3.720   5.801 -0.9846  0.0956 -1.0701
11274SOL     OW45040   0.177   7.002   2.401 -0.4916 -0.4737 -0.3252
11274SOL    HW145041   0.122   6.919   2.414 -1.0395  0.2756  2.3212
11274SOL    HW245042   0.224   7.024   2.486  0.4646  1.3660 -1.3219
11275SOL     OW45043   8.279   4.999   0.075 -0.7899  0.3706  0.1883
11275SOL    HW145044   8.359   5.058   0.071  0.1565 -0.7812  1.8281
11275SOL    HW245045   8.275   4.942  -0.007  0.0904  0.4032  0.1181
11276SOL     OW45046   1.106   4.069   5.694 -0.2240 -0.2965  0.5651
11276SOL    HW145047   1.202   4.056   5.670 -0.4390 -1.6920  0.4394
11276SOL    HW245048   1.048   4.041   5.617 -0.7335  0.8421  0.5173
11277SOL     OW45049   4.708   8.776   3.883  0.0942  0.1765  0.3644
11277SOL    HW145050   4.767   8.716   3.936  0.8406  0.1806 -0.4387
11277SOL    HW245051   4.671   8.725   3.805  1.0757  0.8452 -0.5657
11278SOL     OW45052   7.564   4.610   6.385  0.8912 -0.1401  0.0685
11278SOL    HW145053   7.506   4.682   6.349  2.0231 -0.3479 -2.2629
11278SOL    HW245054   7.512   4.525   6.393 -0.0122  0.5258  1.2738
11279SOL     OW45055   8.629   2.871   3.682 -0.2386  0.4985 -0.2877
11279SOL    HW145056   8.602   2.776   3.697 -0.4304  0.5071 -0.5607
11279SOL    HW245057   8.728   2.877   3.671 -0.1709  0.4026  0.2637
11280SOL     OW45058   0.507   7.594   3.741  0.0697  0.0252 -0.3180
11280SOL    HW145059   0.532   7.573   3.647  2.8476 -1.5150  0.6943
11280SOL    HW245060   0.462   7.515   3.782  0.3065  0.0997  0.0917
11281SOL     OW45061   3.182   7.580   5.374 -0.2168 -0.1190  0.2056
11281SOL    HW145062   3.231   7.597   5.288 -0.4384 -1.7691 -0.2738
11281SOL    HW245063   3.228   7.506   5.423 -0.1697  0.7291  1.4680
11282SOL     OW45064   2.994   1.552   2.018 -0.1201 -0.6041  0.3093
11282SOL    HW145065   3.033   1.592   2.101  0.8205  0.4061 -0.5977
11282SOL    HW245066   3.067   1.513   1.962 -0.8148 -1.8438  0.2324
11283SOL     OW45067   3.594   1.615   0.540  0.5093 -0.5873  0.1560
11283SOL    HW145068   3.568   1.591   0.446 -0.5029 -0.0491  0.2929
11283SOL    HW245069   3.688   1.585   0.557  0.7293 -0.6176 -1.0547
11284SOL     OW45070   7.110   3.652   1.799 -0.2108  0.1622  0.4259
11284SOL    HW145071   7.101   3.553   1.787 -0.4031  0.4915 -2.6290
11284SOL    HW245072   7.206   3.678   1.793 -0.1347  0.1439  1.4951
11285SOL     OW45073   8.744   5.116   5.365  0.5558 -0.5427  0.4866
11285SOL    HW145074   8.736   5.046   5.436 -0.5270  0.6635  1.5671
11285SOL    HW245075   8.663   5.114   5.307  1.1058 -1.0337 -0.2716
11286SOL     OW45076   1.710   8.370   6.429 -0.1885  0.5857  0.1974
11286SOL    HW145077   1.792   8.380   6.485  0.0128  1.1153 -0.1841
11286SOL    HW245078   1.642   8.438   6.456 -0.6834 -0.1542  0.8232
11287SOL     OW45079   4.424   9.630   6.392  0.1436  0.0876 -0.0899
11287SOL    HW145080   4.361   9.684   6.448 -0.9758 -2.0963  0.8008
11287SOL    HW245081   4.421   9.664   6.297 -1.9627  0.3938  0.0457
11288SOL     OW45082   1.433   8.763   0.487  0.2835 -0.2262  0.2719
11288SOL    HW145083   1.446   8.664   0.501 -1.9340 -0.6777 -0.6550
11288SOL    HW245084   1.465   8.789   0.396  0.3676 -0.1961  0.3103
11289SOL     OW45085   5.755   0.283   2.339 -0.0066  0.1571  0.4752
11289SOL    HW145086   5.785   0.300   2.433 -0.6446 -0.4343  0.7980
11289SOL    HW245087   5.705   0.196   2.335  0.5343 -0.1155 -0.5320
11290SOL     OW45088   6.020   8.411   3.702 -0.3749 -0.6789  0.5486
11290SOL    HW145089   6.091   8.358   3.747  0.6619  0.1087 -0.1437
11290SOL    HW245090   6.018   8.504   3.740  0.8637  0.1541 -1.3469
11291SOL     OW45091   9.456   8.488   5.107  0.2691  0.3771 -0.1203
11291SOL    HW145092   9.377   8.428   5.097  0.6708 -0.1374 -0.2283
11291SOL    HW245093   9.505   8.466   5.192  0.2113  0.7993  0.0269
11292SOL     OW45094   1.103   9.025   3.113  0.5046  0.2327 -0.4428
11292SOL    HW145095   1.070   9.046   3.205  0.5351  2.8828 -0.9953
11292SOL    HW245096   1.185   8.968   3.120  1.2444  1.4334  1.2378
11293SOL     OW45097   8.564   7.200   2.638  0.1999 -0.6696  0.5428
11293SOL    HW145098   8.485   7.152   2.677 -1.6404  0.4533 -1.6404
11293SOL    HW245099   8.542   7.229   2.545  3.3801 -0.6720 -0.2581
11294SOL     OW45100   1.996   5.981   1.618  0.0707 -0.1019 -0.2848
11294SOL    HW145101   1.927   6.053   1.615  1.3340  1.1003 -1.8801
11294SOL    HW245102   1.952   5.892   1.627 -1.5961  0.7605  0.1952
11295SOL     OW45103   2.740   2.373   1.313  0.4091 -0.5219 -0.0436
11295SOL    HW145104   2.779   2.319   1.237  1.2768 -1.4092  1.0150
11295SOL    HW245105   2.787   2.460   1.319  0.2298 -0.3816 -0.6270
11296SOL     OW45106   4.688   2.713   4.619 -0.3241  0.1702  0.0849
11296SOL    HW145107   4.765   2.696   4.557 -0.3332 -0.0950  0.1450
11296SOL    HW245108   4.629   2.632   4.623  0.7582 -0.5751  1.9620
11297SOL     OW45109   3.636   6.131   6.707 -0.9893 -0.2450  0.4163
11297SOL    HW145110   3.727   6.095   6.727 -0.5655  0.7342  0.2713
11297SOL    HW245111   3.588   6.069   6.645 -0.6974 -1.1210  1.0488
11298SOL     OW45112   5.364   1.056   5.457  0.2915 -0.0822 -0.2925
11298SOL    HW145113   5.296   1.096   5.519  1.7938 -0.1300  1.4433
11298SOL    HW245114   5.358   1.100   5.368 -0.6402  1.3401  0.4467
11299SOL     OW45115   9.370   8.618   2.531  0.3439  0.1924 -0.3657
11299SOL    HW145116   9.311   8.538   2.520  2.1696 -1.2010 -0.2732
11299SOL    HW245117   9.374   8.669   2.445  0.2107 -0.5586 -0.8193
11300SOL     OW45118   8.748   9.445   0.645 -0.0918 -0.1205 -0.5229
11300SOL    HW145119   8.701   9.392   0.715 -0.2262  0.8274  0.0984
11300SOL    HW245120   8.797   9.382   0.584 -0.4968 -0.9808  0.0303
11301SOL     OW45121   8.010   1.524   5.792  0.1376  0.0644  0.3699
11301SOL    HW145122   7.976   1.612   5.759 -2.0481 -0.7807  0.3184
11301SOL    HW245123   8.004   1.456   5.720  1.2933 -0.2971  0.5887
11302SOL     OW45124   3.862   8.441   2.722 -0.0230  0.9053 -0.5479
11302SOL    HW145125   3.891   8.353   2.685  0.8057  1.1356 -0.4691
11302SOL    HW245126   3.763   8.448   2.718 -0.4824 -1.8573  3.5581
11303SOL     OW45127   1.561   5.539   2.635 -0.3021 -0.8758  0.1929
11303SOL    HW145128   1.623   5.461   2.629  2.0170  1.0182 -1.2149
11303SOL    HW245129   1.497   5.536   2.558  0.5824 -0.7333 -0.5572
11304SOL     OW45130   4.065   8.124   5.506  0.0342 -0.0427 -0.2273
11304SOL    HW145131   4.025   8.215   5.491 -0.7332 -0.3442 -0.0722
11304SOL    HW245132   4.060   8.071   5.421 -2.8364 -1.1853  0.5593
11305SOL     OW45133   4.055   5.220   2.705  0.1094 -0.5829 -0.0694
11305SOL    HW145134   4.061   5.181   2.613 -0.8556 -0.2963 -0.2553
11305SOL    HW245135   4.135   5.193   2.758  0.4030 -1.1956 -0.8251
11306SOL     OW45136   3.357   7.286   3.784 -0.1203  0.2148 -0.2155
11306SOL    HW145137   3.296   7.235   3.844  0.4908 -0.3589 -0.0778
11306SOL    HW245138   3.450   7.284   3.821  0.4633 -0.9801 -1.6684
11307SOL     OW45139   4.011   2.580   0.888  0.2595 -0.1658 -0.0938
11307SOL    HW145140   3.969   2.642   0.954  1.2163  0.3716  0.0175
11307SOL    HW245141   3.942   2.549   0.823 -0.0380  1.7822 -0.7322
11308SOL     OW45142   9.223   0.370   2.365  0.6153 -0.3020  0.1025
11308SOL    HW145143   9.259   0.443   2.307 -2.9308  0.1965 -1.6411
11308SOL    HW245144   9.223   0.284   2.313  0.1682 -0.4994  0.4288
11309SOL     OW45145   9.635   9.627   4.179 -0.1057  0.0601  0.2498
11309SOL    HW145146   9.555   9.667   4.136  0.7385 -0.3322 -1.7212
11309SOL    HW245147   9.606   9.569   4.255 -1.6734 -0.1335 -0.4776
11310SOL     OW45148   0.588   5.038   6.447  0.1740 -0.2934 -0.3940
11310SOL    HW145149   0.582   4.951   6.398  0.9178 -0.7061  0.2414
11310SOL    HW245150   0.514   5.099   6.416  0.5715 -0.5841 -1.9438
11311SOL     OW45151   9.497   1.927   4.017  0.1509 -0.5179 -0.5952
11311SOL    HW145152   9.494   1.944   4.116  0.8287 -0.3795 -0.5973
11311SOL    HW245153   9.407   1.898   3.986 -0.4464  0.8419 -0.1832
11312SOL     OW45154   9.855   6.746   0.099  0.2899 -0.2382 -0.5197
11312SOL    HW145155   9.823   6.725   0.191  0.8693  1.0036 -0.0310
11312SOL    HW245156   9.952   6.722   0.091  0.3337 -0.0067 -0.6997
11313SOL     OW45157   0.087   5.540   4.684 -0.4705 -0.3488 -0.5197
11313SOL    HW145158  -0.007   5.505   4.686 -0.4626 -0.3835 -0.7652
11313SOL    HW245159   0.102   5.597   4.764 -0.8241 -0.0309 -0.6762
11314SOL     OW45160   5.112   9.207   1.631 -0.5006  0.1586 -0.5945
11314SOL    HW145161   5.019   9.235   1.653 -0.0063 -0.1427  2.1319
11314SOL    HW245162   5.137   9.127   1.686  2.1134  1.5949  0.4185
11315SOL     OW45163   8.993   3.324   3.661 -0.0959 -0.8235  0.4042
11315SOL    HW145164   8.895   3.311   3.647 -0.1206 -1.3587  1.0621
11315SOL    HW245165   9.020   3.287   3.750  0.0940  2.3553  1.7255
11316SOL     OW45166   1.461   6.087   4.254 -0.4954 -0.2537 -0.1814
11316SOL    HW145167   1.443   6.090   4.353 -1.2660 -0.4337 -0.3105
11316SOL    HW245168   1.465   6.180   4.218 -1.2453 -0.2160 -0.1634
11317SOL     OW45169   6.934   1.425   2.102  0.0247 -0.6907 -0.2645
11317SOL    HW145170   6.863   1.385   2.044 -1.5513 -0.5958  1.5691
11317SOL    HW245171   6.978   1.501   2.052 -2.6505  0.6666 -0.6285
11318SOL     OW45172   5.783   4.392   0.293  0.2632  0.1666 -0.0286
11318SOL    HW145173   5.781   4.305   0.342 -1.3273  0.7567  0.9807
11318SOL    HW245174   5.693   4.411   0.254  1.0705  0.5014 -1.8060
11319SOL     OW45175   4.583   3.527   1.660 -0.1218  0.5704  0.1110
11319SOL    HW145176   4.538   3.438   1.667  0.1269  0.3696 -0.6949
11319SOL    HW245177   4.610   3.542   1.565  1.4730  0.7023  0.5774
11320SOL     OW45178   8.329   9.141   5.497 -0.2674  0.3286 -0.6362
11320SOL    HW145179   8.249   9.119   5.553 -1.0740 -0.5334 -2.0836
11320SOL    HW245180   8.380   9.057   5.479  1.6687  1.0479  1.2758
11321SOL     OW45181   0.025   9.484   6.341  0.0043  0.0610  0.0982
11321SOL    HW145182   0.052   9.465   6.436 -0.3452 -0.3068  0.1234
11321SOL    HW245183   0.081   9.560   6.306 -0.6131  0.9321  0.9634
11322SOL     OW45184   0.043   6.255   5.920  0.0652 -0.0254  0.5058
11322SOL    HW145185   0.082   6.336   5.963 -1.7442  0.8928  0.4415
11322SOL    HW245186  -0.007   6.202   5.989 -0.0214 -0.3040  0.2285
11323SOL     OW45187   2.982   6.758   0.369 -0.6454 -0.3521 -0.0011
11323SOL    HW145188   2.942   6.815   0.440 -1.3722 -0.5391 -0.2534
11323SOL    HW245189   2.972   6.804   0.280  0.6787  0.0951  0.0815
11324SOL     OW45190   1.130   0.973   4.883 -0.1660  0.2106  0.3757
11324SOL    HW145191   1.169   1.065   4.891 -1.3557  0.7915 -0.3819
11324SOL    HW245192   1.180   0.921   4.814  0.2391  0.4318  0.5030
11325SOL     OW45193   6.031   0.212   4.862  0.6809 -0.1438  0.0126
11325SOL    HW145194   6.096   0.149   4.821  2.2310  1.4917 -0.1322
11325SOL    HW245195   6.034   0.203   4.962 -1.6695 -2.7312 -0.0827
11326SOL     OW45196   7.345   4.283   5.076  0.5832 -0.5970  0.6499
11326SOL    HW145197   7.338   4.258   5.173  0.8841  1.0667  1.1199
11326SOL    HW245198   7.268   4.340   5.051  0.4929 -1.0500 -0.1115
11327SOL     OW45199   2.940   1.226   2.679 -0.8748  0.5130 -0.1103
11327SOL    HW145200   2.981   1.315   2.660  3.2619 -1.0967  0.7611
11327SOL    HW245201   2.933   1.174   2.594 -0.1464  0.4431 -0.1339
11328SOL     OW45202   9.144   4.296   1.683 -0.2227  0.1366 -0.5934
11328SOL    HW145203   9.191   4.347   1.610 -0.9003  1.6623  0.0237
11328SOL    HW245204   9.047   4.320   1.684 -0.2078  0.1728  0.8533
11329SOL     OW45205   7.782   3.788   2.592  0.2097 -0.0873 -0.2314
11329SOL    HW145206   7.771   3.804   2.494 -0.0501 -0.2455 -0.2283
11329SOL    HW245207   7.864   3.836   2.625 -0.4901  1.1288 -0.2445
11330SOL     OW45208   8.180   1.072   1.315 -0.2950  0.0760 -0.6005
11330SOL    HW145209   8.135   1.011   1.380 -1.5781  0.6734 -0.9235
11330SOL    HW245210   8.246   1.020   1.261  1.2180 -0.3225  1.5539
11331SOL     OW45211   3.444   5.577   0.448  0.4694  0.1745 -0.2656
11331SOL    HW145212   3.422   5.669   0.415 -0.3975  0.4103  0.9419
11331SOL    HW245213   3.360   5.531   0.477  1.1518 -0.1679  1.2103
11332SOL     OW45214   2.537   0.739   2.121 -0.0487  0.3360 -0.8023
11332SOL    HW145215   2.635   0.746   2.105 -0.0651  0.0511 -1.0428
11332SOL    HW245216   2.506   0.817   2.174  0.5877 -0.3686  0.6302
11333SOL     OW45217   2.830   7.514   0.002  0.0745  0.7011 -0.1002
11333SOL    HW145218   2.846   7.509  -0.096  3.0297  0.2601  0.3454
11333SOL    HW245219   2.736   7.489   0.022 -0.1059 -0.8917 -2.6771
11334SOL     OW45220   1.882   8.932   2.585 -0.3285 -0.6307  0.5219
11334SOL    HW145221   1.789   8.945   2.553  0.4287  2.0313 -0.7904
11334SOL    HW245222   1.936   8.886   2.514  0.1256  0.7647 -0.0589
11335SOL     OW45223   8.590   6.760   3.642 -0.0376  0.1438  0.2010
11335SOL    HW145224   8.620   6.839   3.589  0.0708  0.8290  1.2798
11335SOL    HW245225   8.664   6.692   3.644 -0.4764 -0.4155 -1.5328
11336SOL     OW45226   1.605   5.555   1.389  0.2605  0.0277  0.6911
11336SOL    HW145227   1.601   5.644   1.435 -0.6471  0.2294  0.2342
11336SOL    HW245228   1.640   5.486   1.452  0.0621  0.5190  1.3430
11337SOL     OW45229   4.457   3.994   3.633 -0.6206 -0.4796 -0.6205
11337SOL    HW145230   4.419   3.955   3.549  1.2598  0.1344 -1.7985
11337SOL    HW245231   4.531   3.935   3.666  1.2407  1.2662 -1.5873
11338SOL     OW45232   9.568   0.403   1.922 -0.0204 -0.0365 -0.0659
11338SOL    HW145233   9.495   0.341   1.953 -1.3945  0.1960 -2.6359
11338SOL    HW245234   9.530   0.495   1.909  1.3412  0.6867  0.9693
11339SOL     OW45235   8.669   1.880   4.824 -0.0531  0.1472 -0.1551
11339SOL    HW145236   8.719   1.966   4.836 -0.0424  0.0159  0.7656
11339SOL    HW245237   8.669   1.829   4.910 -1.6401  0.0743 -0.1860
11340SOL     OW45238   1.662   7.423   4.271  0.1502 -0.0382 -0.2028
11340SOL    HW145239   1.675   7.481   4.190  0.2625 -0.2341 -0.3256
11340SOL    HW245240   1.673   7.327   4.245 -0.1629 -0.1220 -0.0242
11341SOL     OW45241   2.662   7.892   3.952  0.3899 -0.3008  0.4189
11341SOL    HW145242   2.734   7.824   3.936  0.3597  0.0054 -1.0660
11341SOL    HW245243   2.697   7.963   4.014  1.9028  0.6706 -1.5133
11342SOL     OW45244   8.256   8.727   1.316  0.5173 -0.0312  0.1278
11342SOL    HW145245   8.180   8.662   1.312 -0.2818  0.9373 -0.6781
11342SOL    HW245246   8.230   8.806   1.371  1.4357 -0.3275  0.9868
11343SOL     OW45247   5.467   8.814   4.364  0.5642 -0.0984  0.3740
11343SOL    HW145248   5.370   8.822   4.383 -0.0243 -0.5448 -2.2112
11343SOL    HW245249   5.516   8.890   4.406 -1.3818  2.1228 -1.2609
11344SOL     OW45250   0.169   3.362   4.034  0.2772 -0.0426  0.2390
11344SOL    HW145251   0.078   3.326   4.013  0.4579 -0.0333 -0.5629
11344SOL    HW245252   0.162   3.429   4.108 -0.5953  1.2033 -0.9536
11345SOL     OW45253   9.413   6.462   0.128 -0.4816  0.0956  0.1134
11345SOL    HW145254   9.362   6.548   0.141 -1.0147 -0.2486  0.3263
11345SOL    HW245255   9.444   6.455   0.034 -1.4319 -0.0159 -0.1971
11346SOL     OW45256   7.544   2.338   2.916 -0.0523 -0.1368  0.1221
11346SOL    HW145257   7.565   2.295   2.828  1.1834 -0.5002  0.5822
11346SOL    HW245258   7.592   2.290   2.989 -2.5688 -1.0271  1.2405
11347SOL     OW45259   5.865   7.211   4.274 -0.4318  0.4446  0.1579
11347SOL    HW145260   5.832   7.304   4.258  0.2750  0.5666 -0.6411
11347SOL    HW245261   5.950   7.197   4.224  0.0022 -0.3108  1.0820
11348SOL     OW45262   8.880   1.669   6.005 -0.1611 -0.2376 -0.2138
11348SOL    HW145263   8.889   1.581   6.050 -0.5098 -1.2070 -2.0143
11348SOL    HW245264   8.784   1.696   6.003 -0.0176  0.3673  0.6514
11349SOL     OW45265   0.323   0.300   5.522 -0.1614  0.2902  0.1000
11349SOL    HW145266   0.343   0.393   5.491 -0.8147  1.2546  2.4854
11349SOL    HW245267   0.225   0.289   5.533 -0.1108 -0.7937 -0.4561
11350SOL     OW45268   0.449   1.967   3.232 -1.0112 -0.2238 -0.0028
11350SOL    HW145269   0.414   2.054   3.269 -0.2897  0.3065 -0.5556
11350SOL    HW245270   0.534   1.984   3.182 -0.0270 -1.4889  1.2030
11351SOL     OW45271   9.542   9.813   5.070  0.2171 -0.2824 -0.0630
11351SOL    HW145272   9.636   9.800   5.037 -1.1530 -4.3747 -2.6924
11351SOL    HW245273   9.495   9.878   5.011  0.7144  0.0924 -0.0573
11352SOL     OW45274   3.791   4.558   6.147 -0.3141 -0.4777  0.2572
11352SOL    HW145275   3.853   4.636   6.143 -1.9404  0.8986  1.3814
11352SOL    HW245276   3.843   4.474   6.129  1.6312  0.7415 -0.0222
11353SOL     OW45277   9.302   0.856   5.797  0.0315 -0.0080 -0.4709
11353SOL    HW145278   9.302   0.947   5.757  0.2999 -0.4316 -1.4333
11353SOL    HW245279   9.328   0.788   5.728 -1.6700 -0.9912 -0.1813
11354SOL     OW45280   6.666   7.784   4.544  0.2929 -0.0948  0.6963
11354SOL    HW145281   6.693   7.772   4.639 -0.4566  1.1374  1.0717
11354SOL    HW245282   6.740   7.827   4.493  0.4595 -0.1836  0.8658
11355SOL     OW45283   8.925   8.771   6.099  0.4321 -0.0092 -0.2413
11355SOL    HW145284   8.909   8.695   6.037  0.9270  0.3048 -0.7567
11355SOL    HW245285   9.015   8.762   6.142  0.3866  0.1479 -0.1080
11356SOL     OW45286   7.692   0.484   2.913  0.7595 -0.5563 -0.1539
11356SOL    HW145287   7.623   0.550   2.882  1.4843  0.4375  0.3081
11356SOL    HW245288   7.781   0.529   2.915  0.7565 -0.6198  3.2367
11357SOL     OW45289   5.575   2.361   4.324  0.1890 -0.3475 -0.6843
11357SOL    HW145290   5.482   2.334   4.350 -0.0528  0.3375 -0.8167
11357SOL    HW245291   5.609   2.428   4.390  0.9104 -1.2209 -0.1608
11358SOL     OW45292   7.420   5.255   6.700  0.1502  0.5322 -0.1482
11358SOL    HW145293   7.452   5.313   6.775 -0.6920  1.0569 -0.1924
11358SOL    HW245294   7.407   5.310   6.617  0.7919  0.0111 -0.6087
11359SOL     OW45295   9.305   1.985   5.320  0.2566 -0.4484 -0.5018
11359SOL    HW145296   9.321   1.953   5.413  2.1622  1.0736 -0.2620
11359SOL    HW245297   9.218   2.034   5.316  1.2743  1.5835  1.0882
11360SOL     OW45298   0.383   8.583   2.392  0.2381  0.3178 -0.4138
11360SOL    HW145299   0.360   8.560   2.486  0.6010  2.3071  0.1803
11360SOL    HW245300   0.480   8.606   2.386 -0.1808  1.9845 -0.9163
11361SOL     OW45301   0.726   3.252   2.122  0.2155 -0.5812 -0.6368
11361SOL    HW145302   0.655   3.264   2.053  1.6912  0.0291 -2.0663
11361SOL    HW245303   0.800   3.196   2.085  1.2901  0.2297  0.2586
11362SOL     OW45304   7.538   2.606   3.989  0.1367 -0.3470  0.2699
11362SOL    HW145305   7.553   2.682   3.926 -0.4661 -0.8770 -0.5162
11362SOL    HW245306   7.607   2.609   4.061  0.8624  0.2247 -0.4377
11363SOL     OW45307   8.985   7.040   0.141  0.2441  0.0062 -0.1234
11363SOL    HW145308   8.917   6.969   0.162  0.2032  0.3746  1.0181
11363SOL    HW245309   8.985   7.058   0.042  0.2482 -1.5737 -0.4258
11364SOL     OW45310   6.370   1.439   0.072  0.2201 -0.0770 -0.0064
11364SOL    HW145311   6.387   1.512   0.138 -1.0523  0.4631 -0.2480
11364SOL    HW245312   6.453   1.385   0.060  0.5694  0.0200  1.7714
11365SOL     OW45313   1.966   9.618   0.873  0.2903  0.2130  0.4904
11365SOL    HW145314   1.976   9.620   0.972  0.3149 -1.2351  0.5311
11365SOL    HW245315   1.886   9.562   0.849 -0.7190  1.9293 -0.2511
11366SOL     OW45316   9.056   0.901   4.462  0.2028 -0.1800  0.6464
11366SOL    HW145317   9.105   0.871   4.544  0.9034 -0.2794  0.2012
11366SOL    HW245318   9.119   0.952   4.403 -1.0774  2.5373  1.5758
11367SOL     OW45319   3.481   6.565   3.430 -0.1209 -0.0689  0.3244
11367SOL    HW145320   3.409   6.619   3.387  0.0080 -0.7610 -0.7759
11367SOL    HW245321   3.444   6.477   3.460  0.5673 -0.9884 -1.4845
11368SOL     OW45322   8.694   1.492   3.184  0.1071 -0.1037  0.0793
11368SOL    HW145323   8.785   1.496   3.224 -0.4148  0.6157  1.2353
11368SOL    HW245324   8.649   1.581   3.194  0.4055  0.4898 -3.2323
11369SOL     OW45325   7.943   5.188   2.246  0.3349  0.0261  0.0644
11369SOL    HW145326   8.006   5.211   2.172  0.7787 -0.8189  0.1630
11369SOL    HW245327   7.936   5.088   2.254  0.3046  0.1080  1.1747
11370SOL     OW45328   9.516   8.011   3.763 -0.3826  0.4800 -0.1741
11370SOL    HW145329   9.590   8.076   3.775 -0.8436  0.9513  0.1194
11370SOL    HW245330   9.429   8.053   3.791 -0.6961 -0.2185 -0.0823
11371SOL     OW45331   2.594   0.446   5.765 -0.2326 -0.2503  0.9001
11371SOL    HW145332   2.604   0.456   5.666  0.4871  1.5640  1.1431
11371SOL    HW245333   2.684   0.449   5.808 -0.6772  0.7073  1.7654
11372SOL     OW45334   5.659   9.193   4.875  0.2220  0.6228 -0.3100
11372SOL    HW145335   5.658   9.289   4.848 -0.8563  0.3470 -1.2752
11372SOL    HW245336   5.605   9.181   4.959  1.9226  1.1513  0.8874
11373SOL     OW45337   1.256   2.420   3.634 -0.1847 -0.3977  0.0046
11373SOL    HW145338   1.184   2.453   3.573 -0.4017  1.0271  1.0260
11373SOL    HW245339   1.236   2.326   3.661 -0.0939 -1.0663 -2.0967
11374SOL     OW45340   2.187   8.448   0.495  0.0695 -0.3069 -0.2569
11374SOL    HW145341   2.247   8.504   0.553 -1.2020  1.0255 -0.2201
11374SOL    HW245342   2.092   8.470   0.514 -0.4474 -2.0516 -0.7000
11375SOL     OW45343   1.735   3.555   5.937  0.1228 -0.3699  0.4530
11375SOL    HW145344   1.682   3.607   6.004  1.4087  0.8535  0.5444
11375SOL    HW245345   1.807   3.503   5.984 -0.0623 -0.8622  0.1923
11376SOL     OW45346   6.747   0.283   2.292  0.2190  0.7015  0.1768
11376SOL    HW145347   6.794   0.324   2.370  1.7232 -2.0653  0.8019
11376SOL    HW245348   6.807   0.284   2.212  1.4433 -2.7572  0.9503
11377SOL     OW45349   1.689   1.635   4.327 -0.6402  0.2315 -0.5443
11377SOL    HW145350   1.634   1.609   4.247 -1.8416  0.6345  0.1348
11377SOL    HW245351   1.781   1.597   4.318 -0.6171  0.6525 -2.3424
11378SOL     OW45352   8.202   5.896   1.839 -0.2239 -0.3385 -0.3528
11378SOL    HW145353   8.190   5.958   1.761  0.9630  1.4290  0.8264
11378SOL    HW245354   8.253   5.815   1.810  1.7308  1.0992 -1.0564
11379SOL     OW45355   7.616   5.611   5.942  0.0731 -0.0376  0.1025
11379SOL    HW145356   7.527   5.644   5.909 -0.0462 -0.0607  0.3960
11379SOL    HW245357   7.604   5.569   6.032  1.0272  3.7167  2.0894
11380SOL     OW45358   4.230   3.033   1.163  0.2101 -0.3632  0.2559
11380SOL    HW145359   4.271   3.125   1.160 -1.3510  0.3217 -0.7212
11380SOL    HW245360   4.270   2.977   1.090  0.5874 -0.2140  0.3455
11381SOL     OW45361   3.466   0.537   5.908 -0.1257 -0.4704 -0.1829
11381SOL    HW145362   3.390   0.481   5.874  1.0364 -1.8352 -0.5580
11381SOL    HW245363   3.518   0.486   5.975  0.4944  0.4487  0.0509
11382SOL     OW45364   5.529   4.421   0.219  0.2921 -0.1106  0.0184
11382SOL    HW145365   5.516   4.351   0.149  0.9428 -0.3359  0.1177
11382SOL    HW245366   5.463   4.494   0.206 -1.0262 -1.1881  0.4698
11383SOL     OW45367   6.748   9.112   5.249  0.0469 -0.5788 -0.1869
11383SOL    HW145368   6.731   9.107   5.347 -1.5063  0.9366 -0.3457
11383SOL    HW245369   6.780   9.024   5.216  0.4431 -1.1523  1.6407
11384SOL     OW45370   4.280   8.784   5.264 -0.1626 -0.4077 -0.2996
11384SOL    HW145371   4.312   8.808   5.172 -1.0034 -0.7730 -0.6975
11384SOL    HW245372   4.275   8.866   5.320  1.1445 -0.2990 -0.3274
11385SOL     OW45373   3.180   0.447   4.016  0.2584 -0.1432 -0.4552
11385SOL    HW145374   3.270   0.489   4.025 -0.6174  1.5947  0.3985
11385SOL    HW245375   3.166   0.383   4.092  1.0923 -1.0693 -1.0612
11386SOL     OW45376   3.983   1.612   2.823  0.0636 -0.1096  0.6676
11386SOL    HW145377   3.965   1.687   2.759  0.2996 -0.3247  0.3460
11386SOL    HW245378   4.027   1.647   2.905  0.6523  0.0372  0.2962
11387SOL     OW45379   8.827   1.920   1.335  0.0436 -0.0493 -0.9829
11387SOL    HW145380   8.773   2.004   1.332  1.1816  0.7860  1.1701
11387SOL    HW245381   8.896   1.928   1.406  1.0152 -2.3142 -1.6567
11388SOL     OW45382   9.683   9.764   0.807 -0.6244 -0.0145 -0.2188
11388SOL    HW145383   9.723   9.682   0.766 -1.4387 -0.0337 -0.9904
11388SOL    HW245384   9.608   9.796   0.750 -0.3303  1.2564  0.0979
11389SOL     OW45385   8.828   2.196   3.254 -0.3724 -0.0526  0.1258
11389SOL    HW145386   8.790   2.265   3.315 -1.3004  0.4747 -1.0328
11389SOL    HW245387   8.877   2.242   3.179 -1.2024 -0.6486 -0.7817
11390SOL     OW45388   8.774   7.723   3.233 -0.2427  0.7031 -0.1551
11390SOL    HW145389   8.834   7.786   3.283 -0.2335  0.2550  0.4036
11390SOL    HW245390   8.821   7.690   3.152 -0.4591  1.8578 -0.7718
11391SOL     OW45391   3.990   4.818   0.563  0.5964  0.1048  0.2427
11391SOL    HW145392   4.068   4.765   0.531  1.1627  1.4431 -0.6707
11391SOL    HW245393   3.947   4.864   0.485 -1.0330 -0.5278  0.7618
11392SOL     OW45394   2.937   9.878   2.648  0.1160 -0.1797  0.6287
11392SOL    HW145395   2.974   9.913   2.734  0.3796 -1.5000  1.0579
11392SOL    HW245396   2.942   9.950   2.579  0.8278  0.5718  1.4391
11393SOL     OW45397   0.064   4.496   1.704 -0.0225  0.0764  0.1798
11393SOL    HW145398   0.107   4.500   1.614 -0.1386 -0.9213  0.0730
11393SOL    HW245399   0.126   4.450   1.769  0.7456  2.2226  1.0231
11394SOL     OW45400   9.863   5.132   4.617  0.6054 -0.0528 -0.5718
11394SOL    HW145401   9.782   5.088   4.577  0.1357  1.0428 -0.8577
11394SOL    HW245402   9.943   5.111   4.562  0.4449 -0.8200 -0.5165
11395SOL     OW45403   5.255   2.939   3.681 -0.2812  0.4434 -0.0303
11395SOL    HW145404   5.334   2.946   3.742 -0.6044  0.8055  0.3497
11395SOL    HW245405   5.254   2.848   3.639  1.3645  1.0802 -1.4852
11396SOL     OW45406   4.734   2.387   0.755  0.1698  0.3139  0.1112
11396SOL    HW145407   4.710   2.290   0.746  2.6417 -0.2281 -1.1485
11396SOL    HW245408   4.825   2.394   0.795  1.3822  2.0075 -2.8111
11397SOL     OW45409   7.835   0.222   3.452 -0.3297 -0.2169  0.2233
11397SOL    HW145410   7.763   0.283   3.486  0.3525  0.9940 -0.4629
11397SOL    HW245411   7.852   0.151   3.520 -1.5600 -0.0025  0.7826
11398SOL     OW45412   6.956   2.696   3.139  0.8834 -0.4597 -0.1828
11398SOL    HW145413   6.900   2.636   3.196 -0.6304  1.1601  0.0934
11398SOL    HW245414   6.950   2.790   3.175 -1.3993  0.9268 -3.8722
11399SOL     OW45415   7.051   0.849   2.546  0.2586  0.1596 -0.4277
11399SOL    HW145416   6.971   0.826   2.602  0.3563 -0.5687 -0.5948
11399SOL    HW245417   7.089   0.936   2.578 -0.2347  0.2076  0.0419
11400SOL     OW45418   1.007   6.635   1.553  0.0040 -0.0787  0.0713
11400SOL    HW145419   0.984   6.721   1.508 -0.6217  0.7106  1.9031
11400SOL    HW245420   0.923   6.587   1.579  0.3603  0.0501  1.5010
11401SOL     OW45421   3.569   9.721   5.543 -0.1571 -0.3733  0.1269
11401SOL    HW145422   3.473   9.712   5.516 -0.1338  2.5274 -1.1251
11401SOL    HW245423   3.589   9.817   5.563  2.2935 -1.0640  1.1856
11402SOL     OW45424   0.238   0.951   4.234 -0.1711 -0.4588  0.5590
11402SOL    HW145425   0.142   0.926   4.220 -0.8501  1.6908  1.1715
11402SOL    HW245426   0.296   0.888   4.183 -1.9483 -1.0971 -0.7540
11403SOL     OW45427   2.817   0.925   2.151 -0.0303  0.0790  0.5458
11403SOL    HW145428   2.825   0.858   2.077  1.0336  0.5037  0.2674
11403SOL    HW245429   2.907   0.948   2.186 -0.2474  2.3513 -0.2684
11404SOL     OW45430   9.564   2.125   3.850  0.3017 -0.2388  0.2346
11404SOL    HW145431   9.505   2.160   3.777  1.1496 -0.0762 -0.3790
11404SOL    HW245432   9.513   2.059   3.905 -0.3445 -0.3782 -0.5196
11405SOL     OW45433   1.326   4.782   0.689 -0.4200 -0.5193 -0.3848
11405SOL    HW145434   1.351   4.773   0.786 -0.6483 -2.3257 -0.4662
11405SOL    HW245435   1.398   4.740   0.633 -0.8292 -0.4863 -0.9341
11406SOL     OW45436   4.192   3.523   4.159 -0.1191  0.6439  0.5660
11406SOL    HW145437   4.203   3.449   4.226 -0.7458  0.9455  1.0100
11406SOL    HW245438   4.096   3.549   4.154 -0.0353  0.8100 -0.2609
11407SOL     OW45439   6.100   9.546   1.447 -0.1069  0.2717  0.0089
11407SOL    HW145440   6.195   9.575   1.437 -0.2367  1.1074  1.1493
11407SOL    HW245441   6.082   9.523   1.543 -1.0372  0.0776 -0.2091
11408SOL     OW45442   3.595   9.099   0.756  0.4689  0.5630 -0.0975
11408SOL    HW145443   3.568   9.121   0.849 -0.8142 -2.3847  0.2656
11408SOL    HW245444   3.517   9.111   0.694  0.0566 -1.6935 -0.0645
11409SOL     OW45445   7.836   6.469   2.417  0.8148 -0.5014 -0.8637
11409SOL    HW145446   7.810   6.500   2.508  1.9240  3.0767 -1.6784
11409SOL    HW245447   7.756   6.473   2.356  1.0567  1.4336 -1.0915
11410SOL     OW45448   8.688   0.171   1.057 -0.0908 -0.1818 -0.0519
11410SOL    HW145449   8.702   0.220   1.144  0.4551 -0.3114 -0.0649
11410SOL    HW245450   8.775   0.168   1.007 -0.6620  0.8882 -1.1227
11411SOL     OW45451   2.983   3.769   1.996  0.7813 -0.0564  0.1351
11411SOL    HW145452   3.068   3.812   1.965 -0.2754  0.6272 -1.9124
11411SOL    HW245453   2.916   3.769   1.921 -1.4246  0.4542  2.0285
11412SOL     OW45454   8.394   5.812   2.163 -0.8702 -0.0032  0.4914
11412SOL    HW145455   8.317   5.766   2.118  0.5124  0.3312 -2.3454
11412SOL    HW245456   8.363   5.897   2.204 -2.1842 -0.3201  0.1931
11413SOL     OW45457   3.863   1.796   6.101 -0.9642 -0.1591  0.2365
11413SOL    HW145458   3.957   1.771   6.077 -0.4156  1.7811  0.2942
11413SOL    HW245459   3.812   1.713   6.125  0.2950 -1.4057 -1.2470
11414SOL     OW45460   7.611   0.121   1.464 -0.6959  0.2619 -0.2998
11414SOL    HW145461   7.630   0.145   1.369  0.6071  0.1907 -0.0638
11414SOL    HW245462   7.517   0.090   1.472 -0.8706  0.4423 -1.5359
11415SOL     OW45463   4.508   4.517   2.706  0.1655  0.1821  0.5103
11415SOL    HW145464   4.581   4.462   2.748  0.8444  1.0022  0.4330
11415SOL    HW245465   4.436   4.457   2.672 -0.4777 -0.5174  2.9940
11416SOL     OW45466   8.804   3.459   2.453 -0.0998  0.5809  0.3898
11416SOL    HW145467   8.803   3.554   2.484 -0.6805  1.2452 -1.5694
11416SOL    HW245468   8.893   3.439   2.411 -0.1258  0.3700  0.4347
11417SOL     OW45469   9.746   2.580   3.440 -0.5644  0.1206  0.3320
11417SOL    HW145470   9.704   2.589   3.530  0.4901  0.9168  0.7522
11417SOL    HW245471   9.793   2.665   3.416  1.1338 -0.8861  0.0346
11418SOL     OW45472   0.629   8.368   3.422  0.1532  0.1717 -0.7087
11418SOL    HW145473   0.547   8.318   3.450  1.6265  0.1272  3.9925
11418SOL    HW245474   0.689   8.308   3.370 -0.3666 -1.5022  0.5716
11419SOL     OW45475   8.371   6.516   5.526  0.5784 -0.1767  0.0481
11419SOL    HW145476   8.347   6.524   5.429 -2.8222  0.5637  0.8654
11419SOL    HW245477   8.450   6.574   5.546  0.5552  0.6112 -2.0346
11420SOL     OW45478   5.686   0.436   4.212 -0.1377  0.7026  0.2109
11420SOL    HW145479   5.700   0.348   4.167  1.8828  0.5077  1.1855
11420SOL    HW245480   5.599   0.434   4.261 -1.2066  0.0790 -1.6331
11421SOL     OW45481   1.892   1.436   3.710 -0.3239  0.0702 -0.3242
11421SOL    HW145482   1.972   1.452   3.767 -0.4829 -0.4834  0.0613
11421SOL    HW245483   1.835   1.518   3.708  1.0253  0.9983 -1.8549
11422SOL     OW45484   3.068   9.801   0.634 -0.0115  0.1753 -0.4383
11422SOL    HW145485   3.017   9.806   0.548  0.3736  0.3338 -0.6567
11422SOL    HW245486   3.056   9.886   0.685  0.6221  0.4939 -0.8205
11423SOL     OW45487   1.747   2.074   0.252  0.1802  0.1698 -0.1723
11423SOL    HW145488   1.766   2.062   0.349 -0.9427 -1.8079 -0.1703
11423SOL    HW245489   1.666   2.132   0.240 -0.9487 -1.3209  0.1446
11424SOL     OW45490   4.367   3.031   4.043 -0.3122  0.5958  0.0683
11424SOL    HW145491   4.345   3.081   3.960 -0.2495 -0.4564 -0.5922
11424SOL    HW245492   4.320   2.943   4.043  1.4070 -0.3421  0.1154
11425SOL     OW45493   8.479   7.937   5.158  0.0013  0.3631  0.4475
11425SOL    HW145494   8.453   7.846   5.124 -1.6211  0.7148  0.7158
11425SOL    HW245495   8.494   7.933   5.257 -1.0993  0.6051  0.6276
11426SOL     OW45496   1.163   9.183   4.933 -0.7435  0.0798 -0.0617
11426SOL    HW145497   1.124   9.206   5.022 -1.1279  2.5258 -0.8268
11426SOL    HW245498   1.262   9.194   4.936 -0.5908 -1.2714  0.4503
11427SOL     OW45499   0.184   7.930   4.507 -0.1255  0.2242 -0.3852
11427SOL    HW145500   0.158   7.873   4.585  0.1547  1.0054  0.2857
11427SOL    HW245501   0.135   7.899   4.425 -1.2622  0.0881  0.3336
11428SOL     OW45502   1.058   9.819   3.377 -0.3162  0.0557  0.4332
11428SOL    HW145503   1.049   9.917   3.394 -2.2494  0.1603 -1.0757
11428SOL    HW245504   1.139   9.802   3.321 -0.1491  0.8257  0.4351
11429SOL     OW45505   7.871   7.192   4.316 -0.4402 -0.3499  0.2928
11429SOL    HW145506   7.882   7.175   4.218 -0.8868  0.8301  0.0335
11429SOL    HW245507   7.796   7.257   4.330  0.4035  0.3900  1.3488
11430SOL     OW45508   6.997   0.031   2.782  0.0707  0.4483  0.0017
11430SOL    HW145509   7.047   0.095   2.839  0.5235 -0.3775  0.5388
11430SOL    HW245510   7.028   0.039   2.687  1.4407 -0.2701  0.3856
11431SOL     OW45511   1.397   2.841   6.457 -0.1446  0.0355 -0.2278
11431SOL    HW145512   1.365   2.917   6.400 -0.3035  0.5096  0.4837
11431SOL    HW245513   1.436   2.877   6.542  3.0378 -0.4865 -1.4038
11432SOL     OW45514   7.874   4.784   6.725  0.2021 -0.2566 -0.0414
11432SOL    HW145515   7.898   4.763   6.820  1.0903  1.1658  0.0522
11432SOL    HW245516   7.957   4.793   6.670 -0.3169 -1.3567 -1.0276
11433SOL     OW45517   7.633   9.168   2.289  0.0092 -0.2848  0.3173
11433SOL    HW145518   7.586   9.241   2.338  0.7413 -0.6007  1.5014
11433SOL    HW245519   7.730   9.168   2.314  0.0781 -1.4635  0.0849
11434SOL     OW45520   0.225   1.373   0.696  0.6893  0.2632  0.5604
11434SOL    HW145521   0.236   1.364   0.597  0.9030 -1.5600  0.7322
11434SOL    HW245522   0.181   1.460   0.717 -0.5969  0.0762 -1.2305
11435SOL     OW45523   3.074   5.599   3.852  0.4163  0.1350  0.5776
11435SOL    HW145524   3.145   5.530   3.861  0.3093  0.0989  1.1908
11435SOL    HW245525   3.109   5.677   3.800 -0.1351 -1.2904 -2.0328
11436SOL     OW45526   4.609   0.983   6.521  0.0277 -0.1340 -0.4420
11436SOL    HW145527   4.674   0.907   6.533  3.0851  2.3009 -0.9088
11436SOL    HW245528   4.581   0.988   6.426  2.4376  1.3147 -1.1066
11437SOL     OW45529   9.054   7.979   1.992  0.1176 -0.2711  0.4804
11437SOL    HW145530   9.021   7.990   2.085  1.7031 -0.1177  1.0398
11437SOL    HW245531   9.024   7.890   1.956 -0.2207 -0.4645  1.2354
11438SOL     OW45532   9.839   6.414   0.618  0.2531 -0.6006  0.1588
11438SOL    HW145533   9.937   6.423   0.597  0.3828 -0.4712  0.8130
11438SOL    HW245534   9.798   6.345   0.558  0.8764 -1.0952  0.2920
11439SOL     OW45535   7.526   8.119   3.126 -0.2014 -0.1939  0.2457
11439SOL    HW145536   7.568   8.068   3.051 -0.3673  1.4979 -1.0464
11439SOL    HW245537   7.530   8.066   3.210  2.2457 -1.0996 -0.4219
11440SOL     OW45538   2.373   7.621   2.857  0.0279 -0.5294 -0.0576
11440SOL    HW145539   2.276   7.637   2.876 -0.3305 -0.7488 -1.6890
11440SOL    HW245540   2.384   7.583   2.765  1.6218 -0.9942  0.3021
11441SOL     OW45541   0.177   8.991   5.329  0.2771 -0.1905 -0.6113
11441SOL    HW145542   0.164   8.997   5.428  0.3646  2.2137 -0.7232
11441SOL    HW245543   0.270   8.962   5.309  0.5526  0.2689 -0.0046
11442SOL     OW45544   1.240   5.199   3.577  0.6433 -0.5871 -0.4877
11442SOL    HW145545   1.225   5.208   3.478 -1.7543  0.9213 -0.0301
11442SOL    HW245546   1.271   5.287   3.614  0.4798 -0.8491  0.2799
11443SOL     OW45547   0.895   9.004   0.197  0.1590  0.0614 -0.0220
11443SOL    HW145548   0.864   8.920   0.242  1.6244 -1.4220 -1.7143
11443SOL    HW245549   0.823   9.038   0.136  0.4006 -1.1972 -1.0063
11444SOL     OW45550   2.101   6.200   0.941  0.5443 -0.4702  0.7978
11444SOL    HW145551   2.017   6.229   0.988  0.4714  0.6765 -0.0032
11444SOL    HW245552   2.180   6.223   0.998  0.3779 -0.3798  0.9938
11445SOL     OW45553   2.621   3.253   1.523  0.0628  0.4162  0.0228
11445SOL    HW145554   2.668   3.176   1.565  0.5261  0.2933 -0.7203
11445SOL    HW245555   2.545   3.219   1.468  0.2180  0.5014 -0.2410
11446SOL     OW45556   1.340   2.877   3.994 -0.3502  0.8782 -0.0732
11446SOL    HW145557   1.383   2.865   4.083 -0.7284  0.4939  0.0603
11446SOL    HW245558   1.359   2.796   3.937 -1.3707  0.4438  0.1875
11447SOL     OW45559   1.274   9.781   3.229 -0.1162 -0.4322  0.2341
11447SOL    HW145560   1.289   9.708   3.162 -1.8923 -0.3299 -0.2944
11447SOL    HW245561   1.359   9.833   3.241  0.1766 -0.2930 -2.1642
11448SOL     OW45562   1.985   6.503   1.756 -0.1050  0.4160 -0.1172
11448SOL    HW145563   2.036   6.522   1.672  1.1543 -0.2898  0.4860
11448SOL    HW245564   2.037   6.537   1.835 -1.5583  1.6362  0.3523
11449SOL     OW45565   0.660   3.969   2.977 -0.2692  0.5061 -0.0331
11449SOL    HW145566   0.734   3.927   3.030 -0.6653  0.0520  0.1607
11449SOL    HW245567   0.579   3.979   3.034 -1.7282 -2.8804 -1.3640
11450SOL     OW45568   6.269   9.046   2.467 -0.0184  0.3249 -0.3037
11450SOL    HW145569   6.309   9.112   2.531  0.4176  0.2744 -0.5251
11450SOL    HW245570   6.288   9.074   2.373 -0.6500  0.3917 -0.4112
11451SOL     OW45571   0.649   4.625   0.471  0.0473  0.1542  0.7258
11451SOL    HW145572   0.552   4.647   0.456 -0.0822 -0.9451 -0.1272
11451SOL    HW245573   0.703   4.658   0.394 -0.0684 -1.8908 -0.2699
11452SOL     OW45574   8.192   5.694   0.108 -0.0278  0.0031 -0.5537
11452SOL    HW145575   8.148   5.680   0.019 -1.0419  1.1919 -0.2610
11452SOL    HW245576   8.123   5.686   0.181  0.5082  0.4538  0.0077
11453SOL     OW45577   7.778   3.340   2.165  0.0252 -0.2166 -0.5731
11453SOL    HW145578   7.726   3.424   2.181 -1.8458 -1.4743  0.1852
11453SOL    HW245579   7.829   3.317   2.248 -1.3415 -1.0714  0.0559
11454SOL     OW45580   2.713   7.012   5.363 -0.2404 -0.4011  0.3609
11454SOL    HW145581   2.808   6.983   5.357 -0.4437 -1.3360  1.4313
11454SOL    HW245582   2.684   7.010   5.459 -1.2250  0.2191  0.0791
11455SOL     OW45583   8.739   7.430   2.337  0.2531  0.1075  0.1295
11455SOL    HW145584   8.784   7.382   2.262  0.4427  1.1032 -0.3871
11455SOL    HW245585   8.652   7.467   2.305  0.3025  0.4740  0.4163
11456SOL     OW45586   9.307   5.370   3.184  0.3536 -0.4926  0.3562
11456SOL    HW145587   9.252   5.327   3.113  1.8214 -1.2276 -0.3497
11456SOL    HW245588   9.303   5.470   3.174 -1.9504 -0.4721  1.1703
11457SOL     OW45589   6.411   1.896   1.761  0.3936 -0.0754 -0.2844
11457SOL    HW145590   6.428   1.897   1.859  1.4686  1.0189 -0.4732
11457SOL    HW245591   6.493   1.925   1.712 -0.4868  0.5154 -1.4533
11458SOL     OW45592   6.675   2.616   4.556 -0.3115  0.0613 -0.0756
11458SOL    HW145593   6.717   2.700   4.590 -0.1804  0.2507 -0.7009
11458SOL    HW245594   6.621   2.574   4.629 -0.4369  0.7291  0.2208
11459SOL     OW45595   0.748   4.790   3.145 -0.3851  0.1272  0.3115
11459SOL    HW145596   0.651   4.769   3.136 -0.9526  1.8428  2.1113
11459SOL    HW245597   0.800   4.705   3.155 -1.3840 -0.9599 -3.0304
11460SOL     OW45598   4.063   6.615   1.871  0.0795  0.3421 -0.2684
11460SOL    HW145599   4.146   6.669   1.884 -0.2119  1.3810 -2.5665
11460SOL    HW245600   4.080   6.543   1.804 -0.8200  0.3968 -0.5637
11461SOL     OW45601   0.677   5.278   1.638  0.4806 -0.1619  0.6130
11461SOL    HW145602   0.629   5.216   1.699 -0.1503  0.5202  0.8176
11461SOL    HW245603   0.715   5.226   1.561 -1.5465 -0.5634 -0.1397
11462SOL     OW45604   1.789   9.956   1.724 -0.8197 -0.0785  0.0853
11462SOL    HW145605   1.879   9.916   1.740 -0.9442 -0.9557 -1.4251
11462SOL    HW245606   1.733   9.945   1.807 -0.3375 -1.6266  0.2170
11463SOL     OW45607   5.700   5.419   0.759 -0.0994  0.0034  0.4797
11463SOL    HW145608   5.637   5.369   0.819 -0.4069  3.2685  3.0151
11463SOL    HW245609   5.784   5.366   0.748 -1.9805 -2.9266 -0.3242
11464SOL     OW45610   6.018   8.156   4.508  0.2179  0.6004  0.2021
11464SOL    HW145611   5.979   8.162   4.416  0.0339  0.5323  0.2753
11464SOL    HW245612   5.979   8.227   4.566  1.8188  1.9175 -0.3115
11465SOL     OW45613   8.860   2.586   1.004 -0.5520  0.1026 -0.2143
11465SOL    HW145614   8.925   2.561   1.076 -0.8521 -0.8154 -0.2547
11465SOL    HW245615   8.789   2.515   0.997 -2.9126  2.2028  1.4405
11466SOL     OW45616   3.081   5.147   1.188 -0.1954  0.0788  0.2977
11466SOL    HW145617   3.003   5.110   1.238 -1.2732 -1.2536 -2.2458
11466SOL    HW245618   3.082   5.247   1.198 -0.5925 -0.1285  2.6025
11467SOL     OW45619   1.438   5.340   6.092 -0.2465  0.0946  0.5536
11467SOL    HW145620   1.529   5.381   6.105 -0.7334  1.0669  0.9691
11467SOL    HW245621   1.438   5.247   6.128  0.3981  0.3206  1.1567
11468SOL     OW45622   4.828   1.879   1.547  0.3509 -0.0777 -0.1298
11468SOL    HW145623   4.871   1.932   1.474  0.5949 -0.8406 -0.5340
11468SOL    HW245624   4.806   1.788   1.515  2.0664 -1.0225  1.2518
11469SOL     OW45625   2.891   5.386   0.837  0.4563  0.5676  0.0556
11469SOL    HW145626   2.823   5.315   0.853  0.1625  0.5355 -1.2562
11469SOL    HW245627   2.877   5.462   0.901  0.9189 -0.6366  1.6266
11470SOL     OW45628   0.362   0.846   1.655  0.0283  0.0347 -0.5218
11470SOL    HW145629   0.274   0.844   1.608 -1.0936 -0.1421  1.5187
11470SOL    HW245630   0.374   0.760   1.706  0.1682  1.1222  1.3328
11471SOL     OW45631   1.305   5.525   4.518 -0.2711 -0.2745  0.8864
11471SOL    HW145632   1.358   5.589   4.574 -0.2143  1.1100 -0.7046
11471SOL    HW245633   1.360   5.443   4.501  1.1265  0.8607 -0.1846
11472SOL     OW45634   1.061   9.470   2.493 -0.6634  0.2924  0.0617
11472SOL    HW145635   1.003   9.480   2.412  1.0122  0.4109 -1.1684
11472SOL    HW245636   1.039   9.541   2.559 -2.3082 -0.0292 -0.1246
11473SOL     OW45637   8.268   1.399   0.571 -0.4553 -0.5130 -0.0539
11473SOL    HW145638   8.273   1.356   0.661 -3.0932 -1.0114 -0.0891
11473SOL    HW245639   8.346   1.369   0.515  0.6103 -1.0525  1.6869
11474SOL     OW45640   8.223   7.701   1.577 -0.0295  0.3364  0.2042
11474SOL    HW145641   8.232   7.628   1.644  1.2484 -0.0811 -0.3973
11474SOL    HW245642   8.232   7.662   1.485 -2.7173  0.7563 -0.2573
11475SOL     OW45643   9.771   4.213   4.214 -0.2000  0.1463  0.0020
11475SOL    HW145644   9.845   4.278   4.229 -0.3258  0.4941 -0.8936
11475SOL    HW245645   9.810   4.123   4.193 -0.0222 -0.2218  1.7564
11476SOL     OW45646   8.604   5.293   1.311 -0.3105  0.1282 -0.6387
11476SOL    HW145647   8.632   5.365   1.248 -0.7960 -2.0661 -3.4914
11476SOL    HW245648   8.683   5.262   1.364  0.4346  1.0472 -1.2023
11477SOL     OW45649   1.496   5.135   1.383 -0.0207 -0.6325 -0.2218
11477SOL    HW145650   1.410   5.163   1.426  0.4358  1.3690 -0.5717
11477SOL    HW245651   1.563   5.209   1.390  0.5485 -0.8199 -3.0271
11478SOL     OW45652   6.438   1.076   0.878  0.7059  0.0925  0.1306
11478SOL    HW145653   6.446   1.005   0.948  0.3541  1.6699  1.7807
11478SOL    HW245654   6.503   1.057   0.804  2.6127 -0.3796  1.8983
11479SOL     OW45655   0.447   2.631   2.959 -0.6883  0.5220  0.4167
11479SOL    HW145656   0.492   2.579   3.033 -0.2871  0.8984  0.4398
11479SOL    HW245657   0.458   2.581   2.873  1.1251  1.3511  0.1372
11480SOL     OW45658   1.501   6.646   2.720 -0.2158  0.4072  0.3164
11480SOL    HW145659   1.431   6.574   2.716 -0.3600  0.5506  0.2492
11480SOL    HW245660   1.471   6.724   2.666  0.7171 -0.1533 -1.0180
11481SOL     OW45661   3.036   7.478   0.193  0.0942 -0.6608 -0.4109
11481SOL    HW145662   2.960   7.493   0.130  0.4238 -3.3142 -1.4822
11481SOL    HW245663   3.111   7.540   0.170 -0.8585  0.3865 -0.7744
11482SOL     OW45664   2.877   8.463   2.005 -0.2347  0.1428 -0.1145
11482SOL    HW145665   2.948   8.530   2.028  0.7391 -0.6055 -0.9525
11482SOL    HW245666   2.907   8.372   2.032  0.1611 -0.5144 -2.6577
11483SOL     OW45667   2.223   2.102   1.602  0.4032  0.2072 -0.4016
11483SOL    HW145668   2.226   2.071   1.507 -1.0157  2.1750 -1.1235
11483SOL    HW245669   2.249   2.198   1.606 -2.4615  0.9752  0.7732
11484SOL     OW45670   9.077   6.004   3.255 -0.1426 -0.0885 -0.2108
11484SOL    HW145671   9.144   6.040   3.190 -0.5677 -0.2582 -0.7504
11484SOL    HW245672   9.010   6.076   3.277 -0.2536 -0.1660 -0.2984
11485SOL     OW45673   2.490   8.900   5.381  0.2093  0.2294  0.3505
11485SOL    HW145674   2.468   8.926   5.475  1.2498 -0.2801  0.7381
11485SOL    HW245675   2.516   8.803   5.378 -1.1401 -0.1249 -0.6810
11486SOL     OW45676   0.353   1.529   0.158  0.1775  0.3524  0.3474
11486SOL    HW145677   0.433   1.587   0.173 -0.3830  1.6008 -1.3914
11486SOL    HW245678   0.329   1.530   0.061 -1.3588 -0.7991  0.7083
11487SOL     OW45679   7.452   3.473   3.430  0.0773 -0.1190  0.0750
11487SOL    HW145680   7.368   3.420   3.415 -1.1726  0.9219  3.0182
11487SOL    HW245681   7.503   3.434   3.506  1.0972  0.6217 -0.2190
11488SOL     OW45682   5.293   0.664   4.099  0.1980 -0.1985  0.6881
11488SOL    HW145683   5.304   0.565   4.094  0.1328 -0.1519 -0.3584
11488SOL    HW245684   5.327   0.707   4.015 -1.9617  0.4673  0.1219
11489SOL     OW45685   9.493   0.114   1.687  0.6938  0.1507  0.0982
11489SOL    HW145686   9.490   0.045   1.759  1.1322 -0.7633 -0.7459
11489SOL    HW245687   9.468   0.203   1.725  0.2511 -0.4436  1.2280
11490SOL     OW45688   9.821   5.790   5.367  0.2960  0.4687  0.1073
11490SOL    HW145689   9.916   5.792   5.398  0.5345  1.1388 -0.6355
11490SOL    HW245690   9.820   5.787   5.267 -0.4650  0.4294  0.1198
11491SOL     OW45691   0.397   0.351   0.615  0.7246  0.2371  0.2033
11491SOL    HW145692   0.495   0.349   0.594  1.4015  2.3070  2.9444
11491SOL    HW245693   0.367   0.259   0.640  2.0289 -0.3446 -0.2744
11492SOL     OW45694   8.638   7.694   3.655  0.4652 -0.1237  0.0923
11492SOL    HW145695   8.675   7.674   3.746 -0.4071  0.0607  0.4934
11492SOL    HW245696   8.687   7.640   3.587  0.6740 -0.7710  0.7464
11493SOL     OW45697   1.745   8.142   1.035 -0.0439  0.0437 -0.1458
11493SOL    HW145698   1.656   8.159   0.991 -0.3035 -0.7644  0.0642
11493SOL    HW245699   1.787   8.061   0.994  0.6573  0.4991 -0.3287
11494SOL     OW45700   9.528   3.749   3.619 -0.5088  0.4467 -0.1169
11494SOL    HW145701   9.461   3.686   3.659 -1.8370  1.8296 -0.1019
11494SOL    HW245702   9.495   3.843   3.629  0.9618  1.0795 -1.0419
11495SOL     OW45703   4.291   2.236   2.330 -0.5646  0.4966  0.6421
11495SOL    HW145704   4.252   2.230   2.422 -0.5058 -3.2247  0.4943
11495SOL    HW245705   4.242   2.173   2.269  1.1789  0.8947 -1.2248
11496SOL     OW45706   8.448   1.267   1.954 -0.1506  0.4373  0.5670
11496SOL    HW145707   8.445   1.220   2.043  0.7889  0.4296  0.6047
11496SOL    HW245708   8.415   1.206   1.883  2.6919 -0.9432  0.3537
11497SOL     OW45709   5.677   4.198   0.466  0.3013 -0.7195  0.1502
11497SOL    HW145710   5.710   4.220   0.558  0.9928 -1.9204  0.1964
11497SOL    HW245711   5.717   4.111   0.436  0.8421  0.1322 -1.6614
11498SOL     OW45712   2.500   6.270   0.975 -0.4069  0.4640 -0.6888
11498SOL    HW145713   2.508   6.288   0.877  0.3442 -0.9167 -0.8998
11498SOL    HW245714   2.549   6.340   1.026  0.9345  0.0649 -1.4013
11499SOL     OW45715   4.472   3.966   2.763  0.2341  0.1954 -0.1228
11499SOL    HW145716   4.410   3.976   2.685 -0.9887 -1.0037  0.6697
11499SOL    HW245717   4.471   4.049   2.818 -0.6833  0.1789 -0.1168
11500SOL     OW45718   7.735   2.542   4.415 -0.3637 -0.1286  0.3626
11500SOL    HW145719   7.648   2.501   4.443 -1.1546  1.6559  0.5371
11500SOL    HW245720   7.720   2.605   4.339  0.8293  0.0094  0.2271
11501SOL     OW45721   3.596   8.971   2.389 -0.3586  0.2273 -0.3438
11501SOL    HW145722   3.496   8.973   2.390 -0.3685  0.1782 -0.8935
11501SOL    HW245723   3.627   8.935   2.301  0.1252 -0.7782  0.2345
11502SOL     OW45724   8.281   0.038   5.453 -0.2650 -0.2351  0.7534
11502SOL    HW145725   8.235  -0.050   5.463  1.1336 -1.1174 -0.3723
11502SOL    HW245726   8.248   0.101   5.523 -2.5396 -1.1027  0.4883
11503SOL     OW45727   5.856   0.224   3.560 -0.3671 -0.1263  0.3806
11503SOL    HW145728   5.854   0.148   3.495 -1.9815  0.1160  0.1265
11503SOL    HW245729   5.929   0.287   3.535  0.3252 -1.0629 -0.0097
11504SOL     OW45730   1.460   7.237   0.026 -0.1184  0.0198 -0.1529
11504SOL    HW145731   1.480   7.295   0.105  1.3782 -2.7169  1.5812
11504SOL    HW245732   1.525   7.160   0.025 -1.6695 -1.3019 -2.6757
11505SOL     OW45733   8.898   6.476   5.224 -0.0536  0.2896 -0.1989
11505SOL    HW145734   8.928   6.486   5.130 -0.4286 -0.2252 -0.3792
11505SOL    HW245735   8.905   6.380   5.251  1.6432  0.6955  0.8432
11506SOL     OW45736   8.587   8.578   0.771  0.4906  0.2700 -0.3741
11506SOL    HW145737   8.596   8.637   0.852 -0.0122 -1.5835  1.0696
11506SOL    HW245738   8.543   8.629   0.698  3.2309  2.7987 -0.3748
11507SOL     OW45739   1.273   6.432   1.014 -0.0685 -0.0216 -0.8796
11507SOL    HW145740   1.262   6.489   0.933 -1.2701  0.0114 -0.7020
11507SOL    HW245741   1.183   6.411   1.052  0.5887  2.5069  2.2555
11508SOL     OW45742   2.534   5.563   0.124 -0.2340  0.4255  0.2738
11508SOL    HW145743   2.567   5.486   0.178 -1.2640 -0.4220 -0.3021
11508SOL    HW245744   2.612   5.613   0.087  0.4219 -1.5767 -1.1092
11509SOL     OW45745   2.187   7.135   6.053 -0.2415 -0.1652  0.0946
11509SOL    HW145746   2.150   7.220   6.090 -1.5938 -0.2250 -1.0790
11509SOL    HW245747   2.119   7.092   5.993  0.5643 -1.8761  0.3660
11510SOL     OW45748   2.182   2.677   6.752  0.0787 -0.4259  0.1136
11510SOL    HW145749   2.214   2.770   6.731 -1.1622 -0.2539 -1.1399
11510SOL    HW245750   2.244   2.610   6.711  1.0111 -0.1602  1.0720
11511SOL     OW45751   2.516   4.158   0.877 -0.1582 -0.6196  0.6393
11511SOL    HW145752   2.565   4.231   0.924 -1.8566 -0.6331  2.5006
11511SOL    HW245753   2.418   4.165   0.897 -0.9625 -0.5754 -3.0434
11512SOL     OW45754   9.741   6.964   1.513 -0.4264  0.0478 -0.1024
11512SOL    HW145755   9.664   6.929   1.460 -0.2312 -1.6368  0.7082
11512SOL    HW245756   9.734   7.064   1.518 -1.6539  0.0525 -1.4090
11513SOL     OW45757   0.807   1.678   0.456 -0.1661  0.1379 -0.3346
11513SOL    HW145758   0.889   1.622   0.458  1.7303  2.8521  0.8542
11513SOL    HW245759   0.758   1.670   0.543 -0.0034  0.1749 -0.2402
11514SOL     OW45760   3.411   9.594   5.944 -0.2995  0.2640 -0.8507
11514SOL    HW145761   3.348   9.583   5.868 -2.5225 -0.0580  0.9658
11514SOL    HW245762   3.441   9.504   5.976  0.6525  0.3966 -1.3613
11515SOL     OW45763   3.116   7.749   1.936 -0.8544 -0.0394  0.6711
11515SOL    HW145764   3.112   7.649   1.947 -4.4744 -0.4993 -3.3819
11515SOL    HW245765   3.052   7.792   1.999  1.8105 -0.0304  3.5172
11516SOL     OW45766   8.104   3.200   4.488 -0.4106  0.3848 -0.4884
11516SOL    HW145767   8.145   3.281   4.447 -0.3510  0.0446 -1.1112
11516SOL    HW245768   8.165   3.122   4.477  0.5143  0.7041  2.0347
11517SOL     OW45769   7.706   7.755   3.281 -0.4044 -0.7185  0.3813
11517SOL    HW145770   7.686   7.658   3.272 -0.0234 -0.8306  0.7548
11517SOL    HW245771   7.800   7.768   3.313 -0.9984 -0.2803  2.0003
11518SOL     OW45772   7.771   9.798   4.757  0.1001  0.2953 -0.5495
11518SOL    HW145773   7.681   9.756   4.774  0.1736  0.3382 -0.0254
11518SOL    HW245774   7.832   9.732   4.715 -0.6069  0.6823 -2.2070
11519SOL     OW45775   1.756   6.155   0.736  0.2397 -0.2530  0.0562
11519SOL    HW145776   1.727   6.247   0.764  0.8390 -0.0597  0.0449
11519SOL    HW245777   1.846   6.161   0.693  0.1623 -0.8123 -0.1729
11520SOL     OW45778   1.635   6.274   5.812  0.5505  0.1897 -0.1946
11520SOL    HW145779   1.624   6.243   5.717  0.0660 -1.7076  0.4645
11520SOL    HW245780   1.641   6.374   5.813  0.7920  0.2329 -2.2466
11521SOL     OW45781   0.339   7.004   3.688  0.0783  0.3264  0.0288
11521SOL    HW145782   0.306   7.036   3.600 -1.5239  0.1945  0.5601
11521SOL    HW245783   0.320   7.074   3.758 -1.2851 -0.7366  0.7649
11522SOL     OW45784   4.199   3.064   5.301  0.0827 -0.3011 -0.0640
11522SOL    HW145785   4.285   3.110   5.323  0.5309 -0.8426 -0.6643
11522SOL    HW245786   4.124   3.130   5.306  0.7235  0.5173 -0.9526
11523SOL     OW45787   7.769   6.095   1.522 -0.1032 -0.1789  0.0669
11523SOL    HW145788   7.687   6.124   1.571  0.7990 -0.4511  1.7589
11523SOL    HW245789   7.847   6.149   1.552  0.6369 -0.9777 -0.3979
11524SOL     OW45790   7.878   0.697   2.295  0.4336  0.3434  0.2444
11524SOL    HW145791   7.892   0.636   2.216  0.9022 -1.4992  1.7209
11524SOL    HW245792   7.808   0.659   2.355 -1.5202  2.8640 -0.3683
11525SOL     OW45793   8.795   9.039   1.927  0.3819  0.1555  0.4465
11525SOL    HW145794   8.732   9.042   2.004 -1.3609  0.1251 -0.9374
11525SOL    HW245795   8.773   9.114   1.863  1.5424 -0.0431 -0.2024
11526SOL     OW45796   2.297   3.048   6.324 -0.2162  0.2291  0.2538
11526SOL    HW145797   2.285   3.139   6.363  1.6954 -0.2743  2.1073
11526SOL    HW245798   2.325   2.984   6.396 -0.1652 -1.5266 -1.2834
11527SOL     OW45799   8.902   4.422   3.521 -0.6057  0.1618 -0.5393
11527SOL    HW145800   8.873   4.362   3.447 -0.0812  0.6728 -1.1565
11527SOL    HW245801   8.922   4.513   3.486  0.1770  0.2622  0.1287
11528SOL     OW45802   1.201   5.745   6.299  0.2082  0.0675  0.6232
11528SOL    HW145803   1.258   5.814   6.254  0.5268 -0.2520  0.5394
11528SOL    HW245804   1.254   5.661   6.312 -0.9963 -1.0867 -1.7257
11529SOL     OW45805   1.873   6.772   2.388 -0.1077 -0.7446  0.2238
11529SOL    HW145806   1.942   6.796   2.456 -1.0086 -1.1338  1.2857
11529SOL    HW245807   1.826   6.854   2.357  0.5066 -0.5325 -0.1707
11530SOL     OW45808   2.540   7.110   3.585  0.7308 -0.1006 -0.0703
11530SOL    HW145809   2.569   7.079   3.494  1.2860  1.0736 -0.3009
11530SOL    HW245810   2.617   7.154   3.632  0.3063 -0.2330  0.7671
11531SOL     OW45811   4.926   0.886   4.314  0.2320 -0.2286  0.2582
11531SOL    HW145812   4.830   0.896   4.287  0.3868  0.3293 -0.0961
11531SOL    HW245813   4.970   0.818   4.255  0.1542 -0.2025  0.1695
11532SOL     OW45814   3.257   6.115   0.261 -0.6115 -0.3302  0.6895
11532SOL    HW145815   3.211   6.198   0.229  0.4706  0.4080  1.0014
11532SOL    HW245816   3.227   6.094   0.354 -1.7599 -0.9633  0.1883
11533SOL     OW45817   6.176   1.795   5.308  0.3460 -0.0432  0.6351
11533SOL    HW145818   6.273   1.785   5.288  0.3992  1.4763  0.0217
11533SOL    HW245819   6.124   1.790   5.222 -0.1184 -0.8519  0.9590
11534SOL     OW45820   9.844   2.271   1.620 -0.0635 -0.1968 -0.5768
11534SOL    HW145821   9.905   2.351   1.615 -1.2765  0.8990  1.4609
11534SOL    HW245822   9.817   2.257   1.715  0.9215 -3.6765 -0.7503
11535SOL     OW45823   8.576   4.671   4.734  0.0380  0.0543 -0.6933
11535SOL    HW145824   8.487   4.713   4.717  1.4344  3.0058 -1.0492
11535SOL    HW245825   8.633   4.734   4.787  1.6415 -2.1186  0.2383
11536SOL     OW45826   3.521   5.176   1.825 -0.1835 -0.0254  0.7107
11536SOL    HW145827   3.527   5.096   1.764 -0.6063 -0.6128  1.4348
11536SOL    HW245828   3.449   5.161   1.892 -0.3377  1.0221  0.7854
11537SOL     OW45829   1.488   2.422   4.061 -0.0105  0.4206 -0.7179
11537SOL    HW145830   1.488   2.353   3.989  2.0083  0.0363 -0.4060
11537SOL    HW245831   1.456   2.381   4.146 -1.0649  0.5000 -1.0771
11538SOL     OW45832   3.168   8.810   0.440  0.3349 -0.4752 -0.0725
11538SOL    HW145833   3.133   8.728   0.395  2.8837 -1.7269  0.0972
11538SOL    HW245834   3.154   8.803   0.539 -0.2051 -0.3012 -0.1335
11539SOL     OW45835   5.575   0.479   3.054  0.7491 -0.4055  0.0797
11539SOL    HW145836   5.652   0.540   3.037 -0.2476  0.4472 -1.4949
11539SOL    HW245837   5.498   0.505   2.995 -1.4337  0.0259  3.0080
11540SOL     OW45838   2.718   6.415   3.229  0.3108 -0.4281  0.3025
11540SOL    HW145839   2.661   6.491   3.197 -0.3030 -1.1288 -0.2930
11540SOL    HW245840   2.754   6.365   3.150  0.1928 -1.1361  0.6915
11541SOL     OW45841   2.555   3.884   5.879 -0.1281 -0.0646  0.1799
11541SOL    HW145842   2.468   3.842   5.903  0.9785 -1.4061  1.8542
11541SOL    HW245843   2.566   3.970   5.930 -0.8718  0.6042 -0.7514
11542SOL     OW45844   3.611   3.282   1.706 -0.3086  0.4298 -0.4309
11542SOL    HW145845   3.567   3.208   1.654  0.3536 -0.0106 -0.3744
11542SOL    HW245846   3.617   3.364   1.650  0.2468  0.0090 -0.9814
11543SOL     OW45847   8.631   0.809   3.037  0.2246  0.3440  0.2027
11543SOL    HW145848   8.630   0.728   3.095  0.2501 -0.1910 -0.5344
11543SOL    HW245849   8.575   0.793   2.956 -0.9789  1.6076  0.7638
11544SOL     OW45850   3.417   2.681   0.374  0.3242  0.1178  0.0626
11544SOL    HW145851   3.346   2.743   0.340 -0.1933 -0.6916 -0.3307
11544SOL    HW245852   3.499   2.734   0.396  0.1979  0.8382 -1.1568
11545SOL     OW45853   4.069   8.991   2.821 -0.4361 -0.7585 -0.4812
11545SOL    HW145854   4.055   9.053   2.744  0.0223 -1.4303 -1.1081
11545SOL    HW245855   4.131   8.918   2.794 -3.1998 -3.1396 -0.6534
11546SOL     OW45856   9.511   0.795   4.899  0.5595  0.0367 -0.1967
11546SOL    HW145857   9.497   0.787   4.800  1.1100  0.9052 -0.3489
11546SOL    HW245858   9.555   0.712   4.933  1.2335  0.1315 -0.8351
11547SOL     OW45859   2.433   2.448   5.536 -0.1819  0.3484 -0.2073
11547SOL    HW145860   2.497   2.519   5.506 -0.4059  1.2360  1.3382
11547SOL    HW245861   2.420   2.381   5.463 -1.4274  2.9012 -2.4035
11548SOL     OW45862   9.857   9.440   1.529  0.2736 -0.0934  0.6575
11548SOL    HW145863   9.864   9.477   1.436  0.5598 -1.6956  0.0227
11548SOL    HW245864   9.775   9.476   1.574 -0.7286 -0.5307 -0.7845
11549SOL     OW45865   5.345   2.226   4.381 -0.4817 -0.4003 -0.1096
11549SOL    HW145866   5.298   2.259   4.300  1.0489  1.7711 -0.1502
11549SOL    HW245867   5.367   2.129   4.369 -1.9575 -0.5973 -1.4534
11550SOL     OW45868   2.767   4.097   3.378 -0.6281  0.1757  0.3625
11550SOL    HW145869   2.732   4.009   3.346  0.9083  0.0135 -0.9537
11550SOL    HW245870   2.866   4.101   3.362 -0.3844  1.4093  2.1157
11551SOL     OW45871   3.508   7.890   4.146  0.5489 -0.3509  0.0553
11551SOL    HW145872   3.445   7.965   4.166 -0.2006 -0.7448 -0.7816
11551SOL    HW245873   3.568   7.915   4.071 -1.4612 -1.5403 -2.0075
11552SOL     OW45874   0.483   0.331   4.064 -0.0594  0.8505 -0.1965
11552SOL    HW145875   0.581   0.325   4.082  0.3414  2.1062 -1.8311
11552SOL    HW245876   0.441   0.393   4.130  0.2089  0.1272  0.6558
11553SOL     OW45877   0.853   2.508   5.490  0.1701  0.4579  0.1949
11553SOL    HW145878   0.936   2.480   5.539 -1.1420 -1.5887  1.3558
11553SOL    HW245879   0.818   2.430   5.439 -1.0992  1.2799 -0.2027
11554SOL     OW45880   2.252   1.934   5.142 -1.1458  0.6476 -0.3697
11554SOL    HW145881   2.205   1.979   5.218 -1.3816 -0.7919  0.3643
11554SOL    HW245882   2.188   1.919   5.067 -1.2561  0.8657 -0.3179
11555SOL     OW45883   4.097   0.521   6.447 -0.2682 -0.4868 -0.3592
11555SOL    HW145884   4.153   0.553   6.372 -0.7184  0.9601 -0.0844
11555SOL    HW245885   4.153   0.507   6.528  0.0970 -1.3829 -0.7582
11556SOL     OW45886   7.324   1.897   0.277 -0.0409 -0.0910 -0.2797
11556SOL    HW145887   7.231   1.920   0.304 -0.3325 -0.7553 -0.7193
11556SOL    HW245888   7.348   1.807   0.312  0.2479 -0.1471 -0.6127
11557SOL     OW45889   7.565   0.098   3.924 -0.4170  0.2511 -0.0852
11557SOL    HW145890   7.641   0.067   3.866  0.6757  1.5670  0.6319
11557SOL    HW245891   7.582   0.072   4.019 -0.9759  0.3513  0.0460
11558SOL     OW45892   7.964   0.968   1.853 -0.1075 -0.4460  0.2697
11558SOL    HW145893   8.049   0.916   1.848 -0.3215 -1.1052  2.7946
11558SOL    HW245894   7.975   1.045   1.916 -1.6010 -1.0432  1.3001
11559SOL     OW45895   2.654   6.387   5.211  0.2783  0.1701 -0.5478
11559SOL    HW145896   2.675   6.459   5.145  1.9180  0.2777  0.0670
11559SOL    HW245897   2.726   6.384   5.280 -0.6914 -0.8927  0.4263
11560SOL     OW45898   8.882   9.297   5.325  0.4381 -0.6706 -0.3230
11560SOL    HW145899   8.821   9.376   5.317  0.3399 -0.5909  1.0778
11560SOL    HW245900   8.879   9.244   5.240  1.2712  1.3796 -1.6744
11561SOL     OW45901   6.762   0.335   5.532  0.0144 -0.0650  0.0663
11561SOL    HW145902   6.796   0.370   5.445 -2.7731  2.2353 -0.1693
11561SOL    HW245903   6.784   0.399   5.605 -0.0482 -0.6474  0.6003
11562SOL     OW45904   1.570   5.149   5.059  0.0806 -0.8403 -0.5945
11562SOL    HW145905   1.571   5.192   4.968  1.2421 -0.0309 -0.2148
11562SOL    HW245906   1.657   5.167   5.105 -1.5179  1.1441  1.7971
11563SOL     OW45907   9.726   6.233   5.792 -0.4327 -0.4226 -0.4849
11563SOL    HW145908   9.780   6.194   5.718 -1.2926 -0.5885 -1.0222
11563SOL    HW245909   9.761   6.200   5.880  0.4896 -0.3384 -0.8179
11564SOL     OW45910   0.043   3.853   3.542 -0.6428  0.3895  0.0899
11564SOL    HW145911   0.073   3.831   3.449 -1.4166 -0.4427  0.0236
11564SOL    HW245912   0.121   3.850   3.604 -0.1618  0.7279 -0.4992
11565SOL     OW45913   4.240   0.271   2.448  0.4490  0.3509  0.0724
11565SOL    HW145914   4.197   0.291   2.360 -0.6031 -0.1653  0.4550
11565SOL    HW245915   4.191   0.195   2.492  1.7271 -0.2130  0.5526
11566SOL     OW45916   1.865   5.102   5.815  0.5300 -0.1725  0.0034
11566SOL    HW145917   1.953   5.055   5.830  1.6574  1.9153  0.1269
11566SOL    HW245918   1.803   5.080   5.890  1.8585  0.3743  1.3048
11567SOL     OW45919   1.771   9.311   5.040 -0.6143  0.1596  0.1212
11567SOL    HW145920   1.860   9.265   5.037 -1.6694 -1.8803 -1.8024
11567SOL    HW245921   1.700   9.243   5.059 -1.9930  1.4055 -0.5260
11568SOL     OW45922   9.302   8.326   2.460 -0.5315  0.5014 -0.3680
11568SOL    HW145923   9.393   8.295   2.486 -1.2749 -0.8554  0.6894
11568SOL    HW245924   9.300   8.344   2.361  1.1473  1.5578 -0.2277
11569SOL     OW45925   3.544   8.665   5.357 -0.8252 -0.5127 -0.2668
11569SOL    HW145926   3.576   8.670   5.452  0.9753  0.1261 -0.8945
11569SOL    HW245927   3.490   8.582   5.345  0.9923 -1.8901  0.7321
11570SOL     OW45928   6.755   2.149   0.592 -0.5453 -0.5939 -0.8930
11570SOL    HW145929   6.842   2.176   0.632 -1.8622  0.1554  1.6148
11570SOL    HW245930   6.748   2.049   0.591 -0.6200 -0.6478  1.2308
11571SOL     OW45931   4.715   2.032   1.243 -0.8562  0.1011  0.2622
11571SOL    HW145932   4.709   2.116   1.297 -0.3949 -0.4426  1.1807
11571SOL    HW245933   4.796   1.981   1.271  0.1955  0.5107 -1.9890
11572SOL     OW45934   3.577   2.932   4.804 -0.5654 -0.1550  0.2847
11572SOL    HW145935   3.499   2.975   4.850 -0.1737  0.5857  0.2617
11572SOL    HW245936   3.655   2.928   4.867 -0.3737 -0.1545  0.0472
11573SOL     OW45937   9.783   2.403   2.679 -0.3270 -0.8079  0.4168
11573SOL    HW145938   9.762   2.344   2.757 -0.0236 -3.2524 -1.3021
11573SOL    HW245939   9.700   2.422   2.628 -0.1159 -1.4323 -0.1703
11574SOL     OW45940   5.635   7.708   3.497  0.6492  0.2898  0.1139
11574SOL    HW145941   5.565   7.664   3.554  0.3454  0.6122 -0.0183
11574SOL    HW245942   5.592   7.755   3.421  1.0640 -0.1524 -0.3939
11575SOL     OW45943   0.996   8.969   4.941  0.0405  0.8384  0.4781
11575SOL    HW145944   0.899   8.991   4.948 -0.0609  0.3832  0.4913
11575SOL    HW245945   1.048   9.053   4.922 -0.3487  1.0878  0.5144
11576SOL     OW45946   2.008   9.575   4.036  0.1024 -0.6286 -0.0099
11576SOL    HW145947   1.944   9.620   4.099  1.4254  0.1596  0.8042
11576SOL    HW245948   1.958   9.537   3.959 -1.7637 -2.9572  2.2539
11577SOL     OW45949   2.445   0.987   6.618  0.7944 -0.4077  0.0479
11577SOL    HW145950   2.449   0.969   6.520  1.8723  0.1191 -0.0112
11577SOL    HW245951   2.464   0.903   6.669 -0.3666 -0.8195 -0.1850
11578SOL     OW45952   8.472   4.116   5.881  0.2447  0.3571  0.1245
11578SOL    HW145953   8.452   4.155   5.792  0.0796  0.2839  0.1290
11578SOL    HW245954   8.498   4.189   5.944 -0.5086  0.5163  0.2567
11579SOL     OW45955   9.177   4.244   0.949  0.7682 -0.1775 -0.3514
11579SOL    HW145956   9.153   4.157   0.907 -0.1984 -0.1030  0.0274
11579SOL    HW245957   9.163   4.238   1.048 -1.9469  1.2297 -0.5936
11580SOL     OW45958   3.972   7.967   3.751 -0.3353  0.0431  0.4550
11580SOL    HW145959   3.917   7.959   3.668 -0.0670  0.9969  0.1812
11580SOL    HW245960   4.025   8.052   3.748  1.7978 -1.2478  0.3024
11581SOL     OW45961   9.594   8.460   5.327  0.0905  0.3421  0.7135
11581SOL    HW145962   9.593   8.384   5.392 -0.3676 -1.4934 -1.4059
11581SOL    HW245963   9.686   8.472   5.291  0.0346  0.4041  0.5940
11582SOL     OW45964   3.917   5.300   1.425 -0.6931 -0.4671 -0.3141
11582SOL    HW145965   3.942   5.392   1.395 -0.0911 -0.7094 -0.5817
11582SOL    HW245966   3.847   5.305   1.496 -0.4796  0.2062 -0.1493
11583SOL     OW45967   8.054   2.056   3.569 -0.0071 -0.4633  0.4848
11583SOL    HW145968   8.076   1.989   3.639  0.4319 -2.0300 -1.1040
11583SOL    HW245969   7.956   2.053   3.548  0.1507 -1.2373 -0.1847
11584SOL     OW45970   8.029   7.947   2.368 -0.2996  0.5187 -0.3017
11584SOL    HW145971   7.951   7.999   2.333 -0.2193  1.0341  0.2759
11584SOL    HW245972   8.111   8.004   2.366 -0.5271  0.9547  1.7867
11585SOL     OW45973   7.692   4.771   4.530 -0.4323  0.1630  0.5159
11585SOL    HW145974   7.654   4.681   4.550 -1.7210  1.0074  2.0344
11585SOL    HW245975   7.664   4.835   4.601  2.3896  1.2511  0.6936
11586SOL     OW45976   3.634   5.479   4.368 -0.6906 -0.4160  0.2864
11586SOL    HW145977   3.649   5.528   4.283 -0.5272 -0.7703  0.1127
11586SOL    HW245978   3.652   5.381   4.355  1.6924 -0.1549  1.3285
11587SOL     OW45979   8.063   1.496   4.802  0.0838 -0.1721 -0.7622
11587SOL    HW145980   8.152   1.485   4.758 -0.7346  0.7527 -2.7385
11587SOL    HW245981   7.996   1.437   4.756 -0.2814 -1.0808  0.8966
11588SOL     OW45982   1.013   3.356   3.362  0.0962  0.2061  0.1261
11588SOL    HW145983   0.997   3.277   3.421  0.2828  1.2291  1.6027
11588SOL    HW245984   1.091   3.339   3.303  0.2572 -0.6419  0.5800
11589SOL     OW45985   2.527   8.628   6.730  0.4810 -0.0054  0.2688
11589SOL    HW145986   2.566   8.720   6.734  0.4593 -0.0213  0.9933
11589SOL    HW245987   2.486   8.613   6.640 -0.9423  1.2847  0.6893
11590SOL     OW45988   9.883   3.845   5.156 -0.2265 -0.1591 -0.2396
11590SOL    HW145989   9.817   3.813   5.088 -0.8212  0.2016  0.1716
11590SOL    HW245990   9.936   3.767   5.190 -1.7925 -0.7496  0.8832
11591SOL     OW45991   6.824   5.190   1.257  0.4410  0.5008  0.0963
11591SOL    HW145992   6.919   5.210   1.233  0.8866 -1.3506  0.2441
11591SOL    HW245993   6.821   5.117   1.325 -1.1680 -1.9665 -2.4907
11592SOL     OW45994   6.547   0.924   1.103  0.4994 -0.4612 -0.1234
11592SOL    HW145995   6.501   0.950   1.188 -0.4604  0.7321 -0.9879
11592SOL    HW245996   6.518   0.832   1.075 -1.2887  0.2459 -0.6080
11593SOL     OW45997   1.522   4.624   0.571  0.5246  0.3224  0.1370
11593SOL    HW145998   1.544   4.604   0.475 -0.4753 -0.9484  0.1745
11593SOL    HW245999   1.607   4.632   0.623  1.1077  1.7018 -0.9800
11594SOL     OW46000   1.527   5.048   6.283  0.2128  0.1105  0.2049
11594SOL    HW146001   1.427   5.053   6.285  0.1801  0.5144 -1.4620
11594SOL    HW246002   1.559   4.991   6.358 -1.1512  1.5717  1.9246
11595SOL     OW46003   4.377   4.478   1.166 -0.7102  0.4144  0.2803
11595SOL    HW146004   4.318   4.400   1.146 -0.7503  0.2949  0.8755
11595SOL    HW246005   4.450   4.451   1.228 -1.3182  1.0802  1.3095
11596SOL     OW46006   2.644   9.818   6.336  0.0397 -0.2422 -0.4148
11596SOL    HW146007   2.720   9.775   6.289 -0.5536 -0.4194 -1.2316
11596SOL    HW246008   2.568   9.832   6.271 -0.7854 -0.4916  0.4791
11597SOL     OW46009   2.178   6.567   2.848  0.3381 -0.4053 -0.5256
11597SOL    HW146010   2.110   6.639   2.849  1.8553  1.0646 -0.4884
11597SOL    HW246011   2.133   6.478   2.845 -1.6110  0.4366  2.3930
11598SOL     OW46012   4.769   2.898   2.753 -0.2944  0.4126 -0.4365
11598SOL    HW146013   4.765   2.958   2.833  0.4706 -0.6891  0.4570
11598SOL    HW246014   4.718   2.814   2.772 -0.2603  0.2271 -1.1706
11599SOL     OW46015   9.579   2.450   6.634 -0.2902  0.1494  0.3893
11599SOL    HW146016   9.506   2.399   6.589 -1.7751  2.7230 -0.2170
11599SOL    HW246017   9.639   2.490   6.564  1.2496 -1.2613  0.8715
11600SOL     OW46018   1.496   4.887   1.300  0.3406 -0.1294 -0.5196
11600SOL    HW146019   1.490   4.844   1.390  0.1814  0.2414 -0.3548
11600SOL    HW246020   1.496   4.986   1.310  0.7953 -0.0893 -0.8990
11601SOL     OW46021   3.018   9.868   6.510 -0.4650 -0.3959  0.5842
11601SOL    HW146022   3.105   9.861   6.461 -0.9041 -1.2127 -0.0954
11601SOL    HW246023   2.984   9.777   6.532 -0.3813 -0.0428  2.2479
11602SOL     OW46024   8.914   0.855   2.941 -0.2264  0.6173 -0.1204
11602SOL    HW146025   8.829   0.806   2.956  0.2020  0.4658  2.0010
11602SOL    HW246026   8.952   0.884   3.029  1.5284  1.3324 -1.0775
11603SOL     OW46027   8.078   4.750   0.611 -0.5284  0.0304  0.2250
11603SOL    HW146028   8.171   4.780   0.591 -0.4497 -0.3466  0.0285
11603SOL    HW246029   8.022   4.761   0.529 -0.3883 -0.7990  0.0152
11604SOL     OW46030   9.025   9.481   1.582  0.7917 -0.7115  0.0828
11604SOL    HW146031   8.970   9.419   1.637 -0.9358  0.5275 -0.2086
11604SOL    HW246032   9.037   9.567   1.632 -1.0520  0.5413 -1.5733
11605SOL     OW46033   9.558   7.459   3.487  0.1041  0.2507 -0.1779
11605SOL    HW146034   9.629   7.493   3.549  0.8508  1.7995 -1.8447
11605SOL    HW246035   9.508   7.536   3.448 -0.3002 -0.7007 -1.5677
11606SOL     OW46036   9.254   9.325   2.654  0.5289  0.2491 -0.5128
11606SOL    HW146037   9.279   9.242   2.605 -4.0154 -0.1354 -2.4799
11606SOL    HW246038   9.193   9.302   2.730 -0.2445  1.6805 -0.6727
11607SOL     OW46039   4.558   2.118   5.893 -0.3089 -0.1497  0.4682
11607SOL    HW146040   4.590   2.176   5.967 -0.1893 -0.9315  1.0383
11607SOL    HW246041   4.507   2.040   5.932 -0.4255 -0.4495 -0.2774
11608SOL     OW46042   7.683   5.963   5.061 -0.1162 -0.2694  0.6093
11608SOL    HW146043   7.758   6.015   5.101  0.0714  0.8167 -1.0956
11608SOL    HW246044   7.717   5.874   5.029  0.4186  0.1516 -0.0069
11609SOL     OW46045   8.111   0.474   5.757  0.0176  0.4416 -0.5758
11609SOL    HW146046   8.142   0.379   5.749  1.8524  0.9442  0.3084
11609SOL    HW246047   8.020   0.483   5.715  0.7007 -1.2608 -2.5260
11610SOL     OW46048   7.897   4.050   6.188 -0.3741  0.1242  0.0707
11610SOL    HW146049   7.836   4.116   6.230 -0.0923  0.9599 -0.8250
11610SOL    HW246050   7.859   4.020   6.101 -0.7895 -1.3513  0.7353
11611SOL     OW46051   9.626   1.248   4.769 -0.1128  0.1399 -0.7011
11611SOL    HW146052   9.585   1.308   4.700  0.9274  0.3474 -1.1357
11611SOL    HW246053   9.724   1.241   4.754 -0.1197 -1.1195 -0.2281
11612SOL     OW46054   9.589   7.577   1.663 -0.1977  0.4872 -0.1266
11612SOL    HW146055   9.683   7.546   1.655 -0.0633  0.3766  1.6422
11612SOL    HW246056   9.577   7.663   1.613  0.8110  0.4331 -0.4585
11613SOL     OW46057   1.985   9.289   1.305  0.4616 -0.1316  0.0280
11613SOL    HW146058   1.939   9.303   1.218  2.0953 -1.5949 -1.0941
11613SOL    HW246059   2.084   9.287   1.291  0.7645  0.0669  1.9817
11614SOL     OW46060   2.093   0.195   0.058  0.2567  0.3696  0.1823
11614SOL    HW146061   2.095   0.097   0.078 -0.6041  0.6464  1.7368
11614SOL    HW246062   2.045   0.243   0.132 -1.6081  1.6767 -1.8172
11615SOL     OW46063   3.849   2.634   6.003  0.2543  0.1086  0.0482
11615SOL    HW146064   3.855   2.569   5.928 -3.3952  0.6577 -0.8156
11615SOL    HW246065   3.861   2.586   6.090 -2.4163 -1.8106 -0.5737
11616SOL     OW46066   7.133   3.113   2.932 -0.1161 -0.1829  0.3723
11616SOL    HW146067   7.135   3.016   2.958  0.8947 -0.0622  0.7502
11616SOL    HW246068   7.143   3.121   2.833  1.1521 -0.4138  0.4693
11617SOL     OW46069   1.534   7.356   0.269  0.3188  0.5406  1.1146
11617SOL    HW146070   1.624   7.362   0.226  0.5437 -2.6071  1.0494
11617SOL    HW246071   1.531   7.415   0.349  2.5994  0.3097  1.3913
11618SOL     OW46072   9.250   3.839   0.031  1.0340  0.1828  0.1181
11618SOL    HW146073   9.315   3.831  -0.045 -2.1981 -2.0977 -2.5147
11618SOL    HW246074   9.217   3.749   0.057 -2.2315  1.3932  0.3552
11619SOL     OW46075   1.885   1.356   0.901  0.2172  0.1929 -0.5545
11619SOL    HW146076   1.866   1.349   0.999 -1.8619  0.3462 -0.9243
11619SOL    HW246077   1.889   1.453   0.875  2.9483  0.2017 -0.2462
11620SOL     OW46078   2.071   0.123   6.150 -0.4969 -0.9242 -0.1978
11620SOL    HW146079   2.042   0.109   6.245 -0.8998  0.8916 -0.0296
11620SOL    HW246080   2.009   0.187   6.106  0.4019 -0.8211 -1.3351
11621SOL     OW46081   9.721   7.186   0.869 -0.0696  0.0697 -0.1970
11621SOL    HW146082   9.745   7.221   0.960 -0.2317  0.6238 -0.3706
11621SOL    HW246083   9.628   7.151   0.871  0.6292 -1.8737  0.4161
11622SOL     OW46084   5.251   1.698   4.795 -0.1354 -0.1688 -0.0158
11622SOL    HW146085   5.309   1.774   4.826 -0.7041  0.8914 -1.4816
11622SOL    HW246086   5.298   1.611   4.812  1.6324  0.6403 -0.5892
11623SOL     OW46087   8.030   0.199   1.712  0.7325  0.0258 -0.1468
11623SOL    HW146088   8.049   0.101   1.714  0.7897  0.0317 -0.3807
11623SOL    HW246089   8.065   0.238   1.626 -0.2740  0.0468 -0.5574
11624SOL     OW46090   4.620   9.129   1.205  0.0795  0.2193 -0.3096
11624SOL    HW146091   4.529   9.088   1.211 -0.9287  2.2797 -0.9305
11624SOL    HW246092   4.689   9.062   1.232 -1.5511 -1.6342 -0.6579
11625SOL     OW46093   6.992   2.381   6.429  0.7993  0.0777 -0.0120
11625SOL    HW146094   7.083   2.409   6.459  0.4121  1.1140  0.2137
11625SOL    HW246095   6.941   2.343   6.507  0.7924  0.1549  0.0216
11626SOL     OW46096   8.806   3.739   3.491  0.3797 -0.0199  0.3208
11626SOL    HW146097   8.759   3.656   3.461  0.9027  0.1956 -1.1135
11626SOL    HW246098   8.846   3.786   3.412 -0.2255  1.8008  1.0542
11627SOL     OW46099   2.852   8.796   3.322 -0.2686 -0.9014 -0.5383
11627SOL    HW146100   2.819   8.881   3.281  0.5690 -0.6312 -0.6604
11627SOL    HW246101   2.840   8.799   3.421  0.4285 -0.3383 -0.4649
11628SOL     OW46102   1.904   7.473   5.416  0.1711 -0.5002 -0.3948
11628SOL    HW146103   1.871   7.413   5.489  1.3123 -1.2577 -0.4912
11628SOL    HW246104   1.881   7.434   5.327 -0.0996 -0.2217 -0.4451
11629SOL     OW46105   8.075   6.991   3.091 -0.3409  0.1514  0.3617
11629SOL    HW146106   8.111   6.900   3.109  0.0145  0.8183  3.1956
11629SOL    HW246107   8.149   7.049   3.057 -0.0274  0.0137  0.8054
11630SOL     OW46108   6.831   1.501   1.615  0.3183 -0.1147  0.3005
11630SOL    HW146109   6.871   1.419   1.574  1.3014 -0.3107  1.5931
11630SOL    HW246110   6.893   1.578   1.601  1.0616 -0.3513  2.0426
11631SOL     OW46111   0.588   0.178   2.319 -0.6014  0.3864  0.3874
11631SOL    HW146112   0.524   0.104   2.340  0.1465 -0.1640  0.7212
11631SOL    HW246113   0.623   0.167   2.227 -0.5970  0.4064  0.3869
11632SOL     OW46114   2.973   3.211   4.614 -0.6924  0.4706  0.5745
11632SOL    HW146115   3.025   3.192   4.531 -2.2239 -1.8103  0.1078
11632SOL    HW246116   2.995   3.303   4.647  2.6308  0.0467 -0.3200
11633SOL     OW46117   0.840   3.729   5.062  0.3185 -0.1894 -0.4033
11633SOL    HW146118   0.890   3.717   4.976  0.8867 -0.5182 -0.0299
11633SOL    HW246119   0.892   3.689   5.137 -0.0176  0.3877  0.1477
11634SOL     OW46120   7.627   7.708   6.084 -0.0031 -0.0760  0.1071
11634SOL    HW146121   7.533   7.682   6.060 -0.3442 -0.7882  2.1144
11634SOL    HW246122   7.659   7.652   6.161  1.8053  0.6589 -0.0829
11635SOL     OW46123   2.491   7.791   6.345 -0.2629  0.1791 -0.2103
11635SOL    HW146124   2.529   7.834   6.427 -1.2286 -1.0734  0.9065
11635SOL    HW246125   2.506   7.851   6.267 -2.5369  3.1187  1.4992
11636SOL     OW46126   0.862   5.016   3.282  0.2453  0.5187 -0.2559
11636SOL    HW146127   0.956   4.987   3.301 -0.1560  0.1787  1.3042
11636SOL    HW246128   0.817   4.947   3.225  1.2494  1.1841 -1.8688
11637SOL     OW46129   2.911   8.821   6.645 -0.7350  0.0569 -0.0145
11637SOL    HW146130   3.002   8.833   6.606 -2.2815  1.2226 -3.5776
11637SOL    HW246131   2.854   8.768   6.581 -2.6593 -0.3622  1.9677
11638SOL     OW46132   2.566   8.445   0.169 -0.3949  0.1025 -0.0909
11638SOL    HW146133   2.545   8.521   0.108  5.0377  1.9208  0.0197
11638SOL    HW246134   2.577   8.480   0.262 -1.5661 -1.4778  0.6577
11639SOL     OW46135   8.492   5.048   2.280  0.1652  0.2819 -0.1755
11639SOL    HW146136   8.557   5.105   2.229  1.2436  0.1681  1.0164
11639SOL    HW246137   8.409   5.100   2.298  0.5026  0.9350 -0.4856
11640SOL     OW46138   5.675   5.150   1.591  0.4781 -0.0892  0.8477
11640SOL    HW146139   5.766   5.189   1.573 -0.3715  0.1282 -3.5508
11640SOL    HW246140   5.683   5.051   1.600  1.4236  0.1423  2.9325
11641SOL     OW46141   3.074   8.653   2.079 -0.2279 -0.2921 -0.0279
11641SOL    HW146142   3.139   8.723   2.050 -1.7762  1.2897  0.2194
11641SOL    HW246143   3.122   8.583   2.131  0.9151  2.0198  2.1502
11642SOL     OW46144   2.536   5.063   2.775  0.3851 -0.2590 -0.0842
11642SOL    HW146145   2.478   4.982   2.782  0.2901 -0.1490  0.4126
11642SOL    HW246146   2.622   5.039   2.730  0.7381 -0.8449  0.8917
11643SOL     OW46147   2.603   2.098   5.715  0.5660  0.2487  0.0503
11643SOL    HW146148   2.680   2.065   5.770  0.9677  1.8736  0.5031
11643SOL    HW246149   2.634   2.173   5.656 -1.2859  2.9767  2.4163
11644SOL     OW46150   2.595   5.745   5.673  0.1851  0.9926  0.0404
11644SOL    HW146151   2.644   5.781   5.594 -1.2392 -0.1972 -1.4214
11644SOL    HW246152   2.506   5.790   5.680  0.1612  0.8431  0.7640
11645SOL     OW46153   9.055   9.958   1.907 -0.2868  0.1273 -0.1961
11645SOL    HW146154   9.047   9.881   1.844  1.2287 -1.1138  1.0762
11645SOL    HW246155   9.129  10.018   1.877  0.5368 -0.5461  0.4654
11646SOL     OW46156   5.634   6.016   0.727 -0.2959 -0.0080  0.3302
11646SOL    HW146157   5.620   5.975   0.637  1.1109  0.3126 -0.0500
11646SOL    HW246158   5.661   6.112   0.716  0.6651 -0.1895  1.0648
11647SOL     OW46159   7.736   0.691   5.831  0.6457 -0.7891  0.0547
11647SOL    HW146160   7.683   0.650   5.757  0.5600 -1.3065  0.3960
11647SOL    HW246161   7.731   0.791   5.825 -0.1781 -0.8350 -0.0502
11648SOL     OW46162   1.831   9.565   3.758 -0.3634 -0.0331  0.2280
11648SOL    HW146163   1.889   9.515   3.694 -0.1951 -0.5892  0.8028
11648SOL    HW246164   1.860   9.661   3.761  0.9063 -0.4312  0.9317
11649SOL     OW46165   9.614   6.401   2.931  0.0360 -0.5357  0.6624
11649SOL    HW146166   9.702   6.363   2.903  0.9484  1.5118  0.6806
11649SOL    HW246167   9.585   6.470   2.865 -0.7699 -0.0517  1.5126
11650SOL     OW46168   1.704   0.841   2.853  0.2493  0.0932 -0.2582
11650SOL    HW146169   1.710   0.940   2.840  2.4540 -0.0553 -0.6606
11650SOL    HW246170   1.609   0.814   2.869 -0.2260  2.3987  0.8977
11651SOL     OW46171   3.726   1.575   6.185  0.4859 -0.1340 -0.3599
11651SOL    HW146172   3.748   1.478   6.179  1.9354  0.2110 -0.7953
11651SOL    HW246173   3.721   1.602   6.281 -3.0905 -1.3057 -0.1291
11652SOL     OW46174   1.988   8.074   1.826 -0.1541  0.2253 -0.4769
11652SOL    HW146175   1.895   8.093   1.856 -0.0965  0.7543 -0.6342
11652SOL    HW246176   2.018   7.986   1.865 -0.4120  0.4535  0.2556
11653SOL     OW46177   7.265   1.245   2.783  0.2871 -0.1906 -0.2577
11653SOL    HW146178   7.303   1.284   2.867  2.3838 -1.6143 -0.5110
11653SOL    HW246179   7.222   1.318   2.729 -0.8640  0.7773  1.8978
11654SOL     OW46180   0.941   6.920   0.193  0.7908 -0.5150 -0.0768
11654SOL    HW146181   1.039   6.937   0.181  0.6463 -1.1353 -2.2985
11654SOL    HW246182   0.889   6.971   0.124 -0.5480  0.7391  1.8057
11655SOL     OW46183   0.980   5.244   6.219 -0.0332 -0.1665  0.1731
11655SOL    HW146184   0.948   5.318   6.159  0.7421  1.1079  1.3068
11655SOL    HW246185   0.975   5.157   6.170 -0.0012  0.7759 -1.5382
11656SOL     OW46186   5.322   4.768   0.469 -0.3425  0.2571 -0.0666
11656SOL    HW146187   5.293   4.828   0.394  1.2363  0.5827 -0.4482
11656SOL    HW246188   5.419   4.783   0.487 -0.1544 -1.5235  0.4565
11657SOL     OW46189   8.070   5.682   5.551  0.1082 -0.3454  0.0828
11657SOL    HW146190   7.982   5.713   5.589 -0.0546  0.2010 -0.7206
11657SOL    HW246191   8.111   5.756   5.497  0.3603 -1.0758 -0.7476
11658SOL     OW46192   4.993   9.484   4.115 -0.1185 -0.6622 -0.4032
11658SOL    HW146193   4.896   9.506   4.127 -0.2067 -0.8579 -0.7461
11658SOL    HW246194   5.038   9.558   4.065  0.0667 -0.2368  0.3940
11659SOL     OW46195   6.300   1.855   0.063 -0.4770  0.5606 -0.4901
11659SOL    HW146196   6.314   1.792   0.140  0.6274  1.6928  0.2415
11659SOL    HW246197   6.345   1.818  -0.019  1.1184  0.9158  0.2114
11660SOL     OW46198   4.573   5.140   6.729 -0.2070  0.7265  0.0481
11660SOL    HW146199   4.562   5.205   6.654  1.1560  1.5556  0.5567
11660SOL    HW246200   4.514   5.166   6.805  0.0585  1.1440  0.1088
11661SOL     OW46201   1.102   7.328   0.706  0.2595 -0.8083 -0.6098
11661SOL    HW146202   1.048   7.292   0.630 -1.5994 -0.2243  0.4139
11661SOL    HW246203   1.047   7.329   0.789  1.1102  1.9242 -0.0291
11662SOL     OW46204   5.890   0.619   5.677  0.1938 -0.1022 -0.2235
11662SOL    HW146205   5.878   0.527   5.639 -0.0756 -0.2135  0.1282
11662SOL    HW246206   5.947   0.615   5.759 -0.1177 -0.0088  0.0038
11663SOL     OW46207   9.496   4.744   5.971 -0.6024  0.5002  0.0030
11663SOL    HW146208   9.561   4.783   6.036  0.4182  0.4793 -0.9892
11663SOL    HW246209   9.513   4.782   5.880 -0.9792 -0.6342 -0.5568
11664SOL     OW46210   8.968   0.387   2.408  0.0722 -0.0520 -0.2909
11664SOL    HW146211   8.924   0.358   2.493  0.2945 -1.0392 -0.5125
11664SOL    HW246212   9.067   0.382   2.418  0.0966 -0.2488 -0.6446
11665SOL     OW46213   8.840   3.420   2.085  0.2918 -0.7067 -0.1947
11665SOL    HW146214   8.741   3.407   2.084  0.2998 -0.7837 -1.7603
11665SOL    HW246215   8.882   3.360   2.018  1.1992  0.7770 -0.9911
11666SOL     OW46216   7.996   2.044   1.094 -0.0171  0.3670 -0.1441
11666SOL    HW146217   8.034   2.111   1.030  2.9173 -2.3363 -1.3316
11666SOL    HW246218   7.994   2.083   1.186  0.8410  2.3621 -0.9442
11667SOL     OW46219   7.385   1.035   5.059  0.0273  0.6676 -0.2048
11667SOL    HW146220   7.421   0.977   5.132 -0.2188  0.5448 -0.1779
11667SOL    HW246221   7.453   1.046   4.988  0.0181  0.2121 -0.2852
11668SOL     OW46222   8.520   7.129   3.358  0.2515 -0.2568  0.0717
11668SOL    HW146223   8.522   7.030   3.373 -1.0646 -0.2736  0.2036
11668SOL    HW246224   8.439   7.168   3.402 -0.1246  0.6492 -1.3890
11669SOL     OW46225   6.254   4.161   0.251  0.1715 -0.5017 -0.1987
11669SOL    HW146226   6.191   4.135   0.178  0.5766 -1.0307 -0.3646
11669SOL    HW246227   6.337   4.200   0.211  0.5661 -1.1739 -0.0406
11670SOL     OW46228   3.312   7.050   3.213  0.3137 -0.3779 -0.1317
11670SOL    HW146229   3.338   7.022   3.121  0.8293 -0.3973  0.0206
11670SOL    HW246230   3.394   7.064   3.269  0.1073  1.9022 -0.3428
11671SOL     OW46231   7.574   8.332   4.013  0.5594 -0.1714 -0.4088
11671SOL    HW146232   7.590   8.430   4.006  0.9299 -0.1222  0.9422
11671SOL    HW246233   7.482   8.316   4.048  0.2666 -0.3139 -1.2508
11672SOL     OW46234   2.837   9.172   5.231  0.3124  0.0576  0.5785
11672SOL    HW146235   2.806   9.088   5.185 -0.3751  1.0165 -0.7275
11672SOL    HW246236   2.825   9.250   5.170  1.7546  0.9966  1.4838
11673SOL     OW46237   3.638   1.993   2.241  0.1833 -0.2723  0.4669
11673SOL    HW146238   3.549   1.965   2.205 -0.2853  2.0896 -0.2863
11673SOL    HW246239   3.626   2.039   2.329  0.4094  1.9145 -0.6129
11674SOL     OW46240   0.501   7.845   2.356  0.0520 -0.0582  0.4146
11674SOL    HW146241   0.500   7.942   2.380  1.9414 -0.0880  0.6778
11674SOL    HW246242   0.535   7.792   2.433  1.2152 -0.6843 -0.5183
11675SOL     OW46243   3.343   3.934   4.422 -0.1782  0.3641 -0.1423
11675SOL    HW146244   3.422   3.896   4.470  0.1734  0.9116 -0.2858
11675SOL    HW246245   3.278   3.971   4.488 -0.5941 -0.6143  0.0094
11676SOL     OW46246   7.269   1.651   6.133 -0.1632  0.2813  1.2613
11676SOL    HW146247   7.360   1.667   6.172  0.3080 -1.3023  0.8661
11676SOL    HW246248   7.215   1.594   6.196 -0.6265  0.6079  1.1630
11677SOL     OW46249   9.314   7.282   3.451 -0.2466  0.1633 -0.1645
11677SOL    HW146250   9.403   7.327   3.447 -0.8387  1.3014 -0.9011
11677SOL    HW246251   9.322   7.189   3.415  0.6589  0.2341 -0.1538
11678SOL     OW46252   8.522   0.562   6.606  0.2356  0.2781 -0.2430
11678SOL    HW146253   8.453   0.565   6.678  0.7729  0.1252  0.2881
11678SOL    HW246254   8.609   0.532   6.645  0.5893  0.4224 -0.9135
11679SOL     OW46255   0.740   1.738   3.412  0.2301 -0.5717 -0.1248
11679SOL    HW146256   0.822   1.681   3.419 -2.0870 -4.0201 -0.0229
11679SOL    HW246257   0.706   1.736   3.318  0.9617  1.9862 -0.5056
11680SOL     OW46258   7.664   6.927   2.674 -0.5333  0.0272 -0.2870
11680SOL    HW146259   7.758   6.894   2.685 -0.0225  1.7227  0.4691
11680SOL    HW246260   7.601   6.853   2.697  0.6016 -0.4813  1.2896
11681SOL     OW46261   2.620   8.606   5.658 -0.1754  0.5383 -0.6151
11681SOL    HW146262   2.584   8.520   5.694 -0.2732  0.5545 -0.6734
11681SOL    HW246263   2.636   8.597   5.560 -0.8087  0.7930 -0.7431
11682SOL     OW46264   6.613   4.858   0.007 -0.3142  0.1253  0.0179
11682SOL    HW146265   6.591   4.814  -0.080 -0.1828 -0.2792  0.1890
11682SOL    HW246266   6.568   4.809   0.082  0.8749 -0.4980  0.3310
11683SOL     OW46267   1.480   4.034   2.853  0.1287  0.0234  0.1065
11683SOL    HW146268   1.478   3.935   2.840 -1.9120  0.0100  0.4318
11683SOL    HW246269   1.575   4.064   2.863  0.7009 -2.0308  1.0849
11684SOL     OW46270   3.180   3.663   0.295 -0.4883 -0.0673  0.0419
11684SOL    HW146271   3.252   3.632   0.233 -0.5390 -1.0442  0.4742
11684SOL    HW246272   3.148   3.587   0.351 -0.1272  0.9000  1.5983
11685SOL     OW46273   2.499   5.704   1.478  0.4036 -0.3998  0.1316
11685SOL    HW146274   2.424   5.758   1.516 -1.7964 -3.3222  0.1100
11685SOL    HW246275   2.539   5.647   1.550 -0.5689 -2.3361 -0.8141
11686SOL     OW46276   9.601   0.830   5.697  0.2878  0.5351  0.0836
11686SOL    HW146277   9.515   0.785   5.674 -0.4141  2.4975 -1.3130
11686SOL    HW246278   9.615   0.828   5.796 -0.8961 -0.6310  0.2365
11687SOL     OW46279   8.508   3.279   1.556 -0.9680  0.8949  0.2978
11687SOL    HW146280   8.497   3.340   1.478 -0.0380 -0.1879 -0.6949
11687SOL    HW246281   8.446   3.201   1.547  1.2627 -0.8183 -0.9741
11688SOL     OW46282   7.610   1.455   4.211 -0.9533  0.1149 -0.2235
11688SOL    HW146283   7.664   1.450   4.127 -1.1581  0.9823 -0.4073
11688SOL    HW246284   7.523   1.408   4.198  0.2623 -2.3947  0.4715
11689SOL     OW46285   9.681   2.222   2.881 -0.1216 -0.2551 -0.3143
11689SOL    HW146286   9.708   2.144   2.938 -1.1573  1.1516  2.1672
11689SOL    HW246287   9.626   2.190   2.804 -0.3485 -1.9961  0.5515
11690SOL     OW46288   9.659   2.814   0.666 -0.5174  0.5873 -0.4799
11690SOL    HW146289   9.575   2.845   0.710 -0.6745  0.6739 -0.8362
11690SOL    HW246290   9.638   2.737   0.605 -0.1424 -0.1532  0.3291
11691SOL     OW46291   7.523   1.498   0.695 -0.5769  0.4089 -0.0951
11691SOL    HW146292   7.449   1.431   0.694 -0.7036  0.5544 -0.6014
11691SOL    HW246293   7.567   1.500   0.606 -1.2174  1.7116 -0.3880
11692SOL     OW46294   5.306   9.365   1.820 -0.0527  0.5235 -0.5949
11692SOL    HW146295   5.273   9.457   1.796  1.1694  1.0711 -0.2047
11692SOL    HW246296   5.278   9.301   1.749 -1.2072  1.1275 -0.7105
11693SOL     OW46297   3.132   4.714   3.463  0.1041  0.0872 -0.1526
11693SOL    HW146298   3.074   4.643   3.423 -0.8264  1.2462 -0.8978
11693SOL    HW246299   3.225   4.707   3.425 -0.4947  0.5093 -1.7456
11694SOL     OW46300   8.561   6.163   2.790 -0.0199 -0.2254  0.0153
11694SOL    HW146301   8.503   6.234   2.752  0.4724  1.1121  1.7167
11694SOL    HW246302   8.521   6.128   2.874  0.4541 -0.9663 -0.0575
11695SOL     OW46303   3.905   1.279   0.427 -0.1298 -0.0224  0.5503
11695SOL    HW146304   3.876   1.190   0.461  0.6244 -0.0486  1.1147
11695SOL    HW246305   3.935   1.271   0.332 -1.1882 -0.1430  0.2101
11696SOL     OW46306   0.146   5.905   1.494 -0.0058  0.0732  0.7350
11696SOL    HW146307   0.182   5.854   1.573 -0.8475 -0.2868  0.8859
11696SOL    HW246308   0.156   5.849   1.412  0.9971  0.5029  0.5611
11697SOL     OW46309   2.754   2.704   5.003 -0.3903  0.0170 -0.6118
11697SOL    HW146310   2.671   2.752   4.977  0.1105  1.1071 -0.2261
11697SOL    HW246311   2.832   2.767   5.000 -0.0796 -0.1519  2.1358
11698SOL     OW46312   2.042   5.430   3.265 -0.4997  0.2603  0.2670
11698SOL    HW146313   1.946   5.404   3.252  0.0821 -2.6252  1.4699
11698SOL    HW246314   2.096   5.349   3.287  1.6194  2.3356  3.1221
11699SOL     OW46315   7.115   0.452   0.680 -0.0310  0.6913 -0.2035
11699SOL    HW146316   7.063   0.489   0.603 -0.9418 -2.1096 -1.0154
11699SOL    HW246317   7.201   0.415   0.647  0.6678  1.6706  0.5145
11700SOL     OW46318   1.230   2.457   4.455 -0.2138 -0.0455 -0.1299
11700SOL    HW146319   1.180   2.532   4.412  0.1461 -0.1874 -0.8117
11700SOL    HW246320   1.259   2.483   4.547  1.1439  1.1690 -0.8924
11701SOL     OW46321   4.274   8.945   0.477 -0.1683 -0.0457 -0.3208
11701SOL    HW146322   4.301   8.949   0.573 -2.3611 -1.1306  0.3754
11701SOL    HW246323   4.275   8.850   0.446 -1.4309  0.0737 -0.7635
11702SOL     OW46324   1.662   1.367   4.509 -0.1224 -0.2807 -0.0459
11702SOL    HW146325   1.740   1.377   4.571  0.8068 -2.2419 -0.8437
11702SOL    HW246326   1.675   1.424   4.428 -0.1520  0.3928  0.4245
11703SOL     OW46327   0.763   9.820   0.657 -0.0366  0.1306 -0.0518
11703SOL    HW146328   0.729   9.836   0.564 -0.2666  0.4121  0.0793
11703SOL    HW246329   0.828   9.744   0.656  0.0852  0.2395 -0.4696
11704SOL     OW46330   8.836   6.848   4.467  0.2724 -0.9015  0.3366
11704SOL    HW146331   8.846   6.947   4.484  1.9011 -0.7428 -1.4244
11704SOL    HW246332   8.747   6.831   4.426  0.3923 -0.0266 -0.3089
11705SOL     OW46333   9.411   4.616   3.308 -0.0820 -0.4807  0.2882
11705SOL    HW146334   9.375   4.681   3.374  0.2434  0.2936 -0.2856
11705SOL    HW246335   9.510   4.629   3.299 -0.4003  0.7271 -1.7705
11706SOL     OW46336   0.196   1.507   2.351 -0.1594 -0.2177 -0.0971
11706SOL    HW146337   0.165   1.416   2.381 -0.7197  0.5686  1.7935
11706SOL    HW246338   0.295   1.505   2.336  0.0729 -0.7632  1.4398
11707SOL     OW46339   2.952   0.201   5.671  0.1184 -0.0899 -0.8063
11707SOL    HW146340   2.956   0.284   5.725  0.4135  0.0996 -1.1185
11707SOL    HW246341   2.979   0.221   5.577  2.1401 -0.9385 -0.4206
11708SOL     OW46342   0.794   8.178   1.559  0.2306 -0.1066 -0.1720
11708SOL    HW146343   0.771   8.093   1.605 -0.1390  1.1303  2.0069
11708SOL    HW246344   0.893   8.181   1.541  0.5268 -0.2823  1.3090
11709SOL     OW46345   0.213   9.234   1.637 -0.2247  0.0323 -0.1258
11709SOL    HW146346   0.311   9.217   1.624  0.4203  2.5082  1.1091
11709SOL    HW246347   0.170   9.153   1.678  1.9220 -0.0208  2.1202
11710SOL     OW46348   8.418   9.958   3.768 -0.4163 -0.1525 -0.2980
11710SOL    HW146349   8.473   9.875   3.776  1.4032  0.9752 -0.7678
11710SOL    HW246350   8.474  10.038   3.792 -1.7205  1.0694 -1.2202
11711SOL     OW46351   8.634   5.331   0.228 -0.4136 -0.1782 -0.5584
11711SOL    HW146352   8.578   5.414   0.222  1.4284  1.1579 -0.0757
11711SOL    HW246353   8.729   5.355   0.207  0.1899 -2.1282 -0.1046
11712SOL     OW46354   2.520   0.267   4.554 -0.0744 -0.4397 -0.2066
11712SOL    HW146355   2.486   0.180   4.591 -0.0204 -0.6437 -0.6284
11712SOL    HW246356   2.542   0.329   4.629 -1.4811 -0.2668  0.0865
11713SOL     OW46357   6.020   4.310   0.457 -0.0351 -0.1634 -0.0371
11713SOL    HW146358   6.099   4.367   0.435 -0.8056  1.5748  1.4944
11713SOL    HW246359   5.948   4.324   0.388  0.4456 -0.6423 -0.6374
11714SOL     OW46360   0.949   7.350   3.891  0.5414  0.0836 -0.2414
11714SOL    HW146361   0.876   7.414   3.914 -0.7345 -1.9597  1.5970
11714SOL    HW246362   1.035   7.381   3.930  0.0084  0.8532  0.3272
11715SOL     OW46363   1.121   7.920   4.703 -0.3589  0.7000  0.6319
11715SOL    HW146364   1.111   7.825   4.732  1.0700  1.2542  3.1604
11715SOL    HW246365   1.195   7.927   4.637 -1.3574 -0.1040 -0.6053
11716SOL     OW46366   2.657   9.763   1.609  0.0242  0.0519  0.8908
11716SOL    HW146367   2.741   9.762   1.555  0.1919 -1.6048  1.1745
11716SOL    HW246368   2.672   9.716   1.696 -1.3532 -0.7826  0.6906
11717SOL     OW46369   1.440   2.848   2.774 -0.0683 -0.1263  0.2886
11717SOL    HW146370   1.456   2.823   2.679 -0.3556  0.9701 -0.0561
11717SOL    HW246371   1.403   2.769   2.824 -3.2964  0.2648 -1.3560
11718SOL     OW46372   5.139   4.082   0.778 -0.4241  0.0620  0.1449
11718SOL    HW146373   5.111   4.154   0.842 -1.2111  0.2274 -0.3840
11718SOL    HW246374   5.201   4.121   0.710 -1.5409  0.4341 -0.6599
11719SOL     OW46375   8.713   3.799   3.115  0.1263  0.0458  0.3410
11719SOL    HW146376   8.656   3.783   3.195 -0.3271 -1.6823 -0.3089
11719SOL    HW246377   8.793   3.739   3.118 -1.1472 -1.8575 -1.6860
11720SOL     OW46378   2.433   9.381   0.991  0.1313 -0.3444  0.2972
11720SOL    HW146379   2.446   9.408   1.087  0.1654 -1.5168  0.6298
11720SOL    HW246380   2.468   9.453   0.931 -2.9636  1.9905  1.1353
11721SOL     OW46381   5.400   1.180   4.300  0.2663  0.4195 -0.0806
11721SOL    HW146382   5.474   1.116   4.320 -0.0411  0.4537  1.2010
11721SOL    HW246383   5.314   1.130   4.290  0.7632  0.1789 -3.4372
11722SOL     OW46384   0.835   8.966   1.230  0.2186  0.2712 -0.6079
11722SOL    HW146385   0.834   8.999   1.324 -0.1861 -0.0768 -0.4912
11722SOL    HW246386   0.850   8.867   1.229 -0.6518  0.1415 -0.8747
11723SOL     OW46387   1.519   0.508   5.272 -0.3800  0.0279  0.1107
11723SOL    HW146388   1.438   0.533   5.325 -0.7849  0.6140 -0.7850
11723SOL    HW246389   1.506   0.534   5.176  0.6108 -0.4498 -0.1593
11724SOL     OW46390   7.657   9.321   2.694 -0.3470 -0.2124 -0.1700
11724SOL    HW146391   7.754   9.343   2.685 -0.5048  0.7307  0.3549
11724SOL    HW246392   7.635   9.301   2.789 -0.5932 -0.8067 -0.3471
11725SOL     OW46393   6.448   5.043   0.723 -0.3413 -0.3029  0.1353
11725SOL    HW146394   6.528   5.028   0.664 -0.5102 -0.4792 -0.0460
11725SOL    HW246395   6.410   5.133   0.704 -0.4894 -0.4223 -0.1346
11726SOL     OW46396   9.756   0.296   5.265  0.1578 -0.0760  0.1564
11726SOL    HW146397   9.818   0.219   5.281  1.2621  0.6307 -0.6993
11726SOL    HW246398   9.768   0.329   5.171 -2.4076 -0.7493 -0.4464
11727SOL     OW46399   4.331   1.552   3.428 -0.2951  0.6916  0.3201
11727SOL    HW146400   4.402   1.483   3.440 -0.8571 -0.1219 -0.9840
11727SOL    HW246401   4.249   1.525   3.479 -0.1735  0.8760  0.6087
11728SOL     OW46402   9.069   1.255   2.488 -0.3061  0.4083 -0.4555
11728SOL    HW146403   9.113   1.252   2.398 -1.9159  0.1524 -1.2344
11728SOL    HW246404   9.047   1.162   2.517 -1.2989  0.6086 -0.5498
11729SOL     OW46405   5.180   0.786   5.119  1.2988 -0.4582 -0.0206
11729SOL    HW146406   5.161   0.807   5.214  2.1528  1.1114 -0.1839
11729SOL    HW246407   5.195   0.688   5.109 -1.7217 -1.0666  0.9386
11730SOL     OW46408   2.499   7.938   3.746  0.1060  0.0653  0.2597
11730SOL    HW146409   2.552   7.965   3.666 -0.6876  0.5884 -0.1004
11730SOL    HW246410   2.560   7.929   3.825  0.5567  1.9129  0.1443
11731SOL     OW46411   7.802   6.580   2.692  0.0407  0.2133  0.1224
11731SOL    HW146412   7.812   6.668   2.647 -2.3135  0.3013 -0.3081
11731SOL    HW246413   7.812   6.591   2.791 -3.1893  1.5493  0.3713
11732SOL     OW46414   3.218   7.294   2.917 -0.2768 -0.2452  0.6680
11732SOL    HW146415   3.273   7.322   2.838  1.8415 -0.3092  2.0972
11732SOL    HW246416   3.196   7.196   2.909 -0.6042 -0.1090 -0.1438
11733SOL     OW46417   8.500   5.628   3.870  0.0729 -0.6667 -0.0563
11733SOL    HW146418   8.449   5.594   3.790  0.9388  0.8483 -1.2808
11733SOL    HW246419   8.467   5.719   3.894  0.5485 -0.6823  0.6730
11734SOL     OW46420   5.232   0.791   3.010  0.6124  0.2899  0.1485
11734SOL    HW146421   5.201   0.834   3.094 -0.3661 -0.4700  0.1999
11734SOL    HW246422   5.236   0.692   3.023 -1.4500 -0.0333 -1.2371
11735SOL     OW46423   0.036   0.308   2.999 -0.4142  0.1018  0.0144
11735SOL    HW146424  -0.009   0.314   2.910  0.9143  0.3919 -0.6558
11735SOL    HW246425  -0.005   0.374   3.062 -0.5383  0.7629 -0.7521
11736SOL     OW46426   9.336   9.778   6.353  0.2754  0.2413  0.4385
11736SOL    HW146427   9.368   9.784   6.259  0.8903  2.6993  0.7555
11736SOL    HW246428   9.359   9.689   6.391  0.5080 -0.5670 -1.5639
11737SOL     OW46429   2.521   3.907   1.163 -0.0074 -0.1908  0.7939
11737SOL    HW146430   2.433   3.916   1.117 -0.0930 -1.7169  0.6305
11737SOL    HW246431   2.565   3.822   1.134  1.5115  0.5528  0.8868
11738SOL     OW46432   7.281   4.643   5.985  0.1625  0.3941  0.0737
11738SOL    HW146433   7.366   4.617   5.940  1.1538 -0.8491  2.6260
11738SOL    HW246434   7.273   4.743   5.987  1.6431  0.5171  0.0124
11739SOL     OW46435   3.652   3.253   4.222 -0.3260 -0.4973 -0.4008
11739SOL    HW146436   3.610   3.329   4.271 -1.5254 -0.2611 -1.7263
11739SOL    HW246437   3.675   3.282   4.129  1.4079 -1.0781 -0.1562
11740SOL     OW46438   7.891   6.707   0.825  0.0610  0.3344 -0.3440
11740SOL    HW146439   7.905   6.801   0.856 -0.1536  0.7267 -1.3852
11740SOL    HW246440   7.805   6.672   0.862  0.8886  0.0031  1.2795
11741SOL     OW46441   9.805   7.455   6.690  0.0019 -0.2409  0.0781
11741SOL    HW146442   9.874   7.428   6.757 -0.0356 -0.3747  0.0655
11741SOL    HW246443   9.816   7.400   6.607 -1.1568 -1.4460  0.6996
11742SOL     OW46444   0.034   0.223   1.240 -0.4477 -0.3935 -0.1255
11742SOL    HW146445   0.039   0.128   1.208  0.6496 -0.0393 -1.0005
11742SOL    HW246446  -0.018   0.226   1.326  1.1346 -2.0308  0.9168
11743SOL     OW46447   8.942   4.410   1.349  0.3189  0.2043  0.5707
11743SOL    HW146448   8.844   4.421   1.336  0.0796 -1.3889  0.9442
11743SOL    HW246449   8.989   4.494   1.322 -1.0015  0.4333 -1.0726
11744SOL     OW46450   0.568   4.262   5.975 -0.2207  0.5475  0.3773
11744SOL    HW146451   0.630   4.184   5.964  1.8900  2.4319 -1.3937
11744SOL    HW246452   0.489   4.250   5.915 -1.0302 -1.2623  1.7384
11745SOL     OW46453   1.594   9.312   2.157  0.1509 -0.5239  0.0342
11745SOL    HW146454   1.588   9.388   2.093 -1.9976  0.2828  1.1465
11745SOL    HW246455   1.531   9.240   2.129  0.2417 -0.7738  0.4743
11746SOL     OW46456   1.742   5.332   1.518  0.2761 -0.0680 -0.0379
11746SOL    HW146457   1.805   5.279   1.461 -0.0318 -1.4507  0.8892
11746SOL    HW246458   1.703   5.273   1.589 -1.6385  0.8973 -0.2545
11747SOL     OW46459   1.015   9.543   1.904  1.1088 -0.4581 -0.8235
11747SOL    HW146460   1.093   9.491   1.869  1.5206  1.4566 -2.8067
11747SOL    HW246461   1.007   9.629   1.855 -0.7725  0.4936  1.0698
11748SOL     OW46462   1.886   5.005   0.287 -0.1990 -0.1376  0.2303
11748SOL    HW146463   1.927   4.960   0.208  0.2465  0.3632  0.1709
11748SOL    HW246464   1.931   5.093   0.302 -0.0787 -0.3606  1.2137
11749SOL     OW46465   0.951   9.624   0.661  0.3087  0.2798 -0.4366
11749SOL    HW146466   0.960   9.530   0.696  1.2444  0.7080  0.4797
11749SOL    HW246467   1.006   9.686   0.716 -1.1300  1.5505 -0.3878
11750SOL     OW46468   9.567   5.470   3.087  0.0764 -0.2916  0.3812
11750SOL    HW146469   9.503   5.394   3.097 -0.0796 -0.5141 -2.1054
11750SOL    HW246470   9.567   5.502   2.992  1.6642  1.4690  0.9425
11751SOL     OW46471   8.411   2.859   0.180  0.3009  0.3105  0.3049
11751SOL    HW146472   8.314   2.852   0.206 -0.1449  1.1916 -1.0594
11751SOL    HW246473   8.448   2.945   0.214  0.5884  0.0264  0.7243
11752SOL     OW46474   8.579   8.915   5.574 -0.8526  0.4900 -0.2971
11752SOL    HW146475   8.624   8.842   5.627 -1.7374  0.1368 -0.0244
11752SOL    HW246476   8.648   8.965   5.522 -0.3707 -1.2842 -1.3973
11753SOL     OW46477   9.131   1.056   1.170  0.1887  0.3537 -0.5494
11753SOL    HW146478   9.111   0.995   1.094  0.6615  0.6866 -0.9407
11753SOL    HW246479   9.057   1.123   1.180 -1.2128 -1.3431  0.9808
11754SOL     OW46480   0.330   5.211   1.995  0.2201  0.1741  0.3191
11754SOL    HW146481   0.350   5.149   2.071 -0.2118 -0.4713 -0.0907
11754SOL    HW246482   0.408   5.272   1.980  1.4627 -1.5931 -0.5581
11755SOL     OW46483   1.451   6.179   3.837 -0.2841  0.2070 -0.3050
11755SOL    HW146484   1.426   6.203   3.744  0.9979 -0.5554 -0.8633
11755SOL    HW246485   1.540   6.219   3.859 -0.0848 -0.5074  0.2065
11756SOL     OW46486   8.307   3.702   6.592  0.0838  0.0091 -0.6344
11756SOL    HW146487   8.329   3.795   6.561 -1.8791  0.2617 -1.3136
11756SOL    HW246488   8.208   3.692   6.601  0.3945 -1.3181  1.6879
11757SOL     OW46489   3.064   0.030   4.104  0.3748  0.0384  0.0228
11757SOL    HW146490   3.078  -0.003   4.010  1.8687  1.2341 -0.1818
11757SOL    HW246491   2.981  -0.012   4.141  0.1832 -1.0412 -1.5593
11758SOL     OW46492   8.198   5.543   4.249 -0.5617  0.5912 -0.2834
11758SOL    HW146493   8.261   5.509   4.180 -1.2837  0.0153 -0.6727
11758SOL    HW246494   8.241   5.538   4.339 -0.6867 -1.4889 -0.3118
11759SOL     OW46495   9.992   0.606   0.891 -0.3316 -0.0468  0.6680
11759SOL    HW146496  10.031   0.588   0.801 -1.4693  0.1309  0.1436
11759SOL    HW246497   9.940   0.526   0.923 -2.3802  0.9463 -0.1148
11760SOL     OW46498   8.782   7.055   2.562  0.0315 -0.1108  0.1707
11760SOL    HW146499   8.709   7.106   2.609 -0.3980  1.0436 -1.7016
11760SOL    HW246500   8.865   7.112   2.559  0.1613 -0.3185 -0.1735
11761SOL     OW46501   4.652   1.501   4.000  0.4770  0.1110 -0.2916
11761SOL    HW146502   4.603   1.500   4.087  0.0572  0.6571 -0.5151
11761SOL    HW246503   4.735   1.556   4.008  0.6305 -0.1503 -0.1285
11762SOL     OW46504   9.501   6.993   2.794  0.1508  0.1652 -0.0138
11762SOL    HW146505   9.504   7.043   2.707  2.9308 -1.9607 -1.1858
11762SOL    HW246506   9.500   6.895   2.776  0.3048 -0.2956  2.3638
11763SOL     OW46507   7.445   8.478   2.920  0.3163  0.1975 -0.0548
11763SOL    HW146508   7.421   8.384   2.893 -2.0840  0.4607  0.9881
11763SOL    HW246509   7.403   8.543   2.856 -0.8611  0.6377  1.1335
11764SOL     OW46510   5.252   9.078   2.276  0.7286  0.1045 -0.2691
11764SOL    HW146511   5.310   9.159   2.273  0.8480  0.0090 -0.5326
11764SOL    HW246512   5.232   9.055   2.371  1.8877 -0.4173 -0.1422
11765SOL     OW46513   0.120   4.959   1.518  0.0505  0.5468 -0.1151
11765SOL    HW146514   0.073   4.884   1.565  1.4103 -0.8802 -0.9604
11765SOL    HW246515   0.080   4.971   1.427 -0.9660  1.6786  0.4658
11766SOL     OW46516   8.749   1.981   4.134  0.4994 -0.1073 -0.0911
11766SOL    HW146517   8.748   1.883   4.114  3.3003 -0.5315  1.6179
11766SOL    HW246518   8.724   2.032   4.052  0.2075 -2.1861 -1.3303
11767SOL     OW46519   4.256   3.187   1.624  0.2497  0.4998  0.4194
11767SOL    HW146520   4.221   3.196   1.717  0.1666  0.7875  0.3627
11767SOL    HW246521   4.219   3.104   1.583 -1.1153  1.2678  0.0507
11768SOL     OW46522   1.974   6.324   5.658  0.0094 -0.0767  0.1029
11768SOL    HW146523   2.073   6.335   5.667  0.0653 -0.4999  0.0088
11768SOL    HW246524   1.938   6.279   5.739  0.0573 -0.9716 -0.3747
11769SOL     OW46525   8.181   9.954   1.100  0.4201 -0.3119  0.0818
11769SOL    HW146526   8.189   9.860   1.068 -0.4291 -0.0787 -0.8103
11769SOL    HW246527   8.153   9.953   1.196 -2.8486 -0.9647 -0.8102
11770SOL     OW46528   3.422   5.252   0.908 -0.0391  0.2616  0.0661
11770SOL    HW146529   3.417   5.162   0.952  3.1427 -0.0984 -0.2383
11770SOL    HW246530   3.329   5.286   0.893 -1.3174 -2.9950  0.1073
11771SOL     OW46531   9.820   4.619   0.852  0.2596 -0.4487  0.1826
11771SOL    HW146532   9.878   4.576   0.921 -0.2857 -2.3752 -0.5165
11771SOL    HW246533   9.877   4.660   0.781  0.8282  1.9266  1.9775
11772SOL     OW46534   7.999   8.202   6.676 -0.1614  0.0295 -0.5952
11772SOL    HW146535   7.933   8.131   6.701  0.1479 -0.7284 -1.8994
11772SOL    HW246536   7.963   8.256   6.600 -1.1699  2.4352  1.5145
11773SOL     OW46537   3.305   8.070   3.788  0.9363 -0.3974  0.4645
11773SOL    HW146538   3.392   8.056   3.836  0.5149  1.1852  1.7342
11773SOL    HW246539   3.313   8.147   3.725  0.0618  0.6544  1.6200
11774SOL     OW46540   9.488   0.524   5.904  0.5153 -0.3880 -0.1130
11774SOL    HW146541   9.433   0.484   5.977  0.0827 -0.1800 -0.3298
11774SOL    HW246542   9.457   0.489   5.816 -1.7222  2.5330 -0.5534
11775SOL     OW46543   9.646   3.963   6.590 -0.0641 -0.9313  0.2161
11775SOL    HW146544   9.674   4.037   6.652  0.2727  0.0529 -1.0901
11775SOL    HW246545   9.725   3.907   6.566 -0.0867 -0.9633  0.2187
11776SOL     OW46546   8.936   6.854   3.459 -0.1307 -0.1603 -0.1639
11776SOL    HW146547   8.916   6.946   3.492 -0.5505 -0.2019 -0.2905
11776SOL    HW246548   8.889   6.839   3.372  0.8965 -0.0805 -0.7378
11777SOL     OW46549   4.545   6.880   1.042  0.5070 -0.0946 -0.3473
11777SOL    HW146550   4.612   6.807   1.055  0.2490 -0.6352 -1.9467
11777SOL    HW246551   4.581   6.966   1.080  1.6701 -0.6034 -0.2913
11778SOL     OW46552   6.953   1.536   3.820 -0.3993  0.2400  0.2161
11778SOL    HW146553   7.019   1.580   3.759 -0.4845  1.1159  0.7507
11778SOL    HW246554   6.999   1.512   3.906 -0.5642  0.0690  0.2547
11779SOL     OW46555   6.349   0.363   1.093 -0.3332 -0.4973  0.2869
11779SOL    HW146556   6.297   0.447   1.082  2.0609  0.7884 -1.7611
11779SOL    HW246557   6.293   0.295   1.142 -2.1078  2.3819  2.3825
11780SOL     OW46558   4.224   4.414   0.351 -0.2533  0.0075  0.4898
11780SOL    HW146559   4.192   4.320   0.365 -0.1423 -0.1384 -0.2402
11780SOL    HW246560   4.284   4.418   0.272  0.7832  0.4616  1.2828
11781SOL     OW46561   9.293   3.711   5.399  0.0057  0.2810 -0.2821
11781SOL    HW146562   9.240   3.757   5.470  0.9896  0.0953  0.5797
11781SOL    HW246563   9.257   3.619   5.384 -0.1640  0.2995  0.0165
11782SOL     OW46564   8.793   3.778   5.442  0.1282 -0.5680  0.4015
11782SOL    HW146565   8.733   3.850   5.477  2.7350  2.1865 -0.6226
11782SOL    HW246566   8.751   3.736   5.361 -0.1975  1.6952 -0.6356
11783SOL     OW46567   3.995   0.271   6.136 -0.2080 -0.0483  0.1058
11783SOL    HW146568   4.029   0.216   6.212  0.1378  0.2879  0.2003
11783SOL    HW246569   3.926   0.335   6.170  2.2731  2.3662  0.7864
11784SOL     OW46570   7.528   4.515   5.945  0.2373 -0.5155 -0.1874
11784SOL    HW146571   7.517   4.460   6.028  0.0925 -0.2854 -0.0540
11784SOL    HW246572   7.601   4.476   5.889  3.0665  1.5652  1.9118
11785SOL     OW46573   6.113   4.613   0.859 -0.1202  0.2199  0.0715
11785SOL    HW146574   6.131   4.597   0.762 -0.7956  0.1600 -0.0446
11785SOL    HW246575   6.070   4.532   0.898  1.0668 -0.1439  0.6587
11786SOL     OW46576   3.517   1.499   4.802 -0.4347  0.2614 -0.0564
11786SOL    HW146577   3.529   1.476   4.899  0.1162 -2.0584 -0.6530
11786SOL    HW246578   3.425   1.474   4.772 -0.4910  0.6710 -0.2376
11787SOL     OW46579   0.220   0.387   4.334 -0.1963 -0.2086 -0.1368
11787SOL    HW146580   0.269   0.350   4.412  0.6088 -0.5582 -0.7986
11787SOL    HW246581   0.282   0.439   4.276 -0.7933  0.1062 -0.5074
11788SOL     OW46582   2.709   7.065   2.269  0.2905 -0.2851 -0.0315
11788SOL    HW146583   2.714   7.009   2.186  0.3909  0.8932 -0.8282
11788SOL    HW246584   2.696   7.005   2.348  1.1102 -1.4895 -0.7860
11789SOL     OW46585   3.800   6.594   2.004 -0.7263  0.1003 -0.4348
11789SOL    HW146586   3.884   6.599   1.950 -1.0310  1.6261 -0.7951
11789SOL    HW246587   3.744   6.518   1.970 -1.4350  1.7344 -3.0950
11790SOL     OW46588   3.269   1.568   5.747  0.5323 -0.2655  0.0429
11790SOL    HW146589   3.209   1.507   5.799  0.1891 -0.0281 -0.0745
11790SOL    HW246590   3.364   1.541   5.761  0.4875  0.1927  1.3092
11791SOL     OW46591   0.947   5.861   5.487  0.5142 -0.2233 -0.3237
11791SOL    HW146592   0.930   5.828   5.395 -0.1024 -0.7800 -0.0171
11791SOL    HW246593   1.041   5.896   5.494  0.1891  0.9231 -1.4677
11792SOL     OW46594   7.502   3.041   5.140  0.6416  0.3483 -0.2085
11792SOL    HW146595   7.449   3.084   5.213  0.2660 -0.7989  0.1991
11792SOL    HW246596   7.503   3.101   5.060 -0.6033  0.7420  0.0621
11793SOL     OW46597   4.356   7.491   3.028 -0.0992  0.1452  0.4657
11793SOL    HW146598   4.444   7.447   3.009  0.4508  0.4842  2.1575
11793SOL    HW246599   4.352   7.578   2.980 -0.7887 -1.2460 -2.0993
11794SOL     OW46600   5.410   4.206   0.033  0.0202 -0.1337 -0.0857
11794SOL    HW146601   5.428   4.121  -0.016  2.3730  1.0688 -1.3624
11794SOL    HW246602   5.411   4.188   0.132 -0.1336 -1.6949 -0.3559
11795SOL     OW46603   3.145   2.708   0.507  0.4879  0.2218  0.4130
11795SOL    HW146604   3.129   2.773   0.433 -2.7898 -1.4636 -0.4383
11795SOL    HW246605   3.217   2.644   0.479  0.6954  0.8262 -0.4794
11796SOL     OW46606   9.548   4.671   3.793  0.2227  0.5508 -0.0321
11796SOL    HW146607   9.633   4.637   3.831 -0.4862  1.1857  2.1610
11796SOL    HW246608   9.551   4.771   3.786 -0.5126  0.6162  0.4902
11797SOL     OW46609   7.300   4.538   2.133  0.1082 -0.1822 -0.3951
11797SOL    HW146610   7.203   4.514   2.137  0.3592 -1.1638  0.0719
11797SOL    HW246611   7.344   4.514   2.220  0.4255  1.7868  0.0023
11798SOL     OW46612   0.961   5.580   3.417 -0.1479 -0.0543  0.1918
11798SOL    HW146613   0.932   5.498   3.467  0.7605 -0.0270  0.7853
11798SOL    HW246614   0.959   5.658   3.479  2.1696 -0.2392  0.5511
11799SOL     OW46615   9.786   0.143   4.839 -0.3813  0.4395 -0.0385
11799SOL    HW146616   9.758   0.053   4.804 -0.0278 -0.0972  1.0149
11799SOL    HW246617   9.884   0.154   4.825 -0.8054  1.6454 -2.2696
11800SOL     OW46618   3.665   2.852   3.085 -0.2964  0.5012  0.1366
11800SOL    HW146619   3.626   2.944   3.086  0.7668  0.9883 -1.9688
11800SOL    HW246620   3.625   2.799   3.010 -0.9209 -0.7809  1.3458
11801SOL     OW46621   7.241   8.869   3.214  0.2035 -0.1426  0.5381
11801SOL    HW146622   7.240   8.798   3.143 -0.5604  1.2531 -0.8856
11801SOL    HW246623   7.308   8.939   3.189 -0.6364  0.7566  0.7991
11802SOL     OW46624   7.837   2.036   4.867 -0.0753 -0.0249 -0.0153
11802SOL    HW146625   7.930   2.067   4.886  1.1632 -2.9826 -1.0225
11802SOL    HW246626   7.783   2.040   4.951  1.5647 -0.2747  1.0629
11803SOL     OW46627   6.290   0.696   5.226  0.1017 -0.3286 -0.4328
11803SOL    HW146628   6.287   0.793   5.249  0.1256 -0.9727  2.5185
11803SOL    HW246629   6.210   0.671   5.173  0.4029  1.4096 -1.7545
11804SOL     OW46630   2.828   4.888   6.180  0.2529  0.1930 -0.2120
11804SOL    HW146631   2.856   4.983   6.167  0.8751 -0.1476 -1.3696
11804SOL    HW246632   2.855   4.833   6.101 -0.6841 -0.8228  0.1543
11805SOL     OW46633   8.393   2.981   5.480 -0.2534  0.3804  0.2930
11805SOL    HW146634   8.441   2.940   5.403  2.1739 -1.0756  2.4988
11805SOL    HW246635   8.460   3.018   5.546 -2.1193 -1.0066  3.0824
11806SOL     OW46636   1.182   5.874   2.993  0.4598 -0.2257 -0.0027
11806SOL    HW146637   1.119   5.847   3.066  0.5122  0.4195  0.2895
11806SOL    HW246638   1.265   5.913   3.034  0.0957  1.0012 -0.4101
11807SOL     OW46639   7.995   8.645   6.174  0.1320 -0.1867 -0.6078
11807SOL    HW146640   8.008   8.547   6.188  1.6122 -0.3432 -2.7955
11807SOL    HW246641   7.900   8.663   6.151 -0.0312 -1.1854 -0.7388
11808SOL     OW46642   1.824   7.741   4.516 -0.5803 -0.7684 -0.4179
11808SOL    HW146643   1.915   7.762   4.552  0.0509 -3.5417 -0.2255
11808SOL    HW246644   1.756   7.792   4.567  0.8308  0.9245 -0.1838
11809SOL     OW46645   7.896   0.826   3.549  0.0388 -0.3304 -0.1844
11809SOL    HW146646   7.855   0.822   3.640 -2.1808 -0.0324 -1.1492
11809SOL    HW246647   7.874   0.914   3.506  1.0541 -0.4766 -1.0312
11810SOL     OW46648   8.587   6.486   2.420  0.0841  0.1842 -0.1094
11810SOL    HW146649   8.592   6.399   2.370  0.3307  0.9624 -1.4615
11810SOL    HW246650   8.492   6.502   2.448 -0.4579  0.7183 -2.1411
11811SOL     OW46651   2.650   5.740   3.726 -0.7128 -0.3509  0.1298
11811SOL    HW146652   2.582   5.680   3.769 -0.8403 -0.9546 -0.8857
11811SOL    HW246653   2.708   5.686   3.665 -1.5491  0.6981 -1.6701
11812SOL     OW46654   0.587   9.458   6.564  0.1585  0.5211  0.5287
11812SOL    HW146655   0.615   9.505   6.648  0.5999 -0.9842  1.2497
11812SOL    HW246656   0.488   9.445   6.564 -0.0810  2.1876 -0.0848
11813SOL     OW46657   3.486   6.801   0.309 -0.0212 -0.0640 -0.1769
11813SOL    HW146658   3.516   6.710   0.283  1.1127 -0.4350  2.2913
11813SOL    HW246659   3.566   6.860   0.324 -0.6220  0.3203  1.6809
11814SOL     OW46660   3.906   8.521   4.429 -0.7324  0.3435 -0.2159
11814SOL    HW146661   3.995   8.524   4.384 -0.1829 -0.9409  0.7670
11814SOL    HW246662   3.834   8.508   4.360  0.0632 -1.1256 -0.8018
11815SOL     OW46663   5.691   4.670   0.407  0.0355  0.6919  0.2203
11815SOL    HW146664   5.687   4.666   0.507  1.7216 -0.0628  0.2781
11815SOL    HW246665   5.696   4.577   0.371  0.5810  0.9981 -0.5014
11816SOL     OW46666   1.130   9.313   6.110  0.3123 -0.1147 -0.4962
11816SOL    HW146667   1.031   9.321   6.124  0.2427  0.5406 -1.3263
11816SOL    HW246668   1.177   9.368   6.179  0.0664  0.2836 -0.6373
11817SOL     OW46669   7.315   0.174   2.640  0.7282 -0.0662  0.0223
11817SOL    HW146670   7.286   0.131   2.554  0.6643  0.9751 -0.4976
11817SOL    HW246671   7.344   0.104   2.705 -0.4061 -0.9563 -0.4072
11818SOL     OW46672   0.014   8.659   2.297  0.4816  0.3293  0.1088
11818SOL    HW146673  -0.049   8.736   2.299  1.1860  0.8847  2.5707
11818SOL    HW246674  -0.037   8.574   2.293 -0.3847  0.8245  0.4884
11819SOL     OW46675   4.193   7.086   1.665 -0.1790  0.3868 -0.8101
11819SOL    HW146676   4.231   6.995   1.645  0.9139  0.7711 -0.5400
11819SOL    HW246677   4.130   7.079   1.743 -1.5817 -0.4603 -1.9930
11820SOL     OW46678   3.586   2.591   1.459  0.5475  0.0260 -0.1426
11820SOL    HW146679   3.547   2.586   1.366 -0.1293  1.1075  0.0750
11820SOL    HW246680   3.630   2.504   1.481 -0.5937 -0.7647 -0.9119
11821SOL     OW46681   8.018   8.028   3.124  0.2027  0.4101 -0.4387
11821SOL    HW146682   7.980   8.092   3.191 -0.8666 -0.6982  0.0349
11821SOL    HW246683   8.118   8.025   3.134  0.0197 -0.1994  1.5283
11822SOL     OW46684   1.962   8.919   3.119  0.2208  0.4819 -0.4047
11822SOL    HW146685   1.898   8.846   3.142 -0.5127  0.3545 -2.7244
11822SOL    HW246686   2.042   8.914   3.179 -0.4934 -1.3154  0.4213
11823SOL     OW46687   3.523   6.234   0.166 -0.6473  0.8020 -0.2894
11823SOL    HW146688   3.438   6.182   0.176 -0.1171 -0.1618 -0.6898
11823SOL    HW246689   3.570   6.205   0.083  1.1566 -0.2782  1.0596
11824SOL     OW46690   7.840   3.347   1.865 -0.0015 -0.3931 -0.1757
11824SOL    HW146691   7.750   3.388   1.851  0.2339  0.2562  0.1985
11824SOL    HW246692   7.854   3.331   1.963  0.4356 -0.1584 -0.1978
11825SOL     OW46693   7.170   5.869   5.904 -0.4983 -0.0889 -0.3096
11825SOL    HW146694   7.095   5.897   5.964 -0.5697  0.5870 -0.7082
11825SOL    HW246695   7.134   5.814   5.829 -0.7731  1.1724 -1.1330
11826SOL     OW46696   3.912   4.425   3.349 -0.5131  0.0385  0.0415
11826SOL    HW146697   3.824   4.379   3.359 -0.8297 -0.0963 -2.9409
11826SOL    HW246698   3.906   4.518   3.383 -1.5320 -0.2735  0.7275
11827SOL     OW46699   9.972   5.191   2.746 -0.0267 -0.5349  0.8959
11827SOL    HW146700   9.964   5.232   2.655  0.4227 -0.9993  0.6423
11827SOL    HW246701   9.909   5.237   2.808 -0.3584 -0.2302  0.3479
11828SOL     OW46702   2.859   1.786   3.499 -0.4157 -0.0130  0.3481
11828SOL    HW146703   2.876   1.824   3.590  1.3394 -1.0258  0.4655
11828SOL    HW246704   2.774   1.823   3.462 -0.2848  1.6664  1.7181
11829SOL     OW46705   9.856   8.399   4.724 -0.3491  0.1012 -0.4243
11829SOL    HW146706   9.760   8.421   4.740 -0.5453  0.3128 -1.8295
11829SOL    HW246707   9.891   8.454   4.648  1.5630  1.7415  1.5800
11830SOL     OW46708   6.006   1.671   2.025  0.4494 -0.5231  0.3854
11830SOL    HW146709   6.042   1.685   2.117  0.2648 -0.2984  0.4241
11830SOL    HW246710   6.080   1.641   1.965  0.6918 -0.1209  0.4800
11831SOL     OW46711   4.347   0.480   6.598  0.0933 -0.0533  0.2534
11831SOL    HW146712   4.421   0.513   6.540  0.4941 -1.0667  0.1801
11831SOL    HW246713   4.329   0.384   6.579 -1.4733  0.2591  0.0359
11832SOL     OW46714   4.344   6.010   0.782  0.3324 -0.2354  0.0317
11832SOL    HW146715   4.358   6.092   0.726 -1.7094  0.3174  0.3116
11832SOL    HW246716   4.312   5.935   0.725 -2.6962  0.6029  0.5805
11833SOL     OW46717   9.314   3.130   5.255  0.5256 -0.7587 -0.5480
11833SOL    HW146718   9.340   3.174   5.341  0.9437 -0.2266 -0.9413
11833SOL    HW246719   9.218   3.146   5.236  0.2677 -1.4564  0.1614
11834SOL     OW46720   8.976   6.148   0.388  0.2704 -0.3223 -0.1310
11834SOL    HW146721   8.979   6.071   0.452  1.8356  0.9601  1.3814
11834SOL    HW246722   9.048   6.137   0.319  0.8657  0.0613  0.4249
11835SOL     OW46723   7.961   8.407   6.473  0.1428 -0.1846 -0.4767
11835SOL    HW146724   7.899   8.485   6.479  0.1298 -0.3024  1.4619
11835SOL    HW246725   7.994   8.397   6.379 -0.6306  1.5330 -0.9517
11836SOL     OW46726   1.698   5.444   4.918  0.4656 -0.0715 -0.5757
11836SOL    HW146727   1.681   5.462   5.015 -0.3017  0.7345 -0.8549
11836SOL    HW246728   1.791   5.411   4.906  0.4946 -0.3811  0.4642
11837SOL     OW46729   2.521   1.403   3.286  0.6264  0.0010  0.1726
11837SOL    HW146730   2.609   1.449   3.280  0.3932  0.2730 -1.1393
11837SOL    HW246731   2.516   1.331   3.217  0.5355 -1.2578  1.4472
11838SOL     OW46732   8.150   5.783   2.748  0.3640  0.0502  0.7004
11838SOL    HW146733   8.054   5.798   2.722 -0.2088  1.3789  3.4948
11838SOL    HW246734   8.168   5.685   2.751 -1.2499 -0.2390  1.3512
11839SOL     OW46735   5.536   0.754   3.247 -0.3159  0.1719 -0.0005
11839SOL    HW146736   5.568   0.782   3.156 -0.5036  0.4441  0.0178
11839SOL    HW246737   5.550   0.655   3.258 -0.6485  0.0745 -0.4687
11840SOL     OW46738   3.896   7.740   1.739  0.1632 -0.1013 -0.6585
11840SOL    HW146739   3.862   7.799   1.812 -2.1009 -1.6554 -0.4181
11840SOL    HW246740   3.991   7.716   1.757 -0.7655 -1.6458  2.5777
11841SOL     OW46741   0.818   1.930   4.101 -0.0465 -0.5572 -0.4025
11841SOL    HW146742   0.762   1.851   4.129 -1.2976  0.1132 -0.9868
11841SOL    HW246743   0.773   1.978   4.026  1.2448  0.1016 -0.7656
11842SOL     OW46744   2.109   7.545   0.605 -0.0006 -0.3794 -0.0484
11842SOL    HW146745   2.143   7.500   0.688  1.3752  0.8365  0.0836
11842SOL    HW246746   2.161   7.512   0.526 -0.3687 -0.5155 -0.2344
11843SOL     OW46747   2.211   0.155   0.873 -0.0647  0.1531 -0.1763
11843SOL    HW146748   2.137   0.126   0.811  0.9232 -0.9196 -0.8690
11843SOL    HW246749   2.296   0.111   0.846  0.5292  0.2217  1.5382
11844SOL     OW46750   8.852   2.351   0.690  0.1357  0.5879  0.2585
11844SOL    HW146751   8.885   2.444   0.705  0.4866  0.1775  2.1481
11844SOL    HW246752   8.776   2.332   0.752  2.4693 -1.6072  2.5539
11845SOL     OW46753   7.802   1.174   4.842  0.0317 -0.6986  0.2781
11845SOL    HW146754   7.788   1.104   4.772 -2.2105 -0.8295  0.8157
11845SOL    HW246755   7.773   1.138   4.931  2.2674 -0.3217  1.1877
11846SOL     OW46756   1.880   3.046   3.954 -0.1817 -0.1621  0.4032
11846SOL    HW146757   1.805   3.108   3.977  1.0533  1.1708  0.8770
11846SOL    HW246758   1.946   3.094   3.897  0.9326 -0.9750  1.0048
11847SOL     OW46759   0.137   6.846   4.388  0.1829  0.2897 -0.0073
11847SOL    HW146760   0.208   6.872   4.322 -0.3886 -0.1314 -0.7903
11847SOL    HW246761   0.063   6.799   4.341 -0.2630  0.0391  0.9326
11848SOL     OW46762   1.771   8.912   3.709  0.4341  0.2702  0.1183
11848SOL    HW146763   1.855   8.955   3.742 -0.0765  0.6448  0.9310
11848SOL    HW246764   1.790   8.817   3.685  1.4777  0.8245 -1.3203
11849SOL     OW46765   9.645   4.229   2.591 -0.1378  0.3250  0.4051
11849SOL    HW146766   9.642   4.129   2.580  0.5808  0.3405  0.0768
11849SOL    HW246767   9.600   4.272   2.512  0.8222  0.2957 -0.1722
11850SOL     OW46768   5.925   9.209   3.470 -0.2759  0.6609  0.1937
11850SOL    HW146769   5.940   9.111   3.481 -1.7985  0.2759 -0.9496
11850SOL    HW246770   5.986   9.244   3.399 -1.0593  0.1545 -0.7364
11851SOL     OW46771   9.497   5.627   1.607 -0.5834  0.0352  0.4358
11851SOL    HW146772   9.539   5.537   1.594 -1.1388 -0.3209  1.0546
11851SOL    HW246773   9.518   5.661   1.699  1.0159  1.2929 -0.3669
11852SOL     OW46774   2.004   7.053   0.031  0.4876 -0.8299 -0.2994
11852SOL    HW146775   2.012   6.966  -0.018 -0.7121 -1.8793  1.3169
11852SOL    HW246776   1.941   7.042   0.107  0.7835  1.3214  0.2736
11853SOL     OW46777   1.120   3.783   4.722  0.0018 -0.4534 -0.2107
11853SOL    HW146778   1.032   3.825   4.745  0.0333  0.4101 -1.6078
11853SOL    HW246779   1.104   3.698   4.672 -0.0374 -0.8005  0.3836
11854SOL     OW46780   1.872   9.209   5.325 -0.0914  0.8068 -0.2941
11854SOL    HW146781   1.954   9.233   5.376  0.7291  0.9028 -1.6233
11854SOL    HW246782   1.826   9.292   5.293 -0.4738  0.7441  0.0928
11855SOL     OW46783   0.263   5.741   1.713  0.0912  0.1868 -0.2406
11855SOL    HW146784   0.317   5.665   1.677 -0.1783 -0.6545  1.0558
11855SOL    HW246785   0.324   5.809   1.754  0.3629  0.9116 -1.8502
11856SOL     OW46786   0.691   8.738   1.494 -0.0027 -0.7576  0.2570
11856SOL    HW146787   0.729   8.710   1.406  0.9880 -0.4269  0.5652
11856SOL    HW246788   0.684   8.659   1.554 -0.0182 -0.8642  0.1154
11857SOL     OW46789   9.848   7.342   3.164 -0.6827  0.3838  0.1308
11857SOL    HW146790   9.801   7.307   3.244 -0.8234  2.2040  0.8810
11857SOL    HW246791   9.787   7.404   3.114 -0.1285  0.3336 -0.6137
11858SOL     OW46792   2.048   7.000   5.586  0.0882  0.3768 -0.3041
11858SOL    HW146793   2.138   6.995   5.543  0.1326  1.9009 -0.4235
11858SOL    HW246794   1.983   7.041   5.522 -0.9323 -1.6417 -0.5777
11859SOL     OW46795   1.033   5.746   3.192 -0.0004  0.0010  0.0004
11859SOL    HW146796   1.041   5.671   3.257 -0.9346 -1.7167 -1.8203
11859SOL    HW246797   0.942   5.745   3.150  0.2339  1.6826 -0.6299
11860SOL     OW46798   4.290   9.471   1.517 -0.3191 -0.0856 -0.5648
11860SOL    HW146799   4.263   9.381   1.485  0.5747 -1.2637  1.8934
11860SOL    HW246800   4.212   9.533   1.511 -1.8021 -1.8071  0.5444
11861SOL     OW46801   9.874   3.256   2.064 -0.0256  0.1095 -0.5113
11861SOL    HW146802   9.902   3.199   2.141  1.9649  0.9633 -0.5719
11861SOL    HW246803   9.785   3.298   2.085 -1.8570 -3.4773 -0.7739
11862SOL     OW46804   7.817   5.099   0.285  0.0051 -0.4065 -0.5411
11862SOL    HW146805   7.799   5.001   0.294  2.1490 -0.9373 -1.9129
11862SOL    HW246806   7.912   5.118   0.307 -1.0674  1.8059  2.5487
11863SOL     OW46807   4.199   4.289   1.423 -0.0823 -0.3211  0.0805
11863SOL    HW146808   4.295   4.261   1.412 -0.1083 -0.7019  0.8304
11863SOL    HW246809   4.177   4.295   1.520 -1.9412 -4.0532 -0.0132
11864SOL     OW46810   3.558   6.744   3.810 -0.0524 -0.2517 -0.9516
11864SOL    HW146811   3.540   6.658   3.859  1.2970  0.7207  1.3336
11864SOL    HW246812   3.553   6.727   3.711 -1.8678 -2.4824 -0.5309
11865SOL     OW46813   0.593   6.796   1.371 -0.7174  0.2229 -0.4598
11865SOL    HW146814   0.507   6.816   1.419 -1.0008  1.8819 -1.6125
11865SOL    HW246815   0.581   6.811   1.273  1.0230  0.9947 -0.5721
11866SOL     OW46816   3.733   2.743   4.646 -0.2931 -0.4541  0.3241
11866SOL    HW146817   3.695   2.823   4.691 -1.2277 -0.7962  0.1497
11866SOL    HW246818   3.699   2.738   4.553 -0.7670 -1.4172  0.5444
11867SOL     OW46819   1.228   9.846   2.279 -0.5640 -0.2732 -0.4092
11867SOL    HW146820   1.256   9.847   2.375 -0.0904 -1.4364 -0.5282
11867SOL    HW246821   1.128   9.853   2.274 -0.4391  2.3086  0.0705
11868SOL     OW46822   4.049   2.558   5.570 -0.1887  0.2287  0.1835
11868SOL    HW146823   3.952   2.580   5.568 -0.1261  0.4437 -0.8047
11868SOL    HW246824   4.102   2.638   5.541  0.2270 -0.2342 -0.3455
11869SOL     OW46825   6.201   1.893   3.018 -0.0983  0.5747  0.1323
11869SOL    HW146826   6.263   1.843   2.958  0.1374  1.4347 -0.3590
11869SOL    HW246827   6.219   1.867   3.113 -1.0339 -1.3929 -0.2136
11870SOL     OW46828   2.836   6.706   5.584  0.7058  0.5111 -0.2646
11870SOL    HW146829   2.823   6.803   5.601  0.2104  0.2897  0.6870
11870SOL    HW246830   2.812   6.684   5.489  0.3484  1.2272 -0.3376
11871SOL     OW46831   4.466   1.010   6.021  0.2537 -0.2943  0.0502
11871SOL    HW146832   4.526   0.936   5.991 -0.4435 -0.8890  0.0985
11871SOL    HW246833   4.409   1.040   5.944 -1.5111 -1.7988  0.7347
11872SOL     OW46834   0.104   5.579   1.866 -0.6111  0.2946 -0.1378
11872SOL    HW146835   0.156   5.637   1.804 -0.0352  1.0898  1.0646
11872SOL    HW246836   0.118   5.483   1.842  1.2783  0.5087  0.0624
11873SOL     OW46837   5.798   1.376   0.454 -0.1290 -0.7709  0.1536
11873SOL    HW146838   5.824   1.282   0.433 -0.3795 -0.6984 -0.5168
11873SOL    HW246839   5.872   1.421   0.505  0.2002 -1.1810  0.0402
11874SOL     OW46840   9.784   1.113   1.932  0.2408  0.1539  0.2037
11874SOL    HW146841   9.875   1.106   1.891 -0.3601 -0.1169 -1.1319
11874SOL    HW246842   9.775   1.047   2.005  1.3913  0.7288  0.8805
11875SOL     OW46843   2.200   3.200   4.041  0.0348 -0.1415 -0.1393
11875SOL    HW146844   2.207   3.292   4.080  0.7002 -0.0311 -0.5120
11875SOL    HW246845   2.289   3.155   4.044  0.5567  0.5339 -3.0934
11876SOL     OW46846   2.623   4.495   5.572 -0.0551  0.1225 -0.2747
11876SOL    HW146847   2.529   4.509   5.542  0.3975  1.9021 -0.9498
11876SOL    HW246848   2.649   4.399   5.559 -1.6275 -0.2787 -0.4849
11877SOL     OW46849   0.115   0.617   3.410  0.6026  0.0231 -0.8758
11877SOL    HW146850   0.159   0.532   3.383 -0.5699 -1.0522  0.5194
11877SOL    HW246851   0.052   0.647   3.338 -0.1574 -1.1523 -0.7152
11878SOL     OW46852   4.588   0.321   4.372  0.0944 -0.6347 -0.3082
11878SOL    HW146853   4.586   0.412   4.329  0.4240  0.2095  1.4190
11878SOL    HW246854   4.683   0.296   4.389 -0.0782 -0.5776  0.7296
11879SOL     OW46855   7.575   2.061   5.348  0.6684 -0.1673  0.1788
11879SOL    HW146856   7.604   2.110   5.266  0.2423  0.4027  0.3636
11879SOL    HW246857   7.655   2.037   5.403  0.7486  1.9785  1.0227
11880SOL     OW46858   2.748   8.442   1.762  0.6054  0.1947 -0.1274
11880SOL    HW146859   2.797   8.458   1.848  1.3070  1.4985 -0.7642
11880SOL    HW246860   2.778   8.508   1.693 -2.0590  1.0761 -0.5186
11881SOL     OW46861   0.015   9.506   3.881 -0.3329  0.2561 -0.7241
11881SOL    HW146862  -0.057   9.445   3.848 -0.1531 -0.5566  0.3227
11881SOL    HW246863  -0.026   9.583   3.930 -0.4988 -0.2048 -0.1291
11882SOL     OW46864   6.675   7.712   4.824 -0.6975  0.1474  0.0202
11882SOL    HW146865   6.595   7.772   4.822  0.2045  1.3487 -1.0573
11882SOL    HW246866   6.649   7.620   4.794 -2.3002 -0.2920  2.6245
11883SOL     OW46867   3.142   5.052   0.945  0.2805  0.5372 -0.0657
11883SOL    HW146868   3.120   5.071   1.040  0.0206  3.6276 -0.6934
11883SOL    HW246869   3.063   5.010   0.900  0.4524 -1.0568  1.0700
11884SOL     OW46870   8.068   5.184   0.419 -0.3797  0.1925 -0.0256
11884SOL    HW146871   8.136   5.255   0.398 -0.7548  0.5862  0.0927
11884SOL    HW246872   8.042   5.190   0.515  0.3774 -0.7871  0.2423
11885SOL     OW46873   0.749   7.648   3.238  0.0939  0.2608 -0.2942
11885SOL    HW146874   0.666   7.595   3.220  0.6231 -0.0306 -1.9341
11885SOL    HW246875   0.820   7.588   3.274  0.0448  0.2481 -0.2169
11886SOL     OW46876   9.317   8.156   6.524 -0.1692  0.2226  0.2730
11886SOL    HW146877   9.392   8.210   6.488  0.8230 -0.5915  1.0944
11886SOL    HW246878   9.352   8.088   6.589 -1.6847  0.3847  1.3039
11887SOL     OW46879   3.308   0.802   4.418  0.1039 -0.0733 -0.0056
11887SOL    HW146880   3.379   0.799   4.347  0.0044  0.5830 -0.1414
11887SOL    HW246881   3.324   0.729   4.484  0.0534 -0.8441 -0.8394
11888SOL     OW46882   8.863   3.479   4.736 -0.4419  0.4182 -0.4158
11888SOL    HW146883   8.913   3.432   4.663 -0.2665  1.5326 -1.0148
11888SOL    HW246884   8.928   3.527   4.795 -0.5743 -0.5192  0.5217
11889SOL     OW46885   0.561   2.346   2.298 -0.7319 -0.3728 -0.5246
11889SOL    HW146886   0.633   2.330   2.231  0.1121 -0.4838  0.4016
11889SOL    HW246887   0.540   2.260   2.346  0.3765  0.1901  1.0305
11890SOL     OW46888   3.168   4.400   4.352  0.3088  0.4148 -0.5870
11890SOL    HW146889   3.242   4.410   4.286  0.8626  2.2857  0.2876
11890SOL    HW246890   3.206   4.369   4.440  0.0390  1.0977 -0.2216
11891SOL     OW46891   4.186   5.309   1.563 -0.0560  0.7597  0.2028
11891SOL    HW146892   4.246   5.309   1.482  1.4974  0.0082  1.3211
11891SOL    HW246893   4.095   5.276   1.537  0.7027 -0.3966 -1.0550
11892SOL     OW46894   2.577   1.625   0.428 -0.6966  0.2192  0.1562
11892SOL    HW146895   2.642   1.554   0.455  0.5470  1.1277 -0.4468
11892SOL    HW246896   2.517   1.589   0.356 -0.3312 -0.3487  0.1343
11893SOL     OW46897   7.652   3.373   3.274  0.3421 -0.3292 -0.5359
11893SOL    HW146898   7.578   3.414   3.327 -0.4701 -1.2459 -0.9447
11893SOL    HW246899   7.695   3.443   3.217  2.0215  0.9590  2.1490
11894SOL     OW46900   5.362   2.670   4.451  0.1227  1.1412 -0.0963
11894SOL    HW146901   5.323   2.587   4.490 -2.3908  1.7866 -1.1726
11894SOL    HW246902   5.447   2.648   4.403 -0.4174 -0.7575 -0.1928
11895SOL     OW46903   0.260   3.754   6.080  0.6921 -0.7986 -0.0370
11895SOL    HW146904   0.211   3.678   6.121 -0.8228 -0.3429 -0.9687
11895SOL    HW246905   0.284   3.731   5.985 -0.0876  0.0065 -0.4364
11896SOL     OW46906   9.492   2.800   0.982 -0.2681 -0.2876 -0.7983
11896SOL    HW146907   9.551   2.879   0.992 -0.9667  0.0924  0.4764
11896SOL    HW246908   9.396   2.828   0.992 -0.4572 -1.4962  1.2322
11897SOL     OW46909   2.259   5.217   4.664 -0.0548  0.3064 -0.7229
11897SOL    HW146910   2.314   5.140   4.696  1.8583  1.5209 -0.9916
11897SOL    HW246911   2.261   5.220   4.564 -2.1969 -0.7379 -0.8364
11898SOL     OW46912   7.161   3.098   0.311  0.3450  0.1774 -0.0490
11898SOL    HW146913   7.084   3.093   0.375  0.3990  0.9219  0.0743
11898SOL    HW246914   7.181   3.006   0.276 -0.2395 -0.1015  0.3433
11899SOL     OW46915   0.356   7.529   4.142  0.3077  0.3287  0.0122
11899SOL    HW146916   0.341   7.627   4.151  2.5289  0.5658  1.6497
11899SOL    HW246917   0.453   7.511   4.127  0.0592 -1.6428  0.5012
11900SOL     OW46918   2.313   1.664   5.232 -0.4522  0.0878  0.4431
11900SOL    HW146919   2.304   1.763   5.221  0.4283  0.0627 -0.6483
11900SOL    HW246920   2.226   1.620   5.210 -1.0304  0.6646  1.5602
11901SOL     OW46921   2.998   5.723   4.116 -0.5558 -0.0816  0.5704
11901SOL    HW146922   2.907   5.761   4.097 -0.6793 -0.8152 -0.3598
11901SOL    HW246923   3.027   5.667   4.039  0.4263 -0.3642  1.1365
11902SOL     OW46924   0.114   7.986   5.341  0.0983  0.1968 -0.4851
11902SOL    HW146925   0.059   8.031   5.270  0.2793 -1.1537 -1.4964
11902SOL    HW246926   0.064   7.988   5.428 -0.1635  1.7972 -0.6590
11903SOL     OW46927   0.364   9.584   3.546 -0.5563 -0.0557 -0.4501
11903SOL    HW146928   0.447   9.602   3.493 -2.5897  2.3713 -2.9763
11903SOL    HW246929   0.353   9.486   3.557  1.9187 -0.4766 -1.2695
11904SOL     OW46930   4.854   1.323   4.879  0.5277 -0.0370 -0.1165
11904SOL    HW146931   4.781   1.268   4.839 -0.1879 -0.6811  1.9732
11904SOL    HW246932   4.815   1.406   4.919  1.1165  0.2487 -0.1325
11905SOL     OW46933   0.171   3.750   2.623 -0.4382 -0.4270  0.3452
11905SOL    HW146934   0.110   3.743   2.702 -0.8596 -0.2528  0.0414
11905SOL    HW246935   0.266   3.743   2.652 -0.6783 -3.2997  0.5353
11906SOL     OW46936   0.524   9.520   6.003  0.1104 -0.5431  0.5542
11906SOL    HW146937   0.425   9.505   6.004  0.0084  0.0922  0.3192
11906SOL    HW246938   0.562   9.495   6.091 -0.3911  0.0400  0.9435
11907SOL     OW46939   1.652   0.464   3.928  0.5266 -0.2389  0.3404
11907SOL    HW146940   1.691   0.549   3.895  0.0247 -0.2346 -0.2547
11907SOL    HW246941   1.723   0.395   3.936  0.6382 -0.2652 -0.8428
11908SOL     OW46942   5.892   2.808   3.241  0.4437  0.3939  0.5021
11908SOL    HW146943   5.947   2.891   3.242  1.4526 -0.2716  2.8357
11908SOL    HW246944   5.951   2.728   3.231 -0.2899 -0.1953  0.8234
11909SOL     OW46945   1.447   2.954   3.534 -0.1720 -0.5155  0.3087
11909SOL    HW146946   1.479   2.865   3.568 -0.1853 -0.3324  0.8148
11909SOL    HW246947   1.480   3.026   3.596 -1.6494 -0.3345  0.8983
11910SOL     OW46948   5.632   9.472   1.462  0.3921  0.1522  0.0404
11910SOL    HW146949   5.536   9.491   1.442  0.8463  2.6745  0.0579
11910SOL    HW246950   5.688   9.501   1.384  1.1290 -1.5314 -0.0671
11911SOL     OW46951   4.239   0.490   3.663 -0.1134  0.2859  0.0833
11911SOL    HW146952   4.201   0.501   3.572 -0.3228  0.5101  0.1977
11911SOL    HW246953   4.250   0.392   3.683  1.8774  0.2619 -0.9833
11912SOL     OW46954   3.710   9.898   1.633 -0.1361  0.3335  0.4380
11912SOL    HW146955   3.742   9.856   1.549 -0.0953  0.7455  0.2475
11912SOL    HW246956   3.782   9.894   1.703  0.3519  1.2777  0.0047
11913SOL     OW46957   5.117   1.564   3.666  0.3918 -0.0887 -0.0797
11913SOL    HW146958   5.109   1.573   3.567  1.1281 -0.7146 -0.2026
11913SOL    HW246959   5.190   1.625   3.699  0.3935 -0.1478  0.0254
11914SOL     OW46960   5.460   0.399   4.994 -0.1975  0.0458 -0.0161
11914SOL    HW146961   5.517   0.326   5.031 -0.2292 -0.7411 -1.4955
11914SOL    HW246962   5.504   0.487   5.009 -0.3352 -0.2282  2.1103
11915SOL     OW46963   4.761   0.034   4.177  0.0215 -0.1227 -0.4718
11915SOL    HW146964   4.684   0.079   4.132  0.3522  0.1700 -0.7519
11915SOL    HW246965   4.822  -0.004   4.107  0.7287  0.6523 -0.2829
11916SOL     OW46966   5.492   1.045   2.549 -0.0126 -0.5804  0.4514
11916SOL    HW146967   5.466   0.968   2.607  0.5338  0.0838  1.5727
11916SOL    HW246968   5.523   1.121   2.605  0.1533  0.2082 -0.6892
11917SOL     OW46969   1.274   8.785   4.185  0.6736 -0.3670 -0.0609
11917SOL    HW146970   1.254   8.739   4.271 -2.8249  0.5603 -0.2893
11917SOL    HW246971   1.271   8.718   4.110  2.5432 -0.9600  0.3758
11918SOL     OW46972   2.153   8.925   3.366 -0.0881  0.4860 -0.5373
11918SOL    HW146973   2.116   8.994   3.428  0.8407  0.9657 -0.5112
11918SOL    HW246974   2.224   8.966   3.309 -0.2633 -0.1926 -1.2502
11919SOL     OW46975   3.026   6.571   3.933  0.1455 -0.4996 -0.0224
11919SOL    HW146976   2.987   6.507   3.867 -0.8241 -0.5601  0.5992
11919SOL    HW246977   2.956   6.638   3.960 -0.6487 -2.7083  3.7710
11920SOL     OW46978   1.146   3.872   4.166  0.8716 -0.8864  0.1426
11920SOL    HW146979   1.061   3.887   4.115  0.3926  1.1191  1.4918
11920SOL    HW246980   1.167   3.774   4.168 -1.4371 -1.4013 -0.1676
11921SOL     OW46981   0.886   4.954   2.105  0.6894  0.1868  0.1048
11921SOL    HW146982   0.794   4.960   2.066  1.8854 -0.6320 -2.9918
11921SOL    HW246983   0.928   5.044   2.106  1.1508  0.0226 -1.8957
11922SOL     OW46984   8.492   0.974   6.133  0.5317  0.0486  0.0288
11922SOL    HW146985   8.419   1.043   6.126  1.2925  0.7187 -1.6214
11922SOL    HW246986   8.538   0.984   6.221 -0.8281  0.1619  0.7448
11923SOL     OW46987   2.603   4.223   3.683  0.1290  0.7708 -0.3280
11923SOL    HW146988   2.510   4.238   3.651 -0.8983 -1.3491  1.5350
11923SOL    HW246989   2.602   4.204   3.781  2.1569 -2.1486 -0.7923
11924SOL     OW46990   5.692   9.695   3.039  0.4041 -0.0973 -0.1957
11924SOL    HW146991   5.762   9.625   3.026  0.3628  0.2424 -2.3024
11924SOL    HW246992   5.735   9.785   3.043 -0.0757  0.3733 -4.0857
11925SOL     OW46993   9.833   2.549   5.627  0.4467  0.2459 -0.0581
11925SOL    HW146994   9.771   2.532   5.549  0.5000  0.9365 -0.2481
11925SOL    HW246995   9.913   2.599   5.595  1.3439 -1.0761  0.0976
11926SOL     OW46996   6.914   2.459   4.564  0.3050 -0.3249  0.1575
11926SOL    HW146997   6.900   2.412   4.651  1.0348 -1.6792 -0.4367
11926SOL    HW246998   6.842   2.527   4.551 -0.6088 -1.0804  1.1693
11927SOL     OW46999   5.982   0.197   4.277  0.3170  0.2147  0.1356
11927SOL    HW147000   5.891   0.206   4.318  0.5164 -0.9493  0.8622
11927SOL    HW247001   6.030   0.119   4.318  1.4315  0.4710 -0.6403
11928SOL     OW47002   4.909   3.545   1.037 -0.7527 -0.2309 -0.1753
11928SOL    HW147003   4.892   3.461   0.986 -0.5556 -0.2762 -0.1639
11928SOL    HW247004   4.854   3.544   1.121  0.2894 -0.9667  0.5016
11929SOL     OW47005   2.129   7.714   2.928 -0.3347 -0.3602 -0.3742
11929SOL    HW147006   2.079   7.734   2.844 -2.8033  1.1899  1.4004
11929SOL    HW247007   2.159   7.800   2.970  1.0015 -1.1256  0.3012
11930SOL     OW47008   6.145   1.603   3.142  0.4496  0.1492  0.0074
11930SOL    HW147009   6.199   1.541   3.198  0.3124  0.0431  0.0238
11930SOL    HW247010   6.146   1.695   3.183  1.1986  0.3130 -0.3775
11931SOL     OW47011   7.390   1.962   1.405 -0.5180 -0.2973  0.1180
11931SOL    HW147012   7.471   1.915   1.369 -1.5129 -1.6064 -0.4608
11931SOL    HW247013   7.414   2.009   1.490  0.9985 -0.1316 -0.3852
11932SOL     OW47014   7.596   4.958   0.726  0.4073 -0.3915  0.3025
11932SOL    HW147015   7.518   4.961   0.788 -0.0489  0.7842 -0.3291
11932SOL    HW247016   7.663   4.892   0.761 -0.3418 -0.5667  1.4454
11933SOL     OW47017   5.439   1.231   4.593  0.8695  0.1248  0.7181
11933SOL    HW147018   5.458   1.236   4.495 -1.1602  2.2444  0.3829
11933SOL    HW247019   5.426   1.136   4.620 -0.7320 -0.3378 -1.5212
11934SOL     OW47020   3.634   4.270   0.984  0.3528 -0.3738 -0.3476
11934SOL    HW147021   3.546   4.262   1.032  0.0750 -0.6822 -0.9161
11934SOL    HW247022   3.704   4.219   1.034 -0.1131 -1.3708 -0.7111
11935SOL     OW47023   8.868   6.361   1.645  0.0972  0.2568 -0.3099
11935SOL    HW147024   8.936   6.326   1.710  0.5451 -0.9005 -1.3660
11935SOL    HW247025   8.914   6.386   1.560 -1.1370 -3.4424 -2.1526
11936SOL     OW47026   4.735   4.000   0.521 -0.4606  0.3194 -0.1602
11936SOL    HW147027   4.718   4.097   0.540 -0.6267  0.4652 -1.0086
11936SOL    HW247028   4.814   3.992   0.460  0.0262 -0.1273  0.5162
11937SOL     OW47029   1.833   3.076   3.413 -0.2781  0.0256 -0.2590
11937SOL    HW147030   1.906   3.026   3.458 -1.0766  0.0428  1.0943
11937SOL    HW247031   1.867   3.165   3.383 -0.0272  0.5037  1.3877
11938SOL     OW47032   0.540   4.055   3.471  0.0448  0.3276 -0.2880
11938SOL    HW147033   0.625   4.004   3.480 -0.3360 -0.3524 -0.4564
11938SOL    HW247034   0.551   4.129   3.405  0.9893  1.3067  0.9348
11939SOL     OW47035   7.504   2.594   0.246 -0.6485  1.0084  0.6186
11939SOL    HW147036   7.457   2.662   0.191 -0.3955  0.1282 -0.7187
11939SOL    HW247037   7.601   2.593   0.223 -0.6434  0.2249  0.6402
11940SOL     OW47038   4.822   3.539   3.095 -0.2805  0.1190 -0.2561
11940SOL    HW147039   4.874   3.623   3.112  1.0624 -0.8091  0.2779
11940SOL    HW247040   4.785   3.505   3.181  0.3050 -0.5517 -0.2615
11941SOL     OW47041   6.080   8.739   4.566 -0.0255  0.3106 -0.4196
11941SOL    HW147042   6.039   8.671   4.626  0.2742  0.5934  0.1053
11941SOL    HW247043   6.117   8.693   4.484 -0.3422 -0.0832 -0.3438
11942SOL     OW47044   1.464   3.127   3.339  0.4438  0.5810 -0.2618
11942SOL    HW147045   1.486   3.094   3.247  1.0634 -1.3916  0.5754
11942SOL    HW247046   1.463   3.050   3.403  0.0881  1.9445  1.4111
11943SOL     OW47047   9.517   1.192   6.080 -0.1198 -0.5631 -0.2602
11943SOL    HW147048   9.444   1.171   6.146  0.2792 -2.0447 -0.2705
11943SOL    HW247049   9.588   1.122   6.087 -0.6462 -1.4495 -3.1155
11944SOL     OW47050   9.773   8.274   0.545  1.0950 -0.1817 -0.3581
11944SOL    HW147051   9.864   8.289   0.507  1.2187 -0.4094 -0.1518
11944SOL    HW247052   9.752   8.176   0.544  1.3782 -0.2607  0.7972
11945SOL     OW47053   5.930   1.818   1.723 -0.5261  0.4179 -0.0554
11945SOL    HW147054   5.949   1.832   1.820  0.1506  0.1113 -0.1396
11945SOL    HW247055   6.014   1.830   1.671 -0.3566 -1.8497 -0.3468
11946SOL     OW47056   6.749   0.079   5.477  0.2935 -0.4920 -0.1401
11946SOL    HW147057   6.669   0.071   5.418 -0.0112  0.5156  0.1243
11946SOL    HW247058   6.749   0.169   5.521  2.3416  0.1046 -1.2849
11947SOL     OW47059   2.515   7.397   5.367 -0.0107  0.0544  0.3711
11947SOL    HW147060   2.422   7.430   5.381  0.0249 -0.5646  2.1319
11947SOL    HW247061   2.576   7.436   5.436  1.3234  1.4932 -1.5516
11948SOL     OW47062   6.881   2.630   2.894 -0.4712  0.3288  0.0435
11948SOL    HW147063   6.909   2.662   2.984 -1.1713  0.7854  0.1044
11948SOL    HW247064   6.788   2.594   2.899 -0.0031 -0.9096 -0.2120
11949SOL     OW47065   2.258   4.142   0.092  0.0488 -0.3819  0.2777
11949SOL    HW147066   2.166   4.163   0.122  0.3144  1.8009 -0.3799
11949SOL    HW247067   2.310   4.104   0.168 -2.0859 -4.0348  0.0173
11950SOL     OW47068   0.487   1.969   3.708 -0.7520  0.2882  0.6465
11950SOL    HW147069   0.443   1.883   3.682 -1.8682  0.3720  2.1787
11950SOL    HW247070   0.417   2.034   3.739  0.3296  0.7415  2.2231
11951SOL     OW47071   0.547   9.041   2.801 -0.4474 -0.3730 -0.2310
11951SOL    HW147072   0.588   8.973   2.862  1.0588  1.3446  0.7118
11951SOL    HW247073   0.594   9.040   2.713  1.4488  1.3719  0.7396
11952SOL     OW47074   7.701   2.622   0.653 -0.4915  0.6214 -0.2855
11952SOL    HW147075   7.704   2.575   0.565 -0.4271  0.5545 -0.2477
11952SOL    HW247076   7.650   2.707   0.644 -4.4705 -1.5153  0.6187
11953SOL     OW47077   8.015   5.424   5.091  0.1130 -0.1119  0.1978
11953SOL    HW147078   8.064   5.442   5.177  0.3483  0.7996 -0.1165
11953SOL    HW247079   7.983   5.511   5.053 -0.4617 -0.5674 -0.3634
11954SOL     OW47080   4.007   2.967   4.351  0.0800 -0.0569  0.0327
11954SOL    HW147081   4.038   2.896   4.414  1.3943  0.8695  0.4577
11954SOL    HW247082   3.908   2.970   4.350 -0.0182 -2.8069 -1.0159
11955SOL     OW47083   9.907   5.285   2.070 -0.0662 -0.0107  0.0895
11955SOL    HW147084   9.812   5.257   2.059 -0.1385  0.0651  0.5254
11955SOL    HW247085   9.940   5.325   1.984 -0.6979  0.7622  0.1932
11956SOL     OW47086   4.568   2.630   0.120  0.1320 -1.0904  0.1487
11956SOL    HW147087   4.654   2.613   0.072 -0.4229  1.6116 -1.8943
11956SOL    HW247088   4.587   2.682   0.204  0.6323 -1.8656  0.5242
11957SOL     OW47089   1.386   3.228   5.712  0.5466 -0.1500  0.1896
11957SOL    HW147090   1.350   3.265   5.626 -0.8439  1.2069  1.3263
11957SOL    HW247091   1.427   3.302   5.766  0.4031 -0.7916  1.1876
11958SOL     OW47092   8.705   9.715   5.223  0.4410  0.3398 -0.2267
11958SOL    HW147093   8.649   9.635   5.198 -0.6176  0.7441  0.7770
11958SOL    HW247094   8.653   9.773   5.285  1.7679  1.0537  0.2301
11959SOL     OW47095   0.408   9.582   4.341  0.2089  0.3257 -0.2580
11959SOL    HW147096   0.333   9.545   4.397 -0.5953  1.3953 -0.6063
11959SOL    HW247097   0.382   9.578   4.244  0.9515 -0.0561 -0.4456
11960SOL     OW47098   7.901   3.172   1.676  0.5143  0.4747  0.3809
11960SOL    HW147099   7.871   3.217   1.760  0.2058 -0.0595  0.5519
11960SOL    HW247100   7.841   3.197   1.600  1.3458  1.7200  0.1061
11961SOL     OW47101   7.947   9.994   4.608 -0.4217  0.9129 -0.4140
11961SOL    HW147102   7.903  10.001   4.519 -1.8618  0.2652  0.2301
11961SOL    HW247103   7.887   9.945   4.671  1.2235  0.0474  0.5003
11962SOL     OW47104   3.788   4.955   0.819 -0.2547  0.5886 -0.4310
11962SOL    HW147105   3.790   5.024   0.891 -3.2784  1.1209 -0.7739
11962SOL    HW247106   3.876   4.952   0.772  0.1715  3.6395  0.1047
11963SOL     OW47107   1.290   7.753   0.462 -0.2419  0.1627  0.2030
11963SOL    HW147108   1.298   7.679   0.528  0.3672  0.0466 -0.0013
11963SOL    HW247109   1.229   7.725   0.388 -0.3506  0.0276  0.3431
11964SOL     OW47110   4.831   9.874   5.315  0.6205 -0.7162 -0.4016
11964SOL    HW147111   4.758   9.816   5.279  1.0283 -1.6706  0.2818
11964SOL    HW247112   4.869   9.833   5.398  0.0152  1.2121  0.8636
11965SOL     OW47113   4.050   2.889   4.818 -0.6890 -0.3737 -0.2442
11965SOL    HW147114   4.088   2.919   4.730 -0.6391  2.0570  0.5450
11965SOL    HW247115   4.081   2.796   4.838  0.0109 -0.6332 -2.3827
11966SOL     OW47116   2.921   6.697   6.273  0.7790 -0.2371 -0.1688
11966SOL    HW147117   2.829   6.673   6.242  0.2240  0.3458  0.9904
11966SOL    HW247118   2.935   6.796   6.260  1.0876 -0.2534  0.0470
11967SOL     OW47119   7.832   6.894   0.566  0.0731  0.8944  0.2750
11967SOL    HW147120   7.821   6.802   0.604  1.1485  1.2108  1.3771
11967SOL    HW247121   7.824   6.890   0.466 -1.7070 -0.1090  0.4422
11968SOL     OW47122   6.970   2.923   3.289  0.3418  0.1743  0.1538
11968SOL    HW147123   6.957   2.928   3.388  1.0148 -0.0330  0.2555
11968SOL    HW247124   7.067   2.932   3.268 -0.0434  3.0422 -0.6789
11969SOL     OW47125   5.086   0.403   2.084  0.3064 -0.8192  0.1734
11969SOL    HW147126   5.030   0.483   2.102  1.3660 -0.1182  0.4262
11969SOL    HW247127   5.047   0.351   2.008 -0.7430 -0.4170  0.4345
11970SOL     OW47128   8.437   7.720   4.696  0.4580 -0.0828  0.3694
11970SOL    HW147129   8.346   7.753   4.721  0.8460  0.4673  1.0779
11970SOL    HW247130   8.433   7.677   4.606 -0.2548  1.0582 -0.1631
11971SOL     OW47131   0.948   7.335   0.941  0.0628  0.0989  0.3989
11971SOL    HW147132   0.988   7.329   1.032 -0.9340  0.9453  0.9197
11971SOL    HW247133   0.863   7.281   0.938 -0.4946  0.9617  0.3223
11972SOL     OW47134   0.165   8.225   4.432 -0.4296  0.0869  0.0676
11972SOL    HW147135   0.168   8.134   4.473  1.9220  0.4666  0.8030
11972SOL    HW247136   0.228   8.230   4.355  0.9433  1.6353  1.2435
11973SOL     OW47137   3.002   5.577   2.971 -0.0876  0.1441 -0.1679
11973SOL    HW147138   3.078   5.546   2.915 -0.7391  1.9309 -2.1243
11973SOL    HW247139   2.920   5.525   2.948 -0.2590  0.5977 -0.5979
11974SOL     OW47140   8.855   7.736   0.325  0.2647 -0.2096  0.3091
11974SOL    HW147141   8.794   7.723   0.403  1.0670  2.6716  1.5064
11974SOL    HW247142   8.803   7.765   0.245 -0.3065 -0.8878  0.4393
11975SOL     OW47143   1.875   6.200   4.384  0.4538  0.0866 -0.4932
11975SOL    HW147144   1.974   6.194   4.393  0.4491  1.2900  0.3612
11975SOL    HW247145   1.842   6.285   4.424 -0.9677 -0.4619 -0.4547
11976SOL     OW47146   8.197   2.836   3.087 -0.1312 -0.7253 -0.0928
11976SOL    HW147147   8.117   2.822   3.029  0.8235 -1.1676 -1.3110
11976SOL    HW247148   8.245   2.918   3.058 -1.1994  0.6470  1.8801
11977SOL     OW47149   7.700   2.632   4.926 -0.2850  0.3960  0.5157
11977SOL    HW147150   7.771   2.582   4.975 -0.0947  0.6746  0.5239
11977SOL    HW247151   7.679   2.585   4.840 -1.9426 -1.1441  1.7059
11978SOL     OW47152   8.474   7.604   4.458 -0.2968 -0.0843 -0.3146
11978SOL    HW147153   8.439   7.629   4.368 -0.1446 -0.4863 -0.4849
11978SOL    HW247154   8.560   7.555   4.448  0.9936  1.9959  0.1536
11979SOL     OW47155   6.920   0.574   3.538  0.3026  0.1652  0.4411
11979SOL    HW147156   7.012   0.553   3.507  0.2573  0.0695  0.3726
11979SOL    HW247157   6.872   0.489   3.561 -0.1565  0.1380 -0.6203
11980SOL     OW47158   9.643   2.031   2.196 -0.1238 -0.1844  0.5264
11980SOL    HW147159   9.621   1.992   2.285 -1.0032  0.3065  0.5269
11980SOL    HW247160   9.610   1.970   2.124  0.7014 -0.6454  0.5236
11981SOL     OW47161   6.695   0.075   2.947 -0.1789 -0.2335 -0.0813
11981SOL    HW147162   6.675   0.122   2.861  0.0546  1.7375  0.9211
11981SOL    HW247163   6.775   0.117   2.990 -0.4418 -1.0402  1.2199
11982SOL     OW47164   5.719   5.898   1.516  0.6812  0.0585  0.2842
11982SOL    HW147165   5.625   5.906   1.481  1.3096  2.1865 -0.9718
11982SOL    HW247166   5.720   5.831   1.590 -1.5235 -1.2005 -0.7646
11983SOL     OW47167   1.704   5.370   6.597 -0.3646 -0.0026 -0.4300
11983SOL    HW147168   1.608   5.348   6.613  0.1574 -1.5690  0.6486
11983SOL    HW247169   1.728   5.451   6.651 -1.0297  0.2616 -0.5262
11984SOL     OW47170   3.463   0.199   4.039 -0.1464 -0.4845  0.1897
11984SOL    HW147171   3.408   0.222   3.958  1.7994 -0.6965 -1.2421
11984SOL    HW247172   3.507   0.110   4.025 -0.7647 -1.0841  2.0205
11985SOL     OW47173   3.419   1.723   4.233 -0.1094  0.3917  0.3609
11985SOL    HW147174   3.325   1.715   4.266  0.0459  1.2974  1.0504
11985SOL    HW247175   3.427   1.802   4.172  0.4791  1.1052  1.3407
11986SOL     OW47176   7.940   4.017   1.789 -0.1363 -0.9736 -0.1361
11986SOL    HW147177   7.880   3.942   1.760 -0.9404 -0.1638 -0.5738
11986SOL    HW247178   7.921   4.098   1.734 -0.1482 -0.0696  1.1803
11987SOL     OW47179   1.757   1.531   6.114  0.0842  0.7378 -0.2130
11987SOL    HW147180   1.853   1.549   6.138  0.0427 -0.3250  0.7753
11987SOL    HW247181   1.748   1.531   6.015  1.6653 -1.7985 -0.4224
11988SOL     OW47182   2.465   7.582   5.722  0.6425  0.4813  0.0220
11988SOL    HW147183   2.384   7.544   5.679  0.0838  3.5142 -1.7557
11988SOL    HW247184   2.545   7.564   5.664  0.8906 -0.5057  0.6489
11989SOL     OW47185   0.361   9.473   4.854 -0.6808  0.2267  0.0139
11989SOL    HW147186   0.322   9.543   4.794  0.7910  0.5443 -0.5925
11989SOL    HW247187   0.387   9.515   4.941 -0.2594  0.3509 -0.1666
11990SOL     OW47188   1.147   7.443   3.502  0.0054  0.2467  0.1191
11990SOL    HW147189   1.196   7.416   3.419  1.4606 -0.6966  1.2474
11990SOL    HW247190   1.059   7.395   3.506 -0.3419  0.7604 -1.1642
11991SOL     OW47191   6.605   9.112   4.493  0.3296 -0.1297 -0.6723
11991SOL    HW147192   6.542   9.080   4.422  2.0558 -0.0883 -2.2642
11991SOL    HW247193   6.592   9.210   4.508 -0.4089 -0.2450 -0.5468
11992SOL     OW47194   8.265   1.729   5.712 -0.4364  0.4511  0.1536
11992SOL    HW147195   8.226   1.651   5.662 -1.1189  1.8508 -1.5193
11992SOL    HW247196   8.203   1.755   5.786 -0.0865 -0.7252  0.8879
11993SOL     OW47197   1.683   7.772   5.506  0.0424  0.4667 -0.0727
11993SOL    HW147198   1.608   7.838   5.501  0.7578  1.2221 -1.0468
11993SOL    HW247199   1.663   7.695   5.445  0.5417  1.1881 -1.1731
11994SOL     OW47200   9.536   4.733   0.290 -0.0016  0.4203  0.2026
11994SOL    HW147201   9.592   4.809   0.257  0.5174 -0.0186  0.0611
11994SOL    HW247202   9.562   4.709   0.383 -0.5587  0.7901  0.4546
11995SOL     OW47203   9.790   0.137   0.133  0.3118 -0.3161  0.1838
11995SOL    HW147204   9.790   0.092   0.222  2.1778  0.0197  0.3718
11995SOL    HW247205   9.785   0.236   0.146 -1.7030 -0.3533 -0.1682
11996SOL     OW47206   6.827   4.838   0.722 -0.9428 -0.3481  0.0220
11996SOL    HW147207   6.771   4.915   0.691  0.5366  1.2997  1.3042
11996SOL    HW247208   6.775   4.782   0.786 -1.4606  0.6553  0.4985
11997SOL     OW47209   9.107   6.155   1.586  0.2785 -0.2375 -0.4511
11997SOL    HW147210   9.107   6.084   1.657  1.8442  0.5112  0.3246
11997SOL    HW247211   9.196   6.201   1.585 -0.5056  1.2960 -1.3644
11998SOL     OW47212   9.248   5.673   4.536  0.4607 -0.0327  0.6269
11998SOL    HW147213   9.225   5.679   4.439 -1.5022 -0.4711  1.0467
11998SOL    HW247214   9.243   5.578   4.566 -0.1196  0.2501  1.4334
11999SOL     OW47215   9.404   5.226   3.411 -0.1115  0.0851 -0.3329
11999SOL    HW147216   9.352   5.262   3.334 -1.1128  0.5140  0.5237
11999SOL    HW247217   9.476   5.291   3.435 -0.4630  0.4467 -0.2454
12000SOL     OW47218   6.550   0.118   0.674 -0.2242  0.0201  0.7089
12000SOL    HW147219   6.457   0.095   0.703 -0.3811  0.2445  0.3799
12000SOL    HW247220   6.598   0.034   0.648 -0.7434  0.0304 -0.3288
12001SOL     OW47221   5.357   0.451   5.435 -0.1386 -0.3344  0.0095
12001SOL    HW147222   5.448   0.479   5.404 -0.5843 -0.2058 -1.2289
12001SOL    HW247223   5.335   0.498   5.521  1.3110 -1.0453  0.7860
12002SOL     OW47224   1.379   1.317   3.315  0.0093 -0.1540  0.6606
12002SOL    HW147225   1.439   1.255   3.264 -2.2256 -2.6739  1.0031
12002SOL    HW247226   1.428   1.354   3.393  1.8861 -0.2169 -0.4507
12003SOL     OW47227   9.326   5.511   2.383  0.1333  0.0985 -0.4201
12003SOL    HW147228   9.316   5.493   2.285 -1.0572  0.8536 -0.4484
12003SOL    HW247229   9.336   5.609   2.398  0.5079 -0.0340  0.2020
12004SOL     OW47230   5.232   0.815   2.363  0.3386 -0.1397  0.1663
12004SOL    HW147231   5.187   0.904   2.366  0.2157 -0.2357  1.5970
12004SOL    HW247232   5.186   0.753   2.427  1.1638 -0.8804  0.0442
12005SOL     OW47233   1.592   4.575   5.452 -0.5479 -0.0210 -0.0531
12005SOL    HW147234   1.549   4.617   5.532 -0.1578  2.1381 -0.9348
12005SOL    HW247235   1.689   4.558   5.470 -1.0893 -2.1587  0.9056
12006SOL     OW47236   8.035   7.557   1.974  0.1745  0.0136 -0.1745
12006SOL    HW147237   8.030   7.554   2.073 -0.5210  0.5082 -0.1941
12006SOL    HW247238   7.947   7.529   1.935  0.4253 -0.1182 -0.6469
12007SOL     OW47239   8.948   3.695   4.370 -0.3486 -0.1591  0.0561
12007SOL    HW147240   8.861   3.646   4.366 -0.6353  0.3022  0.5023
12007SOL    HW247241   8.931   3.793   4.363 -0.0942  0.1063  2.5168
12008SOL     OW47242   7.865   5.759   6.299  0.3540  0.7027  0.3886
12008SOL    HW147243   7.816   5.812   6.229 -1.0670 -1.2557 -0.1290
12008SOL    HW247244   7.908   5.822   6.364 -0.1224  2.5134 -1.0049
12009SOL     OW47245   0.133   4.400   0.117 -0.1905  0.5802 -0.2222
12009SOL    HW147246   0.142   4.430   0.022  1.3595 -0.0659 -0.2986
12009SOL    HW247247   0.104   4.305   0.119  0.4686  0.3758 -0.0754
12010SOL     OW47248   2.099   2.698   1.054  0.0157 -0.3523 -0.4060
12010SOL    HW147249   2.020   2.637   1.053 -0.4246  0.1663  1.3898
12010SOL    HW247250   2.091   2.762   1.131  2.2320 -0.3656 -0.1415
12011SOL     OW47251   9.776   9.156   0.895 -0.5759 -0.2620  0.2191
12011SOL    HW147252   9.738   9.209   0.819  0.2735 -0.4001 -0.3006
12011SOL    HW247253   9.720   9.074   0.909  1.3613 -2.1707 -2.6750
12012SOL     OW47254   8.764   7.221   2.829 -0.2933 -0.5345 -0.1653
12012SOL    HW147255   8.792   7.310   2.864  0.1765 -1.2679  1.4018
12012SOL    HW247256   8.695   7.233   2.758  0.1247  1.0881 -0.3117
12013SOL     OW47257   4.847   6.258   1.994 -0.2726 -0.1922 -0.0665
12013SOL    HW147258   4.905   6.252   2.075  0.5906  0.7173 -0.5941
12013SOL    HW247259   4.894   6.215   1.916 -0.4729  0.1952 -0.4033
12014SOL     OW47260   8.352   6.322   4.865  0.3040  0.1874  0.0180
12014SOL    HW147261   8.330   6.420   4.861  1.1144  0.3349 -1.0020
12014SOL    HW247262   8.452   6.311   4.866  0.2056 -0.5907  1.2169
12015SOL     OW47263   0.020   5.708   4.063 -0.1364 -0.3275 -0.3271
12015SOL    HW147264  -0.022   5.781   4.116  0.5947 -0.3421  0.2865
12015SOL    HW247265   0.117   5.729   4.048  0.1047 -1.2224 -0.0481
12016SOL     OW47266   1.876   2.651   1.511 -0.2663 -0.0743 -0.3134
12016SOL    HW147267   1.851   2.664   1.415  0.5734 -0.0251 -0.5236
12016SOL    HW247268   1.962   2.698   1.530 -0.7388  0.4282  0.6163
12017SOL     OW47269   1.342   5.521   6.348 -0.9336  0.2982  0.0306
12017SOL    HW147270   1.398   5.453   6.301  0.1033  0.2071  1.3456
12017SOL    HW247271   1.295   5.478   6.425  1.1300  1.3926  1.9697
12018SOL     OW47272   0.528   7.441   2.855  0.1865 -0.2121  0.0552
12018SOL    HW147273   0.567   7.360   2.899  0.2157 -0.4203 -0.3507
12018SOL    HW247274   0.502   7.508   2.924 -1.3461 -1.2352  0.5017
12019SOL     OW47275   1.899   9.090   1.056  0.5470  0.2505 -0.0322
12019SOL    HW147276   1.816   9.046   1.022  0.8374 -0.1821 -0.1823
12019SOL    HW247277   1.889   9.190   1.051 -0.7626  0.2486  1.8554
12020SOL     OW47278   8.570   5.147   4.091 -0.2133  0.4108  0.2408
12020SOL    HW147279   8.477   5.118   4.068  0.5674 -1.4235 -0.7331
12020SOL    HW247280   8.602   5.211   4.021 -0.3047  0.0805 -0.1106
12021SOL     OW47281   9.908   8.063   1.827 -0.4164  0.3425 -0.3721
12021SOL    HW147282   9.856   8.118   1.762  0.6880  0.5806 -1.0669
12021SOL    HW247283   9.967   7.999   1.777 -1.0009 -0.8433  0.4164
12022SOL     OW47284   4.515   1.364   3.469  0.3390  0.1430  0.5397
12022SOL    HW147285   4.494   1.276   3.425 -0.5317  0.7878 -0.3388
12022SOL    HW247286   4.614   1.370   3.484  0.5828 -0.3646 -0.7566
12023SOL     OW47287   6.126   9.245   5.143  0.3284  0.1872 -0.6012
12023SOL    HW147288   6.085   9.155   5.132 -0.9736  0.5499  1.0581
12023SOL    HW247289   6.226   9.237   5.145  0.2650 -1.0323 -1.8691
12024SOL     OW47290   1.193   6.341   4.281  0.5006  0.1569 -0.1239
12024SOL    HW147291   1.287   6.365   4.258  0.3588 -0.6384 -1.6720
12024SOL    HW247292   1.192   6.276   4.357  1.2016  0.1460 -0.1254
12025SOL     OW47293   4.873   5.304   0.665  0.5590 -0.2415 -0.4446
12025SOL    HW147294   4.911   5.331   0.576 -1.1004  1.0036 -0.7842
12025SOL    HW247295   4.888   5.206   0.678  0.9047 -0.4253 -2.0616
12026SOL     OW47296   6.005   2.520   4.698 -0.0688 -0.1736  0.0442
12026SOL    HW147297   6.013   2.526   4.598  0.5645 -0.9108  0.0471
12026SOL    HW247298   6.076   2.458   4.733  0.5568  1.1086  1.0768
12027SOL     OW47299   0.887   8.699   0.783  0.2143 -0.7315 -0.2488
12027SOL    HW147300   0.838   8.735   0.861  1.3454  2.1246 -0.8192
12027SOL    HW247301   0.946   8.624   0.812 -0.0653 -0.3050  1.4446
12028SOL     OW47302   0.663   0.329   1.404 -0.0033 -0.0927  0.4737
12028SOL    HW147303   0.658   0.345   1.305 -1.4853  1.4356  0.7718
12028SOL    HW247304   0.614   0.245   1.427 -1.6119  0.7386  0.1597
12029SOL     OW47305   2.486   1.652   4.947 -0.2154  0.1808  1.2493
12029SOL    HW147306   2.431   1.622   5.025  0.2106  0.9028  1.8410
12029SOL    HW247307   2.428   1.699   4.881 -0.3376  0.8732  1.8360
12030SOL     OW47308   9.977   1.338   6.120 -0.2795 -0.2293 -0.3626
12030SOL    HW147309   9.953   1.425   6.162  3.7400  0.7111  0.1339
12030SOL    HW247310   9.943   1.335   6.026 -1.1917  1.4988 -0.0988
12031SOL     OW47311   1.903   6.415   6.026  0.2180 -0.1489 -0.3419
12031SOL    HW147312   1.822   6.444   6.077 -0.0306 -1.5457  0.0713
12031SOL    HW247313   1.973   6.381   6.090  0.2759 -0.9975 -0.8449
12032SOL     OW47314   1.321   3.648   5.180  0.8031 -0.3135  0.4123
12032SOL    HW147315   1.342   3.568   5.236  0.7210 -0.6377 -0.0124
12032SOL    HW247316   1.387   3.654   5.105  1.5427  0.7148  1.1526
12033SOL     OW47317   6.857   8.042   2.687 -0.0308  0.0974 -0.5194
12033SOL    HW147318   6.848   8.041   2.786 -0.5625  1.0868 -0.5526
12033SOL    HW247319   6.790   8.105   2.648  1.7844  1.5721 -1.3460
12034SOL     OW47320   8.824   4.888   2.446 -0.0778 -0.2730 -0.6206
12034SOL    HW147321   8.725   4.896   2.460 -0.0881 -0.5076 -0.5619
12034SOL    HW247322   8.850   4.941   2.365 -0.4869 -1.5569 -1.6017
12035SOL     OW47323   8.949   9.241   2.725 -0.6373 -0.0860  0.6127
12035SOL    HW147324   8.945   9.335   2.761  1.6640 -0.0262  0.8195
12035SOL    HW247325   8.992   9.182   2.793  0.5835 -0.6856 -0.6549
12036SOL     OW47326   8.552   2.999   3.164 -0.6705  0.0763  0.3084
12036SOL    HW147327   8.623   2.935   3.138 -0.6002  0.8191 -1.3602
12036SOL    HW247328   8.493   2.958   3.234  0.3969 -1.1408  0.4914
12037SOL     OW47329   1.923   9.562   6.502 -0.0234  0.1854 -0.0489
12037SOL    HW147330   1.985   9.535   6.576  1.0544  0.7219 -0.7455
12037SOL    HW247331   1.844   9.500   6.500  0.2932 -0.2651  1.0932
12038SOL     OW47332   9.416   8.491   4.049 -0.1603 -0.5695  0.4435
12038SOL    HW147333   9.501   8.542   4.063  0.3613 -1.2276 -0.2841
12038SOL    HW247334   9.429   8.396   4.079  0.2742 -1.4263 -2.3189
12039SOL     OW47335   0.875   3.651   5.882 -0.4830 -0.1818  0.6722
12039SOL    HW147336   0.799   3.632   5.820  0.8246 -0.8856 -0.7324
12039SOL    HW247337   0.906   3.745   5.869  1.1468 -0.9597 -1.2623
12040SOL     OW47338   1.830   3.593   0.721 -0.2430  0.2485  0.3931
12040SOL    HW147339   1.918   3.550   0.742 -0.2415 -0.0853 -0.2543
12040SOL    HW247340   1.830   3.624   0.626 -1.0854 -0.4373  0.1542
12041SOL     OW47341   4.498   4.262   3.649  0.2818  0.7901 -0.2163
12041SOL    HW147342   4.586   4.269   3.602  0.1415 -1.0902 -0.8304
12041SOL    HW247343   4.483   4.167   3.675 -2.5961  0.6699 -2.1490
12042SOL     OW47344   3.144   2.261   4.702 -0.1619  0.0943  0.2590
12042SOL    HW147345   3.162   2.347   4.748  0.8600  0.4228 -0.7233
12042SOL    HW247346   3.230   2.213   4.686 -0.7139 -1.0770  0.7313
12043SOL     OW47347   3.453   0.371   6.641 -0.0568 -0.1251  0.2182
12043SOL    HW147348   3.443   0.413   6.731 -1.4217 -2.2696  1.0964
12043SOL    HW247349   3.539   0.401   6.599 -0.3308  2.4024  1.3936
12044SOL     OW47350   0.194   3.671   2.373 -0.1170  0.5346 -0.1360
12044SOL    HW147351   0.219   3.733   2.448 -1.3610  0.3173  0.4804
12044SOL    HW247352   0.273   3.615   2.348  0.4116  0.8561  0.7820
12045SOL     OW47353   1.244   4.040   4.968 -0.0006 -0.4627 -0.3952
12045SOL    HW147354   1.254   4.122   5.024 -1.6423 -1.1290  0.8969
12045SOL    HW247355   1.191   4.062   4.886  0.8044  0.0800 -0.7801
12046SOL     OW47356   4.856   9.198   4.094 -0.3194 -0.1939  0.3210
12046SOL    HW147357   4.786   9.154   4.038  0.5844 -0.9970 -0.1873
12046SOL    HW247358   4.917   9.252   4.036  0.6229 -1.0263  0.5176
12047SOL     OW47359   5.079   1.422   2.254  0.5040 -1.0301  0.6756
12047SOL    HW147360   5.043   1.494   2.195 -0.2397 -1.9474 -0.0029
12047SOL    HW247361   5.178   1.431   2.262  0.5072 -0.4147 -0.0547
12048SOL     OW47362   1.901   4.583   3.248 -0.3930 -0.0351  0.7200
12048SOL    HW147363   1.870   4.678   3.254 -1.3998 -0.3103  0.0958
12048SOL    HW247364   1.855   4.528   3.317 -0.6968 -0.2854  0.3259
12049SOL     OW47365   1.472   7.111   6.465 -0.1740  0.5167  0.4393
12049SOL    HW147366   1.551   7.052   6.454  0.0287  0.1045  3.4774
12049SOL    HW247367   1.431   7.131   6.376  2.5397 -0.3394 -1.0331
12050SOL     OW47368   9.822   3.152   0.822 -0.4182  0.0179  0.8033
12050SOL    HW147369   9.814   3.230   0.759 -0.8154 -0.2065  0.5782
12050SOL    HW247370   9.852   3.071   0.772 -1.2124 -0.2837  0.8165
12051SOL     OW47371   3.749   7.552   2.028  0.5356 -0.2027  0.3047
12051SOL    HW147372   3.725   7.458   2.054 -0.6872 -0.9108 -3.1244
12051SOL    HW247373   3.747   7.561   1.928  0.5305  3.5120  0.5634
12052SOL     OW47374   0.700   3.027   6.364  0.3951 -0.4320 -0.1363
12052SOL    HW147375   0.662   2.961   6.430 -0.3717 -0.4016 -0.5488
12052SOL    HW247376   0.706   2.984   6.274 -2.4324  0.8128 -0.9820
12053SOL     OW47377   1.260   0.171   5.564  0.0332 -0.4325 -0.5365
12053SOL    HW147378   1.185   0.146   5.502  0.6044  0.0310 -1.4132
12053SOL    HW247379   1.252   0.118   5.648 -1.9221  0.3830 -0.1756
12054SOL     OW47380   5.608   8.254   3.987  0.5081 -0.2563  0.0553
12054SOL    HW147381   5.675   8.322   3.957 -2.9728  2.7080 -1.3261
12054SOL    HW247382   5.558   8.288   4.066 -1.4918 -1.0727 -0.8315
12055SOL     OW47383   2.063   5.271   0.298  0.3888 -0.2882  0.5748
12055SOL    HW147384   2.121   5.264   0.217 -0.8553 -0.0056 -0.3628
12055SOL    HW247385   2.094   5.207   0.367  2.6773  0.8403  0.6416
12056SOL     OW47386   9.445   1.510   3.106 -0.2734 -0.3778  0.2276
12056SOL    HW147387   9.408   1.473   3.020 -2.5951  0.6991  0.7304
12056SOL    HW247388   9.369   1.532   3.168  1.1043  3.3684  0.7127
12057SOL     OW47389   9.376   5.100   5.446 -0.6408  0.1536 -0.3246
12057SOL    HW147390   9.308   5.151   5.394 -0.4472  2.1642  1.3177
12057SOL    HW247391   9.378   5.134   5.541  0.9467 -1.5113  0.2722
12058SOL     OW47392   7.895   6.584   0.573  0.4338 -0.6286 -0.2311
12058SOL    HW147393   7.981   6.566   0.525  1.0484 -1.4107  1.1502
12058SOL    HW247394   7.914   6.619   0.664 -0.7314  0.3980 -0.3699
12059SOL     OW47395   7.520   2.637   5.395 -0.1339 -0.3922 -0.1991
12059SOL    HW147396   7.532   2.704   5.322 -1.0660  0.0851  0.0721
12059SOL    HW247397   7.504   2.685   5.481 -0.4886 -0.9570  0.0509
12060SOL     OW47398   7.593   5.565   5.250 -0.3748  0.2278  0.1658
12060SOL    HW147399   7.629   5.601   5.164 -0.1745 -0.7389 -0.1599
12060SOL    HW247400   7.522   5.627   5.284 -0.3194  0.7236 -0.5951
12061SOL     OW47401   0.856   8.078   5.533 -0.1221  0.0887 -0.4998
12061SOL    HW147402   0.890   8.163   5.573  0.2650 -0.0057 -0.6243
12061SOL    HW247403   0.782   8.098   5.469  1.1056  0.4882 -1.8136
12062SOL     OW47404   9.288   9.946   0.719  0.7645 -0.0016  0.1661
12062SOL    HW147405   9.198   9.943   0.676  0.2124  1.4093  1.1737
12062SOL    HW247406   9.355   9.900   0.661 -0.5518 -0.8261 -0.7173
12063SOL     OW47407   6.799   7.970   3.692 -0.6118  0.4091  0.1962
12063SOL    HW147408   6.858   7.889   3.689 -0.9970  0.1547 -0.7369
12063SOL    HW247409   6.714   7.951   3.643 -0.9918  1.1612  0.5481
12064SOL     OW47410   1.912   2.786   5.251 -0.3160 -0.6465 -0.0932
12064SOL    HW147411   1.950   2.755   5.164 -0.0238  0.4166 -0.3529
12064SOL    HW247412   1.823   2.743   5.266 -1.2279  0.5808 -1.8284
12065SOL     OW47413   7.608   0.138   2.294  0.1814  0.4178 -0.1004
12065SOL    HW147414   7.703   0.127   2.265  0.2776  0.0751  0.3464
12065SOL    HW247415   7.560   0.051   2.284 -0.8057  1.2613 -2.9224
12066SOL     OW47416   7.885   1.310   6.184  0.2470  0.1190  0.5028
12066SOL    HW147417   7.976   1.309   6.143  0.3362 -1.7629  0.6972
12066SOL    HW247418   7.845   1.401   6.175  1.0205  0.2545 -2.0775
12067SOL     OW47419   0.973   8.861   6.242 -0.2530 -0.1732  0.0815
12067SOL    HW147420   1.044   8.815   6.295 -1.7264 -2.2030  0.3440
12067SOL    HW247421   0.938   8.939   6.294  0.3325 -0.4104  0.8407
12068SOL     OW47422   2.564   8.683   4.846 -0.2852 -0.4765  0.4659
12068SOL    HW147423   2.518   8.624   4.778 -2.9281  2.1860 -0.1711
12068SOL    HW247424   2.497   8.744   4.887  2.6166  3.1680 -0.0010
12069SOL     OW47425   1.009   3.133   3.506  0.4137  0.0619 -0.2010
12069SOL    HW147426   0.923   3.140   3.557  0.7816  0.3499  0.3811
12069SOL    HW247427   1.068   3.065   3.550  1.2631  1.2504  0.5400
12070SOL     OW47428   8.280   5.862   4.539 -0.6410  0.2733  0.3872
12070SOL    HW147429   8.189   5.890   4.570 -0.3277 -0.1884  1.7636
12070SOL    HW247430   8.350   5.909   4.594 -0.0401  0.7757 -0.7870
12071SOL     OW47431   2.813   0.127   1.768  0.5097  0.3827  0.1356
12071SOL    HW147432   2.804   0.075   1.853 -2.9245 -0.9064 -0.9149
12071SOL    HW247433   2.817   0.225   1.789 -0.5520  0.0952  1.7958
12072SOL     OW47434   3.190   3.402   4.702  0.2943  0.0965 -0.1334
12072SOL    HW147435   3.175   3.388   4.800  0.4562  1.6689  0.1212
12072SOL    HW247436   3.122   3.465   4.667 -1.6561 -2.7510 -1.6937
12073SOL     OW47437   1.715   4.963   5.536  0.4643 -0.0619  0.2698
12073SOL    HW147438   1.683   5.053   5.565 -1.7776 -1.0987  1.2304
12073SOL    HW247439   1.679   4.942   5.445 -0.3319 -0.5955  0.6967
12074SOL     OW47440   1.597   1.296   0.078 -0.4581 -0.0743 -0.1624
12074SOL    HW147441   1.557   1.370   0.024  1.6769  0.7010 -0.7236
12074SOL    HW247442   1.631   1.332   0.164 -0.7517 -0.6911  0.2153
12075SOL     OW47443   2.811   9.112   2.480 -0.4537  0.2718 -0.2817
12075SOL    HW147444   2.722   9.068   2.479  0.0410 -0.8152  1.4405
12075SOL    HW247445   2.844   9.118   2.574  1.5815  0.0583 -0.9623
12076SOL     OW47446   7.107   2.316   6.182 -0.2316 -0.4102 -0.0806
12076SOL    HW147447   7.113   2.222   6.217 -1.0500 -0.8282 -1.0199
12076SOL    HW247448   7.041   2.368   6.237  0.4596 -0.2906  0.6384
12077SOL     OW47449   5.870   0.616   4.211  0.8218  0.3825  0.0964
12077SOL    HW147450   5.817   0.696   4.239  0.8626  0.9719 -1.4799
12077SOL    HW247451   5.810   0.536   4.206  0.6537  0.4399  1.0420
12078SOL     OW47452   8.562   3.137   0.812 -0.3126 -0.1977  0.2646
12078SOL    HW147453   8.606   3.064   0.865  0.2442  1.8900  2.7983
12078SOL    HW247454   8.626   3.213   0.801 -1.2971  0.4387 -1.2796
12079SOL     OW47455   5.065   0.483   1.370  0.1937 -0.3944 -0.6173
12079SOL    HW147456   5.023   0.425   1.300  0.3892 -0.6580 -0.5192
12079SOL    HW247457   5.022   0.573   1.369  0.0214 -0.4778 -0.9052
12080SOL     OW47458   0.722   1.125   2.871 -0.4770  0.1252 -0.0406
12080SOL    HW147459   0.722   1.191   2.796  0.1712  1.1983  0.8998
12080SOL    HW247460   0.688   1.168   2.954 -1.4152 -1.1330  0.2413
12081SOL     OW47461   0.150   8.543   1.426 -0.1444 -0.3697  0.0986
12081SOL    HW147462   0.060   8.586   1.437 -0.6032 -1.4964  0.8367
12081SOL    HW247463   0.166   8.524   1.330 -1.2442 -1.3298  0.0973
12082SOL     OW47464   1.149   4.944   0.999 -0.0708  0.0366 -0.8621
12082SOL    HW147465   1.221   4.964   0.932  0.3867 -0.8762 -0.6508
12082SOL    HW247466   1.067   4.912   0.951 -1.0239  2.8962 -1.2559
12083SOL     OW47467   3.158   1.486   4.381 -0.0621 -0.2577  0.7780
12083SOL    HW147468   3.144   1.576   4.339  1.2135  0.3581  1.6675
12083SOL    HW247469   3.069   1.446   4.403 -0.6492  0.6265  0.0558
12084SOL     OW47470   0.908   2.069   4.326 -0.0912 -0.0670 -0.6877
12084SOL    HW147471   1.001   2.106   4.319 -0.3375  0.5308 -0.8038
12084SOL    HW247472   0.889   2.013   4.245  0.3409 -0.6001 -0.4298
12085SOL     OW47473   9.652   8.666   4.063 -0.3752 -0.0484  0.6637
12085SOL    HW147474   9.672   8.571   4.042  0.7941  0.2812  0.2547
12085SOL    HW247475   9.737   8.717   4.073 -0.9872  0.9015  1.1440
12086SOL     OW47476   9.951   8.766   5.470  0.6323  0.0889  0.2829
12086SOL    HW147477  10.012   8.833   5.427  1.2686 -1.1872 -0.8613
12086SOL    HW247478   9.865   8.810   5.495  0.3073  0.9277 -2.1852
12087SOL     OW47479   5.570   1.727   3.607 -0.1603 -0.0261 -0.1029
12087SOL    HW147480   5.618   1.786   3.542  0.4517  1.6635  1.8678
12087SOL    HW247481   5.634   1.662   3.647 -0.8142 -2.0182 -2.1929
12088SOL     OW47482   2.863   8.626   1.526 -0.3775  0.6078 -0.0920
12088SOL    HW147483   2.775   8.669   1.509 -1.2123 -0.7822  0.6732
12088SOL    HW247484   2.870   8.541   1.472 -0.3009 -0.2867  1.2925
12089SOL     OW47485   9.065   3.603   2.984 -0.4573 -0.0302 -0.1571
12089SOL    HW147486   9.140   3.634   2.927 -0.7516  0.7609 -0.1151
12089SOL    HW247487   9.001   3.548   2.929 -0.4504  0.2620 -0.4571
12090SOL     OW47488   8.374   8.073   6.315 -0.0108 -0.1993 -0.1302
12090SOL    HW147489   8.310   8.066   6.238  0.0079 -0.5666 -0.1104
12090SOL    HW247490   8.385   7.983   6.357 -0.9539  0.2351  1.0598
12091SOL     OW47491   1.772   3.632   2.231 -0.0506  0.6651  0.2950
12091SOL    HW147492   1.818   3.594   2.311  1.9687  0.6201 -0.8409
12091SOL    HW247493   1.841   3.669   2.168 -1.1730 -3.4042 -3.5874
12092SOL     OW47494   0.377   6.599   0.685  0.3688 -0.1859  0.3428
12092SOL    HW147495   0.468   6.627   0.652  0.2136  0.4962  0.4873
12092SOL    HW247496   0.387   6.541   0.766  0.7229 -1.2154 -0.4222
12093SOL     OW47497   5.223   5.297   1.808  0.0096 -0.1420 -0.5701
12093SOL    HW147498   5.239   5.233   1.732 -0.3942 -0.9946  0.0437
12093SOL    HW247499   5.129   5.286   1.840 -0.2541  1.2217 -0.8675
12094SOL     OW47500   1.154   5.398   0.840 -0.0284  0.2620  0.1727
12094SOL    HW147501   1.106   5.484   0.856  0.8505  1.2503 -2.2459
12094SOL    HW247502   1.249   5.416   0.816  0.2603 -1.3973 -0.0408
12095SOL     OW47503   1.475   8.140   2.685 -0.4576  0.0573  0.3033
12095SOL    HW147504   1.479   8.153   2.784  0.6751 -0.2067  0.3024
12095SOL    HW247505   1.438   8.221   2.642  0.6458  0.8444  0.8098
12096SOL     OW47506   7.079   6.672   4.213  0.1352  1.0540 -0.0830
12096SOL    HW147507   7.161   6.725   4.192 -0.0962  1.0746 -0.9521
12096SOL    HW247508   7.106   6.586   4.256  0.9459 -0.7394 -3.8922
12097SOL     OW47509   7.212   0.655   4.857 -0.2881 -0.1609  0.0875
12097SOL    HW147510   7.197   0.654   4.759  0.6646  0.1424 -0.0666
12097SOL    HW247511   7.148   0.720   4.900 -2.1268 -1.8216 -0.0665
12098SOL     OW47512   2.286   1.064   5.220  0.6073 -0.2391  0.4053
12098SOL    HW147513   2.338   0.983   5.191  0.7112 -0.9543  2.5230
12098SOL    HW247514   2.317   1.094   5.310 -1.9749 -0.1069  1.2943
12099SOL     OW47515   9.569   2.572   4.290  0.2367  0.4107  0.2379
12099SOL    HW147516   9.647   2.594   4.350  0.6860 -0.2154 -0.1114
12099SOL    HW247517   9.603   2.540   4.202 -0.4308  2.4745 -0.7899
12100SOL     OW47518   3.330   6.730   2.858 -0.1193 -0.2817  0.1241
12100SOL    HW147519   3.391   6.704   2.783  0.3502  1.2737 -0.0613
12100SOL    HW247520   3.341   6.667   2.934  1.1273 -0.5022 -0.2308
12101SOL     OW47521   8.939   5.501   6.502 -0.2312 -0.3518  0.2687
12101SOL    HW147522   8.915   5.406   6.522 -1.5411  0.2970  1.8807
12101SOL    HW247523   8.957   5.549   6.588  1.9250  0.4841 -0.6130
12102SOL     OW47524   2.919   8.686   5.165  0.0741 -0.2904  0.5000
12102SOL    HW147525   2.861   8.641   5.097  2.8533 -1.1962 -1.3273
12102SOL    HW247526   2.999   8.630   5.185  1.5015  1.9430  1.2889
12103SOL     OW47527   1.276   9.123   5.572 -0.3028  0.2504  0.3708
12103SOL    HW147528   1.176   9.134   5.575 -0.3396  0.3956 -1.0719
12103SOL    HW247529   1.300   9.031   5.601 -1.0813 -0.7027 -1.8643
12104SOL     OW47530   8.804   1.245   2.882 -0.6303 -0.0343  0.1300
12104SOL    HW147531   8.846   1.331   2.908 -0.7444  0.0585  0.0085
12104SOL    HW247532   8.875   1.174   2.873 -0.1877  0.6601 -2.3289
12105SOL     OW47533   2.889   4.337   2.472 -0.1206  0.0937 -0.2256
12105SOL    HW147534   2.961   4.369   2.533 -1.1917  2.6357 -0.2040
12105SOL    HW247535   2.859   4.413   2.414 -1.8586 -1.2596 -1.1504
12106SOL     OW47536   1.554   9.645   5.374 -0.0459  0.2230  0.0575
12106SOL    HW147537   1.641   9.648   5.326 -0.3310  2.0838 -0.3995
12106SOL    HW247538   1.494   9.717   5.338 -0.7367  0.7974  2.3036
12107SOL     OW47539   6.229   9.501   5.072 -0.1116  0.0481  0.0670
12107SOL    HW147540   6.172   9.427   5.107  0.6571 -0.9523 -0.7721
12107SOL    HW247541   6.296   9.464   5.008 -0.3621  1.5948 -1.1297
12108SOL     OW47542   9.003   2.234   4.100  0.0951  0.0371 -0.2552
12108SOL    HW147543   9.013   2.306   4.168  0.4464  0.7996 -1.1090
12108SOL    HW247544   9.003   2.145   4.146  1.9174  0.4568  0.5915
12109SOL     OW47545   2.203   4.943   6.510 -0.5505  0.2070  0.3186
12109SOL    HW147546   2.234   4.867   6.455 -2.5517 -1.4656  1.4051
12109SOL    HW247547   2.154   5.009   6.453 -0.5985 -0.3555 -0.2845
12110SOL     OW47548   0.956   9.163   5.860 -0.0350 -0.2670 -0.4988
12110SOL    HW147549   0.899   9.095   5.908 -1.1676  0.0349 -1.3810
12110SOL    HW247550   0.934   9.254   5.894  1.4143 -0.3254  0.6128
12111SOL     OW47551   0.852   8.976   1.540  0.7968  0.0020  0.2170
12111SOL    HW147552   0.952   8.969   1.544  0.7842  0.0630  0.6262
12111SOL    HW247553   0.812   8.885   1.548  0.7866  0.0760  1.0407
12112SOL     OW47554   8.655   2.511   4.326  0.1621  0.9874 -0.2953
12112SOL    HW147555   8.647   2.518   4.226  1.2914 -2.1203 -0.6344
12112SOL    HW247556   8.750   2.528   4.353  0.1407  0.4689  0.1121
12113SOL     OW47557   9.836   5.386   1.030 -0.4782 -0.7439 -0.8717
12113SOL    HW147558   9.804   5.326   0.957  0.1741 -1.4620 -0.5697
12113SOL    HW247559   9.931   5.413   1.012 -1.2162  1.3897 -1.7765
12114SOL     OW47560   0.250   3.194   3.229  0.1770  0.0891 -0.0436
12114SOL    HW147561   0.327   3.258   3.236 -0.1799  0.8942 -2.8599
12114SOL    HW247562   0.281   3.102   3.252  1.1613  0.9125  2.1089
12115SOL     OW47563   6.530   1.141   5.622  0.2229  0.2237 -0.4661
12115SOL    HW147564   6.562   1.113   5.532 -1.0854 -0.0004 -0.8698
12115SOL    HW247565   6.482   1.228   5.616  0.3898  0.3599  0.0655
12116SOL     OW47566   0.926   0.144   6.681  0.3440  0.0273  0.1125
12116SOL    HW147567   1.013   0.181   6.650  0.7749  0.0270  1.3043
12116SOL    HW247568   0.936   0.107   6.773 -0.8186 -0.3360  0.1068
12117SOL     OW47569   9.262   6.412   2.182 -0.2122  0.2865 -0.0620
12117SOL    HW147570   9.321   6.487   2.151  0.3376  0.1737  0.6835
12117SOL    HW247571   9.232   6.358   2.104  0.5955  0.4132 -0.4608
12118SOL     OW47572   0.434   9.871   4.310 -0.5800  0.4304  0.5394
12118SOL    HW147573   0.520   9.871   4.260 -0.2679  0.3757  1.0792
12118SOL    HW247574   0.408   9.776   4.331 -1.2074  0.3926 -0.3712
12119SOL     OW47575   3.419   8.428   5.244  0.0386 -0.2808 -0.2747
12119SOL    HW147576   3.452   8.473   5.162 -0.0578  1.2919  0.5334
12119SOL    HW247577   3.497   8.400   5.300  0.0834  2.3600  1.0593
12120SOL     OW47578   1.357   5.734   3.255  0.0484  0.0696 -0.4972
12120SOL    HW147579   1.320   5.720   3.347  1.3624  0.3191  0.0819
12120SOL    HW247580   1.347   5.650   3.202 -0.0829 -0.2943  0.0990
12121SOL     OW47581   3.520   9.394   0.231  0.2463  0.2795 -0.2640
12121SOL    HW147582   3.578   9.328   0.183 -2.1075 -1.6640 -0.5312
12121SOL    HW247583   3.451   9.345   0.285 -0.6798  2.5219  0.6661
12122SOL     OW47584   0.326   0.347   4.620  0.2959  0.0384  0.0725
12122SOL    HW147585   0.332   0.351   4.719 -1.2982 -0.4155  0.2031
12122SOL    HW247586   0.390   0.279   4.585  1.9380  1.2608  0.6545
12123SOL     OW47587   3.650   8.035   1.492  0.2878  0.1958  0.3199
12123SOL    HW147588   3.632   7.973   1.569  1.1285 -0.2106  0.1983
12123SOL    HW247589   3.688   7.982   1.415  1.9872  1.0135  0.5727
12124SOL     OW47590   7.412   6.172   0.366 -0.1944  0.3812 -0.3592
12124SOL    HW147591   7.402   6.267   0.337 -0.8396  0.7956  1.1859
12124SOL    HW247592   7.394   6.164   0.464 -1.7114 -1.5806 -0.7536
12125SOL     OW47593   3.016   8.460   5.423 -0.7301 -0.3799 -0.0232
12125SOL    HW147594   3.027   8.482   5.520 -1.9344 -1.2871  0.3378
12125SOL    HW247595   3.053   8.534   5.367  1.3767 -0.5468  1.1241
12126SOL     OW47596   1.658   5.783   0.130 -0.2536  0.3525  0.2821
12126SOL    HW147597   1.569   5.768   0.173  0.2711 -1.2510  0.8592
12126SOL    HW247598   1.691   5.875   0.151 -0.6967  0.1187  2.0418
12127SOL     OW47599   4.545   2.701   5.788 -0.0716  0.3841  0.4195
12127SOL    HW147600   4.535   2.602   5.782  0.1116  0.3624  0.4704
12127SOL    HW247601   4.502   2.734   5.872 -1.3910  0.5197 -0.2992
12128SOL     OW47602   6.288   7.898   2.829 -0.5790 -0.5754 -1.3572
12128SOL    HW147603   6.372   7.905   2.775 -0.3922  0.6170 -0.9310
12128SOL    HW247604   6.311   7.903   2.927 -1.1403 -0.2126 -1.2429
12129SOL     OW47605   0.169   0.467   1.280 -0.3200 -0.0725 -0.6690
12129SOL    HW147606   0.230   0.488   1.203  0.2591 -0.1974 -0.2499
12129SOL    HW247607   0.116   0.385   1.259 -0.3575  0.0462 -1.0433
12130SOL     OW47608   2.528   7.036   6.463  0.2987 -0.2251  0.2868
12130SOL    HW147609   2.443   7.008   6.508 -0.6680  3.5086  0.9212
12130SOL    HW247610   2.604   6.982   6.499 -1.2433 -0.9826  2.5119
12131SOL     OW47611   2.317   8.898   3.986 -0.3281 -0.4455  0.1541
12131SOL    HW147612   2.299   8.899   4.085 -0.1163  0.3684  0.1897
12131SOL    HW247613   2.415   8.900   3.970 -0.3609 -0.6723 -0.0685
12132SOL     OW47614   8.034   0.376   4.547  0.0557 -0.2303  0.3567
12132SOL    HW147615   8.047   0.388   4.645  0.9149  0.9397  0.1123
12132SOL    HW247616   8.107   0.317   4.511 -0.5416 -1.0604  0.5001
12133SOL     OW47617   8.128   5.898   0.411  0.0200 -0.2622 -0.4606
12133SOL    HW147618   8.092   5.991   0.407 -0.0634 -0.2449  0.6224
12133SOL    HW247619   8.201   5.888   0.343  0.1506  0.6378 -0.4610
12134SOL     OW47620   3.416   2.995   4.259  0.0815  0.2659 -0.1339
12134SOL    HW147621   3.411   3.064   4.186  1.8094  2.0847  1.4081
12134SOL    HW247622   3.442   2.907   4.219 -1.7628  0.5596 -2.0798
12135SOL     OW47623   3.087   9.615   0.822  0.1025  0.3125 -0.5223
12135SOL    HW147624   3.089   9.523   0.782 -2.0734  0.7226 -1.6373
12135SOL    HW247625   3.073   9.683   0.750  1.0629  1.4902  0.3694
12136SOL     OW47626   2.381   2.328   1.569 -0.6030  0.1379  0.0743
12136SOL    HW147627   2.384   2.387   1.651 -1.6870  1.0908 -0.5519
12136SOL    HW247628   2.465   2.276   1.563 -0.3516  0.3241  1.6162
12137SOL     OW47629   5.048   7.634   2.202 -0.4564 -0.0168 -0.2245
12137SOL    HW147630   5.130   7.601   2.155  1.4105 -0.0105  2.9282
12137SOL    HW247631   5.031   7.729   2.175 -0.9048 -0.7728 -2.7561
12138SOL     OW47632   3.356   3.336   0.664 -0.4468  0.1106  0.1556
12138SOL    HW147633   3.288   3.332   0.590 -2.1190 -1.2780  1.7397
12138SOL    HW247634   3.431   3.275   0.642  0.1828  1.4061 -1.4543
12139SOL     OW47635   3.215   4.270   4.591  0.0192  0.2049 -0.1721
12139SOL    HW147636   3.179   4.179   4.571 -1.0050  0.8920 -1.5470
12139SOL    HW247637   3.143   4.326   4.631  0.9027  0.1414  1.5228
12140SOL     OW47638   3.328   4.109   2.409 -0.1646  0.3806 -0.2801
12140SOL    HW147639   3.392   4.081   2.338 -0.8949  2.4994 -1.8235
12140SOL    HW247640   3.249   4.155   2.367 -0.7660  1.3668  1.8578
12141SOL     OW47641   4.947   1.852   0.276 -0.0151 -0.0290  0.1875
12141SOL    HW147642   4.967   1.944   0.312 -1.1144  0.8439 -1.3797
12141SOL    HW247643   5.000   1.785   0.327  2.5380  1.6791 -0.1198
12142SOL     OW47644   7.030   9.761   2.095 -0.7344  0.9285 -0.3299
12142SOL    HW147645   6.997   9.808   2.013  2.0287 -0.3269 -2.2329
12142SOL    HW247646   7.129   9.770   2.101 -0.5602 -1.5892  1.2224
12143SOL     OW47647   2.903   9.838   3.586  0.2919  0.5599 -0.8760
12143SOL    HW147648   2.970   9.845   3.512  0.5288  0.9840 -0.6225
12143SOL    HW247649   2.832   9.907   3.574 -0.5782 -0.4614 -1.6256
12144SOL     OW47650   1.573   2.211   4.737 -0.0237  0.2945 -0.4259
12144SOL    HW147651   1.548   2.139   4.803 -0.5151  0.0215 -0.9060
12144SOL    HW247652   1.537   2.188   4.647 -3.0493  2.6959  0.0599
12145SOL     OW47653   0.021   9.096   0.843 -0.0690  0.2882 -0.0844
12145SOL    HW147654   0.051   9.133   0.755 -1.2905 -0.8225 -0.9982
12145SOL    HW247655  -0.067   9.136   0.868 -0.7683 -0.9847 -0.4402
12146SOL     OW47656   5.310   1.217   2.432  0.2656 -0.0463 -0.8042
12146SOL    HW147657   5.248   1.259   2.498  0.9018 -1.5616  0.7934
12146SOL    HW247658   5.368   1.150   2.478  0.8705 -1.0013 -2.8773
12147SOL     OW47659   0.640   1.574   6.046 -0.4771  0.1697  0.3577
12147SOL    HW147660   0.735   1.554   6.023 -1.2167 -0.9527 -1.9214
12147SOL    HW247661   0.586   1.489   6.043 -1.7830  0.9795  0.3269
12148SOL     OW47662   5.565   2.144   3.193 -0.3214  0.3550 -0.5836
12148SOL    HW147663   5.521   2.054   3.202  1.4617 -0.4845 -0.1012
12148SOL    HW247664   5.636   2.139   3.123 -0.9094  1.6721 -1.2782
12149SOL     OW47665   0.315   1.840   0.045 -0.1468  0.1931  0.0801
12149SOL    HW147666   0.293   1.854   0.142 -0.1166  0.5289  0.0395
12149SOL    HW247667   0.242   1.878  -0.012 -1.6264 -2.6559  0.0050
12150SOL     OW47668   4.738   1.690   4.528  0.4761  0.3415  0.4348
12150SOL    HW147669   4.663   1.678   4.593  1.2391 -2.4182  0.8417
12150SOL    HW247670   4.825   1.690   4.577  0.9406  0.1594 -0.3818
12151SOL     OW47671   2.585   4.125   1.655  0.1495 -0.0065 -0.5591
12151SOL    HW147672   2.527   4.197   1.692  1.0767  0.6043 -0.2780
12151SOL    HW247673   2.586   4.130   1.556  1.1572  1.1163 -0.4961
12152SOL     OW47674   3.940   4.971   4.962 -0.0861 -0.6224  0.1657
12152SOL    HW147675   4.000   4.915   4.907  2.2512  1.3598  0.6136
12152SOL    HW247676   3.935   4.934   5.055  2.0552  0.2779  0.6733
12153SOL     OW47677   9.225   6.669   0.114 -0.0349  0.2104  0.1442
12153SOL    HW147678   9.204   6.765   0.132  1.1427  0.4753  0.1151
12153SOL    HW247679   9.142   6.622   0.082 -0.3977  1.4327 -0.7499
12154SOL     OW47680   2.093   8.510   1.880  0.9075  0.2858  0.0019
12154SOL    HW147681   2.135   8.478   1.965  0.1922  1.1438  0.6955
12154SOL    HW247682   2.101   8.610   1.875 -0.9649  0.4516  0.1109
12155SOL     OW47683   5.398   0.841   2.159 -0.5410  0.3730 -0.0213
12155SOL    HW147684   5.338   0.849   2.239 -0.8405  0.0045 -0.2044
12155SOL    HW247685   5.413   0.744   2.139 -2.3346  0.4057 -1.7781
12156SOL     OW47686   3.958   8.846   0.115 -0.1983  0.7633 -0.6392
12156SOL    HW147687   3.957   8.912   0.190  0.4806 -1.7445  1.6208
12156SOL    HW247688   4.050   8.845   0.074 -0.2389  1.2827 -0.7503
12157SOL     OW47689   2.198   4.531   0.486 -0.3803 -0.5346  0.4912
12157SOL    HW147690   2.100   4.526   0.470  0.0965 -1.6286 -2.4567
12157SOL    HW247691   2.225   4.460   0.552 -1.5245 -0.4013  1.1032
12158SOL     OW47692   3.764   1.763   1.060 -0.1442 -0.0626  0.5183
12158SOL    HW147693   3.699   1.833   1.030 -1.1980 -0.5375  1.6625
12158SOL    HW247694   3.830   1.746   0.987 -1.5781  0.0966 -0.8478
12159SOL     OW47695   2.758   3.422   0.471 -0.3661  0.0356  0.2399
12159SOL    HW147696   2.765   3.408   0.372 -0.8480 -1.5112  0.4116
12159SOL    HW247697   2.662   3.426   0.498 -0.2858 -2.2595  0.9813
12160SOL     OW47698   3.971   1.190   5.201  0.0290 -0.0689  0.4102
12160SOL    HW147699   3.972   1.102   5.154  1.2368 -0.8904  1.9481
12160SOL    HW247700   4.031   1.254   5.153 -0.5649 -0.1714 -0.4950
12161SOL     OW47701   8.112   8.356   5.478  0.3915  0.3375 -0.1766
12161SOL    HW147702   8.040   8.312   5.531  1.9844 -1.4354  0.5976
12161SOL    HW247703   8.172   8.407   5.540  1.9266 -1.2626 -0.3060
12162SOL     OW47704   9.811   4.725   4.028 -0.3207  0.0449  0.1217
12162SOL    HW147705   9.789   4.635   3.990 -1.6886 -0.4911  2.0635
12162SOL    HW247706   9.728   4.768   4.063  0.4763  1.6489  0.0950
12163SOL     OW47707   4.566   2.605   5.124  0.1336 -0.3692 -0.2116
12163SOL    HW147708   4.549   2.646   5.035  0.3030  2.5383  1.0130
12163SOL    HW247709   4.491   2.629   5.186  1.4150  0.0510  1.1915
12164SOL     OW47710   9.202   3.154   2.859 -0.4791  0.2916 -0.1977
12164SOL    HW147711   9.293   3.119   2.836 -1.2304 -1.8087 -0.1410
12164SOL    HW247712   9.159   3.192   2.777  1.3111  3.4405  0.2497
12165SOL     OW47713   0.836   9.030   6.462  0.2783 -0.2532  0.2382
12165SOL    HW147714   0.750   9.039   6.513  0.2392  0.2408  0.0923
12165SOL    HW247715   0.906   9.086   6.505 -0.1219  1.2770 -1.0314
12166SOL     OW47716   2.217   2.147   0.466  0.5708 -0.2603 -0.0761
12166SOL    HW147717   2.147   2.211   0.499  0.5643 -0.4622  0.3092
12166SOL    HW247718   2.266   2.109   0.544  0.7388 -0.5439 -0.3197
12167SOL     OW47719   1.746   7.051   0.184  1.1109  0.0516  0.0346
12167SOL    HW147720   1.759   7.019   0.278  0.3282  1.6064  0.6898
12167SOL    HW247721   1.746   7.151   0.183 -1.7015  0.0686 -1.2289
12168SOL     OW47722   3.542   0.627   1.629 -0.6195 -0.4922  0.3284
12168SOL    HW147723   3.475   0.563   1.667 -2.8758  1.9261  0.4878
12168SOL    HW247724   3.538   0.624   1.529 -2.3663  1.0427  0.3302
12169SOL     OW47725   1.990   9.927   5.660 -0.1094 -0.0056  0.1635
12169SOL    HW147726   1.992   9.952   5.564 -0.7469  0.5756  0.3014
12169SOL    HW247727   1.997  10.010   5.717  0.4066 -0.3526  0.6209
12170SOL     OW47728   9.664   3.718   5.064 -0.5191 -0.4839  0.5347
12170SOL    HW147729   9.702   3.636   5.106  0.0031  0.0185  1.0522
12170SOL    HW247730   9.589   3.753   5.120 -0.1656 -0.1098  0.7757
12171SOL     OW47731   1.481   9.053   0.072  0.1803  0.8081  0.0219
12171SOL    HW147732   1.408   9.103   0.119 -2.2263 -3.5162  1.1111
12171SOL    HW247733   1.474   9.069  -0.026 -1.4880  1.3833  0.2112
12172SOL     OW47734   3.051   6.708   6.681  0.4402 -0.3560 -0.6097
12172SOL    HW147735   2.980   6.711   6.751 -0.8773 -0.3353 -1.9245
12172SOL    HW247736   3.061   6.799   6.640 -0.5431 -0.9150 -2.1421
12173SOL     OW47737   9.498   5.538   4.437  0.0728 -0.0733  0.0070
12173SOL    HW147738   9.541   5.524   4.348  0.2353  0.9869 -0.0891
12173SOL    HW247739   9.441   5.620   4.433 -0.8862 -0.7054  0.5271
12174SOL     OW47740   0.568   0.209   4.988  0.2371 -0.6787  0.6881
12174SOL    HW147741   0.594   0.198   5.084 -0.0991 -1.2819  0.7131
12174SOL    HW247742   0.645   0.183   4.929  0.2743 -0.7856  0.7853
12175SOL     OW47743   0.511   9.961   3.774  0.2774  0.1176  0.6155
12175SOL    HW147744   0.484  10.031   3.840 -0.6661 -0.1780  0.5504
12175SOL    HW247745   0.429   9.916   3.738  0.8875 -1.2325  0.8878
12176SOL     OW47746   7.710   2.326   2.238 -0.0903  0.3589 -0.1307
12176SOL    HW147747   7.796   2.335   2.187 -0.8756  0.9169 -1.3790
12176SOL    HW247748   7.710   2.239   2.287 -0.0804 -1.0517 -2.5555
12177SOL     OW47749   2.811   0.253   1.069  0.0057 -0.5487 -0.2176
12177SOL    HW147750   2.747   0.233   1.144 -0.2916  0.4039 -0.2020
12177SOL    HW247751   2.830   0.351   1.067  0.8350 -0.7165 -0.7394
12178SOL     OW47752   6.621   1.824   5.504 -0.3568 -0.0729 -0.3063
12178SOL    HW147753   6.697   1.788   5.559 -0.1766 -0.8521 -1.0511
12178SOL    HW247754   6.655   1.899   5.446 -0.0511 -0.7253 -0.9742
12179SOL     OW47755   7.548   0.138   3.154  0.4284 -0.1228 -0.1846
12179SOL    HW147756   7.458   0.123   3.194 -0.0817  1.7093 -0.6108
12179SOL    HW247757   7.560   0.235   3.132  1.7443 -0.6416 -1.9484
12180SOL     OW47758   7.976   5.926   6.525 -0.6333  0.1401  0.4382
12180SOL    HW147759   8.047   5.970   6.580  2.2021 -2.6408 -0.8198
12180SOL    HW247760   7.942   5.990   6.456  1.6643  1.1620  0.1926
12181SOL     OW47761   6.409   0.949   4.541  0.1488  0.2316  0.1504
12181SOL    HW147762   6.390   0.856   4.570 -0.0344  0.7937  1.9017
12181SOL    HW247763   6.387   0.959   4.443 -3.0234 -0.6757  0.7138
12182SOL     OW47764   3.552   9.170   5.005 -0.2936 -0.2020 -0.0871
12182SOL    HW147765   3.624   9.168   4.935 -0.2770 -1.6057 -0.0301
12182SOL    HW247766   3.553   9.259   5.051  0.8834  0.0721 -0.6325
12183SOL     OW47767   9.276   9.725   4.018 -0.4223 -0.3423 -0.5872
12183SOL    HW147768   9.237   9.780   4.092 -0.3990  0.5259 -1.2162
12183SOL    HW247769   9.258   9.628   4.037  0.8388 -0.2431  1.2767
12184SOL     OW47770   8.270   9.335   1.434  0.0563 -0.2810  0.2679
12184SOL    HW147771   8.262   9.239   1.461 -2.2744  0.5611  2.7786
12184SOL    HW247772   8.360   9.370   1.461 -0.2927 -0.8993  2.3316
12185SOL     OW47773   8.426   2.094   5.838 -0.0409  0.0361  0.2549
12185SOL    HW147774   8.496   2.153   5.877 -0.4405  0.4085  0.4220
12185SOL    HW247775   8.469   2.019   5.787  0.4708  0.3053  0.2893
12186SOL     OW47776   2.246   2.430   1.333 -0.2447  0.1497 -0.3271
12186SOL    HW147777   2.254   2.358   1.264  0.5455 -0.1759  0.0954
12186SOL    HW247778   2.311   2.413   1.407 -2.0380 -0.2700  1.1951
12187SOL     OW47779   5.697   1.998   2.970  0.1177  0.2050  0.4774
12187SOL    HW147780   5.635   1.944   3.026  0.2338 -0.7188 -0.2607
12187SOL    HW247781   5.659   2.007   2.878  1.2500 -0.7051 -0.0943
12188SOL     OW47782   5.089   3.878   1.620 -0.6795  0.7269 -0.1969
12188SOL    HW147783   5.112   3.802   1.682 -2.8379 -1.2075 -1.6666
12188SOL    HW247784   5.094   3.964   1.669 -1.5436 -0.6972  2.4876
12189SOL     OW47785   0.824   2.208   0.773  0.1385 -0.1007  0.4249
12189SOL    HW147786   0.881   2.189   0.693  0.4027  0.4965  0.4627
12189SOL    HW247787   0.791   2.303   0.768  0.4327  0.0431  1.1905
12190SOL     OW47788   9.520   5.775   0.151 -0.0517 -0.4269  0.0358
12190SOL    HW147789   9.533   5.755   0.053 -0.0073  1.9855 -0.4778
12190SOL    HW247790   9.459   5.852   0.162  2.3887  1.3490  1.7862
12191SOL     OW47791   3.510   8.335   2.667  0.3216  0.4999  0.0384
12191SOL    HW147792   3.532   8.255   2.723  1.7601  1.0299  0.2648
12191SOL    HW247793   3.446   8.394   2.715 -1.5883 -1.0472 -0.5769
12192SOL     OW47794   2.028   4.903   0.086  0.3425 -0.2950  0.1045
12192SOL    HW147795   1.988   4.977   0.032  0.8282  0.4911  0.8147
12192SOL    HW247796   2.128   4.910   0.084  0.4021 -1.0638 -0.0046
12193SOL     OW47797   1.938   2.140   1.460 -0.4103 -0.2333  0.3041
12193SOL    HW147798   1.894   2.051   1.447 -0.0592 -0.7633  2.5176
12193SOL    HW247799   2.008   2.132   1.531  0.8705  1.4050 -0.7511
12194SOL     OW47800   8.497   6.832   0.358  0.3131 -0.3856  0.1052
12194SOL    HW147801   8.506   6.784   0.445 -0.0345  0.4939  0.6313
12194SOL    HW247802   8.400   6.852   0.340  0.4584  0.1679 -0.0799
12195SOL     OW47803   0.476   8.527   5.464 -0.3016 -0.6737 -0.0527
12195SOL    HW147804   0.568   8.554   5.436  0.6292 -2.2356  1.4490
12195SOL    HW247805   0.435   8.600   5.519 -0.6716  0.7733 -2.1622
12196SOL     OW47806   8.133   4.452   1.724  0.3697  0.1616  0.5111
12196SOL    HW147807   8.072   4.503   1.785  0.3941  0.5297  0.2270
12196SOL    HW247808   8.135   4.495   1.634  0.6780 -0.1253  0.3788
12197SOL     OW47809   1.250   7.050   5.634  0.4079  0.0757  0.0795
12197SOL    HW147810   1.195   6.970   5.658  1.5769 -0.7700 -0.0250
12197SOL    HW247811   1.326   7.059   5.698  1.0392  0.3431 -0.6962
12198SOL     OW47812   9.087   6.820   5.609 -0.1811  0.0625  0.4102
12198SOL    HW147813   9.001   6.832   5.658 -0.6807 -1.3063 -0.1262
12198SOL    HW247814   9.069   6.782   5.518  0.8180  1.6800 -0.4941
12199SOL     OW47815   7.930   0.613   1.346 -0.0281  0.2226 -0.1087
12199SOL    HW147816   7.887   0.535   1.301 -0.1807  0.2635 -0.0330
12199SOL    HW247817   7.989   0.580   1.420 -2.0666  0.3020  1.5969
12200SOL     OW47818   9.018   3.949   1.271 -0.4190 -0.0377  0.0020
12200SOL    HW147819   8.971   3.891   1.204  5.5632 -0.8367 -3.8917
12200SOL    HW247820   9.094   3.898   1.311 -0.2266  2.4639  3.0751
12201SOL     OW47821   9.367   9.532   1.404 -0.4500  0.0398  0.6034
12201SOL    HW147822   9.366   9.628   1.378 -2.1569  0.4044  1.9243
12201SOL    HW247823   9.411   9.522   1.494  0.4637 -0.5302  0.1052
12202SOL     OW47824   2.275   9.339   6.079 -0.2872  0.0685 -0.0399
12202SOL    HW147825   2.197   9.313   6.023 -0.9909  1.7487  0.1441
12202SOL    HW247826   2.262   9.432   6.114  1.3694  0.0290  0.7274
12203SOL     OW47827   1.846   8.966   6.478 -0.6508  0.3849 -0.3610
12203SOL    HW147828   1.888   8.972   6.387  2.1586 -0.2150  0.8356
12203SOL    HW247829   1.759   9.014   6.477 -0.8637  0.0603 -3.4768
12204SOL     OW47830   0.017   9.247   0.569 -0.5963 -0.1826 -0.6048
12204SOL    HW147831   0.112   9.263   0.597 -0.8952  1.6984 -0.5782
12204SOL    HW247832   0.014   9.229   0.471 -0.1089 -1.3657 -0.4130
12205SOL     OW47833   9.383   6.857   1.538  0.1610 -0.2929 -0.0879
12205SOL    HW147834   9.349   6.937   1.587  0.3369 -0.4014  0.2202
12205SOL    HW247835   9.420   6.884   1.450  0.2810 -0.0242  0.0458
12206SOL     OW47836   2.513   2.416   1.095 -0.4497 -0.2346  0.7009
12206SOL    HW147837   2.434   2.452   1.145  0.2864  1.7753  0.4638
12206SOL    HW247838   2.570   2.362   1.157 -0.1376  1.2954  1.7748
12207SOL     OW47839   9.533   7.314   6.609  0.0067  0.4098 -0.1995
12207SOL    HW147840   9.542   7.383   6.680  0.1339  2.2688 -1.9822
12207SOL    HW247841   9.595   7.238   6.629 -0.3322  0.6624  1.9212
12208SOL     OW47842   7.322   9.953   1.796  0.1651  0.0939  0.4907
12208SOL    HW147843   7.368   9.988   1.877 -0.2055 -1.7663  1.5318
12208SOL    HW247844   7.236  10.001   1.782 -0.7730 -0.9902  2.4161
12209SOL     OW47845   2.814   0.255   3.634 -0.4341  0.4775  0.6399
12209SOL    HW147846   2.775   0.296   3.716 -1.2753 -0.1748  0.5781
12209SOL    HW247847   2.765   0.170   3.613 -0.3600  0.7404 -0.6430
12210SOL     OW47848   8.208   9.775   4.906 -0.2686  0.4658  0.5526
12210SOL    HW147849   8.196   9.827   4.821  0.2931  0.4004  0.4255
12210SOL    HW247850   8.162   9.687   4.898 -0.4969  0.5966  0.4397
12211SOL     OW47851   8.676   7.232   2.062  0.0729  0.3219  0.4227
12211SOL    HW147852   8.716   7.149   2.102  2.0127  0.1672 -1.7190
12211SOL    HW247853   8.744   7.277   2.005 -0.9549  3.4571  1.5831
12212SOL     OW47854   0.363   9.251   0.075  0.4327  0.2535  0.6113
12212SOL    HW147855   0.355   9.198  -0.009 -1.4548 -0.1741  1.0427
12212SOL    HW247856   0.281   9.306   0.087  1.7533  2.2175  0.9111
12213SOL     OW47857   1.055   1.619   0.859 -0.1678 -0.0056 -0.2082
12213SOL    HW147858   1.012   1.696   0.905 -2.5703 -0.3369 -1.7811
12213SOL    HW247859   1.075   1.644   0.764 -0.6638 -1.1629 -0.6381
12214SOL     OW47860   3.180   1.937   1.025 -0.0408  0.2185  0.1958
12214SOL    HW147861   3.251   1.870   1.005 -0.4761  0.3878 -2.0936
12214SOL    HW247862   3.193   1.974   1.117  1.4079 -1.4920  0.6892
12215SOL     OW47863   2.929   0.536   3.998  0.0899 -0.0331 -0.0896
12215SOL    HW147864   3.026   0.511   3.994  0.3796  1.3043 -1.9791
12215SOL    HW247865   2.920   0.635   4.007 -1.1099 -0.2654  1.5262
12216SOL     OW47866   9.149   0.645   1.429  1.2738  0.6554  0.2230
12216SOL    HW147867   9.230   0.702   1.429  0.7068  1.4760  0.3257
12216SOL    HW247868   9.106   0.648   1.338  2.5213 -1.4723 -0.4641
12217SOL     OW47869   8.463   0.048   3.405  0.0697 -0.2297 -0.4206
12217SOL    HW147870   8.389   0.006   3.458  1.0083 -0.0195  1.0894
12217SOL    HW247871   8.428   0.124   3.351 -0.5256  0.8944  1.5304
12218SOL     OW47872   3.513   7.267   2.293  0.4893 -0.0590 -0.0527
12218SOL    HW147873   3.413   7.266   2.304  0.5554  0.1927  0.5741
12218SOL    HW247874   3.556   7.276   2.383  1.1146 -1.7896 -0.1721
12219SOL     OW47875   6.517   8.274   4.614 -0.0874 -0.3773 -0.1073
12219SOL    HW147876   6.467   8.281   4.700  0.4462  2.4631  0.0227
12219SOL    HW247877   6.615   8.273   4.632  0.0434  0.9198 -0.7139
12220SOL     OW47878   9.037   3.871   6.161  0.2992 -0.0675 -0.2096
12220SOL    HW147879   9.113   3.910   6.214  0.9306  0.4619 -1.4858
12220SOL    HW247880   8.954   3.925   6.177  0.0576 -0.9253  1.5540
12221SOL     OW47881   9.195   0.901   5.504 -0.1101 -0.7116  0.0480
12221SOL    HW147882   9.221   0.808   5.480  0.5900 -0.5197  0.0497
12221SOL    HW247883   9.230   0.965   5.435 -0.5463 -0.4434  0.0704
12222SOL     OW47884   1.145   7.065   0.824 -0.2840  0.1233 -0.6900
12222SOL    HW147885   1.156   7.046   0.922  0.4890  1.1961 -0.5651
12222SOL    HW247886   1.155   7.163   0.808  1.8010 -0.3097 -2.1566
12223SOL     OW47887   2.973   0.672   4.761 -0.6578 -0.0433  0.1758
12223SOL    HW147888   3.044   0.742   4.766  0.7112 -1.3420 -0.5401
12223SOL    HW247889   2.962   0.642   4.666 -3.8174  1.7565 -0.0916
12224SOL     OW47890   9.260   5.665   4.239  0.4677  0.3266 -0.1084
12224SOL    HW147891   9.292   5.588   4.185  0.0408 -1.3649  1.9739
12224SOL    HW247892   9.181   5.707   4.194  0.9923 -0.1596 -1.4954
12225SOL     OW47893   4.854   1.683   4.027  0.1144  0.0195 -0.0712
12225SOL    HW147894   4.942   1.685   4.075 -0.2282  0.6404  0.5593
12225SOL    HW247895   4.798   1.760   4.059 -2.4594 -2.9732  3.0038
12226SOL     OW47896   8.373   1.097   3.935 -0.2828 -0.2726  0.2087
12226SOL    HW147897   8.336   1.014   3.893 -0.9593  0.2164 -0.1857
12226SOL    HW247898   8.324   1.116   4.020  0.7651 -1.0047  0.9699
12227SOL     OW47899   4.120   7.703   1.473 -0.9449  0.0102  0.3039
12227SOL    HW147900   4.106   7.792   1.429  1.1886  0.2178 -0.0134
12227SOL    HW247901   4.112   7.713   1.572 -3.3337  0.0191  0.1340
12228SOL     OW47902   4.329   7.789   3.334  0.2141 -0.0066  0.0749
12228SOL    HW147903   4.242   7.837   3.332  0.2423  0.0395 -2.5485
12228SOL    HW247904   4.315   7.695   3.364 -1.0918 -0.5530 -2.0897
12229SOL     OW47905   5.888   9.586   1.302  0.9393  0.9978 -0.4754
12229SOL    HW147906   5.973   9.562   1.348 -0.0188  0.6205  1.1428
12229SOL    HW247907   5.862   9.680   1.326 -0.2474  0.3507  0.8489
12230SOL     OW47908   3.067   8.331   1.122  0.5120  0.1236 -0.4842
12230SOL    HW147909   2.982   8.284   1.145  0.9349 -0.9106 -0.9990
12230SOL    HW247910   3.088   8.399   1.193 -0.5233  0.1015 -0.1482
12231SOL     OW47911   4.711   9.743   3.593  0.2996  0.0878  0.0706
12231SOL    HW147912   4.621   9.781   3.572  0.2162 -0.5478 -0.7212
12231SOL    HW247913   4.750   9.702   3.511  0.6187 -1.0777  0.7962
12232SOL     OW47914   2.117   2.537   6.498 -0.0226 -0.6492 -0.3450
12232SOL    HW147915   2.063   2.561   6.579  0.8032 -2.6698  0.8021
12232SOL    HW247916   2.166   2.452   6.513  1.5668 -0.1307 -2.3199
12233SOL     OW47917   0.982   3.956   0.483 -0.0122  0.5747 -0.1869
12233SOL    HW147918   0.920   4.008   0.424 -0.3416 -0.8364 -1.0998
12233SOL    HW247919   0.929   3.894   0.541  0.4377  0.6318  0.2902
12234SOL     OW47920   9.247   9.021   4.242  0.0458  0.1659  0.7948
12234SOL    HW147921   9.223   8.938   4.191  0.2798 -0.7168  2.0880
12234SOL    HW247922   9.168   9.081   4.248 -0.1814 -0.0483  0.0076
12235SOL     OW47923   4.977   1.867   0.655 -0.1432 -0.3356  0.1240
12235SOL    HW147924   5.036   1.883   0.735 -0.9300  0.6863  0.5284
12235SOL    HW247925   4.927   1.781   0.667  0.9155 -0.9712 -0.0041
12236SOL     OW47926   3.738   0.149   2.501 -0.0862 -0.0008 -0.1177
12236SOL    HW147927   3.766   0.219   2.568 -0.1299  1.1859 -1.3153
12236SOL    HW247928   3.674   0.190   2.435 -0.2864 -1.2420 -0.7097
12237SOL     OW47929   0.313   6.423   3.038 -0.0844 -0.0084  0.3106
12237SOL    HW147930   0.273   6.482   2.968  0.3350 -0.6275 -0.4669
12237SOL    HW247931   0.376   6.477   3.094 -0.0545  0.3892 -0.0979
12238SOL     OW47932   2.025   1.268   5.608  0.0691 -0.1829  0.3618
12238SOL    HW147933   2.096   1.337   5.598 -1.7925  1.7914  0.3974
12238SOL    HW247934   2.062   1.190   5.658  1.9610  1.1477  1.1198
12239SOL     OW47935   0.830   3.752   1.869 -0.0798  0.0930 -0.7154
12239SOL    HW147936   0.919   3.795   1.881  0.2110 -0.8125  0.5264
12239SOL    HW247937   0.759   3.812   1.906  0.0640  0.6266 -1.3120
12240SOL     OW47938   1.660   1.933   1.070  0.2899 -0.6811  0.7103
12240SOL    HW147939   1.579   1.880   1.096  0.3248 -1.0677  0.0172
12240SOL    HW247940   1.653   2.025   1.110 -1.0815 -0.3017 -0.3792
12241SOL     OW47941   3.994   8.267   3.502 -1.3022 -0.0323  0.4066
12241SOL    HW147942   3.985   8.352   3.554  1.2190  1.0644 -0.8560
12241SOL    HW247943   4.021   8.193   3.563  1.0892  1.1177  0.7877
12242SOL     OW47944   7.362   2.766   0.076 -0.3903  0.7089 -0.0584
12242SOL    HW147945   7.439   2.829   0.068  1.0486 -1.1490 -1.3537
12242SOL    HW247946   7.348   2.719  -0.011 -1.6758 -0.4879  0.7687
12243SOL     OW47947   1.922   8.552   2.209  0.3967 -0.7871 -0.2800
12243SOL    HW147948   1.832   8.561   2.252  0.8618  0.3505  0.4788
12243SOL    HW247949   1.931   8.461   2.168 -1.0419 -0.9570 -0.2343
12244SOL     OW47950   4.021   1.531   3.861  0.2223  0.0456  1.1088
12244SOL    HW147951   4.086   1.485   3.922 -0.0034  0.2584  1.5167
12244SOL    HW247952   3.928   1.516   3.896  0.0258 -0.5530  0.3351
12245SOL     OW47953   9.896   8.801   4.173  0.1424  0.4274  0.0153
12245SOL    HW147954   9.911   8.852   4.258  0.2678  1.2842 -0.5215
12245SOL    HW247955   9.983   8.764   4.141  0.1589  0.4354  0.0506
12246SOL     OW47956   1.576   2.187   6.164  0.4270  0.4075 -0.1794
12246SOL    HW147957   1.586   2.280   6.200  0.4123 -0.0353  0.9890
12246SOL    HW247958   1.632   2.177   6.082  1.1963  1.1504  0.2450
12247SOL     OW47959   8.975   7.808   6.208  0.1854 -0.4441 -0.1122
12247SOL    HW147960   9.047   7.788   6.274  2.2175  1.1872 -1.7752
12247SOL    HW247961   8.917   7.882   6.243  2.9369  2.3661 -1.2659
12248SOL     OW47962   1.000   8.315   3.798 -0.4617 -0.2881 -0.3286
12248SOL    HW147963   1.043   8.402   3.774  0.2971 -0.0559  1.7830
12248SOL    HW247964   1.070   8.247   3.817 -1.0368 -0.8065 -0.0356
12249SOL     OW47965   0.335   6.928   5.595  0.6067 -0.4987  0.6804
12249SOL    HW147966   0.295   7.006   5.645  0.0940 -1.2622  1.4764
12249SOL    HW247967   0.283   6.845   5.616  0.7101 -0.9264 -0.7395
12250SOL     OW47968   2.080   7.774   6.260 -0.3546 -0.2460 -0.4686
12250SOL    HW147969   2.165   7.819   6.232  0.2990 -1.1263  0.0952
12250SOL    HW247970   2.002   7.833   6.236  0.4195  0.6623 -0.7896
12251SOL     OW47971   0.028   3.443   5.409 -0.3563  0.1649  0.0648
12251SOL    HW147972  -0.037   3.517   5.430  0.1560  0.8612 -0.7806
12251SOL    HW247973   0.048   3.443   5.312  1.5452  0.4561  0.4493
12252SOL     OW47974   8.343   4.658   1.997 -0.2964 -0.4217  0.5620
12252SOL    HW147975   8.347   4.714   1.914 -0.8185  0.2489  0.9910
12252SOL    HW247976   8.378   4.710   2.075 -1.5664 -0.3785  1.1213
12253SOL     OW47977   1.485   5.764   2.792 -0.1839  0.5641 -0.5198
12253SOL    HW147978   1.400   5.812   2.771 -1.2226 -1.3965 -0.9336
12253SOL    HW247979   1.507   5.702   2.716  0.1821 -0.9049  0.7699
12254SOL     OW47980   8.905   2.059   2.662  0.0777 -0.4173  0.5705
12254SOL    HW147981   8.847   2.108   2.727  0.5416 -0.8244  1.2939
12254SOL    HW247982   8.848   2.003   2.602 -0.2558 -1.0860  1.5072
12255SOL     OW47983   1.505   2.674   3.653  0.2267  0.5946 -0.6606
12255SOL    HW147984   1.441   2.634   3.720 -0.2908 -1.7128 -2.4506
12255SOL    HW247985   1.596   2.681   3.695 -0.1664 -0.4641  0.4195
12256SOL     OW47986   3.255   5.635   5.788 -0.0429 -0.2354 -0.6443
12256SOL    HW147987   3.218   5.573   5.720 -0.0936  0.5291 -1.3226
12256SOL    HW247988   3.241   5.597   5.880 -1.3810 -0.5417 -0.9644
12257SOL     OW47989   2.577   0.609   2.611  0.3365  0.3858 -0.3048
12257SOL    HW147990   2.592   0.546   2.535 -0.0397 -0.1124  0.0281
12257SOL    HW247991   2.608   0.701   2.585 -2.1488  0.7939 -1.9655
12258SOL     OW47992   9.865   8.907   3.728 -0.0954  0.4852 -0.4529
12258SOL    HW147993   9.962   8.898   3.703  1.0116  1.1032  3.3436
12258SOL    HW247994   9.830   8.818   3.757 -0.3384  0.5003 -0.7026
12259SOL     OW47995   1.578   4.309   4.623 -0.2226  0.0156  0.2979
12259SOL    HW147996   1.620   4.377   4.562  0.2325 -0.1122  0.4690
12259SOL    HW247997   1.496   4.348   4.664  0.4438  0.7393  0.9790
12260SOL     OW47998   0.493   4.367   3.653  0.1363 -0.1024 -0.0673
12260SOL    HW147999   0.550   4.352   3.572  0.9906  1.1500  0.2851
12260SOL    HW248000   0.543   4.336   3.734 -0.1450 -0.0428  0.1283
12261SOL     OW48001   8.654   8.414   1.569  0.2266  0.1989 -0.1708
12261SOL    HW148002   8.731   8.358   1.539 -0.5686 -0.3724 -1.1595
12261SOL    HW248003   8.654   8.500   1.517  0.3752  0.3390  0.0570
12262SOL     OW48004   4.975   1.157   2.997 -0.0965 -0.3325  0.1646
12262SOL    HW148005   5.045   1.228   2.986  0.9747 -1.5400 -1.1642
12262SOL    HW248006   4.996   1.101   3.077 -0.6620  0.5422  0.9238
12263SOL     OW48007   1.939   0.142   4.292 -0.2642  0.3790 -0.0648
12263SOL    HW148008   1.931   0.187   4.381  3.0100 -1.8413  1.4952
12263SOL    HW248009   1.987   0.203   4.228 -0.3435  1.0296  0.4889
12264SOL     OW48010   8.181   6.306   3.119  0.2779 -0.5671  0.5873
12264SOL    HW148011   8.257   6.361   3.153 -0.8480  0.4364  1.5250
12264SOL    HW248012   8.126   6.274   3.196 -0.9492 -0.2557 -0.1524
12265SOL     OW48013   3.655   8.377   5.398  0.0499 -0.8921  0.2505
12265SOL    HW148014   3.739   8.395   5.449 -0.0380 -1.9794  0.7932
12265SOL    HW248015   3.678   8.342   5.308  0.1785 -1.4673  0.5049
12266SOL     OW48016   2.957   6.570   4.293 -0.1648  0.1288  0.1168
12266SOL    HW148017   2.867   6.535   4.267  0.1598 -1.9707  1.6491
12266SOL    HW248018   2.999   6.507   4.359  0.8424  2.9955  2.3262
12267SOL     OW48019   3.015   2.899   1.642 -0.5004 -0.6094  0.0462
12267SOL    HW148020   3.043   2.904   1.738 -1.6106 -0.7930  0.3850
12267SOL    HW248021   3.092   2.869   1.587  0.0243 -0.9413  0.9422
12268SOL     OW48022   1.053   3.734   0.228  0.3827  0.1238  0.8172
12268SOL    HW148023   1.097   3.788   0.300  1.0005 -1.3767  1.5930
12268SOL    HW248024   1.109   3.654   0.208  0.3342  0.6447 -1.5289
12269SOL     OW48025   9.504   5.054   1.293 -0.2190 -0.6329 -0.3364
12269SOL    HW148026   9.591   5.035   1.249  0.6690  0.9247  0.6788
12269SOL    HW248027   9.463   5.135   1.252 -0.3967 -0.4073  0.2737
12270SOL     OW48028   2.987   4.522   3.356 -0.1931 -0.3615  0.4736
12270SOL    HW148029   2.945   4.462   3.424  2.4904 -0.8579  1.7576
12270SOL    HW248030   3.013   4.469   3.276 -0.9291 -0.2631  0.1640
12271SOL     OW48031   0.666   9.691   4.494 -0.0436  0.5121 -0.0738
12271SOL    HW148032   0.718   9.708   4.410  0.0924  0.3810 -0.0165
12271SOL    HW248033   0.584   9.638   4.472  0.1112  0.2796 -0.0895
12272SOL     OW48034   8.232   8.499   1.690 -0.3330 -0.1828  0.1951
12272SOL    HW148035   8.322   8.482   1.729  0.0151  0.0733 -0.4918
12272SOL    HW248036   8.231   8.468   1.595 -0.9324 -0.0705  0.1630
12273SOL     OW48037   1.404   7.803   4.514 -0.4804 -0.7732  0.2167
12273SOL    HW148038   1.416   7.704   4.517 -0.6341 -0.7408  2.7037
12273SOL    HW248039   1.474   7.847   4.569 -0.1344  0.5388 -1.2544
12274SOL     OW48040   8.507   7.254   6.006  0.1733  0.1896 -0.4729
12274SOL    HW148041   8.569   7.192   5.958 -0.4409  1.8208 -3.4716
12274SOL    HW248042   8.558   7.304   6.077  1.6887 -0.3023 -1.1949
12275SOL     OW48043   2.676   2.586   0.019  0.1943  0.0622  0.0383
12275SOL    HW148044   2.579   2.571  -0.000  0.0277  2.0825 -0.7585
12275SOL    HW248045   2.728   2.505  -0.009 -1.3563 -1.4823  1.4559
12276SOL     OW48046   5.485   5.801   1.406 -0.1085  0.1358 -0.0610
12276SOL    HW148047   5.414   5.812   1.476 -0.4743  0.5491 -0.5042
12276SOL    HW248048   5.459   5.850   1.323 -0.6629 -2.0579 -1.2293
12277SOL     OW48049   2.596   8.430   3.689  0.8341 -0.1958 -0.1244
12277SOL    HW148050   2.616   8.458   3.783  0.8438 -1.0914  0.1426
12277SOL    HW248051   2.506   8.387   3.686  0.7376  0.0316 -0.5729
12278SOL     OW48052   7.407   8.846   1.738 -0.6781 -0.1987  0.3693
12278SOL    HW148053   7.444   8.780   1.803 -0.4226  1.5446  2.0501
12278SOL    HW248054   7.309   8.856   1.752 -1.1741 -2.0109 -1.5472
12279SOL     OW48055   7.936   0.701   0.337  0.2296 -0.4531  0.2392
12279SOL    HW148056   7.936   0.650   0.423 -0.6134 -0.8581 -0.0025
12279SOL    HW248057   8.030   0.708   0.303  0.3007 -2.2608  0.0222
12280SOL     OW48058   2.730   1.976   2.561  0.5528  0.7308  0.3935
12280SOL    HW148059   2.801   2.019   2.505  1.1279  1.3550  1.5799
12280SOL    HW248060   2.712   1.884   2.527  0.6459  1.2198 -1.0250
12281SOL     OW48061   5.768   9.912   1.875  0.1781  0.2193  0.2131
12281SOL    HW148062   5.843   9.908   1.809  0.0962  1.8605 -0.0005
12281SOL    HW248063   5.691   9.857   1.842 -0.9426  3.2555 -2.4820
12282SOL     OW48064   9.580   1.768   4.920 -0.3024 -0.0676 -0.0298
12282SOL    HW148065   9.500   1.812   4.878 -1.2089 -1.1644  0.5151
12282SOL    HW248066   9.655   1.768   4.854 -0.4885  1.6825 -0.2704
12283SOL     OW48067   3.554   3.986   0.724  0.4745 -0.0506  0.1518
12283SOL    HW148068   3.470   4.004   0.776  0.3620  0.3335 -0.1532
12283SOL    HW248069   3.633   4.020   0.775  0.4374 -0.3500  0.4089
12284SOL     OW48070   3.455   1.960   6.118 -0.0300  0.1971 -0.1398
12284SOL    HW148071   3.394   1.886   6.147  0.9311 -0.5641 -0.0360
12284SOL    HW248072   3.455   2.032   6.187 -0.9483  0.2854 -0.2256
12285SOL     OW48073   1.359   1.325   2.080 -0.2758 -0.3325 -0.0740
12285SOL    HW148074   1.380   1.229   2.061 -1.2499 -0.2094 -1.9635
12285SOL    HW248075   1.444   1.379   2.080  0.1939 -1.0729  0.2328
12286SOL     OW48076   8.967   0.302   0.396 -0.2087 -0.0644  0.2754
12286SOL    HW148077   8.964   0.339   0.303  0.7024  0.4548  0.4475
12286SOL    HW248078   8.877   0.267   0.421 -0.0013 -2.0188 -1.5428
12287SOL     OW48079   5.149   7.753   3.679  0.0625  0.5545 -0.0029
12287SOL    HW148080   5.052   7.742   3.656  0.4169  0.0817 -1.3437
12287SOL    HW248081   5.188   7.825   3.622  1.1863 -1.2817 -1.6152
12288SOL     OW48082   8.261   7.702   0.892  0.5127  0.5742 -0.7359
12288SOL    HW148083   8.328   7.635   0.861  0.1845  0.0086 -0.2162
12288SOL    HW248084   8.209   7.736   0.814  0.7691  0.3301 -1.0141
12289SOL     OW48085   7.688   2.697   1.964  0.3402 -0.5922  0.7206
12289SOL    HW148086   7.666   2.668   2.057  0.0855 -0.8728  0.5716
12289SOL    HW248087   7.744   2.628   1.920  1.0890 -0.1217  0.9153
12290SOL     OW48088   4.156   0.035   6.613 -0.1779  0.0371 -0.2934
12290SOL    HW148089   4.184   0.128   6.589 -0.6809  0.2069 -0.2418
12290SOL    HW248090   4.065   0.017   6.576  0.9334 -1.3301 -2.4487
12291SOL     OW48091   3.818   3.919   0.546 -0.6476 -0.2816  0.2358
12291SOL    HW148092   3.911   3.955   0.546 -1.1381  0.9973  0.3239
12291SOL    HW248093   3.808   3.854   0.621 -0.0426  0.1321  0.6833
12292SOL     OW48094   7.793   7.532   1.787 -0.2514  0.9132 -0.4645
12292SOL    HW148095   7.781   7.446   1.737  0.5141  0.7632 -0.4084
12292SOL    HW248096   7.852   7.593   1.733 -0.6015  1.3142 -0.3970
12293SOL     OW48097   9.223   4.261   5.476  0.0405  0.0353  0.1362
12293SOL    HW148098   9.204   4.321   5.398  0.1636  0.9236  0.7737
12293SOL    HW248099   9.315   4.279   5.511 -0.4920  0.5958  1.2962
12294SOL     OW48100   0.121   6.604   3.735 -0.0203  0.6225  0.0231
12294SOL    HW148101   0.162   6.664   3.804 -0.0134  1.2163 -0.4946
12294SOL    HW248102   0.033   6.571   3.768 -0.6440  1.9987 -0.2415
12295SOL     OW48103   9.630   7.484   3.070 -0.4187  0.5048  0.2169
12295SOL    HW148104   9.622   7.575   3.110 -0.7330  1.1281 -1.2238
12295SOL    HW248105   9.544   7.435   3.082 -0.7108  0.9098 -0.2281
12296SOL     OW48106   0.446   8.534   5.148  0.4187 -0.1479 -0.0675
12296SOL    HW148107   0.506   8.465   5.107 -0.2967 -1.4270  1.0092
12296SOL    HW248108   0.454   8.531   5.247 -0.2306  0.7510  0.0162
12297SOL     OW48109   0.119   1.336   4.669 -0.1600 -0.2861 -0.1476
12297SOL    HW148110   0.099   1.433   4.657  0.6769 -0.2912 -1.6400
12297SOL    HW248111   0.211   1.325   4.706 -0.4932 -0.5001  0.6356
12298SOL     OW48112   5.060   0.699   2.748  0.5076 -0.1001 -0.1629
12298SOL    HW148113   5.093   0.650   2.668 -0.6016  1.6289 -1.7423
12298SOL    HW248114   5.137   0.731   2.803  1.3110 -0.6138 -0.9884
12299SOL     OW48115   3.116   9.245   6.160  0.6139  0.1057 -0.2075
12299SOL    HW148116   3.038   9.304   6.139  0.0245 -0.3782  0.5883
12299SOL    HW248117   3.124   9.175   6.089  0.7853  0.6037 -0.6872
12300SOL     OW48118   3.905   2.178   6.190 -0.0196  0.3588  0.0969
12300SOL    HW148119   3.824   2.202   6.244 -0.8110  2.3475 -1.9532
12300SOL    HW248120   3.951   2.100   6.234 -2.0076  0.3451  2.2758
12301SOL     OW48121   1.679   5.880   1.161 -0.3797  0.0061  0.0729
12301SOL    HW148122   1.765   5.927   1.180  0.4392 -1.9416  1.2817
12301SOL    HW248123   1.608   5.948   1.141  1.5702  1.6089 -1.6092
12302SOL     OW48124   4.214   6.022   1.678  1.0182  0.1839 -0.4384
12302SOL    HW148125   4.246   6.016   1.584  2.2170  0.3739 -0.0417
12302SOL    HW248126   4.191   6.117   1.699 -0.9829 -0.1248 -1.0954
12303SOL     OW48127   6.930   2.364   5.083  0.0167 -0.5794  0.4969
12303SOL    HW148128   6.925   2.447   5.138  1.3212 -0.2647  0.1557
12303SOL    HW248129   7.014   2.315   5.104 -0.2930 -1.3326  0.0095
12304SOL     OW48130   9.313   9.268   3.172  0.2674  0.6346  0.4584
12304SOL    HW148131   9.258   9.323   3.109 -0.6276 -1.3108 -0.5285
12304SOL    HW248132   9.253   9.211   3.228  1.2071 -0.9484 -0.0868
12305SOL     OW48133   2.283   8.817   1.873  0.3046 -0.0871  0.2795
12305SOL    HW148134   2.353   8.745   1.881  1.2154  0.7715  0.2086
12305SOL    HW248135   2.276   8.865   1.960  0.8924  0.8196 -0.1720
12306SOL     OW48136   7.715   4.436   3.435  0.3522 -0.6733 -0.1029
12306SOL    HW148137   7.796   4.485   3.468  0.6099 -1.2882  0.1844
12306SOL    HW248138   7.648   4.429   3.509 -1.2198  2.4182 -1.1472
12307SOL     OW48139   6.274   8.387   5.113  0.0915 -0.0635  0.1964
12307SOL    HW148140   6.316   8.412   5.200  2.1490  0.4004 -0.9132
12307SOL    HW248141   6.175   8.401   5.118  0.2639  0.4705  2.2722
12308SOL     OW48142   1.721   3.344   2.557 -0.0074  0.0102  0.4879
12308SOL    HW148143   1.796   3.295   2.600  1.3236 -0.4627 -2.2617
12308SOL    HW248144   1.748   3.439   2.540  0.2161 -0.3063 -1.0178
12309SOL     OW48145   5.213   9.148   4.911 -0.0433 -0.0451  0.1510
12309SOL    HW148146   5.144   9.106   4.970  1.0508 -0.7916  0.9241
12309SOL    HW248147   5.301   9.102   4.926 -0.2074 -1.7999 -3.6842
12310SOL     OW48148   7.799   4.460   5.379  0.6813 -0.0530 -0.3516
12310SOL    HW148149   7.708   4.478   5.342  0.4717 -0.1225  0.1225
12310SOL    HW248150   7.866   4.518   5.333  0.2636  0.6605 -0.0615
12311SOL     OW48151   2.045   4.050   2.062 -0.5010 -0.0844 -0.2151
12311SOL    HW148152   2.014   4.026   1.970 -0.4900 -0.2317 -0.1814
12311SOL    HW248153   2.085   4.142   2.061 -1.5963  0.3946 -0.1008
12312SOL     OW48154   3.291   2.561   1.536  0.0355  0.2832 -0.0010
12312SOL    HW148155   3.367   2.519   1.486  0.3101  0.7647  0.0079
12312SOL    HW248156   3.230   2.606   1.471  1.2916  2.3567  0.2288
12313SOL     OW48157   9.203   0.464   6.387 -0.1762 -0.3955 -0.9901
12313SOL    HW148158   9.111   0.503   6.377  0.2839  0.6181 -1.2629
12313SOL    HW248159   9.254   0.517   6.455  0.4369 -0.5580 -1.3307
12314SOL     OW48160   9.862   9.182   0.199  0.2068  0.3521  0.9235
12314SOL    HW148161   9.954   9.177   0.239  0.5910 -0.5490 -0.0326
12314SOL    HW248162   9.855   9.115   0.125 -0.3908  2.1521 -0.6900
12315SOL     OW48163   0.816   1.969   2.105  0.0555 -0.2197 -0.2528
12315SOL    HW148164   0.893   2.020   2.142 -0.1237 -0.7312  0.8659
12315SOL    HW248165   0.764   1.929   2.181  0.6992 -2.8074 -1.1268
12316SOL     OW48166   3.596   0.670   3.780  0.1641  0.2798  0.1818
12316SOL    HW148167   3.612   0.737   3.853 -0.8957 -0.7045  1.3532
12316SOL    HW248168   3.632   0.581   3.808 -0.1810 -0.0902 -0.5328
12317SOL     OW48169   2.831   6.220   3.705  0.5579 -0.0666 -0.3557
12317SOL    HW148170   2.785   6.181   3.785 -0.0806  0.0444 -0.6613
12317SOL    HW248171   2.810   6.165   3.625  0.3968  0.3826 -0.6216
12318SOL     OW48172   4.808   2.245   1.643  0.5616 -0.3510 -0.1370
12318SOL    HW148173   4.845   2.207   1.558  1.6082  0.6742 -0.1472
12318SOL    HW248174   4.882   2.283   1.698 -0.3035  0.4486  0.4956
12319SOL     OW48175   7.586   8.762   2.645  0.1656  0.2971  0.6256
12319SOL    HW148176   7.623   8.855   2.649 -1.4753  0.9767  0.3340
12319SOL    HW248177   7.578   8.734   2.550  2.2182 -0.7948  0.7546
12320SOL     OW48178   1.383   7.994   0.123  0.4374 -0.3367  0.1210
12320SOL    HW148179   1.286   8.005   0.102  0.0865 -2.1963  0.7336
12320SOL    HW248180   1.417   8.078   0.166 -0.9643  0.2075  0.1804
12321SOL     OW48181   3.424   4.174   3.746 -0.0711  0.4288  0.2133
12321SOL    HW148182   3.476   4.097   3.709  0.3906  0.8808 -0.0778
12321SOL    HW248183   3.467   4.204   3.832 -0.1929  0.4231  0.2759
12322SOL     OW48184   8.852   3.049   2.601  0.3628 -0.0695  0.4373
12322SOL    HW148185   8.781   3.086   2.541 -0.4734 -0.0347  1.4448
12322SOL    HW248186   8.831   2.954   2.623  1.1271 -0.3469 -0.0167
12323SOL     OW48187   0.828   1.296   1.378 -0.5993 -0.6690 -0.3202
12323SOL    HW148188   0.848   1.305   1.475 -1.8664 -1.4428  0.0238
12323SOL    HW248189   0.894   1.235   1.335 -0.0517 -0.3381  0.0536
12324SOL     OW48190   2.043   5.884   3.326  0.2211 -0.2566 -0.5560
12324SOL    HW148191   2.097   5.809   3.365 -1.4710 -1.7574 -0.9999
12324SOL    HW248192   2.058   5.887   3.227  0.1860 -0.0810 -0.5558
12325SOL     OW48193   2.484   5.383   2.215 -0.4609 -0.0715 -0.2852
12325SOL    HW148194   2.525   5.471   2.192 -1.4533  1.0789  2.2644
12325SOL    HW248195   2.543   5.335   2.280 -1.3972  0.0291  0.6372
12326SOL     OW48196   0.692   6.201   4.730  0.1193 -0.7083 -0.2366
12326SOL    HW148197   0.722   6.110   4.699  1.3264 -0.8642  1.3123
12326SOL    HW248198   0.673   6.198   4.828  0.6635  0.8169 -0.0677
12327SOL     OW48199   8.393   0.489   0.860 -0.3975  0.0540  0.0635
12327SOL    HW148200   8.375   0.552   0.785 -0.1096 -0.1599 -0.1858
12327SOL    HW248201   8.483   0.507   0.898 -0.3647 -0.1276  0.0704
12328SOL     OW48202   3.249   4.631   4.980  0.4505  0.1201 -0.1196
12328SOL    HW148203   3.212   4.541   5.003 -0.2930  0.1785 -1.0315
12328SOL    HW248204   3.329   4.649   5.036  0.7250 -1.1968 -0.0556
12329SOL     OW48205   0.749   7.949   0.051 -0.0784 -0.3309  0.0287
12329SOL    HW148206   0.703   7.862   0.032 -1.2890  0.2465  0.2615
12329SOL    HW248207   0.728   8.014  -0.022 -0.5671  0.2962  0.7231
12330SOL     OW48208   0.931   8.124   5.096 -0.2948 -0.0613  0.6922
12330SOL    HW148209   0.991   8.126   5.016  0.4800 -2.7464  1.1595
12330SOL    HW248210   0.863   8.197   5.088  2.4303  2.5038 -0.2913
12331SOL     OW48211   1.509   3.024   5.580  0.4132 -0.4995  0.0012
12331SOL    HW148212   1.554   3.065   5.501  0.1977 -0.7088 -0.2310
12331SOL    HW248213   1.476   3.095   5.641 -1.0477 -0.3045 -0.9982
12332SOL     OW48214   3.057   6.002   5.541  0.8812 -0.5201 -0.0514
12332SOL    HW148215   3.133   5.994   5.477  1.9147 -0.1439  1.1084
12332SOL    HW248216   3.053   6.095   5.576 -0.5326 -0.3572 -0.5930
12333SOL     OW48217   0.003   1.101   6.286 -0.2023  0.5681 -0.1338
12333SOL    HW148218   0.028   1.156   6.206 -0.6107  0.0146 -0.6429
12333SOL    HW248219  -0.011   1.006   6.258  0.2022  0.2619  0.6959
12334SOL     OW48220   8.931   4.852   6.423  0.1016 -1.0023 -0.2563
12334SOL    HW148221   8.867   4.836   6.348  0.7516 -0.9010 -0.8351
12334SOL    HW248222   8.885   4.834   6.510 -0.3165 -2.2368 -0.7182
12335SOL     OW48223   4.009   3.255   2.928 -0.1057 -0.1832 -0.2543
12335SOL    HW148224   3.948   3.239   3.006  0.3101 -1.5465 -0.1986
12335SOL    HW248225   4.025   3.354   2.918  0.0952 -0.0124  1.5907
12336SOL     OW48226   4.026   2.217   3.999  0.3923  0.7092 -0.1041
12336SOL    HW148227   4.094   2.261   4.058  0.1116 -1.9027  2.2766
12336SOL    HW248228   4.069   2.143   3.947 -0.2084  0.3476 -0.0970
12337SOL     OW48229   5.570   0.193   3.145  0.2271  0.0228 -0.6205
12337SOL    HW148230   5.473   0.169   3.138 -0.2911  1.7252  0.3746
12337SOL    HW248231   5.588   0.274   3.089  0.8864  0.1818 -0.1827
12338SOL     OW48232   6.797   5.683   5.890  0.2228 -0.7279  0.0744
12338SOL    HW148233   6.835   5.733   5.812 -1.2990  0.6308  0.1582
12338SOL    HW248234   6.863   5.684   5.965 -0.0552  1.9145  0.3526
12339SOL     OW48235   7.833   3.492   3.070 -0.3370  0.3059 -0.5808
12339SOL    HW148236   7.882   3.573   3.040 -0.8342  0.0886 -2.0139
12339SOL    HW248237   7.878   3.410   3.034 -0.7985  0.0267 -0.5317
12340SOL     OW48238   2.280   2.147   3.856  0.3107 -0.3398 -0.0946
12340SOL    HW148239   2.279   2.214   3.930  0.2507 -0.2064 -0.2168
12340SOL    HW248240   2.259   2.192   3.770 -0.3796 -0.6347 -0.0822
12341SOL     OW48241   9.370   6.123   4.018 -0.0827  0.3061 -0.8167
12341SOL    HW148242   9.335   6.143   3.926 -0.0016 -0.5534 -1.0335
12341SOL    HW248243   9.422   6.202   4.051 -0.1543  0.6390 -1.4892
12342SOL     OW48244   4.563   2.510   3.149  0.2273 -0.1047  0.1978
12342SOL    HW148245   4.576   2.609   3.146  0.0781 -0.1022 -0.3875
12342SOL    HW248246   4.622   2.470   3.219  1.5401  0.1925 -0.7405
12343SOL     OW48247   1.247   2.898   5.497 -0.2445 -0.0608  0.1247
12343SOL    HW148248   1.290   2.808   5.489  1.0484  0.7372 -2.2512
12343SOL    HW248249   1.317   2.966   5.520 -0.6801  0.8354 -1.1798
12344SOL     OW48250   0.516   8.325   4.934  0.0273 -0.2481 -0.1428
12344SOL    HW148251   0.419   8.314   4.915 -0.0656  1.1567 -0.5863
12344SOL    HW248252   0.554   8.398   4.877  0.6188  1.3660  2.1976
12345SOL     OW48253   1.980   2.331   0.867  0.6949 -0.4432 -0.5673
12345SOL    HW148254   2.080   2.328   0.867  0.7531  0.8816 -2.0124
12345SOL    HW248255   1.949   2.407   0.924  0.5065 -0.6409 -0.4027
12346SOL     OW48256   0.837   2.932   6.117  0.0058 -0.0551  0.3553
12346SOL    HW148257   0.871   2.843   6.087  0.0635 -0.4383  1.5393
12346SOL    HW248258   0.912   2.984   6.157 -0.5515 -0.4490  1.9247
12347SOL     OW48259   7.120   9.287   3.854  0.2056  0.4101 -0.4465
12347SOL    HW148260   7.045   9.225   3.829  0.3497  0.2629 -0.5115
12347SOL    HW248261   7.191   9.236   3.902 -0.5614  0.8925  1.2466
12348SOL     OW48262   0.088   2.472   5.216 -0.1966 -0.3016  0.1392
12348SOL    HW148263   0.117   2.388   5.263  0.9218 -0.3789 -0.6537
12348SOL    HW248264   0.156   2.543   5.231 -0.9708  0.3603  0.5110
12349SOL     OW48265   8.607   2.472   5.114 -0.2404  0.0180  1.1959
12349SOL    HW148266   8.679   2.463   5.045  1.6799  0.9901  3.0294
12349SOL    HW248267   8.527   2.516   5.073  0.1480 -1.1478 -0.8920
12350SOL     OW48268   2.765   7.503   2.074  0.3692 -0.6098 -0.4310
12350SOL    HW148269   2.719   7.429   2.027 -1.0174 -0.3221  0.4518
12350SOL    HW248270   2.798   7.471   2.163  2.1447 -0.8878 -1.1526
12351SOL     OW48271   8.412   2.991   6.100  0.1507  0.1837 -0.4077
12351SOL    HW148272   8.493   2.954   6.145  0.8632  3.0426  0.7041
12351SOL    HW248273   8.410   2.960   6.005  0.9100 -2.3664  0.3671
12352SOL     OW48274   1.398   3.381   3.011 -0.2387  0.2849 -0.0518
12352SOL    HW148275   1.373   3.335   2.926 -1.3159  1.5155 -0.3997
12352SOL    HW248276   1.327   3.366   3.080  0.7553 -0.9298  0.7234
12353SOL     OW48277   7.544   1.487   0.977  0.8413 -0.4018 -0.3428
12353SOL    HW148278   7.534   1.495   0.877  0.0481  1.6732 -0.1150
12353SOL    HW248279   7.603   1.561   1.010 -1.2487  0.6553  1.0823
12354SOL     OW48280   3.898   9.121   1.017  0.1534 -0.0614 -0.1358
12354SOL    HW148281   3.888   9.023   1.034  0.6902 -0.4068 -1.7385
12354SOL    HW248282   3.834   9.171   1.075 -0.4079 -1.3886  0.4159
12355SOL     OW48283   8.195   7.738   5.250 -0.3736 -0.4365 -0.0009
12355SOL    HW148284   8.285   7.701   5.272 -1.2566 -0.2684  4.2528
12355SOL    HW248285   8.191   7.834   5.275 -1.7583 -0.4511 -0.1309
12356SOL     OW48286   9.109   9.413   2.252  0.2147  0.3678  0.2849
12356SOL    HW148287   9.098   9.465   2.168 -1.2376 -1.8996 -0.9885
12356SOL    HW248288   9.185   9.349   2.242 -0.0744 -0.0354  0.6452
12357SOL     OW48289   1.902   9.834   6.484 -0.0535 -0.1614 -0.2289
12357SOL    HW148290   1.990   9.868   6.449  0.5634 -0.6230  0.8791
12357SOL    HW248291   1.910   9.737   6.504 -0.6617 -0.0768  0.4084
12358SOL     OW48292   0.779   1.366   2.683  1.0437  0.1852 -0.3426
12358SOL    HW148293   0.760   1.427   2.761 -0.6950 -1.5939  0.6617
12358SOL    HW248294   0.878   1.356   2.672  1.3554  2.8170 -0.2486
12359SOL     OW48295   8.442   1.878   2.760  0.2530  0.1341  0.6045
12359SOL    HW148296   8.418   1.838   2.848  0.0359 -0.9150  0.0718
12359SOL    HW248297   8.378   1.953   2.739  1.0872  1.2325  1.9174
12360SOL     OW48298   8.811   8.933   6.465  0.1879 -0.2239  0.3186
12360SOL    HW148299   8.862   8.916   6.549 -1.1838 -0.1328  1.1863
12360SOL    HW248300   8.756   8.852   6.442 -1.2944  0.6094  0.8497
12361SOL     OW48301   0.637   2.946   4.696  0.0731  0.1051 -0.3715
12361SOL    HW148302   0.711   2.969   4.633 -0.0639  0.0901 -0.5402
12361SOL    HW248303   0.573   3.023   4.701  1.1965  0.9500  1.3853
12362SOL     OW48304   2.920   1.955   1.056  0.0960 -0.2226  0.5423
12362SOL    HW148305   2.861   1.875   1.057  0.0858 -0.2190  2.3547
12362SOL    HW248306   3.012   1.928   1.028  0.1453 -0.9199  1.3442
12363SOL     OW48307   0.563   8.640   5.935 -0.0051  0.0771  0.1213
12363SOL    HW148308   0.631   8.627   5.862  0.6298 -0.9843  0.8897
12363SOL    HW248309   0.538   8.551   5.974  1.1798  0.7468  2.5495
12364SOL     OW48310   2.815   5.471   3.859 -0.2022 -0.2421 -0.5742
12364SOL    HW148311   2.760   5.541   3.905  0.0088  0.3919 -1.2685
12364SOL    HW248312   2.911   5.500   3.859 -0.0645 -0.6968 -0.5641
12365SOL     OW48313   8.374   7.793   3.612 -0.5796  0.2968  0.5647
12365SOL    HW148314   8.469   7.764   3.615 -0.6802 -0.0150  0.7424
12365SOL    HW248315   8.331   7.777   3.701 -1.0211 -0.3226  0.2433
12366SOL     OW48316   7.369   5.083   5.439 -0.0359  0.5171 -0.6818
12366SOL    HW148317   7.345   5.049   5.530 -0.6062 -0.9652 -1.3693
12366SOL    HW248318   7.451   5.037   5.406  0.5670  1.5491 -0.6465
12367SOL     OW48319   8.848   1.126   4.941 -0.0040 -0.0722  0.3789
12367SOL    HW148320   8.841   1.180   4.858 -0.4004  0.9966  1.1057
12367SOL    HW248321   8.923   1.161   4.997  0.8730 -1.3781  0.0489
12368SOL     OW48322   9.362   1.782   5.582 -0.1963  0.0502  0.0329
12368SOL    HW148323   9.327   1.697   5.543 -0.6959  0.9495 -1.5221
12368SOL    HW248324   9.389   1.766   5.677 -2.0362 -1.3836  0.3498
12369SOL     OW48325   0.509   1.343   6.018  0.5855  0.1798 -0.2630
12369SOL    HW148326   0.485   1.324   5.923 -0.5759  1.5551 -0.2722
12369SOL    HW248327   0.551   1.262   6.059 -1.8509 -1.4967 -0.9893
12370SOL     OW48328   8.652   6.462   0.398  0.8598  0.1133 -0.1868
12370SOL    HW148329   8.659   6.416   0.309 -0.9427 -3.5999  1.4620
12370SOL    HW248330   8.733   6.439   0.453  0.8060  0.3874  0.0076
12371SOL     OW48331   9.046   0.860   0.735  0.2321 -0.3283  0.3612
12371SOL    HW148332   8.959   0.910   0.733 -0.0557 -0.8507 -1.1097
12371SOL    HW248333   9.119   0.918   0.699  0.2862 -0.2521  0.5983
12372SOL     OW48334   9.382   7.779   5.891  0.0043  0.1799 -0.3261
12372SOL    HW148335   9.435   7.808   5.971  1.5283  0.3543 -1.3755
12372SOL    HW248336   9.286   7.804   5.904  0.6093  2.2307  0.5011
12373SOL     OW48337   2.584   7.982   1.895  0.3419 -0.3658 -0.1024
12373SOL    HW148338   2.546   8.062   1.942 -1.5303 -0.5754 -1.2173
12373SOL    HW248339   2.607   7.912   1.963 -0.8218 -0.0390  0.6615
12374SOL     OW48340   9.274   4.740   5.454 -0.4187 -0.2931  1.0012
12374SOL    HW148341   9.322   4.763   5.369 -3.2653 -1.9960 -1.1710
12374SOL    HW248342   9.188   4.791   5.459 -0.2042 -0.0824  2.9781
12375SOL     OW48343   7.742   1.041   2.715 -0.9157  0.5563  0.5644
12375SOL    HW148344   7.746   1.017   2.618 -3.7290  1.2914  0.2113
12375SOL    HW248345   7.791   0.972   2.768  1.7521  0.8173 -1.4557
12376SOL     OW48346   1.204   5.104   5.405 -0.2929  0.0204 -0.9359
12376SOL    HW148347   1.225   5.139   5.314  2.6342 -2.7837 -1.4218
12376SOL    HW248348   1.169   5.010   5.398  1.2178 -0.7169  0.8570
12377SOL     OW48349   9.633   3.434   4.733  0.4478 -0.2940  0.2929
12377SOL    HW148350   9.730   3.413   4.749  0.5334 -0.0658  0.0805
12377SOL    HW248351   9.577   3.378   4.793  0.7600  0.3570  1.2022
12378SOL     OW48352   8.003   4.668   5.294 -0.5251  0.3471  0.2575
12378SOL    HW148353   8.030   4.647   5.200  2.1919 -1.4009  1.3716
12378SOL    HW248354   8.018   4.766   5.312 -2.9235  1.1304 -1.6612
12379SOL     OW48355   2.722   0.690   4.291 -0.3213  0.0639 -0.7015
12379SOL    HW148356   2.686   0.638   4.214 -0.7404 -2.2302  0.9785
12379SOL    HW248357   2.795   0.638   4.336 -0.9436  0.7566  1.1912
12380SOL     OW48358   2.129   6.535   1.989  0.2540 -0.2434 -0.0519
12380SOL    HW148359   2.099   6.455   2.041 -0.0466 -0.4431 -0.5354
12380SOL    HW248360   2.187   6.505   1.913  0.7039  0.0501  0.1789
12381SOL     OW48361   0.635   7.910   4.134  0.0266  0.0503  0.0301
12381SOL    HW148362   0.630   7.878   4.040 -2.1091  1.2455 -0.2893
12381SOL    HW248363   0.548   7.892   4.180  0.6581  0.5125  1.4212
12382SOL     OW48364   6.961   6.914   4.290  0.9656  0.5596  0.0140
12382SOL    HW148365   7.016   6.840   4.250 -1.2466 -0.9649 -0.2671
12382SOL    HW248366   6.937   6.891   4.384  0.3589  0.9817 -0.0376
12383SOL     OW48367   6.619   0.655   2.204 -0.2968  0.1677 -0.2789
12383SOL    HW148368   6.663   0.596   2.137 -1.3067 -0.2939 -0.5502
12383SOL    HW248369   6.640   0.751   2.183  0.0523 -0.0182 -0.7784
12384SOL     OW48370   3.329   2.734   6.304 -0.5045  0.8615 -0.6053
12384SOL    HW148371   3.415   2.684   6.295 -0.0926  1.4659 -0.0699
12384SOL    HW248372   3.347   2.828   6.333 -1.5572 -0.0819  3.3709
12385SOL     OW48373   7.672   3.355   5.560 -0.5421 -0.4258 -0.4151
12385SOL    HW148374   7.579   3.339   5.527 -0.5098 -4.5367  1.2386
12385SOL    HW248375   7.737   3.329   5.488 -0.6097  1.5713 -1.2299
12386SOL     OW48376   2.169   7.798   0.421  0.6475 -0.1348 -0.2123
12386SOL    HW148377   2.095   7.810   0.487  1.6382 -0.5504  0.9797
12386SOL    HW248378   2.135   7.819   0.329 -0.8813 -0.0925  0.3530
12387SOL     OW48379   2.449   3.683   4.916  0.1605 -0.5849 -0.2068
12387SOL    HW148380   2.358   3.716   4.891  0.5548  0.0649 -0.7829
12387SOL    HW248381   2.491   3.637   4.838  0.2531 -1.0490  0.1150
12388SOL     OW48382   2.025   6.577   5.404  0.2731  0.0205  0.0704
12388SOL    HW148383   1.993   6.611   5.492 -0.0693 -0.8148  0.2762
12388SOL    HW248384   2.093   6.640   5.366 -0.1608  0.7836  0.5613
12389SOL     OW48385   2.141   0.027   2.254  0.4493 -0.2715 -0.6104
12389SOL    HW148386   2.057   0.058   2.299 -0.1044 -1.0400 -1.1151
12389SOL    HW248387   2.220   0.059   2.306 -0.1717 -0.3545  0.3927
12390SOL     OW48388   0.049   1.623   6.693  0.0700  0.5470 -0.2505
12390SOL    HW148389   0.135   1.604   6.645 -0.1116 -0.1319 -0.3145
12390SOL    HW248390   0.061   1.605   6.791  0.9425  3.5498  0.2656
12391SOL     OW48391   4.331   0.911   3.851  0.0816  0.5315 -0.1861
12391SOL    HW148392   4.314   0.853   3.772 -0.6290  1.2961 -0.6129
12391SOL    HW248393   4.405   0.975   3.830  0.7833 -0.1514  0.2385
12392SOL     OW48394   2.677   8.301   4.128  0.1073  0.1479  0.2557
12392SOL    HW148395   2.638   8.225   4.076  1.9258 -0.4731 -0.2380
12392SOL    HW248396   2.640   8.299   4.221 -0.3898 -0.9309  0.0518
12393SOL     OW48397   8.578   7.589   1.907 -0.6449  0.0078 -0.3290
12393SOL    HW148398   8.491   7.621   1.869 -1.4685 -0.0167  1.4830
12393SOL    HW248399   8.561   7.535   1.990  1.0637 -0.5080 -0.2827
12394SOL     OW48400   8.102   1.783   1.109 -0.4142 -0.5576 -0.0827
12394SOL    HW148401   8.141   1.770   1.201  0.2408  0.5764 -0.1807
12394SOL    HW248402   8.064   1.875   1.103 -0.1461 -0.5106 -1.0573
12395SOL     OW48403   0.084   8.909   6.020 -0.2581  0.0599  0.2026
12395SOL    HW148404   0.029   8.880   6.098  0.2541 -0.0207  0.5310
12395SOL    HW248405   0.059   9.002   5.994 -0.5040  0.0448  0.3917
12396SOL     OW48406   0.004   8.239   4.912  0.0151 -0.3264  0.3008
12396SOL    HW148407  -0.058   8.283   4.847 -1.0405  0.1157  1.5941
12396SOL    HW248408   0.098   8.256   4.885 -0.4078  0.2817 -0.8263
12397SOL     OW48409   9.145   6.322   4.647 -0.3065  0.1559  0.0118
12397SOL    HW148410   9.146   6.411   4.602 -1.1150  0.1090 -0.1000
12397SOL    HW248411   9.170   6.334   4.744  1.2364  0.2784 -0.3946
12398SOL     OW48412   4.641   8.708   3.209  0.0857  0.1990 -0.3599
12398SOL    HW148413   4.714   8.770   3.181 -0.9641  0.7230 -1.9626
12398SOL    HW248414   4.656   8.680   3.304  2.7509 -0.2777 -0.8898
12399SOL     OW48415   7.983   4.913   2.628  0.4367  0.0999  0.2778
12399SOL    HW148416   8.023   4.824   2.651 -2.7627 -1.1444  1.3024
12399SOL    HW248417   7.968   4.919   2.530 -0.4629 -1.0201  0.3346
12400SOL     OW48418   7.262   4.786   0.039 -0.2242  0.3906 -0.3132
12400SOL    HW148419   7.286   4.832  -0.046 -1.4733  0.9347 -0.3820
12400SOL    HW248420   7.215   4.851   0.099 -1.7562 -0.7118 -0.3055
12401SOL     OW48421   8.091   3.041   1.946 -0.3224  0.3431  0.2408
12401SOL    HW148422   8.000   3.011   1.917 -0.8610  1.6502  0.5284
12401SOL    HW248423   8.101   3.139   1.929  0.3285  0.5999  1.9512
12402SOL     OW48424   2.697   8.835   0.613 -0.2542 -0.0126 -0.1202
12402SOL    HW148425   2.655   8.915   0.655 -0.7073 -0.6258  0.6111
12402SOL    HW248426   2.746   8.862   0.530 -1.7875  0.7761 -0.7881
12403SOL     OW48427   3.158   3.196   3.452  0.1519  0.5352  0.5477
12403SOL    HW148428   3.228   3.256   3.493  1.0646  0.3257 -0.6875
12403SOL    HW248429   3.137   3.228   3.360  1.1539 -1.4490 -0.3899
12404SOL     OW48430   1.797   0.975   2.453 -0.5742  0.3026 -0.2372
12404SOL    HW148431   1.863   1.028   2.400 -0.7443  0.1498 -0.6058
12404SOL    HW248432   1.773   1.024   2.537 -2.9258  2.1762 -1.9443
12405SOL     OW48433   0.509   5.335   0.232  0.0059 -0.1459  0.3275
12405SOL    HW148434   0.592   5.390   0.245  0.4500 -0.8601  0.5752
12405SOL    HW248435   0.444   5.385   0.176  0.6520  0.3869  0.0477
12406SOL     OW48436   5.612   1.109   1.055 -0.2449  0.0466  0.0784
12406SOL    HW148437   5.602   1.016   1.092  0.3835  0.3947  1.1503
12406SOL    HW248438   5.612   1.105   0.955  2.2619 -1.4396  0.0711
12407SOL     OW48439   9.965   0.714   5.354  0.5312  0.2044 -0.2046
12407SOL    HW148440  10.011   0.796   5.318 -0.7310  0.4928 -1.1719
12407SOL    HW248441   9.963   0.718   5.454 -1.2054  2.2946 -0.2976
12408SOL     OW48442   4.443   3.535   2.558 -0.4091  0.5002 -0.4837
12408SOL    HW148443   4.533   3.528   2.517 -0.0922 -1.3653  0.4761
12408SOL    HW248444   4.445   3.601   2.634  0.8146 -1.4138  1.1996
12409SOL     OW48445   7.128   5.699   5.683 -0.0641  0.8131 -0.2672
12409SOL    HW148446   7.069   5.704   5.602  1.1648  2.4296 -1.0925
12409SOL    HW248447   7.139   5.603   5.710 -1.3215  0.3353 -1.3809
12410SOL     OW48448   0.608   3.938   2.509 -0.1963  0.1476 -0.1808
12410SOL    HW148449   0.599   4.037   2.517  1.3511  0.4869 -2.0557
12410SOL    HW248450   0.573   3.894   2.591  1.2387  2.3868  1.7038
12411SOL     OW48451   8.940   5.414   2.772  0.0569  0.3412 -0.2217
12411SOL    HW148452   8.969   5.500   2.816  1.1447  0.3100 -0.8526
12411SOL    HW248453   8.879   5.435   2.696  0.8420  0.6133 -0.7895
12412SOL     OW48454   3.617   8.344   1.883  0.0701 -0.3709  0.0018
12412SOL    HW148455   3.639   8.290   1.801 -1.7186  0.4702 -1.0596
12412SOL    HW248456   3.535   8.307   1.926  1.4465 -1.2904  1.8990
12413SOL     OW48457   9.039   6.718   2.675 -0.1265 -0.3412 -0.2240
12413SOL    HW148458   9.121   6.661   2.682  0.3189  0.3920  0.6968
12413SOL    HW248459   9.065   6.810   2.645 -0.4539  0.2265  1.1907
12414SOL     OW48460   0.394   6.650   2.758 -0.0591  0.3126 -0.6115
12414SOL    HW148461   0.311   6.655   2.813  0.6551  1.7560  0.3558
12414SOL    HW248462   0.452   6.575   2.792  0.4755  1.3277  0.7709
12415SOL     OW48463   8.933   3.258   6.657 -0.1446 -0.4500  0.5705
12415SOL    HW148464   8.851   3.257   6.600 -0.9003  1.0930  1.5890
12415SOL    HW248465   8.907   3.261   6.753  1.0575  2.2690  0.8623
12416SOL     OW48466   2.019   1.829   5.843 -0.0981 -0.0166  0.1690
12416SOL    HW148467   2.117   1.811   5.833  0.3650  2.1259  0.6773
12416SOL    HW248468   1.983   1.865   5.756 -0.2370  0.0777  0.2650
12417SOL     OW48469   1.276   3.438   1.713  0.0705  0.2131 -0.2847
12417SOL    HW148470   1.332   3.355   1.713 -0.7261 -0.3310  1.3503
12417SOL    HW248471   1.179   3.413   1.723 -0.1213  1.3809  0.7704
12418SOL     OW48472   2.755   2.251   4.554  0.5072 -0.1165  0.5514
12418SOL    HW148473   2.766   2.197   4.637  0.6334 -0.9346  0.0034
12418SOL    HW248474   2.697   2.330   4.574  1.9095  0.6367  1.8365
12419SOL     OW48475   5.348   0.217   5.243 -0.2365  1.3107  0.1065
12419SOL    HW148476   5.347   0.265   5.331  1.1720 -0.4217  1.0873
12419SOL    HW248477   5.257   0.183   5.222 -0.0315 -0.6223  2.2295
12420SOL     OW48478   3.693   0.027   3.262  0.3666  0.2185 -0.6906
12420SOL    HW148479   3.723  -0.059   3.303  0.1503 -0.2309 -1.4800
12420SOL    HW248480   3.624   0.069   3.321  0.7197  0.0278 -0.1309
12421SOL     OW48481   6.064   8.126   2.559  0.1143  0.1167 -0.0507
12421SOL    HW148482   6.115   8.041   2.568 -0.1123  0.0255  0.3512
12421SOL    HW248483   5.966   8.108   2.567  0.1217  0.5681  1.0701
12422SOL     OW48484   0.461   6.305   4.706  0.1663  0.0996 -0.1889
12422SOL    HW148485   0.433   6.370   4.777 -1.2185 -1.1255  0.4312
12422SOL    HW248486   0.555   6.275   4.723  0.1196  0.4263  0.6587
12423SOL     OW48487   4.052   8.894   1.212 -0.2355  0.3481 -0.1248
12423SOL    HW148488   4.125   8.906   1.144 -0.5702 -0.1186 -0.5607
12423SOL    HW248489   3.965   8.879   1.166 -0.3754 -0.5046  0.4031
12424SOL     OW48490   0.692   7.186   2.878 -0.2287 -0.1298 -0.5145
12424SOL    HW148491   0.684   7.250   2.801 -2.3803 -1.7568 -1.6848
12424SOL    HW248492   0.749   7.109   2.851  2.5050  1.3012  0.9563
12425SOL     OW48493   9.359   8.973   4.998  0.1736 -0.4611 -0.7865
12425SOL    HW148494   9.357   9.072   4.983 -0.3227 -0.2671  0.4517
12425SOL    HW248495   9.410   8.928   4.924 -0.7751  0.5800 -2.0946
12426SOL     OW48496   2.929   7.187   6.376  0.1228  0.1477 -0.3453
12426SOL    HW148497   2.949   7.269   6.322 -0.3800  0.5571  0.0937
12426SOL    HW248498   2.907   7.213   6.470 -0.4224 -0.4629 -0.3020
12427SOL     OW48499   4.673   1.504   1.199 -0.2724 -0.4279 -0.0025
12427SOL    HW148500   4.639   1.591   1.164 -0.0086  0.8698  2.8610
12427SOL    HW248501   4.596   1.442   1.216 -1.0107  1.2265  3.0656
12428SOL     OW48502   1.863   2.380   6.166  0.4931  0.0118 -0.5020
12428SOL    HW148503   1.838   2.461   6.114 -0.6305  0.0022  0.0105
12428SOL    HW248504   1.809   2.376   6.250 -1.6675 -2.8585 -1.9662
12429SOL     OW48505   8.767   9.761   1.702 -0.3369 -0.0394  0.6027
12429SOL    HW148506   8.726   9.851   1.718  0.2660  0.7672 -2.0729
12429SOL    HW248507   8.867   9.770   1.700 -0.2846 -0.6645 -0.1391
12430SOL     OW48508   9.392   0.800   3.026  0.6489 -0.3189  0.4428
12430SOL    HW148509   9.442   0.777   2.943  1.4027 -1.0610  1.0953
12430SOL    HW248510   9.385   0.899   3.035  2.7714 -0.1872  0.7891
12431SOL     OW48511   3.689   9.645   3.621 -0.3600 -0.0427 -0.3927
12431SOL    HW148512   3.589   9.651   3.624 -0.3304  0.1707  0.5907
12431SOL    HW248513   3.721   9.592   3.700  0.3082  0.0317 -0.6155
12432SOL     OW48514   1.590   0.454   1.649  0.0943  0.2651 -0.5338
12432SOL    HW148515   1.651   0.480   1.724 -1.5534  0.7333  0.6825
12432SOL    HW248516   1.495   0.460   1.680 -0.6024  0.1012 -2.5557
12433SOL     OW48517   2.827   1.736   5.937 -0.1831 -0.7651 -0.4729
12433SOL    HW148518   2.750   1.719   5.999 -0.1632  0.9731  0.0396
12433SOL    HW248519   2.903   1.675   5.962 -0.6273 -0.9680  0.4045
12434SOL     OW48520   1.699   6.495   6.227 -0.2489  0.4538 -0.0671
12434SOL    HW148521   1.680   6.559   6.301 -0.7981  0.0598  0.1342
12434SOL    HW248522   1.704   6.402   6.263 -0.0598  0.3123 -0.4545
12435SOL     OW48523   9.693   9.092   5.202 -0.0171  0.2970 -0.1286
12435SOL    HW148524   9.679   9.075   5.299 -0.5119  3.8826  0.4846
12435SOL    HW248525   9.630   9.162   5.171 -1.8058 -2.7426 -3.7498
12436SOL     OW48526   3.517   1.535   2.679 -0.3396 -0.4508 -0.7771
12436SOL    HW148527   3.433   1.542   2.625 -0.0561  0.3436 -1.1271
12436SOL    HW248528   3.592   1.580   2.629 -0.0006 -0.0096  0.1314
12437SOL     OW48529   3.613   6.503   2.336 -0.1562  0.6137 -0.1835
12437SOL    HW148530   3.680   6.567   2.299 -0.7675  0.6028 -1.3649
12437SOL    HW248531   3.581   6.535   2.425  1.2619  0.7158  0.2959
12438SOL     OW48532   1.888   6.786   3.255  0.3744 -0.0823 -0.4827
12438SOL    HW148533   1.873   6.739   3.342  3.4824 -1.1578 -0.4607
12438SOL    HW248534   1.800   6.799   3.209 -1.2523 -0.1123  2.4603
12439SOL     OW48535   6.173   8.486   3.301  0.3127  0.5959  0.0072
12439SOL    HW148536   6.168   8.420   3.226 -0.5728  0.2737  0.3409
12439SOL    HW248537   6.080   8.510   3.331  0.6363  1.4489  0.3663
12440SOL     OW48538   7.185   2.268   3.516 -0.0514 -0.6881 -0.1807
12440SOL    HW148539   7.152   2.174   3.517 -1.0224 -0.3416  1.4419
12440SOL    HW248540   7.196   2.301   3.610  1.4920  0.4039 -0.7225
12441SOL     OW48541   5.984   0.986   4.684  0.2920  0.6728 -0.0104
12441SOL    HW148542   6.035   1.034   4.613 -2.0792  0.7880 -1.7062
12441SOL    HW248543   5.897   1.033   4.700 -0.4842 -1.0217  0.8756
12442SOL     OW48544   1.139   9.191   0.417  0.1907  0.1547  0.4433
12442SOL    HW148545   1.156   9.276   0.467 -2.4729  1.1770 -0.2915
12442SOL    HW248546   1.096   9.125   0.479 -0.7206  0.5132  0.2103
12443SOL     OW48547   2.840   6.629   5.295 -0.0382  0.2983  0.4919
12443SOL    HW148548   2.936   6.645   5.274 -0.0436 -0.0971  0.1710
12443SOL    HW248549   2.785   6.648   5.213 -0.1236 -0.5902  0.3437
12444SOL     OW48550   5.561   1.478   0.576 -0.0203  0.3365 -0.2204
12444SOL    HW148551   5.604   1.487   0.665 -0.1028 -0.0960 -0.1348
12444SOL    HW248552   5.628   1.443   0.510 -0.1327  0.0453 -0.1796
12445SOL     OW48553   9.112   2.281   6.252  0.0858  0.0685  0.4472
12445SOL    HW148554   9.118   2.183   6.234  1.0887  0.1670  0.1746
12445SOL    HW248555   9.036   2.300   6.314 -0.6949 -0.7730 -0.2634
12446SOL     OW48556   7.101   2.259   5.905 -0.1034  0.1177 -0.1619
12446SOL    HW148557   7.132   2.317   5.980  0.9058  0.8686 -1.1447
12446SOL    HW248558   7.137   2.167   5.916 -0.2314  0.1450  0.4563
12447SOL     OW48559   1.555   0.979   6.174  0.6768  0.1107 -0.5713
12447SOL    HW148560   1.626   0.919   6.138  0.6662  0.9070 -1.9497
12447SOL    HW248561   1.580   1.009   6.266  0.3195 -2.5933  0.4635
12448SOL     OW48562   2.846   9.804   0.332 -0.5427 -0.5542 -0.3663
12448SOL    HW148563   2.931   9.771   0.289 -0.9472 -0.7762 -0.9920
12448SOL    HW248564   2.810   9.881   0.280 -0.5452 -0.2408  0.0976
12449SOL     OW48565   5.087   3.796   1.071 -0.5906 -0.1423 -0.0015
12449SOL    HW148566   5.107   3.774   1.167  1.9739 -1.1696 -0.7229
12449SOL    HW248567   5.000   3.756   1.045 -0.5535 -1.2243  1.4535
12450SOL     OW48568   1.726   4.971   6.666 -0.3822 -0.1257  0.1117
12450SOL    HW148569   1.791   5.044   6.642  0.8873 -1.2073  0.1884
12450SOL    HW248570   1.651   5.010   6.720  0.8027  0.9701  1.0294
12451SOL     OW48571   4.491   7.985   4.450 -0.0376 -0.6900 -0.0943
12451SOL    HW148572   4.433   7.952   4.376 -0.3041 -2.4603  0.8801
12451SOL    HW248573   4.434   8.016   4.526  0.2613 -0.3495 -0.0078
12452SOL     OW48574   6.279   9.621   3.872  0.7447  0.2879  0.1444
12452SOL    HW148575   6.182   9.644   3.873  0.5338 -0.2187 -3.0040
12452SOL    HW248576   6.296   9.545   3.935 -0.9850  0.0776  0.3778
12453SOL     OW48577   4.266   5.198   1.975 -0.2361 -0.5815 -0.0080
12453SOL    HW148578   4.302   5.288   1.952  1.3609 -1.4256 -0.8697
12453SOL    HW248579   4.220   5.202   2.064 -1.2173  1.3390 -0.5980
12454SOL     OW48580   0.229   7.203   0.708 -0.0456  0.7926 -0.2475
12454SOL    HW148581   0.140   7.249   0.720  0.5647  1.7518  0.7159
12454SOL    HW248582   0.219   7.105   0.724 -0.9230  0.9025 -0.1089
12455SOL     OW48583   3.352   5.015   5.729 -0.5390 -0.4970  0.0955
12455SOL    HW148584   3.415   4.937   5.723 -1.0901 -0.9738  0.4166
12455SOL    HW248585   3.293   5.003   5.808 -0.0928  0.6569  0.6026
12456SOL     OW48586   2.675   0.295   5.272 -0.5715 -0.3636 -0.0226
12456SOL    HW148587   2.676   0.227   5.198  2.6687 -0.9702  0.5062
12456SOL    HW248588   2.716   0.380   5.239 -0.3092 -0.2183  0.6758
12457SOL     OW48589   1.209   9.190   1.373 -0.0747 -0.9886  0.4338
12457SOL    HW148590   1.299   9.202   1.415  0.1503 -0.1826 -0.2601
12457SOL    HW248591   1.156   9.274   1.383 -0.0613 -0.8360 -0.7900
12458SOL     OW48592   7.505   6.520   3.843 -0.3091 -0.2167  0.3820
12458SOL    HW148593   7.456   6.484   3.922  0.2613 -1.3214  0.2511
12458SOL    HW248594   7.549   6.444   3.794  0.7466  0.6517 -0.0303
12459SOL     OW48595   1.848   6.497   2.207 -0.2147  0.8539  0.2367
12459SOL    HW148596   1.812   6.524   2.117  1.3971  0.3882 -0.5711
12459SOL    HW248597   1.906   6.570   2.243  0.7662  0.2159 -0.0306
12460SOL     OW48598   6.385   5.284   0.269 -0.0186 -0.1036 -0.1714
12460SOL    HW148599   6.460   5.218   0.274  1.8220  1.9522 -0.2685
12460SOL    HW248600   6.333   5.281   0.355  1.1320 -0.4100  0.5292
12461SOL     OW48601   9.501   0.128   3.624  0.1618  0.0136 -0.1008
12461SOL    HW148602   9.516   0.048   3.566 -2.1926 -0.0447 -0.6702
12461SOL    HW248603   9.589   0.171   3.644  1.1913 -0.9453 -2.3328
12462SOL     OW48604   1.181   6.032   1.110  0.2485 -0.3697 -0.6565
12462SOL    HW148605   1.237   5.950   1.115 -1.1526 -1.2680  0.6600
12462SOL    HW248606   1.195   6.088   1.192 -1.6186 -1.1752  0.2317
12463SOL     OW48607   6.978   0.320   3.979  0.9005 -0.0049 -0.6673
12463SOL    HW148608   6.918   0.242   3.958  1.6781 -0.7764 -0.0409
12463SOL    HW248609   6.936   0.376   4.051  0.9464 -0.5540 -0.2136
12464SOL     OW48610   4.625   4.837   6.588  0.3753 -0.2324 -0.2255
12464SOL    HW148611   4.578   4.834   6.676  0.7528 -2.4085 -0.0455
12464SOL    HW248612   4.581   4.903   6.528 -0.9380  0.0394  1.0068
12465SOL     OW48613   1.195   4.282   1.492  0.4590  0.2550  0.2198
12465SOL    HW148614   1.278   4.228   1.474  0.5532  1.0216 -1.8090
12465SOL    HW248615   1.220   4.365   1.541  0.8523  0.3349 -0.1118
12466SOL     OW48616   3.782   9.032   5.766 -0.1086  0.3290  0.0812
12466SOL    HW148617   3.787   9.009   5.669  0.8398 -1.1551  0.4629
12466SOL    HW248618   3.873   9.054   5.801 -0.2165 -0.4916  0.9280
12467SOL     OW48619   3.047   1.092   5.248  0.0382  0.2767  0.1008
12467SOL    HW148620   3.048   0.992   5.254 -0.5886  0.2197 -0.6947
12467SOL    HW248621   2.981   1.129   5.313  0.6008  0.2005  0.7192
12468SOL     OW48622   9.398   0.089   1.157 -0.1252  0.3626 -0.1450
12468SOL    HW148623   9.347   0.014   1.115 -1.5479  2.4906 -2.3373
12468SOL    HW248624   9.495   0.079   1.137 -0.4528 -0.2093 -1.4833
12469SOL     OW48625   9.643   9.479   0.411 -0.1109 -0.2244  0.3171
12469SOL    HW148626   9.582   9.476   0.491 -1.9595  0.3011 -1.0219
12469SOL    HW248627   9.613   9.412   0.344 -0.2243  1.1852 -1.0615
12470SOL     OW48628   1.349   9.133   3.618 -0.1276  0.3628 -0.2165
12470SOL    HW148629   1.271   9.191   3.637 -1.3036 -1.5418  0.9766
12470SOL    HW248630   1.319   9.037   3.614  2.2033 -0.4481  0.8109
12471SOL     OW48631   2.149   3.811   1.252  0.1139 -0.0909 -0.1253
12471SOL    HW148632   2.198   3.839   1.169 -0.8136  1.4762 -0.1708
12471SOL    HW248633   2.074   3.875   1.269 -0.0315 -0.7087  1.6384
12472SOL     OW48634   1.665   8.787   5.310  0.1146 -0.3680  0.6385
12472SOL    HW148635   1.632   8.773   5.216 -2.4170  2.5223  1.0225
12472SOL    HW248636   1.737   8.857   5.310  0.7740 -1.0457  0.7402
12473SOL     OW48637   2.136   4.786   1.555  0.6052 -0.2746 -0.0210
12473SOL    HW148638   2.108   4.770   1.460  0.2021  1.3637 -0.1851
12473SOL    HW248639   2.120   4.881   1.579  2.6847 -0.1648  1.0367
12474SOL     OW48640   3.103   9.849   5.763  0.7321  0.1805  0.9054
12474SOL    HW148641   3.010   9.865   5.732  1.3480  1.5474 -0.3021
12474SOL    HW248642   3.153   9.936   5.767  1.8094 -0.4599  2.0300
12475SOL     OW48643   2.596   7.330   3.246  0.2460  0.1457 -0.4107
12475SOL    HW148644   2.531   7.377   3.187 -1.0959  0.8133  1.5374
12475SOL    HW248645   2.655   7.397   3.291 -2.4716  0.2055  3.3103
12476SOL     OW48646   5.964   0.987   2.723  0.0304 -0.0930  0.3912
12476SOL    HW148647   6.059   0.997   2.695  0.3891  1.0825  1.9477
12476SOL    HW248648   5.907   0.972   2.642  1.0736  2.7417 -0.9425
12477SOL     OW48649   0.800   0.655   5.921 -0.4062 -0.4120  0.3608
12477SOL    HW148650   0.735   0.654   5.997 -1.1369  0.9292 -0.2221
12477SOL    HW248651   0.810   0.563   5.883 -0.1633 -1.0499  1.9704
12478SOL     OW48652   7.608   9.386   4.087  0.5446  0.1015  0.3604
12478SOL    HW148653   7.653   9.391   4.177 -1.6884 -0.0135  1.5060
12478SOL    HW248654   7.582   9.477   4.057  2.3031  0.2763 -0.7443
12479SOL     OW48655   2.330   1.776   1.331  0.1287 -0.0584 -0.4660
12479SOL    HW148656   2.425   1.780   1.298  0.1685  2.0967 -0.1750
12479SOL    HW248657   2.295   1.869   1.343 -2.6192 -0.8258 -2.2073
12480SOL     OW48658   9.499   0.177   3.270  0.0575  0.4864 -0.3405
12480SOL    HW148659   9.554   0.097   3.244  0.5128  0.4981  0.5567
12480SOL    HW248660   9.495   0.183   3.370 -1.2412  0.7211 -0.4005
12481SOL     OW48661   7.835   7.848   1.877 -0.5733  0.0249  0.2928
12481SOL    HW148662   7.851   7.934   1.828 -1.7476 -0.1771 -0.4700
12481SOL    HW248663   7.850   7.771   1.815 -1.3556 -0.2549  0.4447
12482SOL     OW48664   2.192   6.536   3.114  0.0874 -0.2053  0.1743
12482SOL    HW148665   2.203   6.535   3.015 -1.6938  2.4375 -0.1186
12482SOL    HW248666   2.118   6.473   3.140 -0.0729 -0.2083 -0.2843
12483SOL     OW48667   4.270   1.932   4.630  0.1915 -0.6599  0.0396
12483SOL    HW148668   4.173   1.944   4.609  1.0400  2.1064 -2.7777
12483SOL    HW248669   4.287   1.837   4.655 -3.5536 -0.7624  2.6526
12484SOL     OW48670   8.818   8.440   1.039 -0.2034 -0.1614  0.4063
12484SOL    HW148671   8.839   8.454   0.943  1.0237  1.1923  0.8416
12484SOL    HW248672   8.764   8.517   1.073 -1.2915 -1.0064  0.6195
12485SOL     OW48673   2.912   0.687   5.836 -0.1942  0.4829  0.0004
12485SOL    HW148674   2.849   0.725   5.769 -0.5388 -0.1923 -0.0584
12485SOL    HW248675   2.887   0.718   5.928 -2.3133 -2.0034  0.3055
12486SOL     OW48676   4.292   2.820   2.249 -0.0516  0.1558 -0.2619
12486SOL    HW148677   4.324   2.904   2.293 -0.9006  0.9594 -1.1417
12486SOL    HW248678   4.365   2.752   2.249  0.4983  0.7347  0.8747
12487SOL     OW48679   4.754   8.447   2.562  0.5908 -0.6566 -0.7050
12487SOL    HW148680   4.759   8.401   2.473  3.2476 -1.7238 -0.0648
12487SOL    HW248681   4.734   8.380   2.633  0.8614 -0.2224 -0.2142
12488SOL     OW48682   1.505   1.071   1.560  0.2884 -0.3933 -0.7061
12488SOL    HW148683   1.503   0.974   1.540 -0.1397 -0.1309 -1.9645
12488SOL    HW248684   1.419   1.098   1.605  1.0141 -0.8668  1.0149
12489SOL     OW48685   2.667   5.057   2.406  0.3340 -0.1980 -0.7762
12489SOL    HW148686   2.705   5.022   2.492 -1.1907  0.1419  0.0383
12489SOL    HW248687   2.688   5.154   2.397  2.0146 -0.6074 -1.6496
12490SOL     OW48688   2.907   0.397   6.085  0.0070 -0.3907 -0.3000
12490SOL    HW148689   2.940   0.303   6.095  0.2080 -0.2121  0.7997
12490SOL    HW248690   2.885   0.435   6.175 -0.4890  0.4715 -0.7720
12491SOL     OW48691   8.262   7.787   2.968 -0.1175  0.0918  0.3375
12491SOL    HW148692   8.212   7.779   3.054 -2.2530  1.7761 -0.7130
12491SOL    HW248693   8.252   7.879   2.932 -0.1547 -0.8914 -2.2702
12492SOL     OW48694   9.559   7.374   4.450  0.4435  0.2859  0.0714
12492SOL    HW148695   9.488   7.373   4.520  2.3825  2.8618  2.2066
12492SOL    HW248696   9.643   7.335   4.487  1.7016  2.3414 -0.4891
12493SOL     OW48697   0.241   0.277   0.960 -0.0199  0.0300  0.1884
12493SOL    HW148698   0.259   0.372   0.984 -1.6982  0.3419  0.2628
12493SOL    HW248699   0.179   0.274   0.882  0.4677 -1.0144 -0.1708
12494SOL     OW48700   2.659   1.182   3.995 -0.1316  0.2785 -0.0060
12494SOL    HW148701   2.748   1.161   4.037 -0.7609 -2.6337  0.0212
12494SOL    HW248702   2.640   1.115   3.923 -1.4862  1.9969 -1.2839
12495SOL     OW48703   1.561   6.654   0.121  0.2198  0.2157  0.4337
12495SOL    HW148704   1.515   6.611   0.199 -0.5193 -2.5923 -1.4300
12495SOL    HW248705   1.651   6.612   0.108  0.5497  1.0189  0.0787
12496SOL     OW48706   7.611   6.301   4.534  0.6885 -0.2013 -0.1964
12496SOL    HW148707   7.573   6.312   4.625 -0.5986  1.6243 -0.9268
12496SOL    HW248708   7.536   6.296   4.467  1.6167 -1.2647 -1.1849
12497SOL     OW48709   2.190   6.011   6.469  0.1349  0.2577 -0.0501
12497SOL    HW148710   2.158   6.102   6.493 -1.1214  0.0248 -0.8020
12497SOL    HW248711   2.146   5.943   6.528  0.0656  0.0271 -0.3673
12498SOL     OW48712   8.401   5.016   0.890  0.0377 -0.1523 -0.3397
12498SOL    HW148713   8.434   4.938   0.943  1.4723  0.8223  0.2136
12498SOL    HW248714   8.445   5.016   0.800  1.0604  0.7561  0.1478
12499SOL     OW48715   3.407   4.178   6.409  0.6318 -0.4673 -0.3927
12499SOL    HW148716   3.474   4.105   6.399  0.7604 -0.3576 -0.3395
12499SOL    HW248717   3.339   4.172   6.335  1.2646  0.0183 -1.0138
12500SOL     OW48718   7.911   4.149   4.285  0.2837 -0.0036  0.4435
12500SOL    HW148719   7.985   4.138   4.352  1.2793  1.3049 -0.4201
12500SOL    HW248720   7.828   4.103   4.319  1.5583 -1.7508  1.2892
12501SOL     OW48721   3.539   2.790   5.546 -0.2320  0.3417  0.4646
12501SOL    HW148722   3.525   2.839   5.632 -3.4246  0.4928 -0.0715
12501SOL    HW248723   3.492   2.702   5.550  0.2493  0.0098 -0.8377
12502SOL     OW48724   4.710   1.472   6.275 -0.1720  0.0816 -0.4018
12502SOL    HW148725   4.613   1.449   6.269  0.0876 -1.5476  1.3083
12502SOL    HW248726   4.759   1.431   6.198 -0.3007 -1.9926  0.6062
12503SOL     OW48727   8.355   2.594   3.062 -0.1834 -0.1900  0.1218
12503SOL    HW148728   8.308   2.681   3.048 -2.2236 -1.2100  0.4309
12503SOL    HW248729   8.384   2.557   2.974 -0.6378  0.0857 -0.1437
12504SOL     OW48730   0.154   3.166   5.888 -0.1122 -0.4195  0.1549
12504SOL    HW148731   0.140   3.082   5.940  0.8106 -0.5981  0.1373
12504SOL    HW248732   0.251   3.191   5.891 -0.4583  0.9045  0.5505
12505SOL     OW48733   1.536   0.065   3.145  0.1770  0.1197 -0.5843
12505SOL    HW148734   1.518   0.030   3.237  0.8941  1.2015 -0.0221
12505SOL    HW248735   1.586  -0.003   3.092  1.5667  0.2688  0.5058
12506SOL     OW48736   7.090   6.076   5.473  0.0794  0.3710  0.2607
12506SOL    HW148737   7.116   6.042   5.563 -0.7655 -1.4161 -0.1591
12506SOL    HW248738   7.040   6.162   5.483  0.7884  0.6598  1.4308
12507SOL     OW48739   2.676   6.571   5.880 -0.3040  0.0065 -0.2891
12507SOL    HW148740   2.720   6.487   5.910 -1.0797 -0.4102 -0.3140
12507SOL    HW248741   2.713   6.599   5.791  1.6484  0.9832  0.7984
12508SOL     OW48742   4.251   1.172   2.446  0.7009 -0.0892  0.3214
12508SOL    HW148743   4.270   1.098   2.511  2.1750 -0.4904 -0.5239
12508SOL    HW248744   4.272   1.140   2.353  0.8163  1.2058 -0.1003
12509SOL     OW48745   7.522   0.200   5.734 -0.1909 -0.2696  0.1744
12509SOL    HW148746   7.612   0.214   5.693  0.4476  0.7982  1.9160
12509SOL    HW248747   7.452   0.243   5.676  0.7914  1.9564  0.5999
12510SOL     OW48748   1.278   7.121   0.524 -0.0094  0.4887 -0.3115
12510SOL    HW148749   1.180   7.141   0.519  0.2793  1.9035 -0.3063
12510SOL    HW248750   1.292   7.023   0.506 -1.6237 -0.2431  2.1030
12511SOL     OW48751   0.275   5.184   4.635  0.6562  0.7673 -0.1691
12511SOL    HW148752   0.214   5.218   4.565  2.1665  0.5398 -1.6392
12511SOL    HW248753   0.300   5.089   4.615 -0.0439  0.1988  1.4893
12512SOL     OW48754   0.104   7.215   5.391 -0.4142  0.3465 -0.0321
12512SOL    HW148755   0.183   7.254   5.436 -0.8154  0.0971  0.9007
12512SOL    HW248756   0.118   7.116   5.379 -0.7592  0.2272  0.5222
12513SOL     OW48757   9.612   7.244   1.523 -0.6533  0.0015 -0.0424
12513SOL    HW148758   9.532   7.303   1.535 -1.5979 -1.4396  1.0345
12513SOL    HW248759   9.663   7.240   1.609 -0.3077 -0.3174 -0.2648
12514SOL     OW48760   0.352   7.814   4.193  0.5337  0.5718  0.0708
12514SOL    HW148761   0.257   7.835   4.215  0.8379  1.5302  0.4854
12514SOL    HW248762   0.399   7.783   4.276  0.5068 -0.2145 -0.2013
12515SOL     OW48763   0.782   4.718   5.850 -0.3276  0.1779 -0.2322
12515SOL    HW148764   0.773   4.647   5.780  0.6216 -0.5822  0.4053
12515SOL    HW248765   0.693   4.734   5.891 -0.4148 -1.2161  0.1584
12516SOL     OW48766   8.375   2.216   3.635 -1.2043  0.2788 -0.3403
12516SOL    HW148767   8.313   2.214   3.556 -0.1523  1.1002 -1.2213
12516SOL    HW248768   8.389   2.123   3.669 -1.1967 -0.1634 -1.5177
12517SOL     OW48769   0.993   0.201   2.221 -0.1179 -0.2597  0.6337
12517SOL    HW148770   0.986   0.115   2.272  1.6655 -0.2610  0.9145
12517SOL    HW248771   0.969   0.277   2.280 -0.8226 -0.4803  0.6420
12518SOL     OW48772   4.347   0.568   5.563 -0.7639  0.0322  0.5036
12518SOL    HW148773   4.412   0.593   5.634 -0.0214  0.2493 -0.2402
12518SOL    HW248774   4.279   0.640   5.552 -0.1947  0.5338  0.2031
12519SOL     OW48775   8.146   4.901   5.931 -0.4469 -0.2777 -0.4337
12519SOL    HW148776   8.098   4.817   5.956  1.1235 -0.8004  0.9806
12519SOL    HW248777   8.146   4.964   6.010 -0.7692  0.6432 -1.1588
12520SOL     OW48778   8.662   4.092   0.839  0.5295  0.1576  0.0871
12520SOL    HW148779   8.677   3.993   0.836  0.5135  0.1815 -0.9900
12520SOL    HW248780   8.564   4.111   0.847  0.5243  0.0859  0.1926
12521SOL     OW48781   3.657   3.363   5.813 -0.0562  0.0516  0.0378
12521SOL    HW148782   3.666   3.275   5.860 -0.9328 -0.4320 -0.6713
12521SOL    HW248783   3.637   3.435   5.880 -0.3530 -0.4674  0.5154
12522SOL     OW48784   2.987   2.480   3.182  0.0788 -0.7481  0.1436
12522SOL    HW148785   2.958   2.491   3.277  1.9002  0.8562  0.5513
12522SOL    HW248786   2.964   2.563   3.130  0.2112 -1.1226 -0.5192
12523SOL     OW48787   2.006   6.064   3.738  0.1594  0.4374  0.3366
12523SOL    HW148788   1.973   6.079   3.831  0.4960  1.6165  0.2707
12523SOL    HW248789   1.929   6.039   3.679 -0.2620  0.9881  0.6476
12524SOL     OW48790   6.665   2.139   2.755  0.1774  0.1328 -0.0283
12524SOL    HW148791   6.572   2.167   2.730 -0.0960 -1.7069 -1.2019
12524SOL    HW248792   6.731   2.198   2.709 -0.4009  0.6248 -0.2359
12525SOL     OW48793   1.867   6.777   4.009 -0.3463 -0.5731  0.3849
12525SOL    HW148794   1.893   6.747   4.101 -3.5755  1.1884  1.9849
12525SOL    HW248795   1.862   6.877   4.007 -1.1510 -0.6321 -1.4611
12526SOL     OW48796   0.579   1.284   5.442  0.3701  0.2619  0.5882
12526SOL    HW148797   0.515   1.335   5.385  1.1343 -0.0934 -0.6224
12526SOL    HW248798   0.604   1.198   5.396 -0.5003 -0.9764  2.3563
12527SOL     OW48799   1.837   9.715   5.302 -0.0650  0.6463  0.1397
12527SOL    HW148800   1.885   9.680   5.382  2.0588  1.9509 -0.5257
12527SOL    HW248801   1.853   9.656   5.224  1.1788  1.5218 -0.2851
12528SOL     OW48802   2.867   7.607   5.011 -0.5180 -0.1873 -0.0587
12528SOL    HW148803   2.776   7.641   4.987  0.0464  0.8316 -0.7664
12528SOL    HW248804   2.879   7.611   5.110 -0.1720  2.4255 -0.1750
12529SOL     OW48805   7.849   5.297   0.025 -0.4424  0.5883 -0.4772
12529SOL    HW148806   7.815   5.246   0.104 -0.8656  1.9540  0.2301
12529SOL    HW248807   7.928   5.249  -0.014  0.1104  0.1970  1.1138
12530SOL     OW48808   7.069   4.502   0.434  0.2207 -0.0131  0.5321
12530SOL    HW148809   7.022   4.531   0.518  0.2368  0.6456  0.3218
12530SOL    HW248810   7.139   4.570   0.411  0.2414 -0.2107  0.0099
12531SOL     OW48811   2.975   1.913   0.151 -0.6238 -0.2720  0.0221
12531SOL    HW148812   3.022   1.991   0.110 -0.2401 -0.9604 -0.8580
12531SOL    HW248813   2.929   1.943   0.235 -2.2256  1.3645 -1.3947
12532SOL     OW48814   0.567   9.034   3.434  0.0219  0.1985 -0.3228
12532SOL    HW148815   0.614   9.004   3.517 -0.5542 -0.8597 -0.3654
12532SOL    HW248816   0.633   9.034   3.358  0.9358  2.7191  0.4335
12533SOL     OW48817   4.929   5.788   1.208 -0.7674 -0.9972  0.4821
12533SOL    HW148818   5.023   5.755   1.217 -0.2185 -0.2037 -1.9237
12533SOL    HW248819   4.886   5.791   1.298  2.0174  0.1126  1.8370
12534SOL     OW48820   4.854   6.133   1.249 -0.3640  0.0668 -0.3992
12534SOL    HW148821   4.818   6.075   1.176 -0.2143  0.9542 -1.1802
12534SOL    HW248822   4.946   6.102   1.273 -0.2981 -0.0439 -0.7880
12535SOL     OW48823   6.868   2.214   4.388 -0.1331  0.3267 -0.2040
12535SOL    HW148824   6.793   2.149   4.396 -0.5382  0.8065 -0.0519
12535SOL    HW248825   6.835   2.306   4.410  0.2625  0.6923 -1.0961
12536SOL     OW48826   9.802   3.534   0.055 -0.1915 -0.2723  0.4752
12536SOL    HW148827   9.874   3.600   0.032  0.0906  0.3819  3.1181
12536SOL    HW248828   9.844   3.449   0.087 -0.5776 -1.2715 -1.5865
12537SOL     OW48829   3.247   5.574   4.711 -0.3694 -0.5659 -0.2530
12537SOL    HW148830   3.328   5.518   4.698 -1.5544 -2.4268  0.1965
12537SOL    HW248831   3.181   5.555   4.639 -0.8782  0.0833  0.0331
12538SOL     OW48832   8.054   3.455   3.480 -0.6928  0.2373 -0.2390
12538SOL    HW148833   8.003   3.541   3.484  0.0834  0.6816  0.1250
12538SOL    HW248834   8.105   3.442   3.565  0.1602  0.0173 -0.7791
12539SOL     OW48835   7.171   7.294   3.301 -0.3059  0.1591  0.2907
12539SOL    HW148836   7.177   7.359   3.377  1.2801  1.9109 -1.2515
12539SOL    HW248837   7.125   7.337   3.223 -2.9083 -1.9770  0.5762
12540SOL     OW48838   4.327   3.869   0.534  0.4999  0.1031 -0.5987
12540SOL    HW148839   4.415   3.842   0.573  1.4689  2.5808 -0.9630
12540SOL    HW248840   4.342   3.914   0.446 -1.1516  0.2633 -0.8108
12541SOL     OW48841   9.841   5.379   4.380 -0.5975 -0.4636 -0.0298
12541SOL    HW148842   9.743   5.384   4.402 -0.2282  0.4484  1.4606
12541SOL    HW248843   9.856   5.307   4.312 -1.8885 -2.8179  2.0822
12542SOL     OW48844   7.820   9.830   6.524 -0.0881  0.6162 -0.4437
12542SOL    HW148845   7.882   9.858   6.597 -1.2207 -1.3374  1.3063
12542SOL    HW248846   7.752   9.902   6.509  1.1025  1.7159 -0.7100
12543SOL     OW48847   8.714   5.896   2.135 -0.0656  0.8775  0.1701
12543SOL    HW148848   8.771   5.920   2.213 -1.3338  0.1955  1.3490
12543SOL    HW248849   8.642   5.832   2.165 -0.5813  0.6157 -1.5506
12544SOL     OW48850   2.386   1.019   1.498  0.2775  0.0426 -0.5482
12544SOL    HW148851   2.482   1.018   1.467  0.1419 -1.4517 -1.0054
12544SOL    HW248852   2.327   0.997   1.420 -0.4602  1.1576 -0.3071
12545SOL     OW48853   0.745   8.284   3.840  0.4684 -0.3693 -0.4123
12545SOL    HW148854   0.718   8.314   3.931  0.9188 -0.0753 -0.3766
12545SOL    HW248855   0.845   8.281   3.833  0.4532  0.9925 -1.3432
12546SOL     OW48856   6.666   4.913   6.490 -0.0975 -0.1210  0.2333
12546SOL    HW148857   6.756   4.905   6.533 -0.8763 -0.0246  1.9384
12546SOL    HW248858   6.640   5.009   6.487 -0.4421 -0.2079  0.4095
12547SOL     OW48859   1.489   5.339   4.010 -0.0803  0.2760 -0.2817
12547SOL    HW148860   1.541   5.423   3.993 -1.6121  1.3809  0.4581
12547SOL    HW248861   1.454   5.339   4.103 -0.9395 -0.7236 -0.5924
12548SOL     OW48862   9.801   8.079   1.359 -0.0004  0.0498  0.2073
12548SOL    HW148863   9.786   8.101   1.456 -2.4552  0.4044 -0.2159
12548SOL    HW248864   9.713   8.071   1.313  1.1169 -1.2782 -1.7630
12549SOL     OW48865   8.466   6.078   1.267  0.1766  0.5702  0.3991
12549SOL    HW148866   8.535   6.064   1.195  1.3582  1.2402  1.3657
12549SOL    HW248867   8.385   6.023   1.248  0.7591  0.1970 -1.0660
12550SOL     OW48868   1.662   2.110   2.331  0.3181 -0.0087 -0.7285
12550SOL    HW148869   1.717   2.193   2.330 -0.9889  0.9284  1.4705
12550SOL    HW248870   1.654   2.074   2.238  1.3850  1.9859 -1.6196
12551SOL     OW48871   9.995   0.919   4.837  0.2807  0.1126 -0.4068
12551SOL    HW148872  10.028   1.012   4.849 -1.4033  0.7830 -0.9563
12551SOL    HW248873  10.064   0.866   4.787  1.6245  0.8077  0.6805
12552SOL     OW48874   1.119   1.647   0.557 -0.4587 -0.2344 -0.3604
12552SOL    HW148875   1.182   1.696   0.498  0.3096 -0.8567 -0.0644
12552SOL    HW248876   1.092   1.561   0.513  0.4056 -0.8735  0.3563
12553SOL     OW48877   7.530   9.771   0.833 -0.2105 -0.4233  0.3590
12553SOL    HW148878   7.618   9.817   0.845  0.6209 -1.7822 -0.3838
12553SOL    HW248879   7.498   9.737   0.921 -0.0834  0.2102  0.6569
12554SOL     OW48880   8.995   0.095   3.400 -0.1076 -0.3163 -0.5359
12554SOL    HW148881   8.902   0.087   3.436  0.3548  0.4045  0.8455
12554SOL    HW248882   9.024   0.191   3.403  1.2159 -0.7394  0.3980
12555SOL     OW48883   7.917   8.557   2.882 -0.3094 -0.2008  0.7700
12555SOL    HW148884   7.962   8.495   2.946  1.7766  0.8084  0.3039
12555SOL    HW248885   7.952   8.649   2.894 -0.2068  0.0835 -1.5392
12556SOL     OW48886   3.958   4.778   2.495  0.5825  0.4025 -0.6439
12556SOL    HW148887   4.015   4.706   2.456  0.1968  0.2349 -0.8972
12556SOL    HW248888   3.966   4.776   2.595  1.0113  0.3729 -0.6790
12557SOL     OW48889   7.393   0.257   2.185 -0.0515 -0.6162 -0.2831
12557SOL    HW148890   7.381   0.355   2.203 -1.3898 -0.7562 -0.3804
12557SOL    HW248891   7.468   0.222   2.242 -0.2335  0.2506  0.5061
12558SOL     OW48892   2.383   2.103   5.929 -0.1456 -0.0731 -0.5391
12558SOL    HW148893   2.465   2.086   5.874  0.1203 -4.1927  0.9576
12558SOL    HW248894   2.410   2.130   6.022 -0.5948  3.3984 -1.3272
12559SOL     OW48895   4.813   8.348   5.034 -0.0012  0.2673  0.0572
12559SOL    HW148896   4.911   8.369   5.040 -0.0341  0.1880  1.1157
12559SOL    HW248897   4.798   8.278   4.964  0.6937  0.3289 -0.1592
12560SOL     OW48898   7.722   8.894   4.258  0.2206  0.1324  0.2552
12560SOL    HW148899   7.801   8.850   4.215  2.2934  2.7465  1.2441
12560SOL    HW248900   7.673   8.948   4.190 -1.3290 -2.2700 -0.5787
12561SOL     OW48901   5.624   0.059   2.327  0.2353  0.2275 -0.2932
12561SOL    HW148902   5.624   0.057   2.227  2.0067 -0.3782 -0.2915
12561SOL    HW248903   5.592  -0.029   2.362 -2.2703  1.0944 -0.3043
12562SOL     OW48904   8.443   6.789   4.550 -0.8053  0.0004  0.7877
12562SOL    HW148905   8.454   6.888   4.556  0.6956  0.2235 -3.7052
12562SOL    HW248906   8.345   6.766   4.549 -1.1711  1.5331  0.4740
12563SOL     OW48907   2.740   0.813   6.523  0.0050 -0.1829 -0.2187
12563SOL    HW148908   2.797   0.802   6.441  0.2669 -0.0913 -0.0484
12563SOL    HW248909   2.780   0.760   6.598  0.7050  1.0785  0.3253
12564SOL     OW48910   8.383   8.294   1.457 -0.5192  0.5768 -0.5463
12564SOL    HW148911   8.470   8.246   1.463 -0.6699  0.2991 -0.5890
12564SOL    HW248912   8.373   8.333   1.365 -0.8632 -0.1912 -0.8343
12565SOL     OW48913   1.886   0.494   5.702 -0.1091 -0.1112 -0.4133
12565SOL    HW148914   1.862   0.494   5.605 -2.1718 -0.8256  0.0962
12565SOL    HW248915   1.806   0.471   5.757  0.6792  1.7157  1.5587
12566SOL     OW48916   1.472   9.282   5.692  0.1621 -0.4764 -0.2463
12566SOL    HW148917   1.538   9.221   5.647  0.0784  0.8022 -2.1528
12566SOL    HW248918   1.379   9.252   5.670  0.1147 -0.3807 -0.1758
12567SOL     OW48919   9.225   5.327   4.234 -0.5356  0.0416  0.3560
12567SOL    HW148920   9.271   5.348   4.148 -1.1206  0.3725  0.1172
12567SOL    HW248921   9.163   5.402   4.257 -1.6071 -0.7938  0.2227
12568SOL     OW48922   4.200   0.378   5.415 -0.0609 -0.3034  0.3476
12568SOL    HW148923   4.119   0.419   5.371  0.3722 -0.1645 -0.3287
12568SOL    HW248924   4.261   0.451   5.447 -0.1753 -0.4089  0.8075
12569SOL     OW48925   2.565   9.885   2.840  0.1206 -0.1907  0.3339
12569SOL    HW148926   2.582   9.982   2.819  2.1266 -0.7342 -0.6293
12569SOL    HW248927   2.535   9.838   2.757  2.6147 -1.1451 -0.0496
12570SOL     OW48928   5.015   8.812   2.288  0.7810  0.1762 -0.3536
12570SOL    HW148929   4.990   8.716   2.303  1.0856  0.1498 -0.0209
12570SOL    HW248930   5.068   8.845   2.365  0.9156  0.5357 -0.5992
12571SOL     OW48931   5.012   4.562   0.852  0.2751 -0.1296 -0.3163
12571SOL    HW148932   5.084   4.591   0.788  1.3801 -0.7144  0.6506
12571SOL    HW248933   4.946   4.636   0.863  1.1394  0.6964 -0.6203
12572SOL     OW48934   0.927   6.363   6.302 -0.4514 -0.8073 -0.1552
12572SOL    HW148935   0.944   6.274   6.344  3.0385  0.5178  1.4374
12572SOL    HW248936   0.884   6.424   6.369 -0.2717 -0.4520 -0.3615
12573SOL     OW48937   2.821   9.235   3.061  0.5628 -0.9400 -0.2487
12573SOL    HW148938   2.754   9.294   3.016  1.6216  0.2413 -0.2875
12573SOL    HW248939   2.913   9.259   3.031  1.1194 -1.6522  0.8352
12574SOL     OW48940   3.764   2.468   4.604  0.1819 -0.7019 -0.5668
12574SOL    HW148941   3.764   2.565   4.628 -0.2428 -0.1587 -2.7192
12574SOL    HW248942   3.746   2.414   4.686 -0.2608  1.0597  0.5257
12575SOL     OW48943   0.487   9.520   1.944  0.0822 -0.0760  0.3794
12575SOL    HW148944   0.420   9.508   2.017 -0.8152 -0.6501 -0.5253
12575SOL    HW248945   0.545   9.438   1.938  1.3189  0.6693  1.5787
12576SOL     OW48946   1.328   3.342   4.917  0.5278 -0.0865 -0.3699
12576SOL    HW148947   1.352   3.433   4.881  1.1006 -0.2689 -0.4462
12576SOL    HW248948   1.387   3.273   4.876 -1.7159 -0.8569 -2.3963
12577SOL     OW48949   0.625   0.536   3.189 -0.2865 -0.3036  0.4287
12577SOL    HW148950   0.643   0.462   3.125 -0.5925 -1.0008  1.1439
12577SOL    HW248951   0.569   0.502   3.264 -0.3562  0.6317  0.8031
12578SOL     OW48952   7.724   2.003   1.844  0.1812 -0.2109 -1.0106
12578SOL    HW148953   7.736   2.094   1.804  0.9647  1.1372  2.1624
12578SOL    HW248954   7.793   1.988   1.915 -0.9789 -2.6385 -0.3347
12579SOL     OW48955   7.932   9.599   4.654 -0.4400 -0.1346  0.4904
12579SOL    HW148956   8.001   9.627   4.587 -2.3112  1.2279 -0.9313
12579SOL    HW248957   7.910   9.503   4.641  0.0103 -0.1524 -0.1468
12580SOL     OW48958   2.243   4.902   4.234 -0.1344  0.7832  0.0398
12580SOL    HW148959   2.304   4.929   4.159 -0.6374  1.6653 -0.0658
12580SOL    HW248960   2.148   4.912   4.204 -0.3397 -1.4788 -0.1118
12581SOL     OW48961   1.495   1.080   5.929  0.0243 -0.1847 -0.6346
12581SOL    HW148962   1.581   1.105   5.885  0.0328  1.0120  0.0201
12581SOL    HW248963   1.511   1.063   6.026  0.0104 -2.8098 -1.0772
12582SOL     OW48964   7.067   4.561   6.155  0.0019 -0.3436 -0.0063
12582SOL    HW148965   7.135   4.572   6.082  0.2868 -1.2783  0.1140
12582SOL    HW248966   7.063   4.645   6.209 -0.6675  0.5987 -1.4750
12583SOL     OW48967   1.312   1.141   5.224 -0.5350  0.0329 -0.4094
12583SOL    HW148968   1.375   1.199   5.171 -0.0033 -1.2062 -1.1506
12583SOL    HW248969   1.325   1.158   5.321 -1.6864  2.5258 -0.6277
12584SOL     OW48970   9.824   0.135   1.589  0.4880 -0.3018  0.0496
12584SOL    HW148971   9.748   0.091   1.541  0.6628 -0.0868 -0.4298
12584SOL    HW248972   9.903   0.074   1.588  0.1233 -0.8005  1.1265
12585SOL     OW48973   0.422   3.268   4.003 -0.3389  0.2587 -0.3102
12585SOL    HW148974   0.406   3.179   3.961 -1.7386  0.3288  0.0336
12585SOL    HW248975   0.334   3.312   4.023  0.2340  0.0425  3.0594
12586SOL     OW48976   6.033   9.488   4.673 -0.3334 -0.3961  0.0448
12586SOL    HW148977   5.967   9.464   4.601 -0.3745  0.3816 -0.1827
12586SOL    HW248978   5.996   9.461   4.761 -0.1794 -1.5707 -0.2423
12587SOL     OW48979   7.295   9.438   5.244  0.3181 -0.1903  0.3258
12587SOL    HW148980   7.225   9.375   5.211  0.5310 -0.1531 -0.2152
12587SOL    HW248981   7.279   9.460   5.340  0.6735 -1.6693  0.7334
12588SOL     OW48982   9.347   4.353   3.386 -0.0791  0.0901 -0.0070
12588SOL    HW148983   9.400   4.435   3.364 -0.1838 -0.3629 -2.0664
12588SOL    HW248984   9.263   4.353   3.332 -0.2693 -1.1802  0.2899
12589SOL     OW48985   1.051   3.054   0.990 -0.6613 -0.2140  0.0122
12589SOL    HW148986   1.052   3.104   0.904 -1.8064 -0.2161 -0.0082
12589SOL    HW248987   0.982   2.982   0.986 -2.6044  1.4676  1.8517
12590SOL     OW48988   3.495   2.557   2.591  0.0684  0.4222 -0.1731
12590SOL    HW148989   3.459   2.649   2.604 -1.7504 -0.3300  0.2151
12590SOL    HW248990   3.483   2.504   2.675 -3.1166 -1.5601 -1.7897
12591SOL     OW48991   8.650   1.800   5.957 -0.0777  0.2468  0.2123
12591SOL    HW148992   8.633   1.852   6.041 -0.0410 -0.4498  0.6573
12591SOL    HW248993   8.702   1.856   5.893  1.9199  0.0023  1.5726
12592SOL     OW48994   0.717   5.175   0.847 -1.2116 -1.1901 -0.1176
12592SOL    HW148995   0.664   5.256   0.872  1.1988  1.2440 -2.5531
12592SOL    HW248996   0.753   5.132   0.929 -2.2106  0.4439  1.2018
12593SOL     OW48997   4.392   6.491   0.941  0.2888  0.2573  0.1894
12593SOL    HW148998   4.351   6.557   0.879  1.4468  0.8388  0.0157
12593SOL    HW248999   4.373   6.398   0.910 -1.3929  0.4988  0.4644
12594SOL     OW49000   6.438   0.912   4.852 -0.4366  0.4787  0.1439
12594SOL    HW149001   6.391   0.996   4.879  0.2798  1.3235 -1.1783
12594SOL    HW249002   6.530   0.934   4.820 -0.1340 -0.8462  0.0490
12595SOL     OW49003   1.842   7.707   5.230  0.6683 -0.4539 -0.4126
12595SOL    HW149004   1.863   7.650   5.310 -0.7178  0.2877  0.4955
12595SOL    HW249005   1.778   7.658   5.171  0.1243 -0.1946 -0.0471
12596SOL     OW49006   6.505   1.977   5.094 -0.1044 -0.1744  0.0714
12596SOL    HW149007   6.584   2.039   5.092  0.3562 -0.7777 -1.5812
12596SOL    HW249008   6.488   1.943   5.002 -0.9590 -1.7475  0.7939
12597SOL     OW49009   0.014   0.026   2.966  0.0592  0.0107 -0.8891
12597SOL    HW149010   0.011   0.126   2.978  0.3269 -0.1223  0.3585
12597SOL    HW249011   0.085  -0.012   3.025 -1.0001 -1.0705 -0.3011
12598SOL     OW49012   0.457   0.543   1.485  0.5300 -0.0105  0.2477
12598SOL    HW149013   0.364   0.557   1.450 -0.7590 -3.1914  2.2795
12598SOL    HW249014   0.501   0.469   1.434 -0.2171 -2.5115  3.1003
12599SOL     OW49015   2.053   1.814   3.828  0.0405 -0.4783 -0.0209
12599SOL    HW149016   2.023   1.891   3.884 -0.0724 -0.8645  0.4645
12599SOL    HW249017   2.105   1.847   3.750 -0.1163  0.0943  0.1152
12600SOL     OW49018   3.643   9.564   4.540 -0.0372 -0.4217 -0.4334
12600SOL    HW149019   3.704   9.494   4.576  2.2053  1.3616 -0.6454
12600SOL    HW249020   3.599   9.530   4.457 -1.0356 -2.5228  0.9037
12601SOL     OW49021   7.296   7.921   3.218 -0.1975  0.3019  0.3110
12601SOL    HW149022   7.290   7.823   3.197 -1.3087  0.3954  0.1556
12601SOL    HW249023   7.388   7.942   3.251  0.0720 -0.7853  0.2886
12602SOL     OW49024   8.940   0.789   4.888 -0.5453  0.7863 -0.4047
12602SOL    HW149025   8.985   0.877   4.907 -1.7656  1.4707 -0.6555
12602SOL    HW249026   8.853   0.805   4.842 -0.9063 -0.5529 -0.2148
12603SOL     OW49027   0.795   7.548   5.708  0.0277  0.2175  0.3079
12603SOL    HW149028   0.883   7.521   5.747 -0.1610 -2.2078 -0.8432
12603SOL    HW249029   0.801   7.642   5.673  2.0850  0.1551  0.4257
12604SOL     OW49030   6.896   6.619   5.708 -0.1347 -0.5666  0.1540
12604SOL    HW149031   6.866   6.671   5.627 -1.4803  0.9444  1.5872
12604SOL    HW249032   6.842   6.535   5.715  0.0444 -0.7453 -0.5536
12605SOL     OW49033   9.532   4.746   4.754 -0.2416 -0.1996 -0.6603
12605SOL    HW149034   9.630   4.759   4.740  0.1302 -2.9099 -0.8354
12605SOL    HW249035   9.481   4.800   4.688  1.0783  2.4006  0.3769
12606SOL     OW49036   0.286   9.799   4.609 -0.2798  0.4446  0.9876
12606SOL    HW149037   0.235   9.871   4.562  0.3932  0.4382  0.2163
12606SOL    HW249038   0.372   9.836   4.644  0.0403  0.0442  0.6437
12607SOL     OW49039   8.416   1.351   5.787 -0.0334  0.0093  0.0598
12607SOL    HW149040   8.466   1.436   5.804  1.1793 -0.5747 -0.5083
12607SOL    HW249041   8.456   1.304   5.708 -0.4047 -1.3124  0.6434
12608SOL     OW49042   7.073   8.601   4.785  0.6354  0.2887 -0.1350
12608SOL    HW149043   7.147   8.640   4.731 -0.9646  2.2029 -0.9919
12608SOL    HW249044   7.067   8.647   4.873  0.4362  0.1535 -0.0756
12609SOL     OW49045   2.198   2.215   4.250  0.1311  0.1022  0.6487
12609SOL    HW149046   2.282   2.199   4.199  0.4781  0.2743  1.1615
12609SOL    HW249047   2.209   2.182   4.343 -0.5650 -0.3812  0.5627
12610SOL     OW49048   2.402   2.509   6.665  0.1162 -0.2132 -0.0383
12610SOL    HW149049   2.364   2.428   6.710 -0.2153 -0.5394 -0.8927
12610SOL    HW249050   2.406   2.493   6.566 -0.1692  0.8973 -0.2396
12611SOL     OW49051   7.702   4.312   4.165 -0.6777 -0.2762  0.3806
12611SOL    HW149052   7.764   4.258   4.222  0.5160 -0.1218 -0.7435
12611SOL    HW249053   7.674   4.394   4.215 -1.1072 -1.0609  1.4330
12612SOL     OW49054   1.526   7.712   0.343 -0.4626  0.4720 -0.0463
12612SOL    HW149055   1.436   7.730   0.383 -1.4007  1.1423 -2.3654
12612SOL    HW249056   1.560   7.624   0.376 -2.4259 -0.2556  0.0876
12613SOL     OW49057   7.008   1.513   3.371 -0.5461 -0.2482  0.6352
12613SOL    HW149058   6.987   1.578   3.444 -0.4015 -0.2157  0.6474
12613SOL    HW249059   6.932   1.512   3.306  0.9841  2.6943 -1.3460
12614SOL     OW49060   6.018   1.761   5.086  0.4646  0.2324 -0.2352
12614SOL    HW149061   6.043   1.664   5.075  0.8324  0.2658  0.3053
12614SOL    HW249062   5.976   1.794   5.001 -0.4716 -0.6397 -0.1259
12615SOL     OW49063   3.103   6.130   1.931  0.0735 -0.1129  0.6241
12615SOL    HW149064   3.126   6.042   1.889 -0.1041 -0.4198  1.1677
12615SOL    HW249065   3.182   6.192   1.922 -0.2398  0.1066 -0.8693
12616SOL     OW49066   3.009   8.288   3.646  0.0201  0.4059  0.0902
12616SOL    HW149067   2.922   8.272   3.599  0.2703 -0.5316 -0.0558
12616SOL    HW249068   3.029   8.386   3.647 -0.4683  0.5129 -0.8961
12617SOL     OW49069   2.951   4.913   0.825  0.3117  0.1028  0.3424
12617SOL    HW149070   2.930   4.815   0.816  0.5851 -0.0053  0.8696
12617SOL    HW249071   2.879   4.957   0.878  1.3362 -0.2470  2.0528
12618SOL     OW49072   9.936   8.753   1.576  0.6148 -0.5651 -0.2293
12618SOL    HW149073   9.970   8.830   1.522  0.1826 -2.3811 -3.1892
12618SOL    HW249074   9.866   8.786   1.640  0.1884  1.4712 -1.6884
12619SOL     OW49075   9.130   0.675   4.133 -0.1498 -0.8865  0.6244
12619SOL    HW149076   9.123   0.772   4.110 -0.0028 -1.1170 -0.4286
12619SOL    HW249077   9.043   0.644   4.172 -1.2245 -1.0002 -1.7339
12620SOL     OW49078   0.600   7.567   5.980 -0.8247 -0.5989 -0.6900
12620SOL    HW149079   0.645   7.510   6.049 -1.0288  0.0566 -0.0122
12620SOL    HW249080   0.663   7.637   5.948 -1.8506  1.3558  1.4532
12621SOL     OW49081   9.644   2.019   3.081  0.0866  0.0444 -0.2019
12621SOL    HW149082   9.545   2.016   3.090  0.1771 -0.6639  0.6586
12621SOL    HW249083   9.685   2.046   3.168  0.5528  2.6775 -1.2066
12622SOL     OW49084   3.522   0.682   0.982  0.5332  0.6562 -0.0487
12622SOL    HW149085   3.609   0.638   1.001 -0.6225 -1.4879  0.3554
12622SOL    HW249086   3.524   0.777   1.015  2.7562  0.6958 -0.2521
12623SOL     OW49087   8.956   2.259   3.642  0.2015 -0.3981  0.4028
12623SOL    HW149088   8.984   2.329   3.576 -1.7132  0.2737  0.2513
12623SOL    HW249089   8.910   2.184   3.593  0.8360 -1.0180  0.7397
12624SOL     OW49090   9.854   4.472   2.977  0.4772  0.1247  0.0041
12624SOL    HW149091   9.792   4.418   2.921 -0.9763  1.9337 -0.1514
12624SOL    HW249092   9.849   4.440   3.072 -0.8101  0.3808  0.0248
12625SOL     OW49093   4.677   9.624   1.403  0.0475  0.4327  0.3364
12625SOL    HW149094   4.718   9.538   1.373 -0.6232  0.4779 -0.7387
12625SOL    HW249095   4.742   9.673   1.461  1.0017 -0.1284 -0.2392
12626SOL     OW49096   0.859   1.031   2.636 -0.7124  0.4033 -0.0539
12626SOL    HW149097   0.944   1.061   2.592 -0.1257 -0.2011  0.6365
12626SOL    HW249098   0.859   1.061   2.731 -0.6854 -0.6723  0.2962
12627SOL     OW49099   7.336   0.962   4.731  0.1957 -0.5211 -0.1951
12627SOL    HW149100   7.284   1.026   4.788  1.6596  0.6258 -0.1107
12627SOL    HW249101   7.420   0.937   4.778  0.6643 -0.8116 -1.1732
12628SOL     OW49102   9.503   8.775   5.146 -0.0974 -0.2934  0.1427
12628SOL    HW149103   9.438   8.838   5.103  1.1322  0.8576 -0.0457
12628SOL    HW249104   9.494   8.685   5.104 -1.2277 -0.0291 -0.2160
12629SOL     OW49105   2.188   3.191   1.167 -0.5561  0.0588  0.4191
12629SOL    HW149106   2.097   3.231   1.157 -0.4363  0.2461  0.0745
12629SOL    HW249107   2.236   3.236   1.242 -0.1116  1.1457 -0.4987
12630SOL     OW49108   8.120   4.945   0.271  0.0010 -0.0687 -0.0307
12630SOL    HW149109   8.184   4.958   0.196  0.6582  0.0482  0.5482
12630SOL    HW249110   8.120   5.025   0.330  0.2685 -0.5877  0.6843
12631SOL     OW49111   7.918   6.200   2.047  0.3688 -0.2076  0.2732
12631SOL    HW149112   7.954   6.126   1.989  0.5523 -0.3088  0.5151
12631SOL    HW249113   7.992   6.265   2.066 -0.2395  1.0594 -1.5183
12632SOL     OW49114   0.019   7.800   6.466  0.1497 -0.2997  0.1108
12632SOL    HW149115   0.110   7.839   6.455 -0.0894  0.0554 -0.6650
12632SOL    HW249116  -0.008   7.753   6.382 -0.4394 -0.2822  0.2836
12633SOL     OW49117   2.993   2.867   5.398  0.0483  0.4482  0.1820
12633SOL    HW149118   3.006   2.923   5.316 -0.3806 -2.1367 -1.6887
12633SOL    HW249119   3.077   2.867   5.452  0.3284  2.1877 -0.2256
12634SOL     OW49120   6.945   0.994   4.469  0.0401  0.6530 -0.1528
12634SOL    HW149121   6.881   0.939   4.415  0.0908 -1.1340  1.5568
12634SOL    HW249122   6.942   1.089   4.437 -0.8278 -0.1060 -2.4468
12635SOL     OW49123   0.563   7.300   0.331 -0.0878  1.0624 -0.0624
12635SOL    HW149124   0.629   7.371   0.352 -1.3799  2.7301 -1.4315
12635SOL    HW249125   0.470   7.334   0.349 -0.8381  0.4624 -2.5559
12636SOL     OW49126   7.403   5.757   5.809  0.3982 -0.5330 -0.5215
12636SOL    HW149127   7.317   5.801   5.833  0.1839 -2.4359  2.4680
12636SOL    HW249128   7.440   5.798   5.726 -3.5446  0.0573 -2.0560
12637SOL     OW49129   2.224   3.405   0.069  0.6277  0.1830  0.4719
12637SOL    HW149130   2.151   3.446   0.014 -0.1644  0.2093  1.5245
12637SOL    HW249131   2.204   3.308   0.085 -0.5575  0.7930  2.9649
12638SOL     OW49132   0.340   5.698   0.340 -0.2622 -0.1712 -0.1668
12638SOL    HW149133   0.369   5.767   0.274  0.0597 -0.7119 -0.5984
12638SOL    HW249134   0.417   5.637   0.359 -0.6757 -0.6820 -0.1333
12639SOL     OW49135   9.715   4.809   5.183 -0.0847  0.2875 -0.2101
12639SOL    HW149136   9.723   4.711   5.168 -0.4530  0.1782  0.2942
12639SOL    HW249137   9.624   4.830   5.221 -0.1878  0.8748 -0.7684
12640SOL     OW49138   7.139   9.889   6.643  0.8917 -0.1491  0.2907
12640SOL    HW149139   7.128   9.986   6.624 -1.2886 -0.3298  0.5078
12640SOL    HW249140   7.196   9.847   6.572  0.0662  0.8681 -1.0010
12641SOL     OW49141   1.436   7.422   2.587 -0.3339  0.4462 -0.0262
12641SOL    HW149142   1.410   7.487   2.658  2.1707  1.3733  0.0818
12641SOL    HW249143   1.394   7.333   2.607 -0.0745  0.8184  2.3514
12642SOL     OW49144   0.457   2.003   5.274 -0.2517  0.3385  0.3401
12642SOL    HW149145   0.417   1.992   5.183 -1.7624  3.7232  0.5379
12642SOL    HW249146   0.385   1.996   5.343  0.8467 -1.9263  1.3375
12643SOL     OW49147   4.647   2.947   5.664  0.6210 -0.1322  1.0391
12643SOL    HW149148   4.720   2.950   5.595  0.4689 -1.1285  0.8323
12643SOL    HW249149   4.639   2.854   5.700 -1.9587 -0.5102 -0.4397
12644SOL     OW49150   9.038   7.197   5.223 -0.2020 -0.0421 -0.4333
12644SOL    HW149151   9.008   7.249   5.143  0.4195  0.3799 -0.3968
12644SOL    HW249152   9.096   7.255   5.280 -0.4967 -0.3979  0.2324
12645SOL     OW49153   7.859   9.360   4.837 -0.2546 -0.2315  0.5991
12645SOL    HW149154   7.806   9.438   4.870  0.5241 -0.4057  2.3406
12645SOL    HW249155   7.829   9.277   4.886 -0.1849 -0.7945 -0.3031
12646SOL     OW49156   8.408   1.961   3.428 -0.4899  0.9049  0.5331
12646SOL    HW149157   8.417   2.027   3.502  0.2462 -0.1661  1.4040
12646SOL    HW249158   8.483   1.894   3.433 -1.5187 -0.3123 -0.0188
12647SOL     OW49159   5.131   2.290   2.305 -0.0240 -0.4919  0.6137
12647SOL    HW149160   5.046   2.301   2.356 -0.9691  0.2100 -1.0602
12647SOL    HW249161   5.173   2.203   2.329 -2.0039 -1.5640  0.3477
12648SOL     OW49162   8.472   4.512   3.496  0.1313  0.1477 -0.5671
12648SOL    HW149163   8.473   4.589   3.561 -0.0561 -0.6062  0.3388
12648SOL    HW249164   8.425   4.435   3.538  0.2608 -0.4400 -1.5095
12649SOL     OW49165   3.604   0.658   6.230  0.3942 -0.2367 -0.0006
12649SOL    HW149166   3.673   0.632   6.298  0.2108 -0.8513 -0.0461
12649SOL    HW249167   3.525   0.597   6.237  0.7009 -0.8055 -1.2856
12650SOL     OW49168   2.002   3.621   4.329 -0.4191 -0.3363 -0.1097
12650SOL    HW149169   2.018   3.583   4.420  2.6383 -1.1426 -0.9113
12650SOL    HW249170   1.987   3.547   4.264  0.6207  0.0417 -0.7997
12651SOL     OW49171   7.878   7.310   2.798 -0.5467  0.8321  0.8194
12651SOL    HW149172   7.927   7.230   2.763 -2.4778  0.8792 -2.1602
12651SOL    HW249173   7.942   7.386   2.809  0.6257 -0.0316  0.1433
12652SOL     OW49174   1.812   4.081   0.553  0.8843 -0.7940  0.4003
12652SOL    HW149175   1.739   4.086   0.484 -1.2276 -0.8699  2.5457
12652SOL    HW249176   1.898   4.110   0.513 -0.6045  0.6661 -1.8518
12653SOL     OW49177   2.859   6.911   0.539 -0.3766  0.0290 -0.3094
12653SOL    HW149178   2.823   6.983   0.481  1.6019  1.0976 -0.2589
12653SOL    HW249179   2.836   6.930   0.635 -0.6490  0.1101 -0.3915
12654SOL     OW49180   4.891   1.701   0.950  0.5340  0.3456  0.1834
12654SOL    HW149181   4.839   1.742   0.875 -0.2315  0.7168  0.9155
12654SOL    HW249182   4.880   1.602   0.948 -0.6747  0.4596  0.6693
12655SOL     OW49183   4.176   8.125   1.550 -0.2173 -0.7769  0.2099
12655SOL    HW149184   4.215   8.104   1.640  0.7914 -2.0337 -0.4933
12655SOL    HW249185   4.237   8.187   1.502  0.0159 -1.2980 -0.1795
12656SOL     OW49186   0.399   7.608   3.401 -0.1369  0.3663 -0.3314
12656SOL    HW149187   0.300   7.600   3.410  0.0213  0.2741  1.4393
12656SOL    HW249188   0.444   7.537   3.456  0.9515  2.1714  1.1732
12657SOL     OW49189   1.297   8.771   6.594 -0.1410  0.2088 -0.3674
12657SOL    HW149190   1.237   8.730   6.526  0.5201  0.8543 -1.3550
12657SOL    HW249191   1.265   8.747   6.686 -1.7972  0.3980 -0.8791
12658SOL     OW49192   1.443   0.775   2.064 -0.2868  0.0769 -0.5445
12658SOL    HW149193   1.463   0.795   2.160 -0.6936  0.7282 -0.5868
12658SOL    HW249194   1.377   0.700   2.058 -0.6239  0.3478 -0.2921
12659SOL     OW49195   3.802   0.693   2.117 -0.0508  0.4534 -0.1152
12659SOL    HW149196   3.761   0.770   2.068  1.7782 -0.1058 -2.5926
12659SOL    HW249197   3.869   0.728   2.182 -1.4181  1.1056  0.9852
12660SOL     OW49198   0.046   2.909   1.970 -0.1493 -0.2077 -0.3867
12660SOL    HW149199   0.009   2.988   2.019  1.6534  0.4828 -0.1031
12660SOL    HW249200   0.108   2.859   2.030 -1.0376 -1.6778 -0.6697
12661SOL     OW49201   3.708   2.920   2.791  0.4128 -0.9244 -0.0575
12661SOL    HW149202   3.709   3.020   2.787 -0.9793 -0.9511 -1.4620
12661SOL    HW249203   3.760   2.890   2.871  1.5336  0.8860 -0.0696
12662SOL     OW49204   9.027   4.747   2.252  0.1163  0.2936  0.2604
12662SOL    HW149205   9.091   4.759   2.328  0.4560 -0.4716  0.1002
12662SOL    HW249206   8.954   4.684   2.279 -0.1076  0.5125  0.1660
12663SOL     OW49207   3.558   5.436   0.045  0.3825 -0.1421 -0.4840
12663SOL    HW149208   3.573   5.371  -0.030 -0.7510 -2.3324  1.1503
12663SOL    HW249209   3.470   5.482   0.031  0.9915  0.7752 -1.4157
12664SOL     OW49210   6.759   1.711   2.985  0.3231  0.3521 -0.0476
12664SOL    HW149211   6.676   1.657   2.998  1.0354 -0.9165 -0.6929
12664SOL    HW249212   6.735   1.806   2.965 -0.9461  0.1336  0.4262
12665SOL     OW49213   1.874   0.919   5.528  0.4802 -0.1333 -0.3850
12665SOL    HW149214   1.795   0.980   5.522 -0.2636 -1.1869 -1.4776
12665SOL    HW249215   1.933   0.933   5.448  0.1177 -1.0876 -0.8272
12666SOL     OW49216   0.140   7.719   0.031  0.0884  0.5508  0.4213
12666SOL    HW149217   0.070   7.699  -0.037  0.1653 -0.8127  0.7241
12666SOL    HW249218   0.147   7.818   0.044 -0.4137  0.7840 -1.0274
12667SOL     OW49219   0.129   4.497   3.427  0.3612 -0.4722 -0.1648
12667SOL    HW149220   0.059   4.568   3.434  1.3780  0.5739 -0.4990
12667SOL    HW249221   0.115   4.445   3.342  1.3337  1.2138 -1.3943
12668SOL     OW49222   0.077   0.680   1.704  0.0278 -0.4560  0.1608
12668SOL    HW149223   0.055   0.653   1.798  1.6515 -0.7756  0.4626
12668SOL    HW249224   0.119   0.602   1.656 -0.5276 -0.2037 -0.7376
12669SOL     OW49225   9.256   4.734   0.405  0.2273 -0.3213 -0.3285
12669SOL    HW149226   9.352   4.716   0.384  0.5092  2.7815 -2.0293
12669SOL    HW249227   9.210   4.769   0.324 -1.9484 -0.2187  0.9011
12670SOL     OW49228   3.651   4.034   3.901  0.0360 -0.4645 -0.6667
12670SOL    HW149229   3.742   4.043   3.940 -0.5129  0.8320  0.3430
12670SOL    HW249230   3.627   3.937   3.896  1.2644 -0.7885 -0.4806
12671SOL     OW49231   0.046   6.924   4.757 -0.2482 -0.8284 -0.7088
12671SOL    HW149232   0.049   6.969   4.668 -2.0899 -2.5088 -1.6600
12671SOL    HW249233   0.001   6.984   4.823  0.2398  0.0239 -1.1416
12672SOL     OW49234   7.169   0.852   0.152  0.2116  0.1699 -0.0148
12672SOL    HW149235   7.228   0.899   0.218  0.8530 -2.6382  1.4681
12672SOL    HW249236   7.159   0.756   0.178 -2.4372 -0.1642 -2.0370
12673SOL     OW49237   1.181   9.402   0.581 -0.1537  0.0985 -0.0045
12673SOL    HW149238   1.273   9.441   0.585  0.2822 -1.0736  1.6978
12673SOL    HW249239   1.141   9.401   0.672 -0.8054 -1.9058 -0.2846
12674SOL     OW49240   5.084   1.607   1.418  0.1593 -0.5101 -0.1911
12674SOL    HW149241   5.091   1.657   1.332 -2.3488  0.1956 -0.0453
12674SOL    HW249242   4.993   1.624   1.458  0.6779 -2.1765  1.7403
12675SOL     OW49243   5.188   7.691   1.593  0.1079  0.0699  0.2918
12675SOL    HW149244   5.100   7.674   1.550 -0.3069  2.1260  0.2660
12675SOL    HW249245   5.237   7.605   1.604 -1.2457 -0.9111 -1.1014
12676SOL     OW49246   4.679   0.725   0.875  0.0016  0.4042  0.3519
12676SOL    HW149247   4.652   0.791   0.805  0.8548  1.1040  0.6797
12676SOL    HW249248   4.752   0.764   0.931  1.7631 -1.4680 -0.5637
12677SOL     OW49249   5.946   0.352   2.126 -0.4045 -0.5298 -0.1606
12677SOL    HW149250   5.923   0.292   2.049 -2.4471  1.4256 -1.1109
12677SOL    HW249251   5.881   0.337   2.200 -0.8285  0.3937 -0.3446
12678SOL     OW49252   3.119   1.682   0.170 -0.2960  0.2419 -0.1496
12678SOL    HW149253   3.057   1.620   0.219 -1.4751  2.2019  0.8715
12678SOL    HW249254   3.088   1.776   0.181  2.9543  1.2907  0.4422
12679SOL     OW49255   9.765   3.163   6.112  0.2438 -0.0259 -0.3787
12679SOL    HW149256   9.802   3.230   6.177 -0.0981 -0.4957  0.2967
12679SOL    HW249257   9.826   3.084   6.108 -0.7884 -0.9135  0.9195
12680SOL     OW49258   1.808   7.482   2.133 -0.6657 -0.3779 -0.7975
12680SOL    HW149259   1.899   7.442   2.124  0.2673  1.4997  0.0331
12680SOL    HW249260   1.789   7.503   2.229 -0.0962  3.3937 -1.4318
12681SOL     OW49261   7.453   5.965   0.189 -0.0718  0.2947  0.4194
12681SOL    HW149262   7.358   5.961   0.157 -0.3411  0.4920  1.1700
12681SOL    HW249263   7.464   6.044   0.250  0.5873  0.3013  0.2969
12682SOL     OW49264   4.454   5.785   0.223 -0.8680 -0.2610  0.2037
12682SOL    HW149265   4.432   5.713   0.158 -0.6962  0.3315 -0.5210
12682SOL    HW249266   4.502   5.746   0.301  0.3090 -0.7692 -0.7553
12683SOL     OW49267   9.713   1.618   5.128 -0.2671 -0.3795 -0.0708
12683SOL    HW149268   9.663   1.671   5.061  0.1641 -4.1517 -3.5399
12683SOL    HW249269   9.811   1.627   5.111 -0.2128 -2.7599 -1.1026
12684SOL     OW49270   1.453   2.476   2.640  0.1716  0.2492 -0.5456
12684SOL    HW149271   1.469   2.386   2.599 -1.6511  0.6107 -2.0754
12684SOL    HW249272   1.510   2.544   2.595  0.1669  0.1800 -0.6563
12685SOL     OW49273   4.259   3.351   2.556  0.4842 -0.1567 -0.0652
12685SOL    HW149274   4.329   3.418   2.530  0.9191 -1.4168 -2.1905
12685SOL    HW249275   4.291   3.298   2.634  1.7196 -0.4550 -0.7713
12686SOL     OW49276   0.311   6.016   4.323 -0.8457 -0.3729  0.5404
12686SOL    HW149277   0.393   6.048   4.370 -1.4459  0.1526  1.2508
12686SOL    HW249278   0.331   5.998   4.227  0.0362 -0.0122  0.6619
12687SOL     OW49279   4.997   5.872   1.616  0.1683 -0.3043 -0.1026
12687SOL    HW149280   4.938   5.894   1.538  0.7761 -0.4751 -0.6117
12687SOL    HW249281   5.091   5.858   1.585  1.1451  3.0145  1.0537
12688SOL     OW49282   2.246   3.277   0.381  0.0692 -0.1483 -0.2368
12688SOL    HW149283   2.338   3.307   0.406  0.0717  0.0286 -0.4494
12688SOL    HW249284   2.196   3.248   0.462  0.5674 -0.9551 -0.2091
12689SOL     OW49285   4.347   4.182   6.745  0.3643 -0.7523  0.2823
12689SOL    HW149286   4.441   4.157   6.722  0.8283 -0.5044  1.8601
12689SOL    HW249287   4.345   4.278   6.774 -0.5183 -0.5108 -0.5534
12690SOL     OW49288   8.361   6.548   0.190 -0.6410  0.2038  0.2992
12690SOL    HW149289   8.399   6.556   0.282 -0.1522  1.6452 -0.0218
12690SOL    HW249290   8.372   6.453   0.158  1.1225  0.1900  0.8887
12691SOL     OW49291   6.692   4.370   0.064  0.3038  0.2962 -0.3752
12691SOL    HW149292   6.763   4.394   0.130  0.7463  1.3639 -1.2144
12691SOL    HW249293   6.734   4.328  -0.017 -0.0554  0.5283 -0.6886
12692SOL     OW49294   2.229   2.121   4.561  0.4584  0.1817 -0.0120
12692SOL    HW149295   2.299   2.078   4.505  0.9534 -0.8933  1.4038
12692SOL    HW249296   2.253   2.112   4.658 -1.8048 -0.5060  0.5179
12693SOL     OW49297   8.079   0.419   4.026 -0.0491 -0.3371  0.2707
12693SOL    HW149298   8.015   0.377   3.962  0.8826 -1.1632 -0.1429
12693SOL    HW249299   8.141   0.479   3.976 -0.8184  0.8494  0.7391
12694SOL     OW49300   6.081   9.330   2.082  0.5651  0.3206  0.2635
12694SOL    HW149301   6.147   9.334   2.007 -0.6695 -0.7329 -0.8874
12694SOL    HW249302   6.087   9.240   2.126 -0.4613  0.0481 -0.1608
12695SOL     OW49303   3.724   0.348   0.777 -0.2282  0.1740 -1.0679
12695SOL    HW149304   3.730   0.371   0.680  1.2575  3.1560 -0.3133
12695SOL    HW249305   3.628   0.341   0.804 -0.6550 -1.1318 -2.8061
12696SOL     OW49306   7.955   0.558   2.046  0.1549  0.8432 -0.1502
12696SOL    HW149307   8.035   0.557   1.987  0.8408  1.2609  0.7691
12696SOL    HW249308   7.875   0.588   1.994  0.6437  0.6589 -1.0024
12697SOL     OW49309   7.710   7.144   2.926  0.5358  0.0500 -0.2991
12697SOL    HW149310   7.731   7.212   2.856 -1.3515  0.4169 -0.5388
12697SOL    HW249311   7.642   7.181   2.990 -0.7080 -1.6888 -0.5751
12698SOL     OW49312   1.103   8.525   1.456 -0.3297 -0.2332 -0.3896
12698SOL    HW149313   1.163   8.583   1.400 -1.9464  3.1178  1.2395
12698SOL    HW249314   1.134   8.526   1.551 -2.0388  0.2705  0.1800
12699SOL     OW49315   9.194   8.724   3.238 -0.0416 -0.0901  0.6114
12699SOL    HW149316   9.163   8.630   3.235  0.1559 -0.1788  1.3107
12699SOL    HW249317   9.271   8.736   3.174 -0.4179 -0.2697  0.1282
12700SOL     OW49318   9.926   1.692   1.319  0.6977 -0.5836  0.2010
12700SOL    HW149319   9.970   1.780   1.334  1.3715 -1.2389  2.2173
12700SOL    HW249320   9.827   1.703   1.323  0.8073 -0.1432  1.7795
12701SOL     OW49321   6.985   3.639   4.944 -0.0400 -0.3541 -0.1165
12701SOL    HW149322   6.939   3.700   5.008  0.2935 -0.9623  0.7109
12701SOL    HW249323   7.067   3.602   4.986  0.9346  0.3181 -1.4076
12702SOL     OW49324   4.350   2.556   4.735 -0.1248 -0.2530 -0.6300
12702SOL    HW149325   4.376   2.462   4.755 -2.5368 -0.4691  1.8848
12702SOL    HW249326   4.411   2.619   4.783  0.9493 -0.5444 -1.6089
12703SOL     OW49327   3.622   4.406   1.913 -0.0281  0.0040 -0.1330
12703SOL    HW149328   3.644   4.322   1.864  2.5028 -0.4361  1.6994
12703SOL    HW249329   3.675   4.482   1.876 -0.3107  0.2675 -0.0041
12704SOL     OW49330   4.573   0.133   3.971  0.1401  0.0856 -0.2731
12704SOL    HW149331   4.649   0.174   3.920 -0.1791  1.9727  0.7147
12704SOL    HW249332   4.487   0.158   3.927  0.0191 -1.0866 -0.7222
12705SOL     OW49333   9.929   5.126   2.396  0.1891  0.3449 -0.0600
12705SOL    HW149334   9.943   5.157   2.302 -0.5363  1.5693  0.2229
12705SOL    HW249335   9.974   5.188   2.460 -0.0713  0.0257  0.4447
12706SOL     OW49336   2.628   1.949   0.783 -0.0373 -0.4478  0.1536
12706SOL    HW149337   2.709   1.929   0.728  1.0405 -1.7718  2.1817
12706SOL    HW249338   2.639   2.037   0.829  0.0328 -0.4029  0.0512
12707SOL     OW49339   7.147   8.971   2.209 -0.4458  0.2366  0.8128
12707SOL    HW149340   7.077   9.005   2.271 -0.1008 -1.2528  2.0511
12707SOL    HW249341   7.125   9.000   2.115  0.3162  4.5286  1.8762
12708SOL     OW49342   8.239   9.495   4.140 -0.1418  0.8261 -0.3613
12708SOL    HW149343   8.217   9.557   4.064 -0.9148  1.6104  0.4917
12708SOL    HW249344   8.320   9.528   4.188  0.3759  0.3030 -0.8668
12709SOL     OW49345   8.067   5.111   6.097  0.0029  0.3575 -1.0328
12709SOL    HW149346   7.998   5.165   6.048 -0.7738 -0.4396 -0.8434
12709SOL    HW249347   8.054   5.122   6.196 -0.3764 -0.4408 -0.9914
12710SOL     OW49348   3.507   1.787   4.540 -0.1231 -0.5342  0.4430
12710SOL    HW149349   3.571   1.863   4.551 -0.1632 -0.5902  1.0493
12710SOL    HW249350   3.494   1.769   4.442 -0.8851  0.8829  0.2705
12711SOL     OW49351   7.926   1.764   5.652 -0.0802 -0.2412 -0.1544
12711SOL    HW149352   7.861   1.829   5.613  0.6958  0.1573 -0.7865
12711SOL    HW249353   8.001   1.750   5.589 -0.6794 -2.4534 -0.4176
12712SOL     OW49354   9.812   8.662   6.498 -0.3501  0.6569 -0.6646
12712SOL    HW149355   9.789   8.571   6.533 -0.4541  0.2795 -1.6784
12712SOL    HW249356   9.884   8.703   6.554 -0.2347 -0.0905 -0.2629
12713SOL     OW49357   9.589   9.612   6.626 -0.4607  0.0856  0.2257
12713SOL    HW149358   9.688   9.621   6.640 -0.4991 -1.1183  1.3795
12713SOL    HW249359   9.541   9.668   6.694 -0.5760  1.1591 -0.7285
12714SOL     OW49360   5.996   4.865   1.210 -0.2502 -0.0589 -0.3722
12714SOL    HW149361   6.057   4.890   1.135  0.9955 -3.0816 -0.4340
12714SOL    HW249362   5.984   4.766   1.211 -2.0072  0.1441  2.0980
12715SOL     OW49363   7.091   7.047   4.860 -0.3185  0.2401 -0.6016
12715SOL    HW149364   7.135   7.058   4.772  0.1525  0.9444 -0.2811
12715SOL    HW249365   7.139   6.978   4.914 -0.9427 -0.6001 -1.1074
12716SOL     OW49366   4.714   9.548   6.312  0.3704 -0.1735 -0.6852
12716SOL    HW149367   4.706   9.537   6.213 -1.8522 -0.9990 -0.4308
12716SOL    HW249368   4.627   9.581   6.349  1.4599  1.0114  0.9002
12717SOL     OW49369   2.128   8.939   5.473 -0.3840 -0.1486  0.6111
12717SOL    HW149370   2.198   8.941   5.545  0.9229 -0.6520 -0.6136
12717SOL    HW249371   2.144   9.015   5.410 -0.3835 -0.8133 -0.1891
12718SOL     OW49372   2.186   7.513   5.699  0.0266 -0.3379 -0.0686
12718SOL    HW149373   2.089   7.526   5.681  0.2365  1.6844  0.1771
12718SOL    HW249374   2.207   7.543   5.792  1.0651  0.2208 -0.4695
12719SOL     OW49375   0.070   2.287   3.954  0.0162 -0.2372  0.0478
12719SOL    HW149376   0.041   2.279   3.859  1.5519  2.2630 -0.6741
12719SOL    HW249377   0.140   2.219   3.973  0.2867 -0.2156 -0.8445
12720SOL     OW49378   3.127   8.244   0.527 -0.4569  0.5115  0.7278
12720SOL    HW149379   3.165   8.202   0.610  3.3766 -0.8995 -1.5564
12720SOL    HW249380   3.043   8.196   0.500  0.1566 -1.3043  1.9367
12721SOL     OW49381   8.170   4.047   6.308  0.4545  0.3779 -0.3033
12721SOL    HW149382   8.241   4.013   6.246 -0.7989  2.8012 -3.2098
12721SOL    HW249383   8.080   4.018   6.276 -0.0870 -0.0847  1.5971
12722SOL     OW49384   4.188   9.381   6.682  0.3216 -0.5766 -0.4704
12722SOL    HW149385   4.266   9.414   6.629  1.3727 -0.4965  1.1058
12722SOL    HW249386   4.219   9.350   6.772 -1.4549 -0.6087  0.1530
12723SOL     OW49387   4.345   9.372   2.110 -0.5927 -0.1768  0.4647
12723SOL    HW149388   4.433   9.346   2.072 -1.4172 -0.7658 -1.0581
12723SOL    HW249389   4.299   9.292   2.148 -1.2815 -0.2093 -0.4202
12724SOL     OW49390   0.651   9.087   5.649 -0.4437  0.1135  0.5574
12724SOL    HW149391   0.645   9.175   5.695 -0.5694  0.8014 -0.7559
12724SOL    HW249392   0.569   9.072   5.594 -0.3232 -0.7269  0.5940
12725SOL     OW49393   0.331   0.222   6.652 -0.1478  0.0361 -0.1969
12725SOL    HW149394   0.291   0.166   6.725 -0.2983  1.6247  0.9645
12725SOL    HW249395   0.413   0.267   6.686 -0.7534  1.5464 -0.7004
12726SOL     OW49396   4.770   1.637   0.641  0.1958 -0.1424 -0.4066
12726SOL    HW149397   4.744   1.567   0.708 -2.9936 -0.8490 -2.2924
12726SOL    HW249398   4.796   1.593   0.556 -1.6838  0.8964 -1.5547
12727SOL     OW49399   1.531   3.744   2.311 -0.2225  0.6314 -0.3112
12727SOL    HW149400   1.617   3.702   2.283 -0.2237  1.1058 -1.0521
12727SOL    HW249401   1.456   3.703   2.260 -0.0754  2.4825 -2.1056
12728SOL     OW49402   1.650   7.525   2.382  0.5233  0.1915  0.0192
12728SOL    HW149403   1.612   7.487   2.297  2.0634  1.4198 -1.2506
12728SOL    HW249404   1.622   7.468   2.459  0.3563 -1.8520 -1.4991
12729SOL     OW49405   8.612   2.660   0.729 -0.5806  0.6602 -0.0166
12729SOL    HW149406   8.680   2.591   0.756 -0.1976  0.4442 -1.5282
12729SOL    HW249407   8.523   2.616   0.718 -0.4536  0.5003 -0.4194
12730SOL     OW49408   7.041   7.712   5.136  0.6519 -0.5235 -0.0443
12730SOL    HW149409   7.006   7.778   5.069  1.0745 -0.7795 -0.5207
12730SOL    HW249410   7.140   7.719   5.140  0.6943 -1.0961 -0.0628
12731SOL     OW49411   8.252   5.846   6.319 -0.0246 -0.1754  0.0746
12731SOL    HW149412   8.208   5.896   6.244 -0.6046  0.7849  1.0421
12731SOL    HW249413   8.199   5.764   6.339 -0.6700  0.3048  0.3685
12732SOL     OW49414   8.967   1.820   5.298 -0.4361 -0.2075 -0.1031
12732SOL    HW149415   8.983   1.746   5.363  0.5431 -0.7146 -0.9092
12732SOL    HW249416   8.868   1.835   5.288 -0.6440 -1.4077  0.0613
12733SOL     OW49417   3.015   3.681   0.818  0.4755  0.7136  0.2754
12733SOL    HW149418   2.959   3.735   0.880 -0.8152  0.6908 -0.8577
12733SOL    HW249419   3.092   3.735   0.786  0.9989  0.8155  1.6679
12734SOL     OW49420   3.103   1.838   0.476  0.6310  0.6908 -0.2292
12734SOL    HW149421   3.031   1.846   0.407  0.5210  0.2230 -0.1745
12734SOL    HW249422   3.061   1.828   0.566  0.7719  2.5755  0.0709
12735SOL     OW49423   0.987   9.727   3.704  0.3821 -0.0398  0.1753
12735SOL    HW149424   1.064   9.783   3.734 -0.7820  0.5034  2.3161
12735SOL    HW249425   0.939   9.774   3.629  1.7183 -0.0697 -0.7049
12736SOL     OW49426   1.084   7.284   0.033  0.2451  0.1591 -0.1977
12736SOL    HW149427   1.147   7.256   0.105 -0.1023  2.0013  0.8464
12736SOL    HW249428   1.018   7.210   0.018  0.5170 -0.3919  1.1462
12737SOL     OW49429   1.871   2.303   2.349 -0.2320  0.5160 -0.1073
12737SOL    HW149430   1.884   2.399   2.324 -0.0892  0.5085 -0.0617
12737SOL    HW249431   1.923   2.245   2.287 -1.1505  0.4060 -0.7913
12738SOL     OW49432   3.267   0.340   1.783 -0.5652  0.4381  0.3019
12738SOL    HW149433   3.221   0.348   1.871  0.3405 -1.5157  0.9684
12738SOL    HW249434   3.204   0.300   1.716 -0.3632 -0.7193  0.7963
12739SOL     OW49435   9.114   4.335   3.841 -0.2857 -0.2213 -0.3757
12739SOL    HW149436   9.096   4.275   3.763 -0.5517 -0.7644  0.1055
12739SOL    HW249437   9.177   4.407   3.813 -0.1810 -0.5618 -1.0292
12740SOL     OW49438   1.807   8.296   3.192 -0.1635  0.9897 -0.0058
12740SOL    HW149439   1.717   8.269   3.224  0.1985  1.5493  1.5327
12740SOL    HW249440   1.809   8.394   3.174  0.3517  1.1121  0.6995
12741SOL     OW49441   7.895   7.781   2.682 -0.3617  0.4108  0.4346
12741SOL    HW149442   7.913   7.877   2.703 -3.0269  0.9950  0.0988
12741SOL    HW249443   7.805   7.772   2.640 -0.2216 -2.2591  0.6555
12742SOL     OW49444   7.954   0.411   6.408  0.0540 -0.4201 -0.5783
12742SOL    HW149445   7.944   0.417   6.309  1.3173  0.4848 -0.6681
12742SOL    HW249446   7.868   0.433   6.452 -0.3449 -0.1922 -1.4604
12743SOL     OW49447   4.815   4.159   6.372 -0.6230 -0.1458  0.5020
12743SOL    HW149448   4.807   4.253   6.338 -2.1407 -0.0710  1.0336
12743SOL    HW249449   4.731   4.134   6.420 -0.8742 -2.3272 -1.0287
12744SOL     OW49450   3.608   6.261   3.422 -0.2071 -0.1623  0.0400
12744SOL    HW149451   3.609   6.170   3.380 -1.1606  0.1266 -0.6235
12744SOL    HW249452   3.526   6.270   3.479  0.1871  0.0750  0.5735
12745SOL     OW49453   1.848   0.244   1.843 -0.0982 -0.2206 -0.5487
12745SOL    HW149454   1.887   0.178   1.906 -3.7772 -1.9094  0.0498
12745SOL    HW249455   1.849   0.207   1.750  2.2661  0.9259 -1.0288
12746SOL     OW49456   8.728   6.458   2.862 -0.1190 -0.0858  0.5499
12746SOL    HW149457   8.651   6.425   2.807 -0.4587 -1.2326  1.6978
12746SOL    HW249458   8.765   6.383   2.917  1.2812  0.6622  0.6474
12747SOL     OW49459   4.178   8.866   6.436  0.1177  0.2218  0.2869
12747SOL    HW149460   4.115   8.803   6.390  1.0253 -0.0063 -0.6598
12747SOL    HW249461   4.269   8.827   6.437  0.9268  2.0214 -1.2963
12748SOL     OW49462   6.560   2.527   2.880 -0.4229  0.2443 -0.4336
12748SOL    HW149463   6.474   2.477   2.891  0.3182 -0.2433  3.8867
12748SOL    HW249464   6.637   2.468   2.903  0.6538  2.4091  1.8228
12749SOL     OW49465   5.414   1.958   4.362  0.1098  0.1636  0.3151
12749SOL    HW149466   5.507   1.927   4.381  0.6256  1.7925  0.4971
12749SOL    HW249467   5.372   1.897   4.295  0.7770 -1.4578  1.3601
12750SOL     OW49468   0.199   1.279   3.636  0.4073 -0.2293 -0.1262
12750SOL    HW149469   0.173   1.182   3.636  0.0784 -0.1566  1.5032
12750SOL    HW249470   0.296   1.288   3.659 -0.1002 -0.0749  2.0975
12751SOL     OW49471   4.870   1.524   5.263  0.0829 -0.2125  0.1155
12751SOL    HW149472   4.922   1.479   5.190 -1.6503 -2.4073  0.1815
12751SOL    HW249473   4.773   1.505   5.252 -0.4097  1.1716  1.8090
12752SOL     OW49474   8.208   6.848   4.204 -0.6074  0.1482  0.4245
12752SOL    HW149475   8.229   6.913   4.278  0.4679  0.9463 -0.5695
12752SOL    HW249476   8.148   6.891   4.137 -0.1921 -0.0048 -0.0495
12753SOL     OW49477   8.932   1.027   6.137 -0.6805  0.7819 -0.7901
12753SOL    HW149478   8.872   1.039   6.216  1.6527  0.9053  1.0013
12753SOL    HW249479   8.995   1.104   6.130  2.7243 -1.7693  0.4828
12754SOL     OW49480   9.442   8.740   4.421  0.2274 -0.2035 -0.3853
12754SOL    HW149481   9.391   8.700   4.345 -0.4225 -2.2657  1.0795
12754SOL    HW249482   9.386   8.810   4.465 -0.1054 -0.2730 -0.6947
12755SOL     OW49483   1.631   8.538   2.197  0.1607 -0.1712  0.7305
12755SOL    HW149484   1.579   8.490   2.126  0.0361  0.1675  0.5904
12755SOL    HW249485   1.651   8.632   2.166 -0.3207  0.1347  1.3486
12756SOL     OW49486   3.670   9.942   6.016  0.4619  0.2805  0.2694
12756SOL    HW149487   3.752   9.997   5.997 -0.6644  1.7862 -0.3069
12756SOL    HW249488   3.660   9.871   5.946  1.4379 -0.1222  0.5220
12757SOL     OW49489   8.079   0.921   1.503  0.1799  0.4928 -0.1419
12757SOL    HW149490   8.030   0.941   1.588 -0.8214  0.1837 -0.6244
12757SOL    HW249491   8.116   0.828   1.507 -1.4465 -0.2156 -0.7329
12758SOL     OW49492   0.353   8.150   6.583  0.3027  0.2870 -0.2228
12758SOL    HW149493   0.446   8.116   6.596  0.8165  1.0123 -1.8557
12758SOL    HW249494   0.318   8.118   6.495 -0.8741  0.3031  0.2303
12759SOL     OW49495   1.884   2.986   5.455  0.2785 -0.1320 -0.1931
12759SOL    HW149496   1.894   2.920   5.381 -0.2705  0.6854 -0.9981
12759SOL    HW249497   1.905   2.942   5.542  2.0600 -0.7988 -0.9441
12760SOL     OW49498   4.855   0.369   4.849  0.7147  0.1985 -0.4154
12760SOL    HW149499   4.783   0.438   4.853 -0.8317 -1.3803 -0.4495
12760SOL    HW249500   4.881   0.342   4.941  0.6494  0.1381 -0.4148
12761SOL     OW49501   7.497   7.077   1.868  0.2015  0.2908  0.4637
12761SOL    HW149502   7.450   7.086   1.956  1.3775 -0.1737  1.1574
12761SOL    HW249503   7.596   7.085   1.882  0.3352  1.2844 -0.9748
12762SOL     OW49504   6.353   7.491   4.867 -0.2638 -0.4384 -0.0678
12762SOL    HW149505   6.324   7.554   4.796 -0.7858 -0.1423  0.3995
12762SOL    HW249506   6.299   7.508   4.950  0.2550 -0.8574  0.3552
12763SOL     OW49507   9.093   2.571   5.764  0.5667 -0.5189 -0.4646
12763SOL    HW149508   9.020   2.629   5.801 -0.5554 -1.4062 -1.2363
12763SOL    HW249509   9.130   2.614   5.681 -0.8815 -1.2863 -1.5506
12764SOL     OW49510   8.081   6.234   0.026 -0.5230  0.0135  0.7505
12764SOL    HW149511   7.993   6.218   0.070 -0.6298 -0.1822  0.4678
12764SOL    HW249512   8.146   6.164   0.055 -0.9930 -0.9579 -0.4982
12765SOL     OW49513   9.961   4.919   5.150  0.0198 -0.2376  0.0640
12765SOL    HW149514   9.871   4.876   5.150 -0.1345  0.0569 -1.1964
12765SOL    HW249515   9.984   4.948   5.057  0.0608  2.5106  0.8792
12766SOL     OW49516   7.771   6.707   5.949 -0.3184 -0.2600 -0.1755
12766SOL    HW149517   7.782   6.652   5.866  2.7610 -0.2822  0.1739
12766SOL    HW249518   7.852   6.697   6.007 -1.2831  1.7847  1.6320
12767SOL     OW49519   7.065   8.748   5.009  0.4189  0.4702 -0.1586
12767SOL    HW149520   7.008   8.824   4.976 -1.8634 -0.8829  0.6206
12767SOL    HW249521   7.074   8.753   5.108  1.7354  0.6882 -0.2719
12768SOL     OW49522   9.640   4.335   1.651  0.0302  0.3531 -0.1590
12768SOL    HW149523   9.554   4.329   1.702  0.1830 -1.0088 -0.0437
12768SOL    HW249524   9.708   4.381   1.707 -0.5531  1.2284 -0.1604
12769SOL     OW49525   4.220   8.571   1.391 -0.4024 -0.5020  0.5681
12769SOL    HW149526   4.261   8.503   1.330  0.7501  0.9631 -0.3461
12769SOL    HW249527   4.135   8.604   1.351 -0.3562 -0.5555  0.4255
12770SOL     OW49528   8.371   3.884   5.156 -0.2092  0.3034 -0.0281
12770SOL    HW149529   8.328   3.797   5.179 -1.0909  0.5647 -0.6108
12770SOL    HW249530   8.381   3.940   5.238 -1.3354  0.3734  0.0766
12771SOL     OW49531   9.024   8.015   5.514  0.3148 -0.1696 -0.4546
12771SOL    HW149532   8.975   7.941   5.467  0.8833 -1.4904  1.0065
12771SOL    HW249533   9.122   7.995   5.514  0.6481  1.3275 -1.3333
12772SOL     OW49534   0.002   3.714   2.167 -0.0466 -0.1140 -0.5755
12772SOL    HW149535  -0.026   3.798   2.122 -0.3543 -0.3062 -0.7444
12772SOL    HW249536   0.063   3.735   2.243 -2.0974  0.4674  0.9804
12773SOL     OW49537   4.712   0.060   0.671  0.4493 -0.7038  0.1476
12773SOL    HW149538   4.803   0.100   0.682  0.5231 -0.7562 -0.2711
12773SOL    HW249539   4.644   0.133   0.669  0.7401 -0.4442 -2.4105
12774SOL     OW49540   0.573   4.439   6.548  0.8795  0.2779 -0.3096
12774SOL    HW149541   0.652   4.428   6.487  1.6771  0.5517  0.6488
12774SOL    HW249542   0.596   4.506   6.619  0.0544 -0.2441  0.4497
12775SOL     OW49543   8.279   4.971   2.028  0.4291 -0.3387 -0.1589
12775SOL    HW149544   8.348   4.915   2.075 -0.7683 -2.7675 -1.1776
12775SOL    HW249545   8.322   5.050   1.985  2.1791 -0.4608  1.3366
12776SOL     OW49546   2.449   1.808   1.691 -0.3090 -0.5171 -0.3490
12776SOL    HW149547   2.520   1.864   1.649 -2.0024  1.2501 -0.8972
12776SOL    HW249548   2.417   1.739   1.625 -0.0522 -0.4472 -0.5471
12777SOL     OW49549   1.126   1.913   5.750 -0.0546 -0.2721 -0.8108
12777SOL    HW149550   1.157   1.903   5.655  0.1859 -0.1062 -0.7511
12777SOL    HW249551   1.057   1.843   5.770 -0.7730  0.2731 -1.3806
12778SOL     OW49552   3.539   9.101   3.183  0.2556  0.3823 -0.7555
12778SOL    HW149553   3.524   9.036   3.258  2.5000  0.8239  0.1313
12778SOL    HW249554   3.620   9.073   3.132  0.4311  1.7225 -1.2104
12779SOL     OW49555   3.969   1.108   2.757  0.3581  0.1375 -0.5101
12779SOL    HW149556   3.898   1.042   2.781  2.0962 -1.9158 -0.8370
12779SOL    HW249557   3.929   1.184   2.707 -1.9450  0.1843  1.3402
12780SOL     OW49558   4.664   4.445   0.418  0.5003  0.2812 -0.1137
12780SOL    HW149559   4.616   4.438   0.506  0.6348  1.3630  0.0551
12780SOL    HW249560   4.643   4.532   0.375 -1.6104 -1.2850 -2.4173
12781SOL     OW49561   9.135   6.211   6.031  0.0004 -0.5457 -0.2231
12781SOL    HW149562   9.172   6.300   6.057 -1.7915  0.6781 -1.7777
12781SOL    HW249563   9.039   6.205   6.056 -0.3447 -1.3725 -1.6575
12782SOL     OW49564   3.100   4.665   4.424 -0.1281  0.1122  0.1990
12782SOL    HW149565   3.062   4.730   4.359  1.7824  2.4478  1.3106
12782SOL    HW249566   3.145   4.590   4.375 -0.5736  0.7001 -1.1148
12783SOL     OW49567   4.910   2.279   4.227  0.2257 -0.0167 -0.2977
12783SOL    HW149568   4.824   2.315   4.263 -0.1206 -1.0697 -0.0576
12783SOL    HW249569   4.987   2.318   4.278 -0.1669 -0.0659  0.3357
12784SOL     OW49570   1.149   8.077   6.711 -0.0165  0.0565 -0.1616
12784SOL    HW149571   1.177   8.036   6.624 -0.7942 -0.3665 -0.2211
12784SOL    HW249572   1.085   8.015   6.758 -0.6736  0.8921  0.0673
12785SOL     OW49573   9.322   5.792   5.458  0.5454 -0.1595 -0.6131
12785SOL    HW149574   9.413   5.828   5.436  0.8477 -0.3304  0.3202
12785SOL    HW249575   9.274   5.859   5.515  1.1570 -1.2630  1.2440
12786SOL     OW49576   3.680   8.370   2.185  0.1305  0.3470 -0.4736
12786SOL    HW149577   3.685   8.344   2.089 -1.4342  0.3730 -0.5759
12786SOL    HW249578   3.727   8.457   2.199  1.1070 -0.0814 -1.0443
12787SOL     OW49579   7.829   3.249   1.241 -0.0260  0.3393  0.5091
12787SOL    HW149580   7.761   3.269   1.171 -0.0601 -0.6511  0.2475
12787SOL    HW249581   7.917   3.290   1.216 -0.7035  2.2668  1.2257
12788SOL     OW49582   5.251   2.342   3.864 -0.2239  0.1288  0.1665
12788SOL    HW149583   5.257   2.243   3.867 -0.1126  0.1648  1.2881
12788SOL    HW249584   5.161   2.370   3.830  0.4617 -0.3580 -2.0968
12789SOL     OW49585   8.201   2.760   2.596  0.4470  0.5886  0.7465
12789SOL    HW149586   8.115   2.792   2.557  1.1908  2.1036  0.3048
12789SOL    HW249587   8.192   2.665   2.624 -0.8979  0.2770 -0.6973
12790SOL     OW49588   8.356   4.129   2.023  0.4687  0.2253 -0.0874
12790SOL    HW149589   8.273   4.164   1.979  0.1936  0.5124  0.6650
12790SOL    HW249590   8.409   4.077   1.956 -0.0405  0.5089 -0.7183
12791SOL     OW49591   2.102   0.154   3.682 -0.6845 -0.0135  0.0943
12791SOL    HW149592   2.188   0.173   3.730 -0.8577  0.7053  0.1237
12791SOL    HW249593   2.111   0.183   3.586 -1.1276  0.6952  0.2660
12792SOL     OW49594   4.159   8.721   1.949 -0.3130 -0.0822 -0.7109
12792SOL    HW149595   4.089   8.657   1.916  0.1617 -0.8897 -0.1711
12792SOL    HW249596   4.189   8.693   2.040 -1.6978  2.1717  0.5074
12793SOL     OW49597   2.365   4.891   0.594  0.1857  1.0466 -0.7193
12793SOL    HW149598   2.456   4.932   0.583  0.8470 -0.3726 -0.7878
12793SOL    HW249599   2.338   4.896   0.690  1.1163 -0.0674 -0.3873
12794SOL     OW49600   7.788   3.892   1.549 -0.2659 -0.3474  0.4607
12794SOL    HW149601   7.740   3.853   1.471 -0.4577 -0.6946  0.7532
12794SOL    HW249602   7.735   3.968   1.587 -0.9052 -1.1442  1.1850
12795SOL     OW49603   9.082   9.290   4.525  0.4860  0.1908  0.2592
12795SOL    HW149604   9.026   9.241   4.592  0.5253 -0.6209 -0.2934
12795SOL    HW249605   9.173   9.307   4.564 -0.7110  3.2294  1.8906
12796SOL     OW49606   6.712   2.175   5.057 -0.6367  0.5990  0.5466
12796SOL    HW149607   6.642   2.221   5.002 -0.1414  0.1293 -0.4831
12796SOL    HW249608   6.781   2.242   5.085  0.4879  0.3660 -1.5870
12797SOL     OW49609   4.514   0.225   5.987 -0.9150 -0.8147  0.1193
12797SOL    HW149610   4.474   0.134   5.974 -1.0534 -0.9377  1.2869
12797SOL    HW249611   4.614   0.218   5.985 -0.9337 -0.5843 -2.3102
12798SOL     OW49612   0.367   1.911   2.747  0.0498  0.1309  0.7022
12798SOL    HW149613   0.445   1.974   2.746  0.9499 -1.0031 -1.7746
12798SOL    HW249614   0.292   1.950   2.693 -0.0731 -0.1172  0.6934
12799SOL     OW49615   9.666   3.036   4.513  0.2310 -0.2858 -0.5254
12799SOL    HW149616   9.741   2.980   4.547 -1.7292 -3.2984 -0.9883
12799SOL    HW249617   9.613   3.072   4.591  0.9148  0.1325 -0.2512
12800SOL     OW49618   8.496   6.017   1.648 -0.2905 -0.1294  0.7933
12800SOL    HW149619   8.554   6.010   1.730 -1.4836  0.0805  1.6606
12800SOL    HW249620   8.511   6.106   1.605  3.7291 -1.9101 -1.8237
12801SOL     OW49621   1.510   9.366   1.331 -0.4606  0.1843 -0.2084
12801SOL    HW149622   1.449   9.407   1.262 -0.9947 -2.9328 -1.6715
12801SOL    HW249623   1.469   9.375   1.421 -0.9761  2.0512 -0.6111
12802SOL     OW49624   0.123   5.888   4.471 -0.9708  0.0914  0.0574
12802SOL    HW149625   0.194   5.941   4.424  0.2329 -0.8824  0.7626
12802SOL    HW249626   0.080   5.826   4.407 -0.4036 -0.1235 -0.1203
12803SOL     OW49627   9.679   3.810   1.169  0.3941  0.2799  0.2895
12803SOL    HW149628   9.732   3.737   1.212  0.8074 -0.3023 -1.1731
12803SOL    HW249629   9.614   3.848   1.236 -0.9551 -2.5109  0.6459
12804SOL     OW49630   5.158   2.500   1.550  0.6490 -0.8469  0.0384
12804SOL    HW149631   5.067   2.498   1.509  1.2771  0.6586 -1.5016
12804SOL    HW249632   5.151   2.517   1.648 -0.7229 -0.7868 -0.0693
12805SOL     OW49633   7.980   6.368   5.111 -0.4665 -0.0108  0.0467
12805SOL    HW149634   8.037   6.398   5.034 -0.1433 -0.5555  0.0693
12805SOL    HW249635   7.913   6.439   5.133 -0.4401  0.2209 -0.6203
12806SOL     OW49636   9.602   7.994   2.176  0.4826  0.3507 -0.2461
12806SOL    HW149637   9.608   7.951   2.086 -0.2831 -0.8398  0.2568
12806SOL    HW249638   9.536   7.944   2.233  1.9255  0.2865  1.4221
12807SOL     OW49639   0.974   7.081   4.697 -0.5513 -0.3174  0.3517
12807SOL    HW149640   1.021   7.140   4.631 -0.2026 -0.2005  0.7015
12807SOL    HW249641   0.886   7.052   4.659 -2.2830  3.1246  1.4586
12808SOL     OW49642   2.629   7.995   5.032 -0.2411  0.0107  0.2340
12808SOL    HW149643   2.717   8.042   5.039 -0.0456 -0.0513 -1.6149
12808SOL    HW249644   2.643   7.897   5.049 -0.0137  0.0437  0.2436
12809SOL     OW49645   0.013   6.702   1.755  0.4352 -0.2277 -0.2244
12809SOL    HW149646   0.028   6.624   1.816  0.9478  0.5921  0.7197
12809SOL    HW249647  -0.036   6.672   1.673 -0.1360 -1.3816  0.5259
12810SOL     OW49648   8.774   8.917   5.924  0.1667 -0.3234 -0.4373
12810SOL    HW149649   8.849   8.877   5.976 -0.5947 -0.0857  0.8696
12810SOL    HW249650   8.723   8.843   5.879 -0.1417 -0.6808  0.4836
12811SOL     OW49651   9.667   7.864   2.725  0.1559 -0.6241 -0.4626
12811SOL    HW149652   9.721   7.924   2.785 -0.5437 -0.7993  0.3586
12811SOL    HW249653   9.679   7.893   2.630 -2.4988  2.7774  0.1197
12812SOL     OW49654   8.730   7.195   3.532  0.1263 -0.5737  0.4535
12812SOL    HW149655   8.687   7.165   3.447  1.4473  2.3214 -1.3187
12812SOL    HW249656   8.669   7.258   3.580  0.5411  0.0958  0.1260
12813SOL     OW49657   9.770   9.106   1.783  0.0618 -0.0583 -0.3491
12813SOL    HW149658   9.830   9.113   1.703 -0.3407 -0.3022 -0.6764
12813SOL    HW249659   9.693   9.045   1.762 -1.7541  2.3083 -0.8616
12814SOL     OW49660   2.338   1.358   5.992  0.2016 -0.2173  0.0631
12814SOL    HW149661   2.361   1.331   6.085  0.5429  1.3359  0.4471
12814SOL    HW249662   2.350   1.457   5.982  0.6732 -0.4426 -1.7806
12815SOL     OW49663   7.365   2.272   3.311  0.0298  0.1361 -0.4267
12815SOL    HW149664   7.359   2.369   3.288 -1.5560 -0.1964 -1.5127
12815SOL    HW249665   7.323   2.256   3.400 -0.8637  0.2531 -0.8270
12816SOL     OW49666   9.052   8.427   4.896  0.1612 -0.2118 -0.0668
12816SOL    HW149667   8.955   8.409   4.909  0.3347  0.7497  2.9277
12816SOL    HW249668   9.068   8.526   4.894  1.1382 -0.3572  0.0418
12817SOL     OW49669   4.044   9.149   5.380 -0.3086  0.0621  0.4350
12817SOL    HW149670   4.032   9.205   5.462 -2.2559  0.7450 -0.2968
12817SOL    HW249671   3.957   9.106   5.355  0.2727 -0.1871 -1.2387
12818SOL     OW49672   7.718   3.043   4.310  0.4118  0.3834  0.4808
12818SOL    HW149673   7.705   3.054   4.408  0.7358  1.6884  0.3848
12818SOL    HW249674   7.631   3.019   4.267 -0.0792  1.4567  0.8681
12819SOL     OW49675   6.916   2.056   4.861  0.3798 -0.1094  0.0336
12819SOL    HW149676   7.014   2.041   4.867  0.1861 -1.9614 -1.0680
12819SOL    HW249677   6.883   2.099   4.945  1.8426 -1.0890  1.1172
12820SOL     OW49678   2.067   2.430   3.029  0.1407  0.5258  0.1826
12820SOL    HW149679   2.094   2.524   3.009 -1.6781  0.8129 -1.0044
12820SOL    HW249680   2.032   2.387   2.946 -0.1245 -0.8306  0.9825
12821SOL     OW49681   0.043   6.197   5.097  0.5573  0.4185 -0.3975
12821SOL    HW149682   0.032   6.274   5.034  1.8301  1.3612  0.5117
12821SOL    HW249683   0.116   6.217   5.162 -0.0747 -0.9574  0.7644
12822SOL     OW49684   2.866   2.347   3.445 -0.1981 -0.2635  0.7943
12822SOL    HW149685   2.798   2.297   3.500  1.0166 -0.7013  1.9189
12822SOL    HW249686   2.831   2.358   3.352 -2.4750  0.8199  1.7227
12823SOL     OW49687   0.728   6.060   5.773 -0.4054 -0.1385 -0.0321
12823SOL    HW149688   0.681   6.028   5.856  0.6058  1.3351  1.1323
12823SOL    HW249689   0.759   6.154   5.786  0.2691 -0.0755 -1.8916
12824SOL     OW49690   0.284   3.041   5.276 -0.1995  0.4102  0.0934
12824SOL    HW149691   0.269   3.088   5.363  0.1662  0.8757 -0.0947
12824SOL    HW249692   0.303   2.944   5.294  0.5237  0.6361  0.5671
12825SOL     OW49693   9.099   5.860   4.710  0.3062  0.5625  0.3045
12825SOL    HW149694   9.169   5.805   4.664 -0.2469  0.8435 -0.9129
12825SOL    HW249695   9.033   5.800   4.755 -0.5000  0.1966 -1.3256
12826SOL     OW49696   8.757   7.013   1.218 -0.6205 -0.9829 -0.2977
12826SOL    HW149697   8.769   6.918   1.247 -0.2279 -1.2212 -1.2508
12826SOL    HW249698   8.821   7.071   1.268 -0.9210 -1.2040  0.3504
12827SOL     OW49699   2.777   1.873   4.265  0.1191  0.1608 -0.2798
12827SOL    HW149700   2.718   1.948   4.296 -0.1959 -0.2090  0.0303
12827SOL    HW249701   2.851   1.910   4.209  0.1648  0.7396  0.1500
12828SOL     OW49702   8.945   8.412   0.475 -0.0533  0.0209  0.2264
12828SOL    HW149703   8.864   8.470   0.469  0.3171  0.5622  0.3753
12828SOL    HW249704   9.018   8.452   0.419  0.5705  0.3229  1.2455
12829SOL     OW49705   2.474   8.135   6.552  0.5882 -0.0022  0.0486
12829SOL    HW149706   2.386   8.161   6.514 -0.3461  0.2741  2.3007
12829SOL    HW249707   2.544   8.201   6.526 -0.1421  0.4846 -0.6733
12830SOL     OW49708   4.013   4.706   5.826 -0.2488 -0.1702 -0.0515
12830SOL    HW149709   4.066   4.724   5.743 -0.1412  0.5603  0.1775
12830SOL    HW249710   3.916   4.702   5.804 -0.2724  0.6690 -0.1060
12831SOL     OW49711   7.933   3.237   0.387 -0.1649 -0.1593 -0.1712
12831SOL    HW149712   7.921   3.195   0.477 -1.1897  0.8952  0.1888
12831SOL    HW249713   7.939   3.336   0.397  0.5048 -0.0903 -1.1967
12832SOL     OW49714   3.030   8.015   2.928  0.5212 -0.6639 -0.5434
12832SOL    HW149715   2.931   8.000   2.925  0.1486  1.2755  1.0613
12832SOL    HW249716   3.059   8.062   2.845 -0.1736  0.2497 -0.2692
12833SOL     OW49717   4.802   3.688   1.326 -0.1474  0.4292 -0.1797
12833SOL    HW149718   4.793   3.783   1.297 -0.6781  0.5208  0.2815
12833SOL    HW249719   4.712   3.649   1.344  0.1250  0.1564  0.6426
12834SOL     OW49720   7.458   1.919   2.999  0.2983  0.3979 -0.2312
12834SOL    HW149721   7.405   1.990   3.047 -1.2936 -0.6970 -0.3187
12834SOL    HW249722   7.501   1.959   2.918  0.8374  1.6596  0.6543
12835SOL     OW49723   0.408   1.310   1.349  0.2409  0.1241  0.8277
12835SOL    HW149724   0.453   1.221   1.335  1.9225  1.0220  0.4003
12835SOL    HW249725   0.365   1.311   1.439  0.9816 -0.8184  1.2012
12836SOL     OW49726   7.099   3.309   4.186 -0.4243 -0.2294 -0.1356
12836SOL    HW149727   7.041   3.287   4.108 -0.9557 -0.3692  0.2997
12836SOL    HW249728   7.176   3.365   4.155 -0.8932  0.1243 -0.6796
12837SOL     OW49729   7.908   7.254   0.909  0.1411 -0.4511 -0.0619
12837SOL    HW149730   7.895   7.166   0.865 -0.7994 -1.3034  1.8736
12837SOL    HW249731   7.861   7.325   0.857 -1.2865 -1.4992 -0.2067
12838SOL     OW49732   0.276   7.906   1.890 -0.7648 -0.0619 -0.2414
12838SOL    HW149733   0.197   7.874   1.837  0.4371 -2.8163 -0.4561
12838SOL    HW249734   0.343   7.948   1.829 -1.1045  0.3524 -0.3377
12839SOL     OW49735   9.989   5.430   3.458  0.1135  0.1044 -0.3430
12839SOL    HW149736  10.063   5.489   3.424 -1.3011  1.2414 -1.5152
12839SOL    HW249737   9.927   5.484   3.514 -1.3531 -0.1888 -1.6511
12840SOL     OW49738   1.054   6.875   5.712 -0.6027 -0.5452 -0.1872
12840SOL    HW149739   1.051   6.881   5.812 -0.6902 -0.9863 -0.1650
12840SOL    HW249740   1.058   6.779   5.684 -0.5936 -0.4227 -0.6083
12841SOL     OW49741   2.484   6.278   5.936 -0.3003 -0.2238 -0.3025
12841SOL    HW149742   2.542   6.359   5.951 -1.6871  0.2516  3.0891
12841SOL    HW249743   2.509   6.208   6.002 -2.9271 -0.3529  0.6171
12842SOL     OW49744   7.239   3.571   1.218 -0.1414  0.6009 -0.4122
12842SOL    HW149745   7.267   3.543   1.310 -2.7151 -1.0783 -0.0998
12842SOL    HW249746   7.168   3.641   1.225 -2.5498 -1.6821 -0.9954
12843SOL     OW49747   6.225   0.763   1.782 -0.3903 -0.7211 -0.2861
12843SOL    HW149748   6.134   0.786   1.746  0.2388 -0.1842 -1.5421
12843SOL    HW249749   6.218   0.680   1.837 -1.7237 -0.4516 -0.0210
12844SOL     OW49750   0.887   6.166   1.541 -0.0407 -0.2901 -0.5921
12844SOL    HW149751   0.800   6.190   1.498 -0.9687 -1.3439  0.6543
12844SOL    HW249752   0.947   6.125   1.473 -0.2628  1.0260 -1.6125
12845SOL     OW49753   2.783   0.623   0.895  0.1649 -0.2827  0.2524
12845SOL    HW149754   2.773   0.720   0.871  1.6829  0.1733  1.3845
12845SOL    HW249755   2.766   0.567   0.814 -2.1580  0.8491 -0.0698
12846SOL     OW49756   3.753   9.676   3.121  0.0347 -0.1508  0.0480
12846SOL    HW149757   3.749   9.581   3.091 -1.7776 -0.2685  0.5845
12846SOL    HW249758   3.758   9.736   3.041  1.7033 -0.7091 -0.2737
12847SOL     OW49759   1.168   1.039   4.378  0.2773  0.0140  0.2286
12847SOL    HW149760   1.222   1.066   4.298  2.3179 -2.1466  0.8347
12847SOL    HW249761   1.156   1.118   4.438 -0.3819  1.4002 -1.6631
12848SOL     OW49762   8.801   9.869   3.745 -0.3990 -0.2806 -0.4023
12848SOL    HW149763   8.795   9.967   3.730 -0.8758 -0.3988 -0.9994
12848SOL    HW249764   8.880   9.849   3.803  0.3154  0.3629 -1.1352
12849SOL     OW49765   0.926   6.330   1.826 -0.3414 -0.0768 -0.3854
12849SOL    HW149766   0.931   6.232   1.805 -0.7175  0.1056 -1.3494
12849SOL    HW249767   0.938   6.343   1.924  0.0144 -1.0681 -0.2836
12850SOL     OW49768   3.304   9.611   2.077  0.0504 -0.1756  0.1738
12850SOL    HW149769   3.397   9.578   2.097 -0.6271 -2.1059  0.2328
12850SOL    HW249770   3.268   9.659   2.157  1.4313  1.6703 -0.2620
12851SOL     OW49771   8.781   2.879   5.195  0.1202 -0.2439  0.3919
12851SOL    HW149772   8.804   2.970   5.228 -1.6550  0.1127  0.7085
12851SOL    HW249773   8.739   2.885   5.104  0.2289 -0.7610  0.3032
12852SOL     OW49774   9.432   8.612   6.589 -0.0858 -0.0808  0.2996
12852SOL    HW149775   9.503   8.645   6.527 -0.7280  0.3667 -0.2079
12852SOL    HW249776   9.342   8.634   6.551 -0.4902 -0.2701  1.1392
12853SOL     OW49777   1.710   6.718   4.318  0.3887 -0.0940 -0.0321
12853SOL    HW149778   1.655   6.639   4.348  0.0448  0.2163  0.1611
12853SOL    HW249779   1.649   6.795   4.298  0.7448  0.2094  0.0487
12854SOL     OW49780   9.375   6.243   5.177  0.7038 -0.7759 -0.5133
12854SOL    HW149781   9.353   6.233   5.080 -2.3727 -0.6969  0.1247
12854SOL    HW249782   9.362   6.338   5.206 -0.6025 -1.2322  0.4584
12855SOL     OW49783   1.022   3.442   0.893  0.1610 -0.3810  0.4699
12855SOL    HW149784   1.064   3.526   0.925 -1.9151  0.4718  0.9760
12855SOL    HW249785   0.978   3.394   0.969 -1.1862 -0.4438 -0.3300
12856SOL     OW49786   0.486   6.933   5.915  0.1078  0.2378  0.3288
12856SOL    HW149787   0.445   7.017   5.949 -0.4949  0.0848 -0.0218
12856SOL    HW249788   0.545   6.953   5.837  0.3116  0.3901  0.5208
12857SOL     OW49789   2.487   5.781   1.209  0.1898 -0.0448  0.6531
12857SOL    HW149790   2.524   5.744   1.294 -1.6950 -0.3107  1.3790
12857SOL    HW249791   2.387   5.778   1.212  0.0892  0.8741 -1.1648
12858SOL     OW49792   3.262   0.415   5.330  0.0655  0.6964  0.4147
12858SOL    HW149793   3.252   0.409   5.230 -1.3663  2.6362  0.4162
12858SOL    HW249794   3.186   0.368   5.374 -1.0262  2.5194  0.5377
12859SOL     OW49795   6.366   4.399   0.472  1.1924 -0.1601 -0.2297
12859SOL    HW149796   6.376   4.346   0.388  1.0505 -0.9620  0.2502
12859SOL    HW249797   6.456   4.421   0.509  1.3161  2.6569 -2.0986
12860SOL     OW49798   2.309   7.014   5.473  0.0384  0.0391 -0.1519
12860SOL    HW149799   2.283   7.110   5.482 -0.0230  0.2483 -2.4373
12860SOL    HW249800   2.389   6.996   5.530 -0.0324  1.3877  0.4029
12861SOL     OW49801   6.862   1.752   5.612  0.5590 -0.1994 -0.7136
12861SOL    HW149802   6.879   1.772   5.709  0.2973  3.1692 -1.3128
12861SOL    HW249803   6.947   1.765   5.561  0.6374 -1.7628 -1.0241
12862SOL     OW49804   6.092   1.204   5.053  0.1617  0.5057 -0.5936
12862SOL    HW149805   6.084   1.303   5.054  0.2585  0.5198 -1.2095
12862SOL    HW249806   6.188   1.178   5.050  0.1322  0.3987 -0.6195
12863SOL     OW49807   2.881   0.497   2.489  0.8070  0.0390 -0.0456
12863SOL    HW149808   2.937   0.455   2.560  2.1870 -0.1500 -1.2084
12863SOL    HW249809   2.882   0.439   2.408  0.3203  0.8748 -0.6610
12864SOL     OW49810   2.008   4.783   3.499 -0.2419 -0.5323  0.0475
12864SOL    HW149811   2.079   4.777   3.429  0.8649 -1.9543  1.2614
12864SOL    HW249812   2.039   4.736   3.582 -1.6793  0.8022  1.3724
12865SOL     OW49813   7.405   1.840   2.092 -0.2130  0.1255 -0.1357
12865SOL    HW149814   7.479   1.778   2.064 -1.3281 -1.0121 -0.5811
12865SOL    HW249815   7.443   1.911   2.152  1.6696  0.9176 -2.1589
12866SOL     OW49816   0.781   5.767   0.147 -0.1780 -0.0188 -0.1206
12866SOL    HW149817   0.880   5.781   0.156  0.0731 -1.3555 -0.6704
12866SOL    HW249818   0.733   5.842   0.191  1.0952  1.7549 -1.6416
12867SOL     OW49819   3.497   0.920   3.182  0.2919  0.2175 -0.3086
12867SOL    HW149820   3.410   0.886   3.147  0.6632  0.7597 -1.8028
12867SOL    HW249821   3.480   0.982   3.259 -0.5054 -1.3555  0.8050
12868SOL     OW49822   6.464   9.587   4.153 -0.1683  0.0892 -0.1647
12868SOL    HW149823   6.373   9.607   4.189  0.2058 -0.1499  0.9350
12868SOL    HW249824   6.478   9.488   4.153 -0.0061  0.1124 -0.5830
12869SOL     OW49825   4.132   9.821   4.026 -0.2781  0.4977 -0.3465
12869SOL    HW149826   4.167   9.848   3.936 -0.9330 -2.2176 -1.4613
12869SOL    HW249827   4.205   9.774   4.077 -0.0511  1.6115  0.3614
12870SOL     OW49828   3.934   4.066   5.057  0.7375  0.1619  0.2009
12870SOL    HW149829   3.971   4.034   4.970 -0.9348 -1.3091 -0.0134
12870SOL    HW249830   3.911   4.163   5.050 -0.7508 -0.2784 -1.4962
12871SOL     OW49831   2.920   2.010   1.770 -0.1392  0.1266 -0.0025
12871SOL    HW149832   2.897   2.021   1.867 -0.4342  0.0145 -0.0592
12871SOL    HW249833   2.953   2.097   1.733 -0.7614  0.3611  0.0014
12872SOL     OW49834   3.923   6.476   1.231  0.2313  0.1582 -0.8716
12872SOL    HW149835   4.012   6.441   1.262 -1.1394 -1.1534  1.7688
12872SOL    HW249836   3.929   6.575   1.219  1.6067  0.3448  1.0556
12873SOL     OW49837   3.156   0.286   4.222  0.0462  0.2524  0.1020
12873SOL    HW149838   3.100   0.207   4.198 -1.2709  1.4760 -0.9928
12873SOL    HW249839   3.123   0.325   4.309  0.4218 -0.1357  0.4219
12874SOL     OW49840   1.828   5.707   0.355 -0.1966  0.0324  0.1500
12874SOL    HW149841   1.780   5.753   0.279 -0.0374  1.6730  1.0176
12874SOL    HW249842   1.868   5.776   0.415 -0.4342 -1.2482  1.8166
12875SOL     OW49843   4.505   0.273   0.721 -0.0543  0.2172 -0.0883
12875SOL    HW149844   4.495   0.372   0.715 -0.8458  0.2900  2.0975
12875SOL    HW249845   4.415   0.232   0.739  0.4796 -0.7839  0.3078
12876SOL     OW49846   3.094   5.100   0.245 -0.5280  0.3317 -0.6401
12876SOL    HW149847   2.997   5.080   0.254 -0.8463  1.7203 -0.8057
12876SOL    HW249848   3.146   5.049   0.313 -1.4076 -0.2100 -0.3792
12877SOL     OW49849   9.635   1.724   1.303 -0.0968 -0.1653 -0.1886
12877SOL    HW149850   9.637   1.681   1.212 -2.4319 -0.9960  0.1095
12877SOL    HW249851   9.606   1.819   1.294  1.0480  0.1659 -0.4411
12878SOL     OW49852   4.423   0.948   4.166  0.4639  0.1851  0.2036
12878SOL    HW149853   4.404   0.891   4.086  2.7439  0.0735 -0.3031
12878SOL    HW249854   4.394   1.042   4.148 -0.5316 -0.1794 -0.1219
12879SOL     OW49855   9.560   6.771   6.511  0.5610  0.5341 -0.5188
12879SOL    HW149856   9.486   6.789   6.575  1.1949 -1.1818  0.7566
12879SOL    HW249857   9.647   6.800   6.551  0.5794  2.8968 -2.1648
12880SOL     OW49858   3.373   5.985   6.681  0.0861  0.4433 -0.2094
12880SOL    HW149859   3.435   5.936   6.743 -3.9788 -1.6742  2.4184
12880SOL    HW249860   3.367   5.936   6.595  0.9436 -0.1205  0.0414
12881SOL     OW49861   9.865   5.621   3.650  0.0750  0.5896  0.2172
12881SOL    HW149862   9.789   5.620   3.715 -1.4486 -2.4358 -1.4794
12881SOL    HW249863   9.951   5.605   3.698 -1.0329 -1.6561  1.5018
12882SOL     OW49864   1.021   0.104   3.476  0.5641 -0.3054 -0.2026
12882SOL    HW149865   1.094   0.055   3.523  1.1003 -0.6384 -1.3583
12882SOL    HW249866   0.995   0.185   3.529  1.0370 -0.7655  0.7359
12883SOL     OW49867   9.788   0.745   4.989 -0.5962 -0.0891 -0.3506
12883SOL    HW149868   9.854   0.818   4.968 -0.2384  0.0477  1.1834
12883SOL    HW249869   9.835   0.657   4.992 -0.6056 -0.0782  0.1026
12884SOL     OW49870   5.528   8.960   1.749  0.5011  0.1408 -0.5665
12884SOL    HW149871   5.561   9.054   1.754  3.0801 -0.8032  1.4829
12884SOL    HW249872   5.547   8.913   1.836 -1.5239 -2.0283 -1.2298
12885SOL     OW49873   8.643   6.575   1.313  0.0874 -0.4176 -0.8010
12885SOL    HW149874   8.687   6.496   1.271 -1.1820  0.1915 -3.3928
12885SOL    HW249875   8.711   6.646   1.332  1.2297 -2.0917  1.5135
12886SOL     OW49876   1.424   1.951   3.433  0.3477 -0.4265 -0.3878
12886SOL    HW149877   1.381   2.013   3.498  1.0089 -0.6818  0.2990
12886SOL    HW249878   1.447   1.865   3.479  2.3779  0.0282 -0.5326
12887SOL     OW49879   9.102   7.248   4.100 -0.4915  0.6182 -0.3141
12887SOL    HW149880   9.188   7.297   4.113 -0.2029  0.1785 -0.5585
12887SOL    HW249881   9.031   7.288   4.158 -0.4408  1.7817 -1.0530
12888SOL     OW49882   5.880   7.808   3.492  0.0778 -0.0179  0.1781
12888SOL    HW149883   5.794   7.758   3.504 -1.6257  2.4069 -1.3771
12888SOL    HW249884   5.945   7.780   3.562 -1.6649 -2.5457  0.8632
12889SOL     OW49885   6.973   6.139   4.948  0.2320  0.0709  0.8101
12889SOL    HW149886   6.957   6.216   4.886  0.5939 -0.6934 -0.2471
12889SOL    HW249887   7.047   6.083   4.912  1.0793  0.1267  2.4290
12890SOL     OW49888   2.071   8.315   3.275 -0.1756 -0.2847 -0.1813
12890SOL    HW149889   2.123   8.236   3.306 -0.0821  0.0199  0.4461
12890SOL    HW249890   1.973   8.294   3.279 -0.1193 -0.6977 -0.9238
12891SOL     OW49891   8.961   2.582   3.487  0.2611  0.1366  0.2947
12891SOL    HW149892   8.885   2.523   3.460  0.4642  0.5473 -1.2137
12891SOL    HW249893   8.958   2.667   3.435  1.6205  0.2490  0.3740
12892SOL     OW49894   5.361   8.954   4.604  0.2462  0.2947 -0.3155
12892SOL    HW149895   5.393   8.919   4.692  1.0479  2.0757  0.1237
12892SOL    HW249896   5.262   8.969   4.608  0.0119 -1.1110 -0.2626
12893SOL     OW49897   9.165   0.417   5.580  0.2273 -0.0759 -0.0522
12893SOL    HW149898   9.109   0.448   5.503  0.9269  0.3913 -0.3797
12893SOL    HW249899   9.143   0.472   5.661  1.2916  1.1385 -0.5711
12894SOL     OW49900   3.359   0.545   0.614 -0.3355  0.2504  0.2140
12894SOL    HW149901   3.449   0.579   0.641 -0.4625  0.5214  0.2916
12894SOL    HW249902   3.368   0.451   0.581 -0.0399  0.2409  0.3192
12895SOL     OW49903   1.562   3.829   1.540  0.2537  0.2051 -0.6224
12895SOL    HW149904   1.597   3.748   1.587 -1.2202 -0.3618 -0.4636
12895SOL    HW249905   1.569   3.908   1.601  1.9119  0.2554 -0.8631
12896SOL     OW49906   7.114   0.701   5.288  0.1823 -0.3346  0.0544
12896SOL    HW149907   7.191   0.734   5.344 -0.3672 -0.6398  0.9961
12896SOL    HW249908   7.119   0.744   5.198  1.9477 -0.9985 -0.1894
12897SOL     OW49909   8.716   1.350   2.637 -0.3255  0.0760 -0.1395
12897SOL    HW149910   8.739   1.285   2.709 -0.2870 -0.5450 -0.7092
12897SOL    HW249911   8.782   1.425   2.637  0.6816 -0.8078 -0.6403
12898SOL     OW49912   1.372   9.557   3.519 -0.0740  0.1467  0.0191
12898SOL    HW149913   1.383   9.534   3.615 -0.2424  1.5577  0.3862
12898SOL    HW249914   1.275   9.564   3.496 -0.0252  1.0006  0.0484
12899SOL     OW49915   6.025   0.846   0.932 -0.6892  0.5084 -0.1923
12899SOL    HW149916   6.018   0.753   0.968  0.6474  0.2755 -0.5095
12899SOL    HW249917   5.983   0.910   0.997 -1.1098 -0.2493  0.2902
12900SOL     OW49918   7.061   1.063   2.734 -0.6286  0.6385  0.2030
12900SOL    HW149919   7.150   1.109   2.739 -0.5693  0.5218  0.2234
12900SOL    HW249920   6.988   1.130   2.748 -0.5577  0.8116 -0.2582
12901SOL     OW49921   3.465   8.162   5.559 -0.1704 -0.4175  0.4305
12901SOL    HW149922   3.516   8.174   5.644 -0.8010 -0.4443  0.8124
12901SOL    HW249923   3.507   8.217   5.487  1.3252 -1.6419  0.3534
12902SOL     OW49924   8.435   9.350   3.419  0.0139  0.0596 -0.5527
12902SOL    HW149925   8.509   9.296   3.378  1.5478  0.2763  1.8237
12902SOL    HW249926   8.351   9.338   3.365  0.5339 -3.9770 -0.6329
12903SOL     OW49927   8.418   9.928   1.678  0.0008  1.0288  0.0830
12903SOL    HW149928   8.404   9.942   1.776  0.5656  0.0328  0.3113
12903SOL    HW249929   8.488   9.991   1.644  0.4454  0.7583  0.5013
12904SOL     OW49930   1.797   3.910   4.552  0.2279 -0.2676 -0.3101
12904SOL    HW149931   1.817   4.008   4.553  1.3417 -0.5027  0.8843
12904SOL    HW249932   1.864   3.861   4.608 -0.5262 -1.6772 -0.6146
12905SOL     OW49933   7.467   4.074   0.822  0.1319 -0.1473  0.1649
12905SOL    HW149934   7.522   4.154   0.797  1.0826 -1.5141 -2.3084
12905SOL    HW249935   7.522   4.013   0.880  0.1330 -0.0112  0.3074
12906SOL     OW49936   9.503   3.071   2.805  0.5765 -0.2399  0.5354
12906SOL    HW149937   9.469   3.018   2.728  0.4383 -0.4568  0.7450
12906SOL    HW249938   9.600   3.092   2.791  0.4436  0.0953  0.0969
12907SOL     OW49939   2.480   8.436   2.969 -0.0140 -0.0209  0.3412
12907SOL    HW149940   2.435   8.525   2.970  0.8879  0.4535  1.3064
12907SOL    HW249941   2.483   8.400   2.876  1.1147  1.7566 -0.3371
12908SOL     OW49942   6.934   1.766   2.386 -0.2780  0.0969 -0.5763
12908SOL    HW149943   6.898   1.757   2.478 -3.2422  1.0963 -1.5743
12908SOL    HW249944   7.028   1.730   2.382 -0.7664 -1.5887  2.3742
12909SOL     OW49945   3.417   8.888   5.833 -0.4605  0.0618 -0.3883
12909SOL    HW149946   3.432   8.894   5.931  2.5879 -0.2344 -0.8024
12909SOL    HW249947   3.401   8.979   5.796 -2.9030  0.0474  0.5264
12910SOL     OW49948   0.041   1.960   5.871  0.2306 -0.3874  0.1849
12910SOL    HW149949   0.064   1.883   5.812  0.6568  0.0578 -0.2355
12910SOL    HW249950   0.025   2.042   5.815 -0.8925 -0.3210  0.5716
12911SOL     OW49951   7.143   8.930   5.246  0.0798 -0.0060 -0.0213
12911SOL    HW149952   7.228   8.877   5.248  1.7697  2.4776 -3.1373
12911SOL    HW249953   7.138   8.988   5.327  0.0340 -2.0353  1.4850
12912SOL     OW49954   4.776   3.730   0.334 -0.3134  0.3120  0.0159
12912SOL    HW149955   4.709   3.805   0.338 -1.0051 -0.2981 -0.0616
12912SOL    HW249956   4.754   3.663   0.405 -1.3897 -1.2267 -1.7519
12913SOL     OW49957   1.016   1.531   5.228  0.0000  0.4267  0.1052
12913SOL    HW149958   1.052   1.452   5.278  0.8508  1.5103  1.2133
12913SOL    HW249959   0.917   1.526   5.225  0.0208 -0.4067  0.6450
12914SOL     OW49960   7.757   6.686   6.391 -0.2766  0.1461  0.2712
12914SOL    HW149961   7.659   6.669   6.381 -0.4434  0.8383  0.7066
12914SOL    HW249962   7.807   6.599   6.385 -0.8528 -0.1276 -0.6579
12915SOL     OW49963   3.479   4.463   2.622 -0.0432 -0.7715 -0.3072
12915SOL    HW149964   3.577   4.467   2.639  0.1673 -0.2243 -1.5959
12915SOL    HW249965   3.460   4.490   2.528 -1.6561  1.4782  0.6205
12916SOL     OW49966   1.742   8.108   4.161 -0.4523  0.6206 -0.2030
12916SOL    HW149967   1.801   8.186   4.139 -0.8035  0.9655  0.0752
12916SOL    HW249968   1.799   8.032   4.194 -0.1157  0.7776 -0.4170
12917SOL     OW49969   5.780   0.711   2.418 -0.4020  0.0064 -0.0762
12917SOL    HW149970   5.757   0.645   2.490 -1.2167 -0.5329 -0.8164
12917SOL    HW249971   5.782   0.664   2.330 -0.8379  0.9456 -0.5869
12918SOL     OW49972   9.910   4.078   5.860  0.1146  0.3787  0.4009
12918SOL    HW149973   9.827   4.104   5.811  0.7645 -0.3148 -1.1085
12918SOL    HW249974   9.926   3.980   5.850  0.7353  0.3773  1.2737
12919SOL     OW49975   3.283   4.576   2.791  0.2468  0.3168 -0.6351
12919SOL    HW149976   3.350   4.559   2.864 -0.5831  1.8098  0.5184
12919SOL    HW249977   3.330   4.617   2.712  0.9864 -0.3160 -0.5289
12920SOL     OW49978   8.623   4.308   3.699  0.3726  0.0474 -0.4092
12920SOL    HW149979   8.588   4.224   3.656 -0.3364 -0.5092  1.1948
12920SOL    HW249980   8.703   4.340   3.649 -0.6981 -0.2932 -2.4227
12921SOL     OW49981   0.897   5.425   6.046 -0.0465 -0.5901  0.2210
12921SOL    HW149982   0.901   5.525   6.054  0.7652 -0.4439 -1.6079
12921SOL    HW249983   0.852   5.401   5.959  0.0768 -1.8082  0.4919
12922SOL     OW49984   0.343   1.732   5.534  0.4755  0.4302 -0.6727
12922SOL    HW149985   0.370   1.636   5.529  0.3828  0.4434 -1.5727
12922SOL    HW249986   0.277   1.752   5.461 -1.5573  0.5325  1.1576
12923SOL     OW49987   2.546   0.940   5.130  0.1083  0.2250 -0.4305
12923SOL    HW149988   2.579   1.028   5.096  2.4988 -0.4007  0.1530
12923SOL    HW249989   2.574   0.929   5.226  0.2319 -1.3476 -0.6358
12924SOL     OW49990   7.418   6.962   3.193  0.5704 -0.3177  0.2279
12924SOL    HW149991   7.377   7.047   3.225  0.6809 -0.1994  0.0559
12924SOL    HW249992   7.455   6.975   3.101 -0.0282 -0.7448 -0.0829
12925SOL     OW49993   4.386   3.084   0.705  0.4501  0.2635 -0.7403
12925SOL    HW149994   4.318   3.148   0.741 -0.0008  0.5186 -2.0281
12925SOL    HW249995   4.344   3.025   0.637  1.4575  0.2511 -1.3611
12926SOL     OW49996   7.730   3.211   1.470  1.1271  0.3260 -0.4995
12926SOL    HW149997   7.787   3.213   1.388 -0.4415 -0.9093 -1.6458
12926SOL    HW249998   7.650   3.153   1.454  0.5625  0.4370  1.7525
12927SOL     OW49999   9.402   9.200   0.673  0.1469 -0.3630  0.8377
12927SOL    HW150000   9.466   9.128   0.647  1.2226  0.8266  0.1274
12927SOL    HW250001   9.330   9.207   0.604  1.1019  0.4992 -0.0960
12928SOL     OW50002   4.211   1.501   6.058  0.1729 -0.1367  0.0251
12928SOL    HW150003   4.237   1.585   6.105  1.3685  0.1382 -1.1102
12928SOL    HW250004   4.119   1.512   6.018 -0.2790  0.1036  1.1123
12929SOL     OW50005   0.071   4.324   3.219  0.0774  0.5112 -0.3164
12929SOL    HW150006   0.076   4.241   3.275 -0.4823  0.0627 -0.9178
12929SOL    HW250007   0.088   4.300   3.123 -1.1636  0.9107 -0.6424
12930SOL     OW50008   2.572   9.067   0.715  0.4586  0.2220  0.3679
12930SOL    HW150009   2.525   9.118   0.643 -0.1364 -0.3755  0.3268
12930SOL    HW250010   2.505   9.038   0.784  0.9251  0.2315  0.8262
12931SOL     OW50011   0.636   1.745   4.231 -0.3377 -0.1204  0.7777
12931SOL    HW150012   0.599   1.837   4.224  0.1743  0.1481  1.6375
12931SOL    HW250013   0.652   1.722   4.326  0.2920 -0.8011  0.5128
12932SOL     OW50014   0.044   0.267   5.524 -0.0949  0.5403 -0.6194
12932SOL    HW150015  -0.007   0.193   5.482  1.3245  0.5536 -2.4194
12932SOL    HW250016   0.049   0.252   5.623 -1.9217 -0.4384 -0.6582
12933SOL     OW50017   7.869   1.284   3.561  0.1514  0.2179 -0.0159
12933SOL    HW150018   7.914   1.371   3.538  1.0853 -0.4868 -0.8934
12933SOL    HW250019   7.889   1.260   3.656  0.9724  0.3001 -0.1678
12934SOL     OW50020   9.850   2.873   6.183 -0.1959  0.2747 -0.2138
12934SOL    HW150021   9.757   2.893   6.153  0.2821  0.2849 -1.7313
12934SOL    HW250022   9.879   2.785   6.143  0.3431  0.1453  0.4656
12935SOL     OW50023   9.039   0.941   3.581  0.4799 -0.5865 -0.3737
12935SOL    HW150024   8.999   0.930   3.672  0.5171 -1.3222 -0.4428
12935SOL    HW250025   8.977   0.995   3.524 -0.7151 -2.2112 -0.6534
12936SOL     OW50026   9.477   3.140   4.715 -0.4476 -0.0547  0.1669
12936SOL    HW150027   9.474   3.067   4.782 -1.3862  0.1075  0.3146
12936SOL    HW250028   9.435   3.222   4.753 -0.7259  0.1276 -0.5118
12937SOL     OW50029   9.936   2.111   2.572  0.0584  0.2460 -0.4456
12937SOL    HW150030   9.857   2.050   2.561  0.1063 -0.5529  2.8596
12937SOL    HW250031   9.937   2.178   2.498 -3.3835 -0.1163 -0.9326
12938SOL     OW50032   5.014   8.108   2.292 -0.4379 -0.1050  0.2211
12938SOL    HW150033   4.966   8.030   2.251  0.3831 -0.5091  0.0288
12938SOL    HW250034   5.108   8.110   2.259  0.2341 -0.4402  2.1043
12939SOL     OW50035   3.027   7.068   3.185 -0.6287  0.0384 -0.0208
12939SOL    HW150036   3.126   7.053   3.192 -0.7610  0.2082  2.8346
12939SOL    HW250037   2.980   6.979   3.191 -0.7224  0.1302  0.6482
12940SOL     OW50038   4.327   3.070   4.316 -0.2057  0.2157  1.1377
12940SOL    HW150039   4.245   3.014   4.325  1.2843 -2.1469  0.3632
12940SOL    HW250040   4.358   3.070   4.221  0.5108  1.3734  1.3567
12941SOL     OW50041   7.912   0.622   6.012 -0.4539  0.2066 -0.1119
12941SOL    HW150042   7.845   0.652   5.945  0.1433  0.6973 -0.4929
12941SOL    HW250043   8.002   0.613   5.969 -0.6850 -2.5834 -0.1194
12942SOL     OW50044   8.831   0.612   3.911  0.1315 -0.3221  0.1891
12942SOL    HW150045   8.762   0.548   3.877  0.6731 -0.9741  0.3009
12942SOL    HW250046   8.820   0.626   4.009 -2.7451  3.1692 -0.5077
12943SOL     OW50047   4.486   4.553   2.123 -0.2223 -0.5898 -0.0246
12943SOL    HW150048   4.477   4.589   2.217 -0.2130 -1.8074  0.4476
12943SOL    HW250049   4.515   4.457   2.127  3.8748  0.4690 -1.3199
12944SOL     OW50050   0.784   2.968   1.705 -0.1965 -0.0390  0.3032
12944SOL    HW150051   0.753   2.875   1.683  1.1590 -0.6427  0.8921
12944SOL    HW250052   0.809   3.016   1.621  1.4333 -1.0594  0.1834
12945SOL     OW50053   4.241   9.087   5.099 -0.3110  0.4120 -0.6045
12945SOL    HW150054   4.322   9.079   5.041 -1.0417 -2.2747 -1.2950
12945SOL    HW250055   4.264   9.062   5.193  0.0382  1.3073 -0.4445
12946SOL     OW50056   0.273   1.918   0.349 -0.2074  0.0237  0.2309
12946SOL    HW150057   0.326   1.839   0.382 -1.4470 -1.2677 -0.8373
12946SOL    HW250058   0.183   1.918   0.392 -1.8379 -1.6721 -3.0835
12947SOL     OW50059   2.937   7.286   1.492  0.3819  0.2372  0.2117
12947SOL    HW150060   2.916   7.272   1.396 -2.1325  1.0739  0.5935
12947SOL    HW250061   2.979   7.375   1.505  0.7624  0.1050 -0.1249
12948SOL     OW50062   1.891   3.439   3.902  0.3166 -0.7329  0.2171
12948SOL    HW150063   1.797   3.429   3.871  0.3485 -0.7093  0.1139
12948SOL    HW250064   1.954   3.422   3.826  0.3885 -0.4474  0.2133
12949SOL     OW50065   7.352   4.976   6.620 -0.1254  0.7939 -0.2243
12949SOL    HW150066   7.334   5.073   6.635  0.1076  0.6290  1.2044
12949SOL    HW250067   7.449   4.956   6.637 -0.7605 -0.2074  2.3831
12950SOL     OW50068   9.085   2.376   6.618 -0.5530  0.0527 -0.3073
12950SOL    HW150069   9.103   2.374   6.716 -0.6316  0.8587 -0.2699
12950SOL    HW250070   9.168   2.349   6.568  0.3005  2.1375 -0.0862
12951SOL     OW50071   5.946   8.700   5.071  0.3781 -0.0494 -0.2327
12951SOL    HW150072   5.905   8.740   4.990  0.7720  0.2508 -0.2868
12951SOL    HW250073   5.999   8.770   5.119  1.1241 -0.5227 -0.3639
12952SOL     OW50074   8.995   5.363   4.581  0.5060 -0.0740  0.0453
12952SOL    HW150075   8.963   5.292   4.518  0.6152 -0.8362  0.8299
12952SOL    HW250076   9.057   5.322   4.649  1.4099  0.9703 -0.1281
12953SOL     OW50077   4.920   2.969   1.801 -0.3749  0.8547  0.0464
12953SOL    HW150078   4.955   2.939   1.890 -1.0743 -0.3374 -0.0605
12953SOL    HW250079   4.878   2.891   1.755  1.2018  1.1491 -1.9231
12954SOL     OW50080   1.988   0.110   0.697 -0.3253 -0.4953  0.1677
12954SOL    HW150081   1.919   0.172   0.662  0.9776  0.4755 -0.7393
12954SOL    HW250082   1.967   0.017   0.670  0.2841  0.1501 -2.6330
12955SOL     OW50083   6.919   0.193   3.049  0.5940 -0.4321 -0.3654
12955SOL    HW150084   7.013   0.216   3.023  0.4899  0.6212  0.1563
12955SOL    HW250085   6.905   0.216   3.145 -0.4091  0.0558 -0.6261
12956SOL     OW50086   1.658   7.967   4.632 -0.0928  0.1624 -0.0639
12956SOL    HW150087   1.729   8.009   4.576 -0.9990  2.4890  0.4661
12956SOL    HW250088   1.678   7.982   4.729  0.8985 -2.9032  0.2627
12957SOL     OW50089   7.833   8.824   2.347  0.3965  0.0744 -0.0921
12957SOL    HW150090   7.841   8.872   2.260 -1.1035  2.3984  1.0320
12957SOL    HW250091   7.924   8.816   2.389  0.6354  2.0617 -0.2147
12958SOL     OW50092   2.335   0.757   4.485  0.2363  0.3220 -0.1003
12958SOL    HW150093   2.400   0.683   4.471 -1.0184 -1.0607  1.1930
12958SOL    HW250094   2.291   0.747   4.574  0.2505  2.7972  0.2182
12959SOL     OW50095   0.282   4.743   3.048  0.3159  0.6741  0.1911
12959SOL    HW150096   0.184   4.727   3.060  0.4463 -0.1667  0.1043
12959SOL    HW250097   0.322   4.769   3.136  0.4263 -1.1306  0.6763
12960SOL     OW50098   9.451   3.704   2.413  0.2852 -0.0658  0.5052
12960SOL    HW150099   9.409   3.782   2.459 -1.2711  0.5113 -1.8257
12960SOL    HW250100   9.544   3.691   2.448  0.2475  2.2685  1.5685
12961SOL     OW50101   8.038   1.441   4.372  0.0319  0.1146 -0.2175
12961SOL    HW150102   8.013   1.451   4.276 -2.3408 -0.0039  0.3600
12961SOL    HW250103   7.970   1.386   4.419  2.0551 -1.2498  1.1991
12962SOL     OW50104   8.032   8.576   3.681 -0.4714 -0.1442  0.2974
12962SOL    HW150105   8.056   8.546   3.773 -1.4985  0.3140  0.7303
12962SOL    HW250106   7.952   8.525   3.649  0.7698 -1.3676 -0.9531
12963SOL     OW50107   9.810   6.795   6.605  0.4723  0.8235  0.5901
12963SOL    HW150108   9.824   6.785   6.704  0.1951  0.5765  0.6040
12963SOL    HW250109   9.882   6.745   6.556  0.6447  0.9963  0.6661
12964SOL     OW50110   9.485   8.373   3.682  0.1911 -0.0234  0.7476
12964SOL    HW150111   9.388   8.363   3.705 -0.2868 -1.5251 -1.7209
12964SOL    HW250112   9.497   8.453   3.623  0.1679 -0.7664 -0.2908
12965SOL     OW50113   3.183   2.913   3.860 -0.8218 -0.0365 -0.2229
12965SOL    HW150114   3.133   2.848   3.802 -1.5872 -0.1017  0.5031
12965SOL    HW250115   3.256   2.956   3.807 -1.1773 -0.4955 -1.0871
12966SOL     OW50116   0.061   2.240   0.100  0.0350 -0.0851 -0.6425
12966SOL    HW150117   0.052   2.326   0.150  1.6521  1.1547 -2.3748
12966SOL    HW250118  -0.008   2.237   0.027  0.1957 -0.0871 -0.7954
12967SOL     OW50119   8.909   1.363   5.603 -0.1333  0.1794  0.0500
12967SOL    HW150120   8.863   1.308   5.673 -1.9650 -0.5784 -1.6788
12967SOL    HW250121   8.889   1.460   5.618  0.3072  0.1070  1.1473
12968SOL     OW50122   9.255   5.235   0.509  0.4015  0.0367 -0.6485
12968SOL    HW150123   9.262   5.264   0.605  1.6372  0.5774 -0.8912
12968SOL    HW250124   9.280   5.139   0.501  1.5155  0.3161 -0.5979
12969SOL     OW50125   2.276   3.676   0.360  0.0824  0.3272 -0.0912
12969SOL    HW150126   2.356   3.616   0.351  0.6965  1.1644 -0.1861
12969SOL    HW250127   2.237   3.666   0.451  1.2534  1.1156  0.5033
12970SOL     OW50128   4.587   3.874   1.072 -0.5295  0.0642  0.2341
12970SOL    HW150129   4.513   3.844   1.012 -0.4330  1.7332 -0.7580
12970SOL    HW250130   4.675   3.850   1.030 -0.4243  2.4710 -1.0483
12971SOL     OW50131   5.753   9.629   3.662 -0.0212 -0.0481 -0.4217
12971SOL    HW150132   5.687   9.692   3.622  0.1385  1.6716  1.9380
12971SOL    HW250133   5.845   9.658   3.639  0.0118 -0.2407 -0.5308
12972SOL     OW50134   5.022   6.998   1.527  0.4683 -0.0828 -0.2592
12972SOL    HW150135   5.023   7.011   1.428  2.3872  1.3788 -0.0847
12972SOL    HW250136   5.103   6.944   1.554 -0.0289 -0.4498  0.5222
12973SOL     OW50137   1.957   2.066   4.487 -0.3207 -0.2386 -0.1968
12973SOL    HW150138   1.980   1.973   4.456  0.0031 -0.4771  0.7340
12973SOL    HW250139   2.031   2.100   4.544 -1.2914 -0.1414  1.0217
12974SOL     OW50140   6.072   7.807   2.544  0.2791  0.8299  0.5421
12974SOL    HW150141   6.167   7.835   2.530  0.3771  0.8419  1.1879
12974SOL    HW250142   6.069   7.720   2.592 -0.0333 -0.0882 -1.1051
12975SOL     OW50143   3.917   3.545   4.112  0.5364 -0.1423  0.1153
12975SOL    HW150144   3.904   3.554   4.210 -1.3887  0.3844 -0.1669
12975SOL    HW250145   3.851   3.480   4.075  0.5106  0.4867 -0.9738
12976SOL     OW50146   8.235   5.322   5.330 -0.3699  0.5885  0.2984
12976SOL    HW150147   8.190   5.236   5.305  1.3252  0.2068 -1.5775
12976SOL    HW250148   8.167   5.395   5.334 -1.3366 -0.1658 -1.4683
12977SOL     OW50149   9.537   9.087   3.417  0.3611  0.5252 -0.8508
12977SOL    HW150150   9.626   9.047   3.396  0.7315  0.3101  1.0231
12977SOL    HW250151   9.522   9.084   3.516 -1.0905  1.9026 -1.0091
12978SOL     OW50152   9.505   4.313   5.567  0.0070 -0.4851 -0.0339
12978SOL    HW150153   9.501   4.410   5.540 -0.8757 -0.5813 -0.2848
12978SOL    HW250154   9.599   4.288   5.589  0.6886 -0.2210 -2.4607
12979SOL     OW50155   5.336   0.848   3.424 -0.2294  0.0717 -0.2343
12979SOL    HW150156   5.426   0.830   3.383  0.0302 -1.6403  1.0737
12979SOL    HW250157   5.311   0.773   3.485 -1.0863  2.0893  1.9583
12980SOL     OW50158   3.857   9.712   5.507  0.0635  0.1139 -0.1205
12980SOL    HW150159   3.927   9.770   5.549  0.3157  1.2548 -2.0693
12980SOL    HW250160   3.772   9.720   5.559  0.7410  0.4210  0.9720
12981SOL     OW50161   0.603   7.359   4.095 -0.2340 -0.2054 -0.5582
12981SOL    HW150162   0.670   7.315   4.154 -0.1292 -0.1251 -0.6155
12981SOL    HW250163   0.622   7.335   4.000  0.0000  0.1994 -0.6121
12982SOL     OW50164   3.395   1.669   2.233  0.0638 -0.8166 -0.2513
12982SOL    HW150165   3.412   1.659   2.135 -0.2623 -1.3607 -0.2512
12982SOL    HW250166   3.372   1.764   2.253  0.3191 -0.6639 -0.6739
12983SOL     OW50167   8.782   7.892   1.289 -0.1038  0.4066  0.0877
12983SOL    HW150168   8.790   7.793   1.304  3.1202  0.7075  0.9146
12983SOL    HW250169   8.807   7.913   1.195 -1.2233  0.4086 -0.2146
12984SOL     OW50170   2.077   2.209   6.166  0.2069 -0.4384 -0.6982
12984SOL    HW150171   2.039   2.120   6.138 -1.2483  0.3169 -1.1868
12984SOL    HW250172   2.008   2.260   6.217  1.4193 -0.0374  0.5483
12985SOL     OW50173   8.787   4.363   3.967  0.1873  0.2371 -0.3354
12985SOL    HW150174   8.866   4.340   3.910 -0.0959 -0.3091 -0.5165
12985SOL    HW250175   8.715   4.295   3.952 -0.3848  0.8405 -0.3111
12986SOL     OW50176   8.641   8.754   0.965 -0.1890 -0.6243 -0.3832
12986SOL    HW150177   8.681   8.758   1.057 -3.2514 -0.1699  0.9642
12986SOL    HW250178   8.680   8.827   0.909 -0.5616  1.0469  1.5026
12987SOL     OW50179   1.847   8.491   5.820 -0.3016  0.0699 -0.2066
12987SOL    HW150180   1.926   8.433   5.838  0.5142  1.4769  0.8330
12987SOL    HW250181   1.877   8.585   5.806 -1.6873  0.4094 -1.0108
12988SOL     OW50182   4.650   7.328   1.788  0.5645 -0.0128  0.3254
12988SOL    HW150183   4.689   7.251   1.738 -1.8015 -1.1466  0.1830
12988SOL    HW250184   4.552   7.313   1.803 -0.0479  3.1201 -0.0433
12989SOL     OW50185   7.640   0.986   1.463 -0.0886 -0.2857  0.0190
12989SOL    HW150186   7.543   0.988   1.485 -0.3648  0.8440 -1.1793
12989SOL    HW250187   7.694   1.011   1.544 -0.6565 -3.0347  1.2688
12990SOL     OW50188   1.586   2.554   2.367 -0.2701  0.0168 -0.3901
12990SOL    HW150189   1.669   2.514   2.327 -1.0850 -1.4279 -0.7003
12990SOL    HW250190   1.513   2.555   2.298 -0.9642 -0.1941  0.3288
12991SOL     OW50191   0.563   2.865   6.560 -0.0225  0.0690 -0.1133
12991SOL    HW150192   0.500   2.819   6.622 -0.3958 -1.3254 -1.4896
12991SOL    HW250193   0.654   2.824   6.568 -0.3956 -1.0789 -1.4666
12992SOL     OW50194   3.262   5.648   1.299  0.2912  0.0427  0.7779
12992SOL    HW150195   3.285   5.709   1.223  0.3713 -0.0727  0.7092
12992SOL    HW250196   3.294   5.688   1.384 -1.0190  0.8299  0.9125
12993SOL     OW50197   2.254   8.853   0.729 -0.1785 -0.2014  0.2921
12993SOL    HW150198   2.161   8.846   0.766  0.2748 -0.2872  1.4489
12993SOL    HW250199   2.252   8.897   0.640 -1.4942 -1.5358 -0.3580
12994SOL     OW50200   7.553   6.906   0.712 -0.0543  0.2547 -0.7921
12994SOL    HW150201   7.571   6.810   0.688 -0.2327  0.2249 -0.8143
12994SOL    HW250202   7.564   6.918   0.811 -0.0520  0.2059 -0.7862
12995SOL     OW50203   1.638   4.265   6.634 -0.5099 -0.1341  0.3890
12995SOL    HW150204   1.717   4.326   6.643 -0.2910 -0.3126 -0.3265
12995SOL    HW250205   1.617   4.224   6.723 -0.0067  0.1715  0.6478
12996SOL     OW50206   8.797   2.286   1.453 -0.3480  0.3703 -0.4662
12996SOL    HW150207   8.747   2.221   1.395  2.1546 -0.3997 -1.8592
12996SOL    HW250208   8.815   2.369   1.401  0.4530  0.3485 -0.2289
12997SOL     OW50209   4.185   2.006   1.109  0.1152  0.4747 -0.3054
12997SOL    HW150210   4.160   1.977   1.202  0.5750  2.4947  0.4619
12997SOL    HW250211   4.103   2.032   1.059 -0.2763 -1.8542 -0.9171
12998SOL     OW50212   1.441   6.020   2.972 -0.2180 -0.1588  0.7011
12998SOL    HW150213   1.404   6.046   2.883  0.7366  1.4070  0.7300
12998SOL    HW250214   1.533   5.983   2.961  0.7921  2.0737  1.1782
12999SOL     OW50215   7.880   1.837   5.159 -0.1719 -0.3190  0.4850
12999SOL    HW150216   7.936   1.818   5.078 -1.4235  0.4712 -0.5807
12999SOL    HW250217   7.928   1.901   5.218  1.0694 -1.4558  0.7414
13000SOL     OW50218   2.615   3.321   5.130  0.2334  0.1136  0.7867
13000SOL    HW150219   2.598   3.417   5.156 -0.1948 -0.1508  1.5092
13000SOL    HW250220   2.564   3.261   5.191 -0.6133 -0.5473 -0.5507
13001SOL     OW50221   8.589   8.847   6.746  0.0779 -0.4139 -0.1927
13001SOL    HW150222   8.633   8.786   6.811  0.3690  0.6005  0.5734
13001SOL    HW250223   8.514   8.799   6.700  0.3419 -1.3531  0.3529
13002SOL     OW50224   1.687   7.728   6.064 -0.6520 -0.1253 -0.5386
13002SOL    HW150225   1.779   7.693   6.044 -0.5001 -0.3290  0.4919
13002SOL    HW250226   1.660   7.793   5.992  0.9571  1.1758  0.0038
13003SOL     OW50227   0.128   1.765   2.401 -0.1823  0.4398  0.5852
13003SOL    HW150228   0.205   1.791   2.343  0.2111  0.5670  1.1692
13003SOL    HW250229   0.121   1.665   2.405  0.8297  0.4160  1.7059
13004SOL     OW50230   5.089   9.381   3.865 -0.4514 -0.2941 -0.2313
13004SOL    HW150231   4.990   9.374   3.877 -0.5579  0.4423 -0.6445
13004SOL    HW250232   5.117   9.477   3.867  0.2116 -0.4745 -0.4675
13005SOL     OW50233   7.756   1.901   6.222  0.3373 -0.0143  0.4872
13005SOL    HW150234   7.734   1.952   6.305 -2.1417 -0.6259  0.2428
13005SOL    HW250235   7.802   1.816   6.246  0.2598  0.1400  1.1931
13006SOL     OW50236   3.312   4.274   6.671 -0.6178  0.4857 -0.0926
13006SOL    HW150237   3.234   4.334   6.681  0.2101  1.5269  0.1445
13006SOL    HW250238   3.329   4.257   6.573 -0.2202  1.4715 -0.1949
13007SOL     OW50239   0.067   0.228   5.794 -0.2623 -0.1588  0.3551
13007SOL    HW150240   0.074   0.129   5.799  1.7191 -0.0213  0.6758
13007SOL    HW250241   0.084   0.267   5.885 -1.2324  0.4822  0.2766
13008SOL     OW50242   4.498   3.674   2.789 -0.0425 -0.1784  0.1581
13008SOL    HW150243   4.466   3.767   2.772 -0.4710 -0.2754  0.4431
13008SOL    HW250244   4.598   3.671   2.779 -0.0643  0.2323 -0.2083
13009SOL     OW50245   0.877   7.901   4.281  0.8196 -0.6338 -0.3596
13009SOL    HW150246   0.792   7.919   4.231 -0.3258  0.5428  1.9336
13009SOL    HW250247   0.934   7.983   4.282  0.9652 -0.7388  0.0040
13010SOL     OW50248   3.134   1.081   1.139 -0.2358  0.5522  0.4705
13010SOL    HW150249   3.146   1.125   1.227 -0.4193 -0.7780  1.1725
13010SOL    HW250250   3.200   1.117   1.074 -3.0781  4.9941 -0.2111
13011SOL     OW50251   7.603   9.004   5.633 -0.0019 -0.1128 -0.0662
13011SOL    HW150252   7.621   9.011   5.534  3.5024 -1.8003  0.3851
13011SOL    HW250253   7.648   8.923   5.669 -1.9663  0.0096  2.8320
13012SOL     OW50254   0.185   4.339   5.270 -0.3217  0.3626  0.0654
13012SOL    HW150255   0.246   4.278   5.220 -0.0191  0.1500  0.6775
13012SOL    HW250256   0.227   4.361   5.359 -0.7706  0.8569  0.1548
13013SOL     OW50257   4.462   9.478   2.343  0.1438 -0.3109 -0.0738
13013SOL    HW150258   4.525   9.547   2.377 -0.7502  1.1461 -1.2897
13013SOL    HW250259   4.449   9.490   2.245 -1.8128 -0.7401  0.1012
13014SOL     OW50260   2.817   7.489   1.671 -0.1924 -0.1753 -0.3744
13014SOL    HW150261   2.797   7.556   1.599  0.5662  0.3936 -0.0619
13014SOL    HW250262   2.829   7.399   1.630 -0.4934  0.0147 -0.8812
13015SOL     OW50263   4.892   2.524   2.433  0.5517  0.1727 -0.2841
13015SOL    HW150264   4.911   2.437   2.479 -1.0828 -1.2604 -2.2646
13015SOL    HW250265   4.907   2.599   2.497 -2.2136 -1.7853  2.8248
13016SOL     OW50266   1.011   4.863   1.623  0.4705  0.4116  0.0523
13016SOL    HW150267   1.098   4.847   1.668 -0.4003  2.5031  2.6163
13016SOL    HW250268   1.010   4.956   1.586 -0.9378  0.6833  0.7293
13017SOL     OW50269   3.495   3.304   2.246  0.0067  0.1707 -0.0343
13017SOL    HW150270   3.515   3.322   2.150  0.2706  1.6387  0.2939
13017SOL    HW250271   3.543   3.221   2.274 -0.4577 -0.5430 -1.2938
13018SOL     OW50272   7.346   5.337   6.445 -0.0944 -0.3442  0.6401
13018SOL    HW150273   7.411   5.310   6.374  0.7802 -0.1005  1.3391
13018SOL    HW250274   7.253   5.318   6.414  0.2622  0.0538 -0.6928
13019SOL     OW50275   6.619   9.187   2.589  0.2981  0.0948 -0.1615
13019SOL    HW150276   6.608   9.215   2.494 -1.4314  0.8714  0.2510
13019SOL    HW250277   6.662   9.260   2.641 -0.2721  0.3243 -0.0052
13020SOL     OW50278   6.531   9.250   2.337  0.0931 -0.6176  0.0128
13020SOL    HW150279   6.446   9.265   2.285  0.5072  1.0324 -0.2148
13020SOL    HW250280   6.604   9.306   2.298  0.2053  1.3549  2.9408
13021SOL     OW50281   2.754   0.352   3.915  0.1735 -0.1346 -0.1242
13021SOL    HW150282   2.820   0.418   3.950  1.3920 -0.9207 -0.8940
13021SOL    HW250283   2.661   0.390   3.921  0.5697  0.5164  2.0477
13022SOL     OW50284   6.746   9.702   3.224  0.0604 -0.4075  0.6575
13022SOL    HW150285   6.677   9.774   3.212 -0.9172 -1.5771 -0.8840
13022SOL    HW250286   6.727   9.651   3.307 -0.2616 -0.0071  0.8313
13023SOL     OW50287   7.156   0.500   6.501  0.1079 -1.0263  0.3925
13023SOL    HW150288   7.218   0.579   6.504 -2.4474  0.9514  3.0638
13023SOL    HW250289   7.192   0.427   6.560  1.5761 -1.2300 -0.7211
13024SOL     OW50290   8.458   4.761   3.642  0.4435  0.2787 -0.0949
13024SOL    HW150291   8.456   4.747   3.741 -0.4901 -0.2313 -0.1817
13024SOL    HW250292   8.504   4.847   3.621  1.4335 -0.0367  0.7353
13025SOL     OW50293   3.439   3.842   2.826  0.1677 -0.4807  0.3868
13025SOL    HW150294   3.449   3.756   2.777 -1.4503 -0.1877 -0.5195
13025SOL    HW250295   3.357   3.889   2.793  1.0319  1.3999  0.8732
13026SOL     OW50296   1.829   3.591   2.528  0.3861  0.3634  0.0431
13026SOL    HW150297   1.919   3.569   2.566  0.4882 -1.2058 -1.0915
13026SOL    HW250298   1.833   3.679   2.480  0.8920  1.0946  1.3890
13027SOL     OW50299   2.716   2.264   3.819  0.0919 -0.0068  0.0522
13027SOL    HW150300   2.646   2.201   3.853 -0.3765  1.0061  0.9810
13027SOL    HW250301   2.780   2.286   3.892  1.2974 -0.7835 -0.7450
13028SOL     OW50302   3.741   3.373   4.000 -0.0096  0.2555 -0.8703
13028SOL    HW150303   3.732   3.337   3.908 -0.2935  0.7079 -1.0209
13028SOL    HW250304   3.672   3.444   4.016  1.2126  1.4954 -0.9369
13029SOL     OW50305   3.287   8.574   1.513  0.4735  0.2647 -0.5064
13029SOL    HW150306   3.244   8.496   1.468  1.0074 -1.0189  1.1472
13029SOL    HW250307   3.223   8.650   1.518 -0.0275 -0.0229 -2.2133
13030SOL     OW50308   7.874   3.010   5.033 -0.0812 -0.1190 -0.1015
13030SOL    HW150309   7.813   3.053   5.099  0.6661 -1.3767  1.4494
13030SOL    HW250310   7.897   3.075   4.960 -0.3724  1.4986  1.2390
13031SOL     OW50311   3.646   4.139   4.867 -0.0163  0.2476 -0.5695
13031SOL    HW150312   3.654   4.233   4.900 -0.1280  0.4121 -0.9969
13031SOL    HW250313   3.736   4.106   4.838  0.1113  0.0408  0.0610
13032SOL     OW50314   8.851   9.556   6.171  0.0914  0.0913  0.0801
13032SOL    HW150315   8.949   9.542   6.181 -0.0496  0.1607  1.7835
13032SOL    HW250316   8.818   9.614   6.246 -1.0833  0.8653 -1.0165
13033SOL     OW50317   7.823   9.487   4.344 -0.7389  0.3064 -0.7010
13033SOL    HW150318   7.832   9.424   4.421  0.0928 -3.1148 -3.4662
13033SOL    HW250319   7.728   9.520   4.338 -0.8361  0.5319  1.6445
13034SOL     OW50320   2.841   5.868   3.932  0.3762 -0.5821  0.5615
13034SOL    HW150321   2.804   5.960   3.922  1.4128 -0.2628 -0.3503
13034SOL    HW250322   2.783   5.804   3.881  0.2681 -0.2784  0.2988
13035SOL     OW50323   3.959   6.184   0.292 -0.6506 -0.3925  0.0479
13035SOL    HW150324   4.034   6.134   0.335 -0.3292 -0.7202 -0.8817
13035SOL    HW250325   3.920   6.129   0.218 -1.0584  0.2554 -0.2265
13036SOL     OW50326   4.340   8.319   3.651  0.8124 -0.4496  0.2167
13036SOL    HW150327   4.417   8.318   3.588  1.8462  0.7128  1.4360
13036SOL    HW250328   4.265   8.374   3.612  0.9915 -0.7131 -0.5018
13037SOL     OW50329   9.986   1.357   3.786  0.0793  0.1808  0.1401
13037SOL    HW150330   9.934   1.374   3.703 -0.0369  0.7024  0.3159
13037SOL    HW250331  10.077   1.323   3.762  0.8588  2.4925 -0.2888
13038SOL     OW50332   4.016   2.263   2.005 -0.0399  0.6559 -0.0053
13038SOL    HW150333   4.007   2.330   2.079 -0.3259  0.1278  0.4435
13038SOL    HW250334   4.063   2.182   2.038 -3.7585 -1.3132  0.8006
13039SOL     OW50335   2.860   5.002   6.673 -0.1673  0.4763 -0.5371
13039SOL    HW150336   2.922   4.959   6.739 -0.5462  0.5093 -0.1574
13039SOL    HW250337   2.913   5.043   6.599  0.1888 -0.7823 -0.9901
13040SOL     OW50338   1.085   1.221   3.334 -0.4892 -0.0161  0.6009
13040SOL    HW150339   1.026   1.254   3.261 -1.5561  0.3861  1.6279
13040SOL    HW250340   1.179   1.247   3.315 -0.8367  0.5910 -0.3327
13041SOL     OW50341   0.059   4.131   0.128 -0.1243 -0.1943  0.5612
13041SOL    HW150342   0.080   4.073   0.206  2.2744  0.1861  0.2314
13041SOL    HW250343   0.120   4.110   0.053  0.0008  1.9238  0.0238
13042SOL     OW50344   0.348   4.680   1.606 -0.1957  0.1032 -0.1810
13042SOL    HW150345   0.278   4.632   1.552  0.7433 -0.8360 -0.5756
13042SOL    HW250346   0.438   4.664   1.565  0.5448 -0.7163  1.7494
13043SOL     OW50347   7.648   2.520   2.528  0.4264  0.5313 -0.6812
13043SOL    HW150348   7.611   2.537   2.619 -1.7902 -2.2131 -0.9924
13043SOL    HW250349   7.735   2.472   2.535  0.0073 -0.1282 -0.0297
13044SOL     OW50350   4.341   9.736   2.914 -0.4232  1.2143 -0.2683
13044SOL    HW150351   4.279   9.695   2.848  1.7151 -1.0215 -0.9425
13044SOL    HW250352   4.363   9.830   2.885  0.5936  0.2284 -2.8377
13045SOL     OW50353   1.074   4.562   0.459  0.3225 -0.5532 -0.0667
13045SOL    HW150354   1.135   4.561   0.539  1.3629 -0.9915 -0.8518
13045SOL    HW250355   0.981   4.583   0.488  0.7799 -0.2579  1.2066
13046SOL     OW50356   3.502   8.625   4.168 -0.0612  0.5848  0.5200
13046SOL    HW150357   3.466   8.551   4.111  2.6112 -1.1039  0.9169
13046SOL    HW250358   3.500   8.711   4.117 -2.5347  0.1556 -0.2087
13047SOL     OW50359   1.299   2.964   2.498 -0.0979  0.2409  0.2180
13047SOL    HW150360   1.252   2.897   2.555 -0.1294  1.8595  2.1542
13047SOL    HW250361   1.375   2.920   2.451 -0.0205 -1.1099  1.5608
13048SOL     OW50362   2.906   5.987   4.616 -0.5654  0.3086 -0.3667
13048SOL    HW150363   2.898   5.888   4.620 -2.5828  0.4043 -1.4550
13048SOL    HW250364   2.836   6.029   4.674  0.0219  1.1121 -0.2195
13049SOL     OW50365   1.504   6.273   2.638  0.6772  0.3815 -0.7312
13049SOL    HW150366   1.524   6.273   2.539  1.5904 -0.6542 -0.5633
13049SOL    HW250367   1.589   6.289   2.688  0.3603  0.0696 -0.0946
13050SOL     OW50368   5.546   1.802   4.849  0.3513  0.6963  0.7494
13050SOL    HW150369   5.529   1.744   4.768  0.2421 -0.0444  1.2936
13050SOL    HW250370   5.479   1.876   4.852  1.7305  2.0753 -1.0657
13051SOL     OW50371   8.151   0.633   1.576  0.7535  0.6256 -0.2157
13051SOL    HW150372   8.134   0.634   1.674 -1.3530  0.2118 -0.5577
13051SOL    HW250373   8.217   0.562   1.554 -1.4184 -1.6679  0.5104
13052SOL     OW50374   1.630   8.781   6.048 -0.1848 -0.5195 -0.1752
13052SOL    HW150375   1.701   8.730   6.095 -0.1248 -1.6553 -1.4954
13052SOL    HW250376   1.664   8.872   6.025  0.2086 -0.4067  0.8424
13053SOL     OW50377   0.503   6.801   6.475  0.5860  0.0498 -0.2674
13053SOL    HW150378   0.462   6.711   6.493  3.4521 -1.1477  0.5513
13053SOL    HW250379   0.548   6.799   6.385  0.9033  0.5569 -0.1238
13054SOL     OW50380   5.561   9.273   1.051  0.3463 -0.4232 -0.1225
13054SOL    HW150381   5.548   9.175   1.065 -0.3125 -0.5238 -1.3647
13054SOL    HW250382   5.539   9.322   1.135 -1.0019 -1.1987 -0.0037
13055SOL     OW50383   8.690   2.340   3.437 -0.4179  0.2262 -0.0162
13055SOL    HW150384   8.654   2.310   3.526 -1.3571  1.5486  0.0605
13055SOL    HW250385   8.619   2.390   3.388  0.4975  0.5790 -0.9948
13056SOL     OW50386   3.958   4.349   5.059  0.1527  0.1315 -0.1637
13056SOL    HW150387   3.944   4.362   5.157 -1.2605  1.0063 -0.4532
13056SOL    HW250388   4.007   4.427   5.021  0.5433 -0.1213 -0.1740
13057SOL     OW50389   9.292   9.085   2.542  0.0615  0.2330  0.1848
13057SOL    HW150390   9.256   8.992   2.548 -0.6401  0.4496 -0.6215
13057SOL    HW250391   9.382   9.083   2.498  0.0424 -0.0601  0.1538
13058SOL     OW50392   5.513   8.828   2.383  0.6552 -0.5282  0.3105
13058SOL    HW150393   5.445   8.796   2.316 -1.2229  1.1912  1.3314
13058SOL    HW250394   5.496   8.783   2.471  1.4236 -0.7661  0.3366
13059SOL     OW50395   6.704   4.364   0.845  0.0769 -0.0917 -0.4424
13059SOL    HW150396   6.641   4.421   0.899 -1.2411  1.0883 -3.1057
13059SOL    HW250397   6.797   4.400   0.854 -0.5609  1.8441 -1.1260
13060SOL     OW50398   2.750   7.293   4.683 -0.2791  0.2520  0.1659
13060SOL    HW150399   2.786   7.359   4.617 -0.4611 -0.4685 -0.6635
13060SOL    HW250400   2.663   7.257   4.650 -0.7813  0.5127  1.2070
13061SOL     OW50401   9.817   0.865   2.715  0.3209 -0.4457  0.3330
13061SOL    HW150402   9.740   0.802   2.703 -0.7082  0.6872  0.7919
13061SOL    HW250403   9.880   0.856   2.638  0.0696 -1.8502  0.2759
13062SOL     OW50404   7.730   1.009   5.838  0.1674 -0.3935  0.6150
13062SOL    HW150405   7.827   1.001   5.814 -0.0350 -0.6323 -0.1432
13062SOL    HW250406   7.699   1.102   5.822 -0.2180 -0.7824 -1.0634
13063SOL     OW50407   9.428   3.160   2.446  0.0389 -0.2271 -0.4184
13063SOL    HW150408   9.508   3.208   2.410 -0.1195  0.0494 -0.4091
13063SOL    HW250409   9.457   3.086   2.506  0.3354 -1.1960 -1.7380
13064SOL     OW50410   4.674   1.046   3.489 -0.0816 -0.1992  0.4180
13064SOL    HW150411   4.577   1.033   3.510 -0.3924 -0.1165 -0.9667
13064SOL    HW250412   4.695   1.005   3.401  1.1825 -0.3335  0.7766
13065SOL     OW50413   9.635   5.659   4.968 -0.1489 -0.0510 -0.3722
13065SOL    HW150414   9.588   5.602   5.036  0.3896  0.0119  0.0606
13065SOL    HW250415   9.618   5.623   4.877 -0.7408 -0.2419 -0.1906
13066SOL     OW50416   9.304   8.133   2.128  0.2909  0.2537  0.9090
13066SOL    HW150417   9.223   8.132   2.187 -0.8566  1.1392 -0.5836
13066SOL    HW250418   9.284   8.081   2.045  1.0327  1.0116  0.2517
13067SOL     OW50419   0.553   9.862   6.264  0.1943  0.9015  0.2443
13067SOL    HW150420   0.475   9.854   6.203 -0.9316  1.7311  1.5584
13067SOL    HW250421   0.531   9.923   6.340  2.0250  0.9473  0.7742
13068SOL     OW50422   4.745   4.691   5.006  0.2045  0.4811  0.2873
13068SOL    HW150423   4.743   4.609   5.063 -2.0884 -0.6885 -1.3770
13068SOL    HW250424   4.693   4.764   5.050  0.8241  0.5080  0.9877
13069SOL     OW50425   8.162   1.256   3.257 -0.1745  0.2209  0.1220
13069SOL    HW150426   8.092   1.292   3.196  0.8352  0.5663 -0.8410
13069SOL    HW250427   8.195   1.169   3.223  0.4381  0.4437  0.1472
13070SOL     OW50428   0.774   6.949   0.968  0.3797  0.3465  0.1858
13070SOL    HW150429   0.759   7.037   0.924  1.6277  0.1055 -0.7466
13070SOL    HW250430   0.795   6.880   0.899  1.7271 -0.1756  1.0933
13071SOL     OW50431   0.104   5.322   4.467  0.0414 -0.1608 -0.6711
13071SOL    HW150432   0.060   5.395   4.519 -0.9765 -0.9049 -0.4474
13071SOL    HW250433   0.037   5.282   4.404  0.9041 -0.1347 -1.6160
13072SOL     OW50434   3.361   1.760   0.985 -0.6484 -0.2481 -0.0127
13072SOL    HW150435   3.358   1.704   0.902  1.0785  0.4307 -0.5561
13072SOL    HW250436   3.405   1.708   1.059  1.3726  0.5277 -0.6473
13073SOL     OW50437   7.746   3.020   1.043  0.0992  0.3235 -0.1982
13073SOL    HW150438   7.816   3.092   1.039  0.2782  0.1462 -0.2840
13073SOL    HW250439   7.736   2.989   1.137  0.4956 -0.0006 -0.2601
13074SOL     OW50440   7.410   9.725   3.236 -0.2709  0.0369 -0.0747
13074SOL    HW150441   7.457   9.809   3.266 -0.4911 -0.5291  1.9753
13074SOL    HW250442   7.474   9.648   3.242 -0.7163 -0.3113  0.2843
13075SOL     OW50443   0.516   7.889   5.216  0.4048  0.7306  0.3821
13075SOL    HW150444   0.516   7.956   5.141 -0.4697  0.3880  0.0697
13075SOL    HW250445   0.586   7.819   5.198  0.9156  1.2263  0.4142
13076SOL     OW50446   8.540   5.860   4.340  0.1255 -0.2046 -0.1358
13076SOL    HW150447   8.624   5.899   4.377 -0.3744  2.0268 -1.2388
13076SOL    HW250448   8.464   5.878   4.403  0.2347 -1.0730  0.2467
13077SOL     OW50449   5.393   9.828   3.729 -0.3413 -0.6022 -0.6973
13077SOL    HW150450   5.303   9.863   3.754  0.4791  0.4083  1.0002
13077SOL    HW250451   5.397   9.730   3.745 -1.1788 -0.6621 -0.8742
13078SOL     OW50452   0.496   6.571   3.167 -0.3363  0.2573  0.1726
13078SOL    HW150453   0.593   6.555   3.181 -0.1301  0.8614 -0.5345
13078SOL    HW250454   0.456   6.610   3.250 -0.2676 -1.2646  0.9455
13079SOL     OW50455   9.250   7.048   3.968  0.0005  0.6527  0.5980
13079SOL    HW150456   9.223   7.134   4.012  1.0912  1.0579  0.4684
13079SOL    HW250457   9.183   7.025   3.897 -1.8524 -0.0668  2.5214
13080SOL     OW50458   8.276   1.482   0.095 -0.1248 -0.2940 -0.1303
13080SOL    HW150459   8.261   1.578   0.069 -1.3877 -0.6997 -0.9061
13080SOL    HW250460   8.205   1.453   0.160 -1.7052 -1.6735 -2.4202
13081SOL     OW50461   1.541   2.231   0.136 -0.5878 -0.1733  0.0545
13081SOL    HW150462   1.519   2.160   0.069 -0.4795  0.2308 -0.4203
13081SOL    HW250463   1.484   2.311   0.120  1.2666  0.9377 -1.2887
13082SOL     OW50464   5.740   9.953   3.119  0.0630 -0.4337  0.2435
13082SOL    HW150465   5.833   9.977   3.093 -0.5930  0.4050 -1.4650
13082SOL    HW250466   5.689  10.037   3.140 -0.8353 -0.7026 -0.7796
13083SOL     OW50467   3.793   3.214   0.308  0.0228 -0.0255  0.1751
13083SOL    HW150468   3.836   3.274   0.240 -1.7719  0.5339 -0.4925
13083SOL    HW250469   3.857   3.197   0.383  0.4427  3.0022  0.5578
13084SOL     OW50470   2.749   1.054   5.719  1.2125  0.2571 -0.2242
13084SOL    HW150471   2.734   1.103   5.633  1.2842  0.6405 -0.0199
13084SOL    HW250472   2.784   1.117   5.788  2.1870 -0.2811 -0.2197
13085SOL     OW50473   3.812   8.750   3.290 -0.4400  0.0881  0.1097
13085SOL    HW150474   3.727   8.699   3.298 -1.5659  1.9255  0.1429
13085SOL    HW250475   3.822   8.812   3.368  0.6133  0.3555 -0.2226
13086SOL     OW50476   2.506   4.318   2.977  0.4798 -0.2181  0.8444
13086SOL    HW150477   2.605   4.303   2.973  0.3628 -0.8084  0.1215
13086SOL    HW250478   2.463   4.240   3.022  0.1499 -0.8303 -0.5131
13087SOL     OW50479   9.068   4.244   2.794  0.4213 -0.4131  0.7965
13087SOL    HW150480   9.065   4.330   2.743  0.6743  0.9748  3.0549
13087SOL    HW250481   9.136   4.250   2.867  0.3871 -2.5186  1.0559
13088SOL     OW50482   1.009   9.918   0.736 -0.2024 -0.2097 -0.7315
13088SOL    HW150483   0.920   9.946   0.700 -0.2271 -0.6326 -1.0087
13088SOL    HW250484   1.072   9.903   0.660  0.0956  0.0529 -0.5364
13089SOL     OW50485   8.398   8.707   3.285  0.2755  0.2832  0.2596
13089SOL    HW150486   8.455   8.749   3.356 -1.6877 -0.1029  2.1090
13089SOL    HW250487   8.327   8.771   3.257  0.2440 -0.0453 -0.4388
13090SOL     OW50488   7.676   6.753   3.827 -0.1627  0.2070 -0.2688
13090SOL    HW150489   7.617   6.672   3.826  0.6353 -0.3701 -0.2688
13090SOL    HW250490   7.637   6.823   3.766 -0.8847 -0.1462 -0.2168
13091SOL     OW50491   3.200   2.951   6.757 -0.1857  0.7928 -0.1189
13091SOL    HW150492   3.251   3.037   6.765  2.1461 -0.4077 -1.4292
13091SOL    HW250493   3.189   2.927   6.661 -0.9604 -0.2814  0.2208
13092SOL     OW50494   2.629   5.236   6.253  0.0019 -0.0874  0.6731
13092SOL    HW150495   2.720   5.220   6.215  0.8145  2.1877  1.5652
13092SOL    HW250496   2.622   5.192   6.343 -0.3671 -1.6400 -0.0967
13093SOL     OW50497   9.895   4.904   3.716  0.0452 -0.5375 -0.0952
13093SOL    HW150498   9.872   4.977   3.651 -1.2740  0.0253  0.9691
13093SOL    HW250499   9.903   4.943   3.808  2.3477 -1.2448  0.0391
13094SOL     OW50500   3.277   4.436   5.554  0.2313 -0.3642 -0.0338
13094SOL    HW150501   3.359   4.428   5.498  0.2788 -0.1919  0.0123
13094SOL    HW250502   3.196   4.416   5.498  0.2341  0.4226 -0.3154
13095SOL     OW50503   8.052   8.104   1.423  0.6057  0.2088 -0.1655
13095SOL    HW150504   8.090   8.091   1.331  0.6844 -2.3300  0.1935
13095SOL    HW250505   8.126   8.104   1.490  0.5437  2.0414 -0.0587
13096SOL     OW50506   2.968   3.454   0.644 -0.3115  0.1086 -0.4165
13096SOL    HW150507   2.986   3.533   0.703  1.2712 -0.3158 -0.3003
13096SOL    HW250508   2.876   3.461   0.605  0.2346  2.6198 -1.3638
13097SOL     OW50509   8.802   2.917   6.028 -0.2039 -0.0791  0.5422
13097SOL    HW150510   8.755   2.912   6.116  2.4700  0.2278  2.0614
13097SOL    HW250511   8.843   3.008   6.018  0.7080 -0.5803 -0.3652
13098SOL     OW50512   1.033   7.897   5.943 -0.0862  0.2118 -0.2717
13098SOL    HW150513   0.965   7.966   5.917  1.2690  1.9116  0.5077
13098SOL    HW250514   1.061   7.845   5.863 -0.9268  0.7865 -0.9468
13099SOL     OW50515   1.247   8.803   0.811 -0.0443 -0.6815  0.3569
13099SOL    HW150516   1.188   8.838   0.884 -0.5056 -0.6577 -0.0259
13099SOL    HW250517   1.238   8.704   0.805 -1.4524 -0.4903 -0.9163
13100SOL     OW50518   9.266   9.583   0.569  0.4900 -0.2560  0.6224
13100SOL    HW150519   9.291   9.533   0.486  1.2485  0.0458  0.6715
13100SOL    HW250520   9.224   9.520   0.634  1.0369 -0.7444  0.5058
13101SOL     OW50521   2.604   2.543   0.380 -0.1784 -0.2443 -0.0523
13101SOL    HW150522   2.543   2.465   0.362 -1.1286  0.5422 -0.2674
13101SOL    HW250523   2.550   2.625   0.395  0.7898  0.1624  1.2985
13102SOL     OW50524   7.427   5.686   0.288  0.1012  0.1523  0.3981
13102SOL    HW150525   7.490   5.658   0.361  0.8436  0.0696 -0.2784
13102SOL    HW250526   7.452   5.777   0.256  1.5112 -0.9520 -1.6971
13103SOL     OW50527   5.582   9.217   1.744  0.2545  0.0147  0.0050
13103SOL    HW150528   5.675   9.244   1.768  0.7051 -0.5768 -1.0380
13103SOL    HW250529   5.516   9.267   1.801  1.2476 -0.4383  1.5653
13104SOL     OW50530   1.858   9.268   1.725  0.4428 -0.1397 -0.0490
13104SOL    HW150531   1.941   9.319   1.751  0.1885  0.8792 -1.1829
13104SOL    HW250532   1.838   9.285   1.629 -0.9964 -0.5081  0.1828
13105SOL     OW50533   3.269   4.540   0.355  0.0790  0.3983 -0.5653
13105SOL    HW150534   3.331   4.507   0.284 -0.1470 -0.6795 -0.2609
13105SOL    HW250535   3.280   4.639   0.364  1.9967  0.1945 -0.3121
13106SOL     OW50536   9.266   7.129   4.881  0.1629 -0.4893  0.4713
13106SOL    HW150537   9.305   7.046   4.920 -0.7811 -1.0172  0.2907
13106SOL    HW250538   9.340   7.192   4.858  0.7962 -0.5966  2.1176
13107SOL     OW50539   5.291   0.514   2.933 -0.1399 -0.1852  0.3994
13107SOL    HW150540   5.309   0.430   2.883 -1.9910 -0.1010 -0.4281
13107SOL    HW250541   5.232   0.495   3.012 -2.0500  0.5962 -0.8129
13108SOL     OW50542   7.094   5.816   5.339  0.3347  0.0124 -0.4747
13108SOL    HW150543   7.049   5.745   5.392 -1.5627  0.5823 -1.2846
13108SOL    HW250544   7.061   5.906   5.368  0.6097  0.4192 -1.4046
13109SOL     OW50545   1.502   8.919   4.342  0.2774  0.5930 -0.1690
13109SOL    HW150546   1.462   8.861   4.271 -0.1075  1.5134 -0.7100
13109SOL    HW250547   1.510   8.867   4.427 -2.6763  0.5878  0.1374
13110SOL     OW50548   8.915   5.329   4.042 -0.0097 -0.0204 -0.5458
13110SOL    HW150549   8.940   5.234   4.061 -0.1473 -0.1233 -0.8729
13110SOL    HW250550   8.902   5.378   4.129  0.6102 -0.1537 -0.3766
13111SOL     OW50551   0.534   4.882   0.250  0.0503 -0.0179 -0.2414
13111SOL    HW150552   0.507   4.920   0.162 -0.9550  0.9504  0.4722
13111SOL    HW250553   0.612   4.933   0.287  0.8712 -0.8169 -0.8422
13112SOL     OW50554   2.937   0.986   2.827 -0.2452 -0.1815  0.0366
13112SOL    HW150555   2.937   1.068   2.771  0.5209 -0.4468 -0.3615
13112SOL    HW250556   2.955   1.010   2.922  0.6583  0.0567 -0.1828
13113SOL     OW50557   9.355   6.920   5.036 -0.0545 -0.9959 -0.1710
13113SOL    HW150558   9.410   6.925   5.119 -0.7668  2.2053  0.1775
13113SOL    HW250559   9.260   6.901   5.060 -0.7992  2.7521  0.0410
13114SOL     OW50560   9.574   1.570   0.947 -0.0408 -0.4991  0.2196
13114SOL    HW150561   9.521   1.565   0.863  0.5003 -0.2635 -0.1411
13114SOL    HW250562   9.670   1.587   0.924 -0.1046  0.9346  0.9444
13115SOL     OW50563   3.691   0.402   5.325  0.0702 -0.5750 -0.3425
13115SOL    HW150564   3.694   0.387   5.424 -2.0861  1.2632  0.0329
13115SOL    HW250565   3.643   0.325   5.281  0.0694 -0.8573  0.1490
13116SOL     OW50566   3.249   4.054   5.734 -0.1794 -0.1178  0.0961
13116SOL    HW150567   3.283   4.076   5.825  2.9638  0.1394 -1.0686
13116SOL    HW250568   3.212   3.961   5.733  1.3663 -0.7622  1.2485
13117SOL     OW50569   9.021   5.469   3.830 -0.0327 -0.1512 -0.3913
13117SOL    HW150570   8.945   5.494   3.769 -0.2050 -0.4029 -0.2827
13117SOL    HW250571   8.986   5.459   3.924 -0.0490 -1.2375 -0.5129
13118SOL     OW50572   8.277   2.399   2.294 -0.2474  0.9699  0.6041
13118SOL    HW150573   8.361   2.452   2.289  0.6678 -0.4434  0.6638
13118SOL    HW250574   8.248   2.374   2.201  0.5035 -0.2412  0.6932
13119SOL     OW50575   3.105   1.782   2.955  0.6069  0.1661  0.6869
13119SOL    HW150576   3.045   1.861   2.964 -0.9056 -0.8134 -0.5405
13119SOL    HW250577   3.186   1.807   2.902  0.3313  0.9896  0.6539
13120SOL     OW50578   7.749   3.258   6.070  0.3898  0.1830 -0.1767
13120SOL    HW150579   7.789   3.168   6.086 -1.5956 -0.7403 -0.2800
13120SOL    HW250580   7.738   3.272   5.971  1.1392  0.7682 -0.1909
13121SOL     OW50581   3.637   9.371   4.315  0.8738 -0.3201 -1.0327
13121SOL    HW150582   3.616   9.436   4.242  1.5226 -1.0907 -1.9111
13121SOL    HW250583   3.637   9.278   4.278  0.1511 -0.8085  0.1694
13122SOL     OW50584   8.732   5.437   5.320  0.4099  0.2450  0.3488
13122SOL    HW150585   8.747   5.342   5.348  0.8949  0.3829  0.5661
13122SOL    HW250586   8.635   5.452   5.303 -0.0356  0.3891  2.8837
13123SOL     OW50587   2.277   6.383   0.764 -0.0390 -0.5691  0.0234
13123SOL    HW150588   2.281   6.379   0.664 -0.8620 -1.9173  0.0404
13123SOL    HW250589   2.242   6.297   0.800  0.4718 -0.1816  1.4976
13124SOL     OW50590   3.389   2.400   1.843 -0.1840  0.5757 -0.2196
13124SOL    HW150591   3.482   2.436   1.853 -0.4651  1.1436  0.3805
13124SOL    HW250592   3.326   2.476   1.827 -0.4560  0.1331 -1.2791
13125SOL     OW50593   7.282   1.050   3.497  0.5750  0.3218 -0.3880
13125SOL    HW150594   7.366   1.019   3.542  1.0221  0.0789 -1.3674
13125SOL    HW250595   7.280   1.014   3.404 -0.6257  0.3258 -0.3672
13126SOL     OW50596   5.819   9.546   1.661 -0.0986  0.0347 -0.2723
13126SOL    HW150597   5.883   9.470   1.667  1.2044  1.1261 -0.0693
13126SOL    HW250598   5.761   9.534   1.581  0.5347 -0.8498 -0.6066
13127SOL     OW50599   0.826   5.215   6.654  0.1051  0.4054 -0.0882
13127SOL    HW150600   0.862   5.175   6.570 -1.2706 -0.7513 -0.1580
13127SOL    HW250601   0.731   5.245   6.640 -0.1901  0.0723  1.0621
13128SOL     OW50602   2.870   8.233   3.193 -0.1333  0.3314 -0.3293
13128SOL    HW150603   2.863   8.288   3.276  1.8521  0.8339 -0.4854
13128SOL    HW250604   2.787   8.244   3.139 -0.9378  0.9270  1.0084
13129SOL     OW50605   8.221   1.245   4.867 -0.7716  0.3712 -0.0332
13129SOL    HW150606   8.311   1.287   4.858 -1.0353  0.9412 -0.0395
13129SOL    HW250607   8.156   1.311   4.905 -1.2513  0.0448 -0.2631
13130SOL     OW50608   1.047   6.038   2.813 -0.5475  0.0765  0.0484
13130SOL    HW150609   1.097   5.975   2.872 -0.9682 -0.1187  0.1944
13130SOL    HW250610   1.095   6.125   2.809  0.1133 -0.3017 -0.2661
13131SOL     OW50611   4.395   4.442   0.140  0.6341 -0.3960 -0.3338
13131SOL    HW150612   4.368   4.515   0.076  0.6412  1.1510  1.3927
13131SOL    HW250613   4.493   4.426   0.133  0.9594  1.1205  0.6499
13132SOL     OW50614   9.604   1.290   1.191  0.3177  0.0179 -0.0032
13132SOL    HW150615   9.522   1.320   1.240  0.3006  0.2518 -0.1755
13132SOL    HW250616   9.673   1.262   1.257 -0.7903 -2.5579  0.1154
13133SOL     OW50617   3.424   7.380   3.106  0.0841  0.4639  0.1677
13133SOL    HW150618   3.397   7.351   3.014 -0.4511 -1.7610  0.9907
13133SOL    HW250619   3.349   7.432   3.148 -0.5177 -0.3866  0.1512
13134SOL     OW50620   3.473   8.530   4.990  0.0654  0.0660  0.8755
13134SOL    HW150621   3.385   8.531   4.942 -0.0890 -0.8706  1.1198
13134SOL    HW250622   3.521   8.616   4.974 -0.3498  0.1000 -0.2850
13135SOL     OW50623   6.236   1.181   3.598 -0.5256  0.4298 -0.1992
13135SOL    HW150624   6.250   1.084   3.577 -0.1691  0.2448  0.8898
13135SOL    HW250625   6.140   1.196   3.623 -0.4939  0.2914  0.0058
13136SOL     OW50626   5.640   1.291   1.762  0.3570 -0.0219  0.2394
13136SOL    HW150627   5.684   1.344   1.689  1.6864 -1.3620  0.0518
13136SOL    HW250628   5.707   1.232   1.805 -0.7974 -0.4638  1.4546
13137SOL     OW50629   2.254   2.442   5.739 -0.0693  0.2562 -0.5083
13137SOL    HW150630   2.337   2.443   5.684 -0.4216  0.7854 -1.0268
13137SOL    HW250631   2.219   2.348   5.744  0.9201 -0.0760  0.2633
13138SOL     OW50632   0.210   6.829   1.950  0.3938 -0.1068 -0.1664
13138SOL    HW150633   0.183   6.791   1.861  0.3897 -0.0996 -0.1683
13138SOL    HW250634   0.181   6.766   2.022  1.0073 -0.4513 -0.2120
13139SOL     OW50635   2.516   0.854   3.127 -0.3165  0.5587 -0.5212
13139SOL    HW150636   2.522   0.815   3.035 -0.4576 -0.3485 -0.1517
13139SOL    HW250637   2.420   0.869   3.151 -0.3505 -0.5174  0.0201
13140SOL     OW50638   0.693   7.276   6.622 -0.4656  0.1411  0.0653
13140SOL    HW150639   0.628   7.276   6.698 -1.0039  1.1860 -0.3967
13140SOL    HW250640   0.730   7.368   6.609  2.9393 -0.8798  1.8664
13141SOL     OW50641   0.041   3.420   5.125 -0.0654 -0.3468  0.7406
13141SOL    HW150642   0.058   3.469   5.040 -1.3860 -1.6753 -0.3095
13141SOL    HW250643   0.035   3.322   5.107  2.0922 -0.9108  2.7451
13142SOL     OW50644   4.951   1.260   4.288 -0.3856 -0.6681  0.2876
13142SOL    HW150645   5.017   1.236   4.359  0.6312  2.9599  0.6526
13142SOL    HW250646   4.862   1.277   4.329  0.0329  0.7250  0.6507
13143SOL     OW50647   5.339   4.210   0.969 -0.0645  0.0304 -0.1350
13143SOL    HW150648   5.335   4.136   1.036 -1.1617  0.6468  0.5047
13143SOL    HW250649   5.391   4.180   0.889 -0.1549 -1.2960  0.2858
13144SOL     OW50650   4.219   9.817   2.257  0.4529  0.2145  0.0560
13144SOL    HW150651   4.212   9.917   2.247 -0.4058  0.0281 -1.3904
13144SOL    HW250652   4.201   9.791   2.351  1.9670  1.5319  0.7365
13145SOL     OW50653   6.458   8.329   4.916 -0.1443 -0.1163  0.3502
13145SOL    HW150654   6.543   8.365   4.955  0.6822 -0.2781 -1.2225
13145SOL    HW250655   6.380   8.360   4.969  0.6089  3.2777 -0.4431
13146SOL     OW50656   9.669   4.666   3.272 -0.9340 -0.0792  0.6129
13146SOL    HW150657   9.732   4.590   3.259 -1.7319 -0.7903  0.8498
13146SOL    HW250658   9.710   4.750   3.236 -0.1005 -0.6371  0.2422
13147SOL     OW50659   3.307   4.410   3.770 -0.0913 -0.1310 -0.3549
13147SOL    HW150660   3.209   4.420   3.757 -0.0723  0.3009 -0.1751
13147SOL    HW250661   3.334   4.315   3.752 -0.8701 -0.7751  1.7655
13148SOL     OW50662   2.092   7.028   1.517 -0.3517 -0.6174 -0.1428
13148SOL    HW150663   2.154   6.983   1.580  1.5588  0.6202 -1.0947
13148SOL    HW250664   2.042   7.100   1.566 -0.0883 -0.7454  0.3196
13149SOL     OW50665   6.226   2.788   4.371 -0.5345  0.0687 -0.2684
13149SOL    HW150666   6.228   2.703   4.318 -0.7369 -0.4936  0.6295
13149SOL    HW250667   6.246   2.865   4.310  0.4014 -0.6914 -0.9270
13150SOL     OW50668   1.840   3.520   1.120 -0.0990  0.0519  0.2478
13150SOL    HW150669   1.836   3.538   1.218 -2.9283  3.1342 -0.3497
13150SOL    HW250670   1.934   3.532   1.087  0.4984  0.8915  2.2213
13151SOL     OW50671   0.785   1.510   2.180 -0.1040 -0.2103  0.3918
13151SOL    HW150672   0.877   1.502   2.219 -0.3271 -1.7264  0.6540
13151SOL    HW250673   0.742   1.594   2.213  0.9189  0.1442  0.8397
13152SOL     OW50674   3.812   8.579   1.546  0.1821 -0.7446 -0.0330
13152SOL    HW150675   3.842   8.622   1.632 -0.2670  0.9194 -0.6934
13152SOL    HW250676   3.724   8.535   1.560  0.5913 -1.3855  0.6180
13153SOL     OW50677   0.731   1.584   2.848 -0.5842 -0.1288  0.1183
13153SOL    HW150678   0.765   1.578   2.942 -0.1083  0.4161 -0.0163
13153SOL    HW250679   0.640   1.625   2.848 -0.2151  0.7064  0.2708
13154SOL     OW50680   1.692   2.875   2.868 -0.2743 -0.8986  0.4145
13154SOL    HW150681   1.594   2.891   2.858  0.0243  0.6438 -0.1440
13154SOL    HW250682   1.734   2.864   2.778  0.5714  1.6858  0.4453
13155SOL     OW50683   8.461   2.446   5.774 -0.4289 -0.1313  0.0814
13155SOL    HW150684   8.362   2.451   5.769 -0.3796  1.2130  0.1294
13155SOL    HW250685   8.499   2.538   5.768  0.7802 -0.5639  0.8339
13156SOL     OW50686   7.108   9.229   4.690 -0.4440  0.4890 -0.2948
13156SOL    HW150687   7.201   9.219   4.655 -0.3775 -0.1000  0.0406
13156SOL    HW250688   7.101   9.314   4.743  0.0675  0.2096  0.2142
13157SOL     OW50689   3.839   9.308   6.189  0.0766  0.4041  0.3115
13157SOL    HW150690   3.890   9.320   6.103 -0.0841  0.1743  0.1833
13157SOL    HW250691   3.876   9.370   6.258 -0.9800  1.8780 -0.4361
13158SOL     OW50692   9.426   6.508   5.217  0.5357  0.4721 -0.4628
13158SOL    HW150693   9.426   6.540   5.122  1.0255 -0.2839 -0.7159
13158SOL    HW250694   9.377   6.574   5.274  1.6689  1.7745 -0.9642
13159SOL     OW50695   3.934   9.504   4.258 -0.0251 -0.2573 -0.1643
13159SOL    HW150696   3.868   9.477   4.329 -0.1495 -2.8814 -1.2644
13159SOL    HW250697   4.025   9.513   4.299 -0.4218  0.0582  0.6708
13160SOL     OW50698   8.424   8.345   5.207  1.0231  0.4251  0.1055
13160SOL    HW150699   8.332   8.311   5.191  1.2488  0.1079 -0.5110
13160SOL    HW250700   8.441   8.425   5.148  1.0619  0.6190  0.3799
13161SOL     OW50701   9.223   6.815   2.048 -0.0329  0.2533 -0.1557
13161SOL    HW150702   9.234   6.910   2.075 -0.8778  0.4478 -0.4997
13161SOL    HW250703   9.270   6.800   1.961  2.0446 -0.1976  1.0057
13162SOL     OW50704   1.619   9.121   1.189  0.1561  0.0169 -0.4842
13162SOL    HW150705   1.586   9.115   1.283  0.0981 -1.0756 -0.5560
13162SOL    HW250706   1.603   9.213   1.153 -1.3675 -0.0259  0.0205
13163SOL     OW50707   2.792   8.444   4.377 -0.1344 -0.1670 -0.3920
13163SOL    HW150708   2.693   8.430   4.382 -0.2329 -0.1801 -2.3220
13163SOL    HW250709   2.813   8.517   4.312  1.1459 -0.3627 -0.2139
13164SOL     OW50710   6.246   1.232   6.449 -0.4547 -0.2253  0.6296
13164SOL    HW150711   6.291   1.316   6.417 -3.5952  0.7097 -1.6311
13164SOL    HW250712   6.186   1.254   6.525  2.2107 -1.3384  3.1432
13165SOL     OW50713   3.693   0.468   6.559  0.2166 -0.2297  0.8113
13165SOL    HW150714   3.762   0.519   6.506  0.0236 -1.6292 -0.8082
13165SOL    HW250715   3.739   0.400   6.615  0.2171 -0.5791  0.3874
13166SOL     OW50716   0.158   9.442   0.018 -0.0264  0.5976  0.1670
13166SOL    HW150717   0.100   9.386  -0.042  1.8083 -0.7586 -0.3857
13166SOL    HW250718   0.219   9.499  -0.037  1.2617 -0.2268  0.7089
13167SOL     OW50719   2.551   0.030   0.469  0.4969 -0.1969 -0.1520
13167SOL    HW150720   2.524  -0.026   0.391 -0.3312  0.0974 -0.0839
13167SOL    HW250721   2.631  -0.010   0.514  0.2346 -1.0209 -0.4253
13168SOL     OW50722   2.174   4.187   1.568  0.8018 -0.1903  0.2533
13168SOL    HW150723   2.212   4.141   1.488  0.1547 -0.4112  0.0694
13168SOL    HW250724   2.248   4.228   1.622  1.2020  0.2935 -0.6606
13169SOL     OW50725   1.493   2.896   5.238  0.9124  0.3105 -0.0704
13169SOL    HW150726   1.428   2.942   5.176  0.7686  1.6197  1.0234
13169SOL    HW250727   1.559   2.963   5.272  0.6492 -0.2711  1.6222
13170SOL     OW50728   7.494   0.666   2.522  0.0821 -0.6535 -0.2909
13170SOL    HW150729   7.579   0.633   2.481  0.9917 -0.2487  1.2212
13170SOL    HW250730   7.457   0.594   2.582  0.2550 -0.2163  0.3471
13171SOL     OW50731   9.866   5.343   3.220  0.2085 -0.2029  0.3844
13171SOL    HW150732   9.871   5.433   3.178 -0.6011  0.6138  1.9781
13171SOL    HW250733   9.919   5.343   3.305  2.6178 -2.0933 -1.0300
13172SOL     OW50734   9.725   7.520   6.293 -0.0076 -0.1323 -0.2769
13172SOL    HW150735   9.785   7.454   6.339 -0.1081 -0.4349 -0.5767
13172SOL    HW250736   9.632   7.484   6.291 -0.2398  0.4277  0.3686
13173SOL     OW50737   7.379   4.370   0.651 -0.3694  0.2000 -0.2175
13173SOL    HW150738   7.422   4.439   0.709 -0.6505  1.2650 -1.2622
13173SOL    HW250739   7.324   4.308   0.707  0.7227  0.1783  0.8568
13174SOL     OW50740   4.152   7.201   2.518  0.4257 -0.1801  0.0044
13174SOL    HW150741   4.151   7.282   2.577 -2.0252 -0.6313  0.6542
13174SOL    HW250742   4.084   7.136   2.551  0.5797 -1.4007 -2.0352
13175SOL     OW50743   9.011   5.905   1.854 -0.1262  0.1991  0.3013
13175SOL    HW150744   9.110   5.917   1.848 -0.2003  0.5954 -0.1516
13175SOL    HW250745   8.989   5.809   1.869  0.4046  0.3239  2.0362
13176SOL     OW50746   5.515   7.320   3.096  0.6186 -0.3683 -0.2811
13176SOL    HW150747   5.437   7.293   3.154  0.8626 -0.7652 -0.1339
13176SOL    HW250748   5.536   7.246   3.032  2.4905 -1.3113  1.3874
13177SOL     OW50749   6.122   2.669   3.293 -0.3652  0.2542 -0.3628
13177SOL    HW150750   6.199   2.628   3.244 -1.5537 -1.2659 -1.0247
13177SOL    HW250751   6.155   2.724   3.369  1.3809 -0.1149 -0.8450
13178SOL     OW50752   9.817   1.069   5.829 -0.4977 -0.0960  0.2544
13178SOL    HW150753   9.827   1.023   5.740 -2.9170 -0.6566  0.2462
13178SOL    HW250754   9.774   1.158   5.815  0.6486  0.5431  0.7075
13179SOL     OW50755   1.601   7.569   3.700 -0.4783  0.2665 -0.0433
13179SOL    HW150756   1.608   7.503   3.775 -0.0423  0.1981 -0.1410
13179SOL    HW250757   1.547   7.648   3.730  0.4811  0.6667  0.6606
13180SOL     OW50758   8.773   4.158   2.469 -0.3996  0.0893 -0.1633
13180SOL    HW150759   8.728   4.107   2.396 -2.6431  1.4561  0.1992
13180SOL    HW250760   8.860   4.193   2.437 -1.0825  0.1618 -1.9960
13181SOL     OW50761   4.783   1.418   3.426 -0.4624 -0.4078 -0.3035
13181SOL    HW150762   4.752   1.510   3.449  1.0001  0.2927 -1.0701
13181SOL    HW250763   4.832   1.420   3.339  0.8762 -1.6543  0.4060
13182SOL     OW50764   0.574   6.292   6.002  0.1605  0.5478  0.2152
13182SOL    HW150765   0.564   6.199   6.038  2.7456 -0.2065 -0.8802
13182SOL    HW250766   0.516   6.303   5.921  0.7229 -0.5109 -0.3417
13183SOL     OW50767   2.974   1.328   2.213  0.6342 -0.2561  0.0309
13183SOL    HW150768   2.927   1.387   2.278  2.1389  0.4427  0.5121
13183SOL    HW250769   2.967   1.368   2.121  2.5413  1.3055  0.5037
13184SOL     OW50770   6.537   1.393   3.248 -0.1061 -0.0470 -0.0345
13184SOL    HW150771   6.514   1.382   3.345  6.0887 -0.5668  1.5475
13184SOL    HW250772   6.516   1.308   3.199 -3.0229  0.1295  0.7771
13185SOL     OW50773   9.980   3.820   5.788 -0.1945  0.1224 -0.0309
13185SOL    HW150774   9.904   3.755   5.789 -1.0055  1.0740  0.0101
13185SOL    HW250775   9.993   3.856   5.695  0.9799 -0.9311 -0.2944
13186SOL     OW50776   7.585   6.376   4.133  0.3474 -0.5449 -0.3889
13186SOL    HW150777   7.670   6.352   4.180 -1.3853  0.1023  3.2348
13186SOL    HW250778   7.507   6.333   4.180 -1.6066  1.4014 -1.7320
13187SOL     OW50779   7.731   1.138   6.380 -0.1298  0.4741 -0.3892
13187SOL    HW150780   7.664   1.206   6.410 -0.5412  0.0193 -0.2684
13187SOL    HW250781   7.766   1.164   6.290  0.1260  1.1362 -0.1048
13188SOL     OW50782   8.129   7.662   6.349 -0.0769 -0.5940  0.4840
13188SOL    HW150783   8.135   7.565   6.372  0.5466 -0.4647  0.8892
13188SOL    HW250784   8.180   7.681   6.266 -1.4135 -0.8654 -0.4138
13189SOL     OW50785   2.267   2.964   6.695  0.1328  0.0155  0.0802
13189SOL    HW150786   2.170   2.965   6.668  0.1175  1.7785  0.1257
13189SOL    HW250787   2.276   3.007   6.785  1.1199  1.1478 -0.5519
13190SOL     OW50788   8.555   1.028   2.648  0.1835  0.0051 -0.1317
13190SOL    HW150789   8.523   1.037   2.742  0.7276  0.2583  0.0306
13190SOL    HW250790   8.600   0.940   2.636 -0.0068 -0.0850 -0.1928
13191SOL     OW50791   9.017   4.076   5.473 -0.4279 -0.3975 -0.0437
13191SOL    HW150792   9.016   4.108   5.378 -0.1124  1.0426  0.4348
13191SOL    HW250793   9.108   4.089   5.511 -0.8345  0.0110  0.7922
13192SOL     OW50794   8.989   2.803   3.335  0.4453 -0.0554  0.0570
13192SOL    HW150795   8.988   2.891   3.384  0.3897  0.6169 -1.1307
13192SOL    HW250796   9.061   2.805   3.265 -0.1087 -0.6413 -0.5396
13193SOL     OW50797   8.140   6.170   4.941  0.4051 -0.1252  0.0797
13193SOL    HW150798   8.217   6.228   4.915  0.8989 -1.1776 -0.8462
13193SOL    HW250799   8.054   6.222   4.931  0.6923 -0.0386 -2.3392
13194SOL     OW50800   1.429   1.021   0.466  0.0991  0.1401 -0.8278
13194SOL    HW150801   1.356   1.081   0.498  1.0193 -0.2358  2.1054
13194SOL    HW250802   1.392   0.932   0.443 -0.1633 -0.6813  2.5069
13195SOL     OW50803   3.275   2.891   4.688  0.4526  0.4379  0.1566
13195SOL    HW150804   3.263   2.870   4.785 -2.2116  1.4809  0.0870
13195SOL    HW250805   3.295   2.989   4.677 -0.4536  0.5703 -0.4025
13196SOL     OW50806   6.856   0.060   3.722 -0.2920  0.1697  0.0815
13196SOL    HW150807   6.767   0.024   3.751 -1.0629  1.7915 -0.1868
13196SOL    HW250808   6.929   0.006   3.763 -1.4054 -0.8611  0.7301
13197SOL     OW50809   4.580   8.711   5.332 -0.2412 -0.4915 -0.1588
13197SOL    HW150810   4.523   8.698   5.413 -0.3211  3.1437  0.4460
13197SOL    HW250811   4.676   8.706   5.358 -0.2495  1.8914  0.4506
13198SOL     OW50812   6.825   2.488   3.241 -0.0074 -0.3607 -0.2014
13198SOL    HW150813   6.900   2.487   3.306  0.3212  1.6846 -0.5095
13198SOL    HW250814   6.744   2.529   3.284 -0.2767 -0.5301 -0.5474
13199SOL     OW50815   6.967   9.772   5.546  0.9291  0.3109 -0.0317
13199SOL    HW150816   6.953   9.682   5.506  0.9714  0.1251  0.3671
13199SOL    HW250817   7.060   9.779   5.582 -0.1071 -0.7616  3.0833
13200SOL     OW50818   9.824   1.089   0.707  0.3007 -0.5399  0.3818
13200SOL    HW150819   9.906   1.091   0.650  2.0192  1.9122  2.7945
13200SOL    HW250820   9.818   1.000   0.754  0.6921 -1.3196 -1.0283
13201SOL     OW50821   3.389   4.532   0.614  0.7367 -0.0020 -0.1066
13201SOL    HW150822   3.477   4.567   0.582  0.0441  0.3472 -1.6844
13201SOL    HW250823   3.320   4.546   0.543 -0.8308  0.6951  1.5070
13202SOL     OW50824   2.581   0.735   4.749 -0.1296 -0.0624  0.0676
13202SOL    HW150825   2.526   0.658   4.780 -0.2422 -0.1844 -0.4330
13202SOL    HW250826   2.523   0.817   4.744  0.2423  0.3225  1.6883
13203SOL     OW50827   1.939   1.477   4.338 -0.5972  0.3823 -0.4946
13203SOL    HW150828   1.984   1.442   4.420 -1.8689  0.0244  0.0712
13203SOL    HW250829   1.993   1.552   4.299  0.7717 -0.4195 -0.1766
13204SOL     OW50830   4.363   3.405   1.947 -0.3215 -0.3169  0.2981
13204SOL    HW150831   4.418   3.373   1.869 -0.7691  1.4238 -0.7677
13204SOL    HW250832   4.393   3.358   2.030 -0.2421 -2.6694 -1.0075
13205SOL     OW50833   8.633   2.252   5.904  0.0171  0.0258  0.2477
13205SOL    HW150834   8.697   2.257   5.981 -0.2629  1.4392  0.4046
13205SOL    HW250835   8.614   2.345   5.870 -1.0235 -0.4715 -0.5694
13206SOL     OW50836   5.359   0.767   4.334  0.3702  0.0177 -0.3054
13206SOL    HW150837   5.333   0.715   4.253 -2.5961 -0.3194  0.8006
13206SOL    HW250838   5.390   0.704   4.406  0.4288  0.0983 -0.2590
13207SOL     OW50839   0.401   8.284   1.790  0.8288 -0.3301 -0.2503
13207SOL    HW150840   0.305   8.281   1.761  0.4940  0.3770  0.7935
13207SOL    HW250841   0.410   8.338   1.873  2.1427 -0.3820 -0.3444
13208SOL     OW50842   9.380   5.758   1.398 -0.3444 -0.4174 -0.2811
13208SOL    HW150843   9.331   5.673   1.378 -1.6816  0.3581 -0.3546
13208SOL    HW250844   9.442   5.743   1.476  0.3580 -1.7832 -1.0788
13209SOL     OW50845   0.654   5.633   3.911  0.0832 -0.3395  0.0862
13209SOL    HW150846   0.620   5.555   3.965  2.5639 -1.9076 -0.5298
13209SOL    HW250847   0.685   5.601   3.822  2.1254  1.1529  0.2091
13210SOL     OW50848   6.554   0.291   1.898  0.0564  0.6720  0.0435
13210SOL    HW150849   6.606   0.309   1.815  0.1490 -0.9509 -0.2563
13210SOL    HW250850   6.457   0.283   1.875  0.4138 -3.0855 -0.4653
13211SOL     OW50851   1.806   8.515   1.328 -0.3692 -0.5872  0.6161
13211SOL    HW150852   1.762   8.512   1.239  0.0572 -0.6118  0.4041
13211SOL    HW250853   1.902   8.487   1.319  0.0448  0.7442  0.8595
13212SOL     OW50854   2.972   0.555   1.075  0.3897  0.3621  0.0592
13212SOL    HW150855   3.004   0.643   1.109 -2.0200  0.8481  1.2124
13212SOL    HW250856   2.917   0.570   0.993 -2.5785  0.3329  1.9534
13213SOL     OW50857   6.525   0.965   3.878  0.1666 -0.3877  0.1904
13213SOL    HW150858   6.533   0.972   3.977  0.4256 -1.3435  0.2361
13213SOL    HW250859   6.442   0.915   3.854 -0.7340  1.2168 -0.1141
13214SOL     OW50860   3.034   4.373   3.684  0.4613 -0.2352 -0.4352
13214SOL    HW150861   2.950   4.399   3.637  0.4659  0.0691 -0.2745
13214SOL    HW250862   3.053   4.276   3.668 -0.2272 -0.4410  0.0170
13215SOL     OW50863   4.637   5.134   1.245  0.3224  0.3925  0.2446
13215SOL    HW150864   4.723   5.122   1.195  0.4136 -1.0633  0.7275
13215SOL    HW250865   4.588   5.047   1.247 -1.5309  1.3839 -0.6795
13216SOL     OW50866   8.587   4.072   6.585 -0.1574 -0.2106  0.4700
13216SOL    HW150867   8.567   4.036   6.494  0.0590 -0.3294  0.4707
13216SOL    HW250868   8.505   4.063   6.642 -0.3846  0.1388  0.2018
13217SOL     OW50869   1.296   6.239   2.376  0.0585 -0.2894 -0.3328
13217SOL    HW150870   1.309   6.198   2.286  0.3647  0.8399 -0.8113
13217SOL    HW250871   1.324   6.335   2.374  2.4248 -0.9014  1.6176
13218SOL     OW50872   4.312   7.938   3.056 -0.4340  0.2653 -0.5725
13218SOL    HW150873   4.343   8.025   3.095  3.7674 -1.7365  0.7152
13218SOL    HW250874   4.276   7.880   3.128 -0.8337 -0.1099 -1.0662
13219SOL     OW50875   3.484   1.246   5.874  0.0316 -0.0853 -0.0007
13219SOL    HW150876   3.480   1.226   5.972  0.4570 -1.4774 -0.2467
13219SOL    HW250877   3.510   1.341   5.860  1.3791 -0.2513  1.2494
13220SOL     OW50878   4.047   9.109   3.399 -0.3441  0.1448  0.2317
13220SOL    HW150879   4.005   9.020   3.416  2.0404 -0.7867  1.4964
13220SOL    HW250880   4.065   9.154   3.487  0.7603  0.7702 -0.3069
13221SOL     OW50881   8.140   7.095   0.289  0.4110  0.2287 -0.3187
13221SOL    HW150882   8.141   7.195   0.297  5.1799  0.1718  1.6394
13221SOL    HW250883   8.167   7.070   0.196  0.5012  0.7518 -0.4384
13222SOL     OW50884   9.377   1.410   1.295  0.4123  0.1464 -0.1831
13222SOL    HW150885   9.289   1.382   1.334  0.1232  1.5780  0.2262
13222SOL    HW250886   9.366   1.424   1.197  0.2051  0.2577 -0.1450
13223SOL     OW50887   6.234   0.749   2.622  0.2834  0.1151 -0.2948
13223SOL    HW150888   6.231   0.762   2.523  0.3505 -2.2617 -0.6430
13223SOL    HW250889   6.224   0.838   2.668 -0.2163  1.1884 -2.4111
13224SOL     OW50890   7.870   0.960   6.543 -0.1014 -0.0635 -0.8315
13224SOL    HW150891   7.827   1.035   6.493 -2.4156 -1.4392 -0.9700
13224SOL    HW250892   7.871   0.878   6.486 -2.3669 -1.5408  1.1721
13225SOL     OW50893   7.999   3.420   6.017  0.2742 -0.3701 -0.0465
13225SOL    HW150894   8.049   3.448   6.098  0.2802 -0.7520  0.0809
13225SOL    HW250895   7.926   3.356   6.043 -0.7710  0.7640 -0.1256
13226SOL     OW50896   1.821   0.104   3.711 -0.0729 -0.1065 -0.1525
13226SOL    HW150897   1.774   0.067   3.631  1.4229 -0.3586 -0.9236
13226SOL    HW250898   1.919   0.110   3.693  0.2757 -0.0763  1.6262
13227SOL     OW50899   8.481   3.419   1.294 -0.1938  0.2225 -0.7121
13227SOL    HW150900   8.551   3.484   1.266 -0.0093  0.5883  0.5673
13227SOL    HW250901   8.509   3.326   1.268  1.3866  0.2114  0.9316
13228SOL     OW50902   3.964   0.259   3.571  0.2237 -0.2121  0.4443
13228SOL    HW150903   3.970   0.263   3.471 -1.3506 -0.0944  0.3429
13228SOL    HW250904   3.962   0.352   3.609 -0.1732 -0.2514  0.5200
13229SOL     OW50905   2.738   3.800   6.713  0.5726  0.5941 -0.2191
13229SOL    HW150906   2.793   3.805   6.797  0.5725 -0.2066 -0.1657
13229SOL    HW250907   2.690   3.886   6.699  0.5145  0.7004  0.6452
13230SOL     OW50908   2.635   7.225   6.291 -0.0735  0.0794  0.1408
13230SOL    HW150909   2.604   7.176   6.373  2.1356 -2.2797 -0.3741
13230SOL    HW250910   2.726   7.264   6.308 -0.4495  1.2955 -0.5567
13231SOL     OW50911   1.551   3.042   3.085  0.2499  0.3143  0.4371
13231SOL    HW150912   1.525   2.953   3.122  0.6956 -0.5609 -1.3206
13231SOL    HW250913   1.482   3.072   3.018  1.1588  0.3355 -0.4969
13232SOL     OW50914   6.331   1.560   6.587 -0.9139 -0.3694  0.3642
13232SOL    HW150915   6.350   1.657   6.602  0.2460 -0.3667 -1.0163
13232SOL    HW250916   6.352   1.509   6.671 -0.6054  0.4495  0.7920
13233SOL     OW50917   2.314   5.454   1.122  0.0431 -0.1952  0.5458
13233SOL    HW150918   2.257   5.495   1.193  0.0462 -1.3258  1.2345
13233SOL    HW250919   2.330   5.519   1.049 -1.4751  0.3971  0.7222
13234SOL     OW50920   3.557   5.621   4.598  0.3447  0.0651  0.0171
13234SOL    HW150921   3.585   5.592   4.507  0.5722  0.5283 -0.0636
13234SOL    HW250922   3.548   5.541   4.658 -0.5214 -0.3064 -0.6033
13235SOL     OW50923   5.838   1.490   4.028 -0.0460 -0.2918  0.6401
13235SOL    HW150924   5.881   1.576   4.002 -0.4279  0.1110  1.3070
13235SOL    HW250925   5.741   1.492   4.005 -0.1871 -0.2982  1.2079
13236SOL     OW50926   8.734   0.027   3.491 -0.0177  0.2278  0.2469
13236SOL    HW150927   8.758  -0.069   3.507  1.2532  0.8414  2.2867
13236SOL    HW250928   8.639   0.033   3.462 -1.1318 -1.4297  3.3231
13237SOL     OW50929   1.894   0.249   4.552  0.2625 -0.5665  0.8154
13237SOL    HW150930   1.822   0.276   4.617  0.7977  0.6785  0.9052
13237SOL    HW250931   1.940   0.330   4.518  1.8315 -1.3708  0.9819
13238SOL     OW50932   8.884   1.057   0.509 -0.4561  0.3073  0.1666
13238SOL    HW150933   8.853   1.049   0.604 -2.1705 -1.1195 -0.4912
13238SOL    HW250934   8.810   1.096   0.454 -0.5647 -1.7332 -1.1499
13239SOL     OW50935   8.963   6.238   5.356 -0.7368 -0.5291  0.3908
13239SOL    HW150936   9.006   6.311   5.409 -2.0932  1.5448 -1.2946
13239SOL    HW250937   9.034   6.179   5.317  0.3218 -0.9899  2.9229
13240SOL     OW50938   1.415   9.901   2.863  0.6408 -0.2317 -0.1361
13240SOL    HW150939   1.352   9.964   2.908  2.5205  1.2389  0.5115
13240SOL    HW250940   1.369   9.814   2.848 -1.9401  1.1901 -0.8350
13241SOL     OW50941   9.073   5.797   3.448 -0.0516  0.5086  0.4483
13241SOL    HW150942   8.995   5.828   3.502  0.0407  1.0690  0.2611
13241SOL    HW250943   9.074   5.845   3.360 -0.6428 -0.9500 -0.3800
13242SOL     OW50944   5.568   7.299   4.283 -0.4709  0.4911  0.0372
13242SOL    HW150945   5.600   7.394   4.278 -0.4502  0.4846  0.0532
13242SOL    HW250946   5.635   7.243   4.332  0.8440 -0.0895 -2.3200
13243SOL     OW50947   9.617   0.852   2.158  0.1317 -0.2045 -0.6735
13243SOL    HW150948   9.578   0.931   2.205 -0.8809 -0.2878 -1.3612
13243SOL    HW250949   9.586   0.850   2.063 -0.3669 -1.7764 -0.5030
13244SOL     OW50950   9.632   6.698   1.550  0.0048 -0.4576  0.0102
13244SOL    HW150951   9.610   6.665   1.642 -0.8898 -1.4797 -0.5714
13244SOL    HW250952   9.559   6.758   1.518  0.9897  1.0548  0.5225
13245SOL     OW50953   3.033   1.995   4.368 -0.2364 -0.4237 -0.3207
13245SOL    HW150954   3.007   2.091   4.380  0.8545 -0.2412  0.6961
13245SOL    HW250955   2.976   1.937   4.425 -0.1045 -0.2626 -0.0240
13246SOL     OW50956   1.710   1.403   6.449 -0.0087 -0.1395  0.6933
13246SOL    HW150957   1.741   1.479   6.506 -0.1386 -0.2783  0.9511
13246SOL    HW250958   1.610   1.408   6.438  0.0823  0.2155  0.0005
13247SOL     OW50959   0.838   0.839   3.838  0.5716  0.1199 -0.3764
13247SOL    HW150960   0.755   0.783   3.841 -0.5957  1.8675  3.2963
13247SOL    HW250961   0.813   0.932   3.811  0.9926  1.1149  2.5290
13248SOL     OW50962   7.369   8.717   4.861 -0.4029 -0.0848 -0.5229
13248SOL    HW150963   7.320   8.741   4.777  1.3019 -1.1530 -1.8573
13248SOL    HW250964   7.458   8.678   4.838  0.8739  1.2995  1.8300
13249SOL     OW50965   6.722   7.290   5.735  0.1167 -0.4878 -0.7824
13249SOL    HW150966   6.804   7.347   5.733 -1.3070  1.6654  0.8853
13249SOL    HW250967   6.667   7.307   5.654 -0.5154  0.8491 -0.0795
13250SOL     OW50968   8.437   1.671   3.718  0.1580  0.1248  0.4848
13250SOL    HW150969   8.450   1.595   3.655  1.0911  1.7630 -1.3434
13250SOL    HW250970   8.342   1.671   3.751 -0.7027  0.0019 -1.9395
13251SOL     OW50971   0.905   0.943   4.391  0.0501 -0.5562 -0.7049
13251SOL    HW150972   0.847   1.002   4.334 -1.6372 -0.5702  0.9522
13251SOL    HW250973   1.001   0.969   4.378 -0.4914  1.0834 -1.6655
13252SOL     OW50974   0.063   1.531   1.145  0.2963 -0.8774  0.1634
13252SOL    HW150975   0.008   1.595   1.199 -0.6342 -0.7244 -0.9509
13252SOL    HW250976   0.004   1.461   1.105  1.1271 -1.6267  0.2211
13253SOL     OW50977   9.580   2.917   5.988  0.2046  1.3384 -1.0002
13253SOL    HW150978   9.568   2.968   5.903 -0.0226  0.8769 -1.2470
13253SOL    HW250979   9.496   2.921   6.042 -0.0201  0.7168 -1.2998
13254SOL     OW50980   9.937   2.082   2.833  0.4108 -0.5490  0.3020
13254SOL    HW150981  10.029   2.084   2.872  1.0360  3.7330 -1.1519
13254SOL    HW250982   9.941   2.112   2.737 -2.5194 -0.1582  0.2567
13255SOL     OW50983   0.268   8.219   4.796 -1.1440 -0.2632  0.2362
13255SOL    HW150984   0.253   8.126   4.761 -2.8120 -0.3689  1.1863
13255SOL    HW250985   0.283   8.281   4.720 -1.0064 -1.1399 -0.4621
13256SOL     OW50986   3.491   8.014   2.859  0.2791  0.3414  0.1065
13256SOL    HW150987   3.419   8.043   2.795 -0.1045 -0.1395  0.3187
13256SOL    HW250988   3.483   7.916   2.875  0.6610  0.3821  0.5410
13257SOL     OW50989   2.379   8.623   4.448  0.2525 -0.3659 -0.2274
13257SOL    HW150990   2.432   8.708   4.444  1.2144 -0.8877  1.1115
13257SOL    HW250991   2.281   8.644   4.439  0.5643  0.7670 -1.0267
13258SOL     OW50992   9.228   0.792   0.420 -0.4801 -0.0895 -0.1283
13258SOL    HW150993   9.157   0.721   0.422 -0.6039  0.0263 -0.4947
13258SOL    HW250994   9.229   0.839   0.509 -0.9546 -0.0025 -0.1650
13259SOL     OW50995   2.824   8.080   4.707  0.1584 -0.3159 -0.0036
13259SOL    HW150996   2.781   7.991   4.720 -0.8990  0.2944  0.8584
13259SOL    HW250997   2.845   8.120   4.797 -2.4961  1.7563 -0.2210
13260SOL     OW50998   1.050   4.808   6.186 -0.5233  0.2824  0.7866
13260SOL    HW150999   1.041   4.794   6.284 -0.2494  0.7744  0.8863
13260SOL    HW251000   0.981   4.875   6.155 -0.9428 -0.2552  0.5558
13261SOL     OW51001   9.269   5.252   0.802 -0.2170 -0.6528  0.2150
13261SOL    HW151002   9.297   5.261   0.898  0.5287 -1.3323  0.0633
13261SOL    HW251003   9.177   5.213   0.797 -1.3488  1.8329  0.7285
13262SOL     OW51004   3.623   9.895   2.427  0.3853 -0.2534 -0.0325
13262SOL    HW151005   3.678   9.977   2.445  1.3504 -1.0769  0.7727
13262SOL    HW251006   3.583   9.902   2.335  3.2670 -0.4393 -1.3287
13263SOL     OW51007   2.866   2.641   1.300  0.2311  0.1553  0.7983
13263SOL    HW151008   2.773   2.680   1.300 -0.1740 -0.7339 -0.8505
13263SOL    HW251009   2.913   2.669   1.216  1.9061  1.5761  2.1710
13264SOL     OW51010   1.224   3.875   0.425  0.0854  0.6790 -0.0765
13264SOL    HW151011   1.144   3.925   0.457  0.4250  0.6867  0.7663
13264SOL    HW251012   1.233   3.790   0.477  0.4184  0.5046 -0.4165
13265SOL     OW51013   1.838   6.332   3.475  0.1896 -0.0373  0.8747
13265SOL    HW151014   1.828   6.290   3.566  1.6608 -3.0767 -0.2826
13265SOL    HW251015   1.759   6.307   3.419  0.0494  0.5041  0.8341
13266SOL     OW51016   8.442   4.180   5.239 -0.2298  0.1278  0.6672
13266SOL    HW151017   8.424   4.237   5.159 -3.0662 -0.6167  0.7108
13266SOL    HW251018   8.533   4.200   5.275  1.3127  0.0866 -3.0377
13267SOL     OW51019   0.175   9.942   1.668 -0.2083 -0.9450 -0.4851
13267SOL    HW151020   0.269   9.909   1.662  1.0946  2.5760 -0.4199
13267SOL    HW251021   0.139   9.923   1.760  1.7896  0.9732  0.7598
13268SOL     OW51022   7.459   7.068   5.968  0.2909 -0.0518  0.1530
13268SOL    HW151023   7.512   7.131   6.025 -2.0982  0.7483  1.5643
13268SOL    HW251024   7.431   6.990   6.024 -1.5521  0.4334 -0.0721
13269SOL     OW51025   3.689   3.266   3.753 -0.9110 -0.5546 -0.8284
13269SOL    HW151026   3.769   3.223   3.711  1.0885  2.3926 -0.1821
13269SOL    HW251027   3.606   3.236   3.706  0.7065 -2.2759 -2.6625
13270SOL     OW51028   7.253   0.540   4.234  0.7686 -0.2853 -0.3825
13270SOL    HW151029   7.349   0.557   4.254  1.0522  0.5129 -2.3491
13270SOL    HW251030   7.242   0.446   4.201  1.3026  0.3877 -2.6003
13271SOL     OW51031   3.621   4.268   4.301 -0.1365 -0.1058  0.0955
13271SOL    HW151032   3.708   4.221   4.321 -0.2879 -0.5983 -0.4114
13271SOL    HW251033   3.550   4.200   4.283 -0.4326  0.3126 -0.3146
13272SOL     OW51034   4.139   8.568   5.392 -0.2934 -0.1899  0.4778
13272SOL    HW151035   4.211   8.499   5.394 -0.7809 -0.7264 -0.2070
13272SOL    HW251036   4.158   8.633   5.319  0.1568  0.4054  1.1121
13273SOL     OW51037   6.746   1.719   3.856 -0.6185  0.1693  0.3659
13273SOL    HW151038   6.650   1.696   3.845 -0.2235 -1.8746  0.9598
13273SOL    HW251039   6.803   1.643   3.824  0.8106  1.4297 -0.1727
13274SOL     OW51040   3.942   8.902   2.523  0.2313 -0.1844 -0.1395
13274SOL    HW151041   3.861   8.845   2.535 -0.4502  0.9011  0.4836
13274SOL    HW251042   3.980   8.887   2.432 -1.0396 -0.2272 -0.6704
13275SOL     OW51043   9.651   5.475   0.747 -0.3284 -0.5883  0.3948
13275SOL    HW151044   9.704   5.478   0.832  0.3427 -1.6600  0.0263
13275SOL    HW251045   9.565   5.523   0.759  0.5909  0.8969  1.1112
13276SOL     OW51046   3.063   5.914   6.320 -0.4866 -0.7601 -0.3680
13276SOL    HW151047   3.042   5.987   6.385 -1.5309 -0.8757 -0.5723
13276SOL    HW251048   2.984   5.897   6.261 -0.0095 -1.5669 -0.7914
13277SOL     OW51049   8.592   6.297   1.590  0.3513  0.4946  0.4815
13277SOL    HW151050   8.552   6.385   1.563 -0.0339  0.5588  1.2450
13277SOL    HW251051   8.691   6.308   1.602  0.5127  0.4842 -0.8075
13278SOL     OW51052   8.188   3.325   5.302 -0.3345 -0.0495  0.3196
13278SOL    HW151053   8.260   3.319   5.371 -0.7927 -1.5003  0.6850
13278SOL    HW251054   8.228   3.344   5.212  0.5769 -1.6909  0.3693
13279SOL     OW51055   4.133   5.907   1.049 -0.2232 -0.1246  0.2947
13279SOL    HW151056   4.150   5.836   1.117 -0.8852 -1.2247 -0.6676
13279SOL    HW251057   4.215   5.920   0.993  0.4076  0.9597  1.4380
13280SOL     OW51058   5.957   8.126   3.194 -0.0544 -1.2012  0.0644
13280SOL    HW151059   5.964   8.035   3.153  2.7754 -0.8553 -0.3114
13280SOL    HW251060   5.983   8.121   3.291  0.1308 -0.7611  0.0360
13281SOL     OW51061   7.780   0.971   0.326 -0.3371 -0.0456  0.3569
13281SOL    HW151062   7.757   1.006   0.235  0.0729  0.5477  0.4812
13281SOL    HW251063   7.841   0.893   0.317  2.2191  1.9070  0.2026
13282SOL     OW51064   0.216   2.576   2.069 -0.1616 -0.8790  0.4694
13282SOL    HW151065   0.308   2.602   2.041 -0.4236 -0.6194 -0.1820
13282SOL    HW251066   0.219   2.527   2.156  0.5344 -0.4050  0.7089
13283SOL     OW51067   2.458   5.977   3.912 -0.0684  0.1255 -0.6375
13283SOL    HW151068   2.379   6.023   3.871 -2.0583 -0.9074  1.8969
13283SOL    HW251069   2.486   5.900   3.854  0.2884  1.6145 -2.4793
13284SOL     OW51070   1.387   1.641   3.481  0.5333  0.2726 -0.5008
13284SOL    HW151071   1.460   1.577   3.506  0.4287  0.3791  0.0917
13284SOL    HW251072   1.329   1.658   3.561  0.9307  1.5926 -0.4806
13285SOL     OW51073   7.349   2.038   1.904 -0.2469  0.2345  0.7950
13285SOL    HW151074   7.325   1.963   1.966  0.3423  0.4907  1.3322
13285SOL    HW251075   7.388   2.114   1.956  1.8920 -0.2303 -0.0778
13286SOL     OW51076   1.588   5.916   6.661 -0.4533  0.0320 -0.0510
13286SOL    HW151077   1.630   5.874   6.741  2.3827  1.9663 -0.4475
13286SOL    HW251078   1.568   5.845   6.593 -1.7232 -1.4507  1.8360
13287SOL     OW51079   8.381   1.118   1.755 -0.4957  0.0427  0.4311
13287SOL    HW151080   8.286   1.143   1.772 -0.6661 -0.5947  0.4424
13287SOL    HW251081   8.385   1.048   1.683 -0.2284 -1.7210  2.1137
13288SOL     OW51082   9.969   8.283   2.540  0.0196 -0.1635  0.4022
13288SOL    HW151083  10.049   8.307   2.485 -0.5583 -0.4240 -0.5647
13288SOL    HW251084   9.985   8.309   2.635  0.7161  1.0378 -0.0246
13289SOL     OW51085   1.025   8.313   2.346  0.2379 -0.4766 -0.7470
13289SOL    HW151086   1.058   8.229   2.304  0.2472 -0.0952 -1.5260
13289SOL    HW251087   1.007   8.381   2.274  0.5428  0.2895 -0.1074
13290SOL     OW51088   8.478   4.703   5.525 -0.6668  0.2148  0.0349
13290SOL    HW151089   8.425   4.619   5.538  0.2753 -0.4301 -0.2830
13290SOL    HW251090   8.531   4.697   5.441  0.3871  0.6046  0.6624
13291SOL     OW51091   3.914   4.508   0.580 -0.0599  0.1906 -0.5937
13291SOL    HW151092   3.897   4.487   0.676  0.0702  0.8156 -0.4322
13291SOL    HW251093   3.945   4.602   0.571  1.3274 -0.2883 -1.0964
13292SOL     OW51094   5.293   1.621   1.136  0.1273  0.0387 -0.2869
13292SOL    HW151095   5.311   1.561   1.214  0.0260  0.3894  0.0100
13292SOL    HW251096   5.357   1.697   1.137 -0.5318  0.5958  0.0410
13293SOL     OW51097   7.225   1.425   4.180  0.5126 -0.3192 -0.3043
13293SOL    HW151098   7.218   1.350   4.245  0.8091 -0.3742 -0.3345
13293SOL    HW251099   7.282   1.397   4.103 -0.5441 -0.5538 -1.0119
13294SOL     OW51100   9.097   3.545   5.623 -0.2534  0.6803 -0.1186
13294SOL    HW151101   9.082   3.635   5.583  1.5350  1.7993  1.6459
13294SOL    HW251102   9.172   3.499   5.575 -0.7630  0.3764 -0.6270
13295SOL     OW51103   8.696   0.063   5.802  0.0076  0.6129 -0.1484
13295SOL    HW151104   8.609   0.102   5.832  0.6186  1.5042  0.4651
13295SOL    HW251105   8.750   0.133   5.754  0.3492  0.0385 -0.6164
13296SOL     OW51106   2.447   9.723   2.611  0.5169  0.3170  0.1475
13296SOL    HW151107   2.503   9.765   2.539  1.8251 -2.5219 -0.5491
13296SOL    HW251108   2.382   9.659   2.569  0.3567 -0.3369  1.3830
13297SOL     OW51109   5.055   0.740   0.618 -0.2316  0.2709  0.3292
13297SOL    HW151110   4.985   0.809   0.639  0.3461  0.8741  0.3159
13297SOL    HW251111   5.015   0.668   0.562 -0.2474  1.8921 -1.8175
13298SOL     OW51112   0.367   4.003   6.099  0.1778 -0.2581 -0.2166
13298SOL    HW151113   0.301   4.072   6.067  1.0437 -0.4810 -2.6043
13298SOL    HW251114   0.320   3.915   6.107  0.0642 -0.3416 -1.5737
13299SOL     OW51115   7.934   2.262   1.733 -0.0479 -0.0196  0.3306
13299SOL    HW151116   7.939   2.362   1.742  2.0609 -0.1340  0.7220
13299SOL    HW251117   7.842   2.236   1.704 -0.6811  2.0234  0.3922
13300SOL     OW51118   3.883   9.025   0.311  0.1798  0.0872 -0.0355
13300SOL    HW151119   3.802   9.062   0.357 -0.9337 -0.1329 -1.7779
13300SOL    HW251120   3.961   9.087   0.327 -1.0415  1.8686 -0.7701
13301SOL     OW51121   1.316   6.957   2.436  0.1015  0.8332  0.9256
13301SOL    HW151122   1.258   6.908   2.501  0.6166 -0.5343  0.3521
13301SOL    HW251123   1.412   6.948   2.462  0.2519  0.9665  0.4351
13302SOL     OW51124   1.334   8.180   5.815  0.5043 -0.8799 -0.1766
13302SOL    HW151125   1.266   8.124   5.766 -1.3300 -0.1751  1.4935
13302SOL    HW251126   1.355   8.137   5.902  3.1284 -1.6847 -1.1687
13303SOL     OW51127   8.105   6.248   6.374 -0.1813  0.7907  0.0779
13303SOL    HW151128   8.167   6.263   6.298  0.5260 -1.9755  0.0754
13303SOL    HW251129   8.145   6.285   6.458  0.5428  0.8541 -0.2945
13304SOL     OW51130   3.371   5.878   6.385 -0.1544  0.4083 -0.4394
13304SOL    HW151131   3.284   5.872   6.335  1.5756 -0.2777 -3.4905
13304SOL    HW251132   3.445   5.847   6.325  2.1990  0.9889  2.1251
13305SOL     OW51133   9.018   0.312   1.345  0.1275  0.3065 -0.0747
13305SOL    HW151134   9.082   0.300   1.269 -0.1009  1.3001 -0.4248
13305SOL    HW251135   9.068   0.342   1.426  0.1201  0.9674 -0.3156
13306SOL     OW51136   9.951   5.584   5.970  1.2595 -0.3880 -0.0029
13306SOL    HW151137  10.013   5.540   5.905  0.8162 -0.8155 -0.1436
13306SOL    HW251138   9.977   5.680   5.982  2.0791 -0.6147  0.1016
13307SOL     OW51139   2.909   7.987   6.496  0.6947 -0.2469 -0.0954
13307SOL    HW151140   2.937   8.071   6.450 -0.4893  0.0437 -0.2952
13307SOL    HW251141   2.985   7.953   6.552  0.7619  1.6355  0.9930
13308SOL     OW51142   2.299   0.462   1.435 -0.1602  0.2626 -0.6363
13308SOL    HW151143   2.293   0.562   1.441 -1.2770  0.1617 -0.0241
13308SOL    HW251144   2.256   0.421   1.515 -0.0895 -0.7322 -1.1002
13309SOL     OW51145   6.108   1.000   5.493 -0.0965  0.1974 -0.2466
13309SOL    HW151146   6.072   0.908   5.508 -1.2981  0.9850  1.9385
13309SOL    HW251147   6.166   1.027   5.570 -0.8667  1.7790 -0.1899
13310SOL     OW51148   9.941   0.453   3.648  0.0305  0.0231 -0.2104
13310SOL    HW151149   9.980   0.494   3.565 -0.9631 -0.5254 -0.9679
13310SOL    HW251150  10.008   0.457   3.722  0.3937  1.8874 -0.6130
13311SOL     OW51151   4.407   7.813   2.097  0.1152  0.2957  0.2991
13311SOL    HW151152   4.427   7.781   2.004 -0.6110 -0.6976  0.4750
13311SOL    HW251153   4.338   7.885   2.093 -0.5704 -0.3711  0.1384
13312SOL     OW51154   3.583   3.514   1.964 -0.0162 -0.3506  0.0539
13312SOL    HW151155   3.576   3.564   2.050 -1.2623  1.0310 -0.8197
13312SOL    HW251156   3.678   3.507   1.936  0.2812  0.3247  0.8996
13313SOL     OW51157   7.423   5.777   6.121 -0.5721 -0.3229 -0.3733
13313SOL    HW151158   7.336   5.740   6.154 -1.5121 -0.1839 -2.6106
13313SOL    HW251159   7.439   5.748   6.027  1.1367  0.7948 -0.4636
13314SOL     OW51160   4.405   8.403   3.237  0.0551 -0.1531 -0.1285
13314SOL    HW151161   4.332   8.470   3.237 -0.0461 -0.2627  0.2095
13314SOL    HW251162   4.424   8.374   3.143 -0.4160 -0.2121 -0.2064
13315SOL     OW51163   8.314   1.308   1.256  0.2042  1.1497  0.2640
13315SOL    HW151164   8.385   1.322   1.325  2.0887  0.3748 -1.4685
13315SOL    HW251165   8.257   1.230   1.282  0.5453  1.2275  1.2424
13316SOL     OW51166   8.996   4.198   0.554 -0.0972 -0.1223  0.3144
13316SOL    HW151167   9.003   4.166   0.459  0.7016  2.0574 -0.3866
13316SOL    HW251168   9.047   4.135   0.613  0.5074 -0.7772 -0.8695
13317SOL     OW51169   1.647   8.857   4.990 -0.1686  0.0150 -0.0335
13317SOL    HW151170   1.652   8.945   4.943  0.3737 -0.2769 -0.5409
13317SOL    HW251171   1.551   8.828   4.997 -0.2462 -0.0597 -1.2108
13318SOL     OW51172   9.373   2.704   3.473  0.1664 -0.2435 -0.4588
13318SOL    HW151173   9.331   2.691   3.383  0.7468  3.5519 -1.3468
13318SOL    HW251174   9.301   2.717   3.541 -0.2503  1.0125 -1.1112
13319SOL     OW51175   7.708   2.982   4.745  0.3753  0.1779  0.1500
13319SOL    HW151176   7.768   3.008   4.669  1.6081 -0.1113  1.0076
13319SOL    HW251177   7.739   2.895   4.784 -2.9772 -2.0793 -1.9291
13320SOL     OW51178   2.084   3.647   5.824  0.3902  0.0453 -1.0966
13320SOL    HW151179   1.994   3.690   5.826  0.0315 -0.7320 -0.4653
13320SOL    HW251180   2.122   3.656   5.732  0.5996  2.2635 -0.8282
13321SOL     OW51181   2.248   1.202   3.359 -0.1451  0.7736 -0.1989
13321SOL    HW151182   2.343   1.220   3.385  0.0730  1.5468 -1.4820
13321SOL    HW251183   2.188   1.226   3.435  0.8083 -1.8537  1.4979
13322SOL     OW51184   1.303   9.227   3.043 -0.0714 -0.3721 -0.5804
13322SOL    HW151185   1.302   9.242   2.944 -0.7176 -1.0334 -0.6768
13322SOL    HW251186   1.215   9.189   3.072  0.1677 -0.3112  0.2275
13323SOL     OW51187   7.402   9.688   1.785 -0.0509  0.2123  0.4526
13323SOL    HW151188   7.475   9.672   1.851  0.1383  2.6153  0.8546
13323SOL    HW251189   7.373   9.783   1.789  0.0633  0.4567 -3.0301
13324SOL     OW51190   3.654   4.384   2.901 -0.1194 -0.1530  0.2754
13324SOL    HW151191   3.606   4.466   2.871  0.8258 -0.3582 -1.8894
13324SOL    HW251192   3.735   4.410   2.954  0.4320  0.3321 -0.7969
13325SOL     OW51193   5.008   4.262   1.291  0.2572  0.1481 -0.6652
13325SOL    HW151194   5.006   4.241   1.194 -0.4695  2.1657 -1.1145
13325SOL    HW251195   4.915   4.275   1.325  0.4652 -1.1831  0.4549
13326SOL     OW51196   1.094   5.488   4.346  0.5332 -0.3831 -0.2081
13326SOL    HW151197   1.161   5.511   4.417 -0.0542 -1.3741  0.6826
13326SOL    HW251198   1.045   5.571   4.319  3.4585  0.7298 -2.3201
13327SOL     OW51199   0.764   4.661   4.486 -0.7058  0.0442 -0.3566
13327SOL    HW151200   0.864   4.669   4.492 -0.6454  0.3528 -1.6289
13327SOL    HW251201   0.730   4.607   4.562  0.4761 -0.3433 -0.1009
13328SOL     OW51202   8.792   6.804   5.574 -0.0982  0.5236 -0.0645
13328SOL    HW151203   8.827   6.862   5.501 -0.4596  0.0532 -0.6142
13328SOL    HW251204   8.692   6.801   5.569 -0.0790 -0.1632 -0.0493
13329SOL     OW51205   2.316   3.077   2.248  0.1411  0.3273  0.1836
13329SOL    HW151206   2.355   3.009   2.186 -1.2916 -1.1722  0.8969
13329SOL    HW251207   2.331   3.048   2.343  1.4912  2.1368  0.5572
13330SOL     OW51208   5.466   8.894   2.921  0.1610 -0.1638  0.1720
13330SOL    HW151209   5.469   8.796   2.941  0.3738 -0.1673  0.1224
13330SOL    HW251210   5.491   8.945   3.003  0.8741 -0.1733 -0.0400
13331SOL     OW51211   5.839   4.334   1.088 -0.0428 -0.1008 -0.4084
13331SOL    HW151212   5.821   4.430   1.110  0.1651  0.5587 -2.9822
13331SOL    HW251213   5.811   4.276   1.165 -0.5127  1.9775  1.0227
13332SOL     OW51214   6.329   9.176   1.933 -0.2242  0.6416  0.3210
13332SOL    HW151215   6.260   9.145   1.867  0.8315 -0.5926 -0.2124
13332SOL    HW251216   6.406   9.215   1.883 -1.4887  4.1684  0.9555
13333SOL     OW51217   9.822   5.485   6.252  0.1269  0.6253  0.5118
13333SOL    HW151218   9.800   5.548   6.327  0.0209  0.0944  0.9329
13333SOL    HW251219   9.741   5.431   6.229 -0.0167  1.2409 -0.4291
13334SOL     OW51220   8.086   1.489   1.408 -0.5621  0.4601  0.1644
13334SOL    HW151221   8.012   1.445   1.355 -1.3059  0.7307  0.9684
13334SOL    HW251222   8.172   1.441   1.390 -1.3214 -1.2405  0.8782
13335SOL     OW51223   7.454   0.638   4.995 -0.5215 -1.0643 -0.2610
13335SOL    HW151224   7.377   0.666   4.937  0.1011  1.5259  0.1093
13335SOL    HW251225   7.539   0.676   4.958  0.3137 -2.1594  0.5178
13336SOL     OW51226   0.522   7.961   4.523 -0.0694 -0.4197  0.1750
13336SOL    HW151227   0.433   7.949   4.567  1.0453 -0.7581  2.3917
13336SOL    HW251228   0.535   8.057   4.500 -0.1847 -0.0207  1.7094
13337SOL     OW51229   9.121   1.289   2.768 -0.3559 -0.2772 -0.2596
13337SOL    HW151230   9.084   1.197   2.784 -1.4602 -0.1239 -1.8095
13337SOL    HW251231   9.120   1.309   2.670  2.6032  0.2832 -0.2342
13338SOL     OW51232   2.439   0.486   4.417 -0.1662 -0.5170  0.3649
13338SOL    HW151233   2.467   0.407   4.471 -0.1972 -0.2692  0.7457
13338SOL    HW251234   2.361   0.461   4.359 -0.7311 -0.5391  1.1175
13339SOL     OW51235   4.451   3.176   5.372 -0.1982  0.2235  0.0231
13339SOL    HW151236   4.495   3.169   5.462  0.0679  0.4556 -0.0874
13339SOL    HW251237   4.447   3.272   5.344 -0.0504  0.1303 -0.3257
13340SOL     OW51238   7.693   7.572   2.041 -0.2347  0.3252 -0.0453
13340SOL    HW151239   7.725   7.562   1.947 -0.8744 -0.5332 -0.1747
13340SOL    HW251240   7.621   7.641   2.044 -0.1516  0.4193 -0.1626
13341SOL     OW51241   6.349   8.505   4.502 -0.5094 -0.5069 -0.3976
13341SOL    HW151242   6.388   8.414   4.518  0.0814 -0.4918 -1.6778
13341SOL    HW251243   6.422   8.569   4.478 -1.0643  0.0336 -0.6750
13342SOL     OW51244   5.612   0.212   5.315 -0.4912  0.0121  0.2429
13342SOL    HW151245   5.522   0.191   5.275 -0.2644  0.6687 -0.6280
13342SOL    HW251246   5.601   0.235   5.412 -1.2835  0.2393  0.1068
13343SOL     OW51247   1.601   4.127   0.367  0.0513  0.1880  0.2142
13343SOL    HW151248   1.541   4.061   0.411 -0.3169  1.2567  1.3729
13343SOL    HW251249   1.592   4.121   0.268  0.9053 -2.2970  0.2520
13344SOL     OW51250   5.468   1.358   1.357  0.0843  0.7499 -0.0932
13344SOL    HW151251   5.525   1.276   1.360 -0.8150  0.0354 -1.7502
13344SOL    HW251252   5.404   1.358   1.434 -0.2085 -0.3305 -0.3359
13345SOL     OW51253   8.436   5.186   4.518  0.1989 -0.6848 -0.0670
13345SOL    HW151254   8.361   5.204   4.581 -0.3127  0.1151 -0.8946
13345SOL    HW251255   8.504   5.128   4.562  0.8853  1.5815  1.9834
13346SOL     OW51256   9.670   1.632   5.616  0.3871 -0.7622  0.2215
13346SOL    HW151257   9.673   1.696   5.538  0.8680 -0.9517  0.0853
13346SOL    HW251258   9.593   1.656   5.675 -0.3472 -0.9805 -0.6250
13347SOL     OW51259   9.317   8.904   5.735  0.1568 -0.1232  0.2956
13347SOL    HW151260   9.326   8.982   5.673 -0.7097  0.8252  1.3310
13347SOL    HW251261   9.329   8.934   5.829 -0.4566 -1.1863  0.7350
13348SOL     OW51262   8.925   0.837   3.804  0.3206 -0.7690  0.1283
13348SOL    HW151263   8.881   0.754   3.840 -0.3928 -0.5131 -0.1374
13348SOL    HW251264   8.977   0.881   3.877  1.6554 -2.0633 -0.0124
13349SOL     OW51265   6.242   8.216   4.248  0.0200 -0.0584 -0.5605
13349SOL    HW151266   6.164   8.155   4.231 -2.1875  1.5019  3.4276
13349SOL    HW251267   6.300   8.178   4.320  1.4304  0.1723 -1.5450
13350SOL     OW51268   6.276   5.629   0.855 -0.4652  0.2618  0.0417
13350SOL    HW151269   6.213   5.552   0.864  0.4100 -0.4183  0.3520
13350SOL    HW251270   6.336   5.633   0.934  1.4768 -0.5289 -1.3446
13351SOL     OW51271   7.686   3.792   3.480  0.1499 -0.3318 -0.5568
13351SOL    HW151272   7.630   3.732   3.422 -1.5759 -0.0341  0.7480
13351SOL    HW251273   7.756   3.738   3.526  2.0532 -0.4537 -3.4882
13352SOL     OW51274   9.374   1.404   2.842 -0.3817 -0.2347 -0.0578
13352SOL    HW151275   9.369   1.494   2.799 -0.4037  0.0731  0.5859
13352SOL    HW251276   9.282   1.368   2.856 -0.3834 -0.2059  0.0078
13353SOL     OW51277   0.742   2.568   2.587  0.3736 -0.3147  0.0556
13353SOL    HW151278   0.821   2.628   2.603 -0.2353  0.4734  0.1072
13353SOL    HW251279   0.771   2.489   2.533  1.0260  0.4052 -0.6646
13354SOL     OW51280   0.891   4.432   5.493 -0.2459 -0.6622  0.5400
13354SOL    HW151281   0.847   4.506   5.441  2.0933  0.7631  0.4948
13354SOL    HW251282   0.919   4.467   5.582 -0.2246 -1.8498  0.9994
13355SOL     OW51283   5.263   0.377   3.411  0.0456 -0.1263 -0.2546
13355SOL    HW151284   5.192   0.393   3.343 -1.8657  1.2901  2.0261
13355SOL    HW251285   5.226   0.325   3.487  1.7910 -0.4718  0.3861
13356SOL     OW51286   4.118   2.994   1.440  0.3008  0.1258 -0.1961
13356SOL    HW151287   4.091   2.900   1.462 -0.6665  0.2697 -0.7416
13356SOL    HW251288   4.143   3.001   1.344 -0.1810  0.5462 -0.2955
13357SOL     OW51289   7.516   1.295   5.443 -0.1997  0.4401 -0.2739
13357SOL    HW151290   7.535   1.386   5.405  0.4205  0.1520 -0.6654
13357SOL    HW251291   7.519   1.300   5.542 -0.8724  0.9970 -0.2738
13358SOL     OW51292   3.045   1.172   6.376 -0.3157  0.3292  0.1110
13358SOL    HW151293   2.952   1.179   6.338  0.2919 -0.7641 -1.6427
13358SOL    HW251294   3.051   1.089   6.431 -1.0847  1.7153  2.3539
13359SOL     OW51295   4.516   9.860   6.638 -0.1227  0.0861 -0.0450
13359SOL    HW151296   4.450   9.897   6.703 -0.3203 -1.2411  0.5188
13359SOL    HW251297   4.521   9.761   6.648  2.5927  0.2418  0.5379
13360SOL     OW51298   9.809   7.501   3.601  0.0789  0.1632  0.0369
13360SOL    HW151299   9.833   7.543   3.688  0.1594  1.1766 -0.4653
13360SOL    HW251300   9.811   7.402   3.610  0.6892  0.2610  1.0226
13361SOL     OW51301   6.213   8.157   2.823  0.5296  0.4169 -0.0375
13361SOL    HW151302   6.160   8.193   2.746 -0.7347  0.7031  0.9468
13361SOL    HW251303   6.235   8.061   2.806  1.3188  0.8088 -1.3053
13362SOL     OW51304   2.307   5.223   5.998 -0.4394  0.1420 -0.3515
13362SOL    HW151305   2.279   5.233   5.903  0.6537  2.1499 -0.5052
13362SOL    HW251306   2.249   5.281   6.056 -0.6925 -0.5825  0.1206
13363SOL     OW51307   3.166   3.426   0.453  0.0985 -0.5349 -0.3132
13363SOL    HW151308   3.160   3.334   0.413  1.5649 -1.4935  1.5636
13363SOL    HW251309   3.091   3.438   0.519 -0.7662  0.0672 -1.3831
13364SOL     OW51310   2.331   6.262   4.200  0.6110  0.5852  0.2142
13364SOL    HW151311   2.304   6.279   4.295  2.0059  2.4185  0.3237
13364SOL    HW251312   2.347   6.164   4.186 -0.8818  0.1421  1.5036
13365SOL     OW51313   7.564   7.894   2.335 -0.2704  0.2227 -0.0428
13365SOL    HW151314   7.578   7.948   2.253  0.4347 -0.5113 -0.4181
13365SOL    HW251315   7.482   7.837   2.325  1.4050 -2.0436 -1.4548
13366SOL     OW51316   4.967   4.743   0.321  0.5504  0.5928  0.4598
13366SOL    HW151317   5.022   4.823   0.295  1.5899  0.6645  2.8099
13366SOL    HW251318   4.996   4.709   0.410 -0.3110 -2.0424 -0.1923
13367SOL     OW51319   1.192   3.156   1.972 -0.4433  0.3739  0.2058
13367SOL    HW151320   1.185   3.255   1.980  3.1911  0.7628 -0.6937
13367SOL    HW251321   1.251   3.120   2.044 -0.7152 -0.9805 -0.2209
13368SOL     OW51322   8.381   2.898   4.010 -0.2123 -0.3043 -0.0346
13368SOL    HW151323   8.477   2.873   3.997  0.1816 -0.0543  2.1169
13368SOL    HW251324   8.339   2.836   4.075 -1.1892  0.3096 -0.0669
13369SOL     OW51325   6.289   0.987   4.284 -0.0293  0.9023  0.2613
13369SOL    HW151326   6.229   0.920   4.239  1.8137 -0.3890 -0.3818
13369SOL    HW251327   6.294   1.070   4.229  0.3443  0.2259 -0.7558
13370SOL     OW51328   8.803   6.196   2.651  0.1600  0.1100 -0.1978
13370SOL    HW151329   8.828   6.100   2.643  0.7221  0.1726  0.7131
13370SOL    HW251330   8.728   6.206   2.717 -0.0266  0.2823 -0.4311
13371SOL     OW51331   1.205   8.201   2.033 -0.4605 -0.7116  0.2502
13371SOL    HW151332   1.187   8.143   2.113  2.1225 -0.2961  1.2040
13371SOL    HW251333   1.145   8.281   2.035 -2.7214 -2.3697 -0.0419
13372SOL     OW51334   3.136   6.108   6.724 -0.3956  0.0313  0.1664
13372SOL    HW151335   3.136   6.195   6.772 -0.9866 -0.0091  0.2469
13372SOL    HW251336   3.230   6.079   6.705 -0.2030  0.7481  0.0249
13373SOL     OW51337   8.747   7.341   0.179 -0.0694  0.5741  0.4062
13373SOL    HW151338   8.758   7.269   0.110 -2.1824 -0.3706  1.0135
13373SOL    HW251339   8.669   7.319   0.238 -1.0527  3.5809  0.3261
13374SOL     OW51340   0.255   5.472   2.324  0.4949  0.5065  0.2231
13374SOL    HW151341   0.243   5.476   2.424  0.1278 -0.8191  0.2468
13374SOL    HW251342   0.347   5.438   2.303 -0.2555 -1.5408  0.1439
13375SOL     OW51343   8.457   3.545   6.354 -0.6399  0.1868  0.2576
13375SOL    HW151344   8.393   3.523   6.427  0.0933 -0.7445  0.6203
13375SOL    HW251345   8.490   3.639   6.366 -0.6259  0.0824  1.0389
13376SOL     OW51346   8.300   7.723   4.267  0.0591  0.3677 -0.0497
13376SOL    HW151347   8.272   7.661   4.193 -1.2541 -0.7361  1.3275
13376SOL    HW251348   8.232   7.796   4.276  1.7069  2.2052 -1.8065
13377SOL     OW51349   6.265   9.818   3.549 -0.5861 -0.2746 -0.0878
13377SOL    HW151350   6.363   9.805   3.531 -0.7441 -0.4009 -0.9025
13377SOL    HW251351   6.212   9.759   3.488 -1.2001  0.6753 -0.4870
13378SOL     OW51352   0.438   6.638   1.035  0.0634 -0.4037 -0.2965
13378SOL    HW151353   0.516   6.575   1.028 -0.4067 -0.9007 -1.0646
13378SOL    HW251354   0.471   6.730   1.054  0.8153 -0.7001 -0.1648
13379SOL     OW51355   9.432   3.754   1.881  0.1235 -0.8475  0.0029
13379SOL    HW151356   9.456   3.657   1.891 -2.3103 -1.6848 -1.6627
13379SOL    HW251357   9.497   3.798   1.818  0.0458 -1.9263 -0.8536
13380SOL     OW51358   0.913   2.157   3.510  0.4234 -0.1084  0.0461
13380SOL    HW151359   0.887   2.253   3.519  0.5389 -0.0247 -0.5053
13380SOL    HW251360   0.831   2.100   3.521  0.1809  0.1044 -0.6597
13381SOL     OW51361   3.446   0.616   1.372 -0.1076 -0.0576  0.4575
13381SOL    HW151362   3.351   0.594   1.395 -0.8433  1.6455 -0.8953
13381SOL    HW251363   3.453   0.711   1.341  1.7033 -0.7454 -1.3951
13382SOL     OW51364   3.600   4.596   4.999  0.1430  0.2528  0.0464
13382SOL    HW151365   3.538   4.651   5.055 -0.1860  0.1813 -0.2406
13382SOL    HW251366   3.607   4.504   5.038 -0.6168 -0.0038 -0.3952
13383SOL     OW51367   8.994   4.911   2.667  0.1377 -0.2049 -0.0247
13383SOL    HW151368   8.919   4.907   2.601 -0.0867 -4.4857  0.3260
13383SOL    HW251369   8.959   4.892   2.758  1.1230  1.3829  0.7038
13384SOL     OW51370   5.402   1.361   2.779 -0.4280 -0.3635 -0.4526
13384SOL    HW151371   5.333   1.402   2.838  0.0965 -1.5006  0.9911
13384SOL    HW251372   5.368   1.275   2.742 -0.9030  0.5246 -2.1645
13385SOL     OW51373   6.673   5.739   0.633 -0.2830 -0.5267 -0.4098
13385SOL    HW151374   6.678   5.833   0.598 -1.4581  0.3638  1.7252
13385SOL    HW251375   6.580   5.718   0.661  0.7793 -0.7505  3.2451
13386SOL     OW51376   5.788   1.363   4.902  0.2381  0.8221 -0.3941
13386SOL    HW151377   5.697   1.404   4.916 -0.6159 -1.0882 -0.2407
13386SOL    HW251378   5.804   1.293   4.971  0.8052 -0.5838 -1.9146
13387SOL     OW51379   3.174   5.270   1.528 -0.0032  0.5782 -0.2367
13387SOL    HW151380   3.143   5.185   1.484  1.7001 -0.6347  0.8526
13387SOL    HW251381   3.274   5.273   1.525 -0.0941  3.1868 -1.4150
13388SOL     OW51382   1.364   1.367   4.856  0.1586 -0.0660  0.1093
13388SOL    HW151383   1.387   1.405   4.766  0.4430 -1.3556 -0.3703
13388SOL    HW251384   1.338   1.441   4.917  1.9808  1.0647 -0.4295
13389SOL     OW51385   1.693   8.397   2.431  0.3592  0.4860 -0.7389
13389SOL    HW151386   1.669   8.444   2.346 -0.6156 -1.1270 -1.3835
13389SOL    HW251387   1.753   8.455   2.486  2.0559  1.0421 -3.1073
13390SOL     OW51388   7.389   0.212   0.356  0.2785  0.1464 -0.7158
13390SOL    HW151389   7.439   0.177   0.276  1.9547 -0.7626  0.6888
13390SOL    HW251390   7.314   0.149   0.378 -0.0693  0.2951 -1.4382
13391SOL     OW51391   6.880   1.696   1.166  0.1151 -0.1787  0.4277
13391SOL    HW151392   6.869   1.681   1.068  0.3860 -0.9156  0.5079
13391SOL    HW251393   6.838   1.783   1.192  1.4045  0.7631 -0.5993
13392SOL     OW51394   0.788   0.925   2.392 -0.3818  0.2363 -0.0971
13392SOL    HW151395   0.794   1.014   2.347 -3.5356  1.0354  0.9791
13392SOL    HW251396   0.791   0.937   2.491  0.9939 -1.0487  0.0409
13393SOL     OW51397   0.741   1.489   5.233 -0.0753 -0.3618 -0.8740
13393SOL    HW151398   0.677   1.563   5.251  0.6717 -0.3254  1.7637
13393SOL    HW251399   0.743   1.427   5.312 -0.2568 -2.8879 -2.7774
13394SOL     OW51400   0.196   5.255   0.283  0.0312 -0.1730 -0.3667
13394SOL    HW151401   0.278   5.276   0.337  1.0215 -1.5038 -1.3258
13394SOL    HW251402   0.198   5.306   0.197  0.6122 -1.3548 -1.0607
13395SOL     OW51403   2.078   1.547   2.563  0.2688  0.4790  0.2053
13395SOL    HW151404   2.041   1.640   2.558 -1.2408 -0.1266 -0.2000
13395SOL    HW251405   2.128   1.537   2.649  1.1828  1.9202 -0.1355
13396SOL     OW51406   2.191   9.852   5.283  0.3634 -0.0246  0.0972
13396SOL    HW151407   2.268   9.911   5.310 -1.3138  2.5313 -0.4610
13396SOL    HW251408   2.210   9.812   5.193  1.7243 -0.6985  0.6737
13397SOL     OW51409   6.248   1.269   0.920 -0.0341 -0.5859 -0.1056
13397SOL    HW151410   6.323   1.207   0.899 -1.4480 -2.2568 -0.4056
13397SOL    HW251411   6.169   1.246   0.864 -1.0471  0.5919  0.7910
13398SOL     OW51412   1.323   2.050   0.263 -0.8577 -0.4316 -0.1304
13398SOL    HW151413   1.258   2.118   0.297  0.1490  1.4873 -1.9820
13398SOL    HW251414   1.405   2.051   0.320 -0.3731  0.7023 -0.8518
13399SOL     OW51415   0.157   4.491   1.463  0.5479  0.1653 -0.2890
13399SOL    HW151416   0.130   4.514   1.370  0.7372  0.1947 -0.3358
13399SOL    HW251417   0.184   4.395   1.468  3.3497  0.8821 -0.8902
13400SOL     OW51418   0.650   2.886   0.135  0.8888  0.1644 -0.1858
13400SOL    HW151419   0.553   2.910   0.144  0.3984 -1.2377 -1.5535
13400SOL    HW251420   0.684   2.922   0.048  1.3048 -0.3376 -0.2267
13401SOL     OW51421   9.767   8.988   6.154  0.1318 -0.1318  0.1691
13401SOL    HW151422   9.743   8.918   6.221  3.0626  0.6468  2.1080
13401SOL    HW251423   9.760   9.078   6.196 -0.7307  0.5744 -1.4336
13402SOL     OW51424   0.736   8.579   5.390 -0.1559  0.3512 -0.2034
13402SOL    HW151425   0.771   8.604   5.480 -0.1771 -1.6129  0.3658
13402SOL    HW251426   0.812   8.562   5.328 -0.0718 -1.8489  0.4583
13403SOL     OW51427   9.865   0.903   2.227 -0.7211 -0.6345 -0.0341
13403SOL    HW151428   9.779   0.860   2.198 -0.2286 -1.4073 -0.3603
13403SOL    HW251429   9.923   0.917   2.147  0.3192 -2.0349  0.4514
13404SOL     OW51430   9.069   9.083   5.833 -0.0065 -0.4649  0.8439
13404SOL    HW151431   9.104   9.163   5.784 -0.3342 -0.8327  0.0104
13404SOL    HW251432   9.146   9.030   5.868  0.3119 -1.4340 -1.2399
13405SOL     OW51433   2.713   4.039   0.291  0.0626  0.3595  0.0203
13405SOL    HW151434   2.771   3.960   0.312 -0.5016  0.2265  1.1007
13405SOL    HW251435   2.757   4.122   0.327  0.0065  0.3691  0.0664
13406SOL     OW51436   4.651   2.294   4.035  0.1009 -0.2227  0.9259
13406SOL    HW151437   4.742   2.272   4.072 -0.2218 -0.7879  1.3822
13406SOL    HW251438   4.655   2.289   3.935  0.9686  1.2956  0.8731
13407SOL     OW51439   0.672   8.760   6.726 -0.1168 -0.5094  0.8664
13407SOL    HW151440   0.694   8.747   6.822  0.7081  0.8996  0.8926
13407SOL    HW251441   0.754   8.745   6.670 -0.5269 -1.0678  0.4120
13408SOL     OW51442   0.506   3.350   0.618 -0.5176 -0.7841 -0.2901
13408SOL    HW151443   0.532   3.258   0.590 -1.8821 -0.9327 -1.1438
13408SOL    HW251444   0.484   3.404   0.537  0.6986  0.4333  0.1744
13409SOL     OW51445   2.128   9.594   6.191  0.7832 -0.2874  0.8245
13409SOL    HW151446   2.162   9.586   6.285 -0.5647  0.3259  1.3743
13409SOL    HW251447   2.038   9.638   6.191  2.1668  2.7423 -1.0307
13410SOL     OW51448   5.389   8.328   4.762 -0.7978 -0.5044 -0.2337
13410SOL    HW151449   5.371   8.412   4.813  0.7056  0.7133 -1.6478
13410SOL    HW251450   5.424   8.258   4.825  0.2878  0.7218  0.5690
13411SOL     OW51451   8.216   2.859   6.435 -0.7477  0.5323  0.4745
13411SOL    HW151452   8.221   2.884   6.339  0.5604 -1.6202 -0.0571
13411SOL    HW251453   8.136   2.801   6.450  0.7018 -1.6725  0.0138
13412SOL     OW51454   9.392   0.385   6.731 -0.0021 -0.1735 -0.0598
13412SOL    HW151455   9.427   0.295   6.707 -1.6809 -1.3107  1.5755
13412SOL    HW251456   9.461   0.454   6.712  2.4579 -2.1267  1.4649
13413SOL     OW51457   4.905   0.978   3.625 -0.4065 -0.1298 -0.3259
13413SOL    HW151458   4.889   0.918   3.703 -0.8457  2.8287  1.9232
13413SOL    HW251459   4.818   1.002   3.582 -0.3513  0.0355 -0.3457
13414SOL     OW51460   3.642   5.473   0.313 -0.8339  0.8577 -0.2504
13414SOL    HW151461   3.617   5.460   0.217 -1.1872  1.6237 -0.2656
13414SOL    HW251462   3.569   5.522   0.360 -1.5352 -1.2036  0.8705
13415SOL     OW51463   8.022   7.421   2.303  0.4722 -0.2501  0.0157
13415SOL    HW151464   8.093   7.407   2.371  1.3194  0.0270 -0.7944
13415SOL    HW251465   8.008   7.519   2.289  0.0281 -0.3054  0.0763
13416SOL     OW51466   0.683   3.200   3.523  0.0785 -0.1614 -0.0673
13416SOL    HW151467   0.583   3.195   3.524  0.1751 -2.4872 -0.7703
13416SOL    HW251468   0.713   3.276   3.581 -2.1093  0.9961 -0.4078
13417SOL     OW51469   4.755   5.811   1.471  0.6036 -0.0901  0.2961
13417SOL    HW151470   4.737   5.842   1.565 -1.7709 -1.3602  0.2941
13417SOL    HW251471   4.777   5.714   1.472 -1.5782 -0.6268 -0.6428
13418SOL     OW51472   0.968   2.092   3.085  0.4810 -0.6064 -0.5823
13418SOL    HW151473   0.985   2.077   2.988 -1.5398 -1.1198 -0.8612
13418SOL    HW251474   1.046   2.058   3.138  2.4579  1.3896 -2.1007
13419SOL     OW51475   0.466   9.591   2.749 -0.6636  0.5317  0.1951
13419SOL    HW151476   0.512   9.630   2.669 -1.4279 -1.3310 -1.1856
13419SOL    HW251477   0.367   9.598   2.737 -0.7917 -0.6153  0.5493
13420SOL     OW51478   5.726   9.743   4.798 -0.1021  0.5156 -0.0767
13420SOL    HW151479   5.746   9.836   4.827  0.4383  0.8186 -1.3617
13420SOL    HW251480   5.782   9.678   4.851  2.8720  1.2255 -2.2083
13421SOL     OW51481   1.955   7.755   5.898 -0.2282  0.4377  0.0665
13421SOL    HW151482   1.974   7.853   5.895  0.6194  0.2673 -0.1441
13421SOL    HW251483   1.954   7.719   5.804 -1.3422  0.3952  0.0872
13422SOL     OW51484   1.147   0.494   4.505 -0.0681  0.1203 -0.1660
13422SOL    HW151485   1.093   0.577   4.491 -3.1303 -1.5677  1.2886
13422SOL    HW251486   1.206   0.505   4.585 -1.1084  0.6012  0.5425
13423SOL     OW51487   9.874   8.255   1.131  0.3991  0.4487  0.6545
13423SOL    HW151488   9.851   8.225   1.038 -0.2582  1.6469  0.4240
13423SOL    HW251489   9.872   8.176   1.193  4.1769 -1.0142 -0.9163
13424SOL     OW51490   1.047   1.447   5.667  0.1891  0.3200  0.0016
13424SOL    HW151491   1.024   1.357   5.705  0.3948 -0.3337 -1.4049
13424SOL    HW251492   1.130   1.440   5.612  0.4033  1.4514  0.1694
13425SOL     OW51493   9.934   9.970   5.590  0.1031  0.0632  0.3225
13425SOL    HW151494   9.870   9.930   5.656  0.5427 -0.6882  0.3037
13425SOL    HW251495  10.026   9.939   5.611  0.3882  0.6794 -0.0081
13426SOL     OW51496   6.173   9.893   2.189 -0.2491 -0.0153  0.4762
13426SOL    HW151497   6.075   9.904   2.205 -0.3130 -2.4830  2.0309
13426SOL    HW251498   6.188   9.850   2.100 -0.6628 -0.9182  0.8346
13427SOL     OW51499   0.820   4.375   4.751 -0.0169  0.5961  0.3628
13427SOL    HW151500   0.892   4.381   4.683  0.4732 -0.0733  0.8195
13427SOL    HW251501   0.836   4.297   4.811 -1.6293 -0.1422 -0.1253
13428SOL     OW51502   3.501   3.115   3.110  0.0688 -0.3320 -0.4702
13428SOL    HW151503   3.445   3.085   3.033 -0.7028 -0.6657  0.2164
13428SOL    HW251504   3.453   3.096   3.195  0.7326  0.4315  0.0791
13429SOL     OW51505   9.353   2.403   3.887  0.0657  0.4148 -0.7215
13429SOL    HW151506   9.330   2.341   3.811  1.8084 -0.0131 -0.9108
13429SOL    HW251507   9.342   2.354   3.974 -1.8961  0.8933 -0.6670
13430SOL     OW51508   4.959   0.743   1.399  0.1565 -0.3660 -0.2663
13430SOL    HW151509   4.867   0.732   1.435 -0.8340  3.2557 -1.5192
13430SOL    HW251510   5.019   0.781   1.470  0.2663 -1.0285  0.0022
13431SOL     OW51511   5.131   1.236   4.475  0.0328  0.3704 -0.1058
13431SOL    HW151512   5.162   1.144   4.452  2.7037  1.1579  0.2510
13431SOL    HW251513   5.191   1.303   4.432 -1.8927  1.9704 -0.3484
13432SOL     OW51514   9.916   6.539   1.190 -0.8323  0.1047  0.4173
13432SOL    HW151515  10.010   6.574   1.198 -0.5045 -0.9164  1.2830
13432SOL    HW251516   9.907   6.457   1.247 -1.7757 -0.7854 -0.9910
13433SOL     OW51517   2.915   7.575   5.292  0.3438 -0.1903  0.8429
13433SOL    HW151518   3.003   7.597   5.334  0.3011  2.9009 -0.5109
13433SOL    HW251519   2.841   7.612   5.349  0.0659 -0.2335  0.5101
13434SOL     OW51520   0.116   6.701   1.229  0.2271 -0.4361  0.1088
13434SOL    HW151521   0.214   6.706   1.248  0.4986 -0.7252 -1.2193
13434SOL    HW251522   0.071   6.782   1.266  1.7640  2.4366 -3.9627
13435SOL     OW51523   2.885   7.055   4.768  0.0752 -0.2514  0.2757
13435SOL    HW151524   2.836   7.137   4.739 -0.4594 -0.9358 -0.7643
13435SOL    HW251525   2.864   7.036   4.864  1.0988  1.4615  0.8645
13436SOL     OW51526   7.694   1.883   2.271 -0.3816 -0.1716  0.6836
13436SOL    HW151527   7.672   1.959   2.332  3.5830 -0.1729  2.3224
13436SOL    HW251528   7.706   1.799   2.325  1.7442 -0.4880 -0.2217
13437SOL     OW51529   1.481   8.851   1.149  0.1310 -0.1087 -0.1595
13437SOL    HW151530   1.535   8.935   1.146  0.1747 -0.0997  0.6229
13437SOL    HW251531   1.542   8.772   1.138  0.3761 -0.1156  1.1322
13438SOL     OW51532   0.034   0.699   1.276  0.3231 -0.4590 -0.2798
13438SOL    HW151533  -0.063   0.709   1.300  0.4689  0.6767 -0.1549
13438SOL    HW251534   0.052   0.603   1.253 -0.5855 -0.8921  0.7534
13439SOL     OW51535   2.984   3.849   2.879  0.1479 -0.1820  0.1047
13439SOL    HW151536   3.009   3.925   2.940 -0.8683  1.1810 -1.1298
13439SOL    HW251537   2.887   3.856   2.855  0.6252 -0.3976 -2.0364
13440SOL     OW51538   7.535   8.785   2.370 -0.0162 -0.2990  0.0518
13440SOL    HW151539   7.617   8.805   2.315  0.3604  0.0691  0.7473
13440SOL    HW251540   7.472   8.862   2.364  0.1706 -0.1165  0.3960
13441SOL     OW51541   5.461   1.232   3.597  0.3496  0.2678 -0.2845
13441SOL    HW151542   5.458   1.285   3.513  1.1369  1.8958  0.6760
13441SOL    HW251543   5.441   1.292   3.675  1.9758 -0.6697  0.9039
13442SOL     OW51544   0.878   2.625   1.498  0.5287 -0.5939  0.2369
13442SOL    HW151545   0.909   2.639   1.404  1.2974  0.7328  0.6764
13442SOL    HW251546   0.797   2.567   1.498 -0.3284  0.5517 -1.3559
13443SOL     OW51547   9.935   9.729   2.599  0.3762  0.6058 -0.0703
13443SOL    HW151548  10.008   9.733   2.666  0.7337  1.9574 -0.5312
13443SOL    HW251549   9.847   9.749   2.643  0.3470 -0.5294  0.3858
13444SOL     OW51550   3.714   3.857   2.174  0.1485  0.3391  0.3722
13444SOL    HW151551   3.782   3.837   2.103 -1.6390  0.1388 -1.3158
13444SOL    HW251552   3.661   3.774   2.193 -1.4215  1.1709 -0.2960
13445SOL     OW51553   3.513   8.385   4.758 -0.4059 -0.7241 -0.1769
13445SOL    HW151554   3.500   8.453   4.686 -1.0412 -0.2075  0.4140
13445SOL    HW251555   3.529   8.432   4.845 -1.6030 -1.3062  0.3745
13446SOL     OW51556   2.811   4.237   4.111 -0.5979  0.1063 -0.0303
13446SOL    HW151557   2.817   4.336   4.096  0.5734  0.3089  1.6353
13446SOL    HW251558   2.903   4.197   4.114 -1.0395 -0.9377 -0.1026
13447SOL     OW51559   1.966   2.329   1.258  0.4042  0.3058 -0.0384
13447SOL    HW151560   2.035   2.395   1.287 -0.7475  1.5087 -0.0147
13447SOL    HW251561   1.955   2.258   1.328  1.1996  0.4192  0.2060
13448SOL     OW51562   0.339   9.303   4.105  0.2215  0.3908 -0.0383
13448SOL    HW151563   0.430   9.262   4.095  1.0791  1.7414  1.9521
13448SOL    HW251564   0.345   9.401   4.087 -0.6270  0.6601  1.1272
13449SOL     OW51565   3.682   1.012   2.793 -0.1553 -0.5123 -0.2998
13449SOL    HW151566   3.678   0.961   2.879 -3.8509 -2.0873 -1.2963
13449SOL    HW251567   3.605   1.075   2.788 -0.3096 -0.8289 -2.6714
13450SOL     OW51568   1.948   8.498   2.865  0.4138 -0.7061 -0.2753
13450SOL    HW151569   2.003   8.473   2.945 -0.9156  0.0363  0.8724
13450SOL    HW251570   1.965   8.593   2.841  0.7489 -0.9038 -0.8384
13451SOL     OW51571   9.176   3.807   5.905 -0.0949  0.1488 -0.5697
13451SOL    HW151572   9.149   3.824   6.000 -0.7949  1.2261 -0.9440
13451SOL    HW251573   9.125   3.869   5.845  1.8390  0.9037 -1.4653
13452SOL     OW51574   0.141   4.585   5.812 -0.1254 -0.2764 -0.4069
13452SOL    HW151575   0.103   4.678   5.819 -0.6257 -0.5924  1.2957
13452SOL    HW251576   0.119   4.547   5.722 -4.5556 -0.6966  0.7013
13453SOL     OW51577   1.538   0.160   5.595  0.6286 -0.6519 -0.0885
13453SOL    HW151578   1.571   0.070   5.622  0.6551 -0.5460  0.2427
13453SOL    HW251579   1.439   0.164   5.607  0.9109  0.1773  2.3635
13454SOL     OW51580   1.313   8.341   3.541 -0.6592 -0.2967  0.3512
13454SOL    HW151581   1.351   8.249   3.544 -1.8310 -0.8243 -0.6795
13454SOL    HW251582   1.228   8.341   3.487 -2.6440  0.6522  3.3127
13455SOL     OW51583   7.622   1.723   2.542 -0.3874  0.1205 -0.1609
13455SOL    HW151584   7.539   1.669   2.535 -2.1210  2.6708 -0.1489
13455SOL    HW251585   7.619   1.779   2.625 -0.0485  2.4024 -1.6270
13456SOL     OW51586   5.783   0.956   3.807  0.1853  0.5274  0.3819
13456SOL    HW151587   5.706   0.903   3.771  0.2655  1.3384 -1.0619
13456SOL    HW251588   5.754   1.006   3.889  0.1287 -1.7656  1.7971
13457SOL     OW51589   1.696   0.685   2.472  0.2288 -0.5221  0.3448
13457SOL    HW151590   1.726   0.780   2.470 -1.4548  0.0019 -0.3259
13457SOL    HW251591   1.670   0.660   2.566  1.1817 -0.4932  0.6213
13458SOL     OW51592   0.340   0.934   0.939 -0.2139 -0.3200  0.0110
13458SOL    HW151593   0.257   0.885   0.965 -0.7959 -0.6820 -2.3811
13458SOL    HW251594   0.324   1.033   0.943 -0.9412 -0.3892 -0.9067
13459SOL     OW51595   0.673   5.936   3.246  0.3035  0.0065 -0.2017
13459SOL    HW151596   0.635   6.028   3.238 -0.1501 -0.0369  1.3563
13459SOL    HW251597   0.616   5.881   3.307  1.5687 -0.7647  0.3191
13460SOL     OW51598   8.251   0.604   3.449  0.0979 -0.2941 -0.4260
13460SOL    HW151599   8.266   0.676   3.517  0.0690  0.5264 -1.2751
13460SOL    HW251600   8.246   0.645   3.358 -3.0488 -0.9936 -0.6262
13461SOL     OW51601   1.855   1.422   4.676 -0.0036 -0.3934 -0.4271
13461SOL    HW151602   1.954   1.419   4.691  0.2208  1.6573 -1.3777
13461SOL    HW251603   1.808   1.422   4.764  0.8682 -0.5067  0.0467
13462SOL     OW51604   1.006   8.788   3.894  0.2612  0.1258 -0.3913
13462SOL    HW151605   0.948   8.744   3.961  2.4848 -0.7668  1.0046
13462SOL    HW251606   1.043   8.873   3.932  2.2825 -0.8547 -0.0700
13463SOL     OW51607   5.435   6.049   2.582 -0.0858 -0.4386  0.0861
13463SOL    HW151608   5.345   6.013   2.556  0.5764 -1.1352 -1.3177
13463SOL    HW251609   5.473   5.994   2.656 -0.2617 -0.9611 -0.2073
13464SOL     OW51610   5.569   8.230   4.582  0.2263 -0.0495 -0.0954
13464SOL    HW151611   5.594   8.315   4.535 -0.3863 -0.2607 -0.8123
13464SOL    HW251612   5.500   8.250   4.651 -0.4207 -0.0645 -0.7299
13465SOL     OW51613   7.459   7.406   1.442  0.2350  0.3364  0.0210
13465SOL    HW151614   7.467   7.487   1.500 -3.0944  1.2205 -0.6471
13465SOL    HW251615   7.464   7.324   1.499  1.8284  1.0170  0.9200
13466SOL     OW51616   3.572   7.342   4.479 -0.9347  0.3190 -0.0355
13466SOL    HW151617   3.618   7.264   4.520  0.5736  0.9595 -0.4697
13466SOL    HW251618   3.474   7.338   4.499 -0.6421 -0.8812  1.1941
13467SOL     OW51619   2.967   1.416   4.878 -0.0910 -0.1492  0.5513
13467SOL    HW151620   2.876   1.457   4.887 -0.0061  0.1277  0.1566
13467SOL    HW251621   2.958   1.316   4.874 -0.3166 -0.1560  1.2481
13468SOL     OW51622   6.465   9.501   2.126 -0.4018 -0.1390 -0.0288
13468SOL    HW151623   6.560   9.476   2.143 -1.2542 -2.5149  1.5873
13468SOL    HW251624   6.451   9.598   2.148  1.5348  0.1061  0.1587
13469SOL     OW51625   1.743   6.918   1.517  0.8605  0.2151 -0.0437
13469SOL    HW151626   1.766   6.876   1.429  2.5666  0.0069  0.4829
13469SOL    HW251627   1.777   7.012   1.518 -1.2681  1.0099 -0.4948
13470SOL     OW51628   4.528   9.375   3.412  0.4478  0.4717  0.0671
13470SOL    HW151629   4.627   9.377   3.424  0.4326 -0.1894  0.3723
13470SOL    HW251630   4.505   9.327   3.327  0.3230 -1.6178  1.2422
13471SOL     OW51631   2.465   3.168   3.216  0.1060  0.5000 -0.0091
13471SOL    HW151632   2.465   3.071   3.241  2.4923  0.0066 -1.7589
13471SOL    HW251633   2.414   3.180   3.131  0.2255  0.7030 -0.0512
13472SOL     OW51634   8.679   9.130   4.502  0.6800 -0.3637 -0.0471
13472SOL    HW151635   8.664   9.136   4.601 -0.6992  0.9207 -0.3191
13472SOL    HW251636   8.595   9.097   4.458  0.9867 -0.0282 -0.8820
13473SOL     OW51637   9.311   0.828   5.100  0.0486  0.1574  0.6676
13473SOL    HW151638   9.381   0.829   5.029  0.6425  2.2956  1.2673
13473SOL    HW251639   9.226   0.867   5.064 -0.3988 -1.0014  0.4204
13474SOL     OW51640   0.906   1.781   5.928 -0.0144  0.7698  0.1903
13474SOL    HW151641   0.933   1.685   5.936 -1.6001  0.4276  1.7498
13474SOL    HW251642   0.818   1.787   5.883 -0.2569  1.4421  0.7487
13475SOL     OW51643   3.500   1.197   3.233 -0.1745 -0.0714  0.4698
13475SOL    HW151644   3.593   1.197   3.196  0.6367  0.4595  2.4576
13475SOL    HW251645   3.504   1.196   3.333 -2.3191 -0.6051  0.5690
13476SOL     OW51646   7.934   4.579   3.526 -0.1447  0.1256 -0.3758
13476SOL    HW151647   7.993   4.650   3.564  0.0994  0.0578 -0.6246
13476SOL    HW251648   7.948   4.575   3.427 -0.3480 -0.0951 -0.3948
13477SOL     OW51649   1.559   5.704   6.488  0.0832  0.1433 -0.1850
13477SOL    HW151650   1.500   5.648   6.545 -0.0348 -0.1857 -0.6262
13477SOL    HW251651   1.547   5.679   6.392 -1.8153  2.6216 -0.6321
13478SOL     OW51652   6.614   5.000   0.964  0.2697 -0.1462  0.1347
13478SOL    HW151653   6.532   4.977   0.911 -0.0289  1.4398 -0.0972
13478SOL    HW251654   6.675   5.057   0.908  2.1824 -2.4002 -0.1987
13479SOL     OW51655   2.834   0.471   0.659 -0.1168 -0.0317 -0.1206
13479SOL    HW151656   2.907   0.403   0.649 -1.6999 -1.9326  0.7925
13479SOL    HW251657   2.823   0.522   0.574  2.2634  0.2846 -0.2688
13480SOL     OW51658   7.424   8.066   4.113 -0.0669 -0.3821  0.2494
13480SOL    HW151659   7.518   8.096   4.126  0.7356 -2.4721 -0.4676
13480SOL    HW251660   7.365   8.146   4.098  1.2993  1.0454  2.2381
13481SOL     OW51661   4.210   3.318   4.334 -0.4017  0.2046 -0.1101
13481SOL    HW151662   4.273   3.241   4.337  1.6212  1.7488 -1.4120
13481SOL    HW251663   4.116   3.285   4.336  0.4089 -2.1336  2.2380
13482SOL     OW51664   2.819   6.278   4.142  0.1406 -0.3349  0.7967
13482SOL    HW151665   2.802   6.376   4.129  0.9064 -0.3807 -0.5374
13482SOL    HW251666   2.914   6.264   4.167 -0.7312 -0.4537  4.3700
13483SOL     OW51667   0.563   1.273   2.565  0.0789  0.4614 -0.3153
13483SOL    HW151668   0.636   1.325   2.609 -0.1926  2.0495 -1.7164
13483SOL    HW251669   0.566   1.288   2.466 -1.5600 -0.2338 -0.4810
13484SOL     OW51670   9.858   4.774   6.509  0.1249  0.1936  0.1507
13484SOL    HW151671   9.835   4.763   6.606  0.3434 -1.6504  0.0115
13484SOL    HW251672   9.816   4.700   6.456  1.6153  0.0512 -0.8760
13485SOL     OW51673   5.363   7.008   2.666 -0.3273  0.8504 -0.2905
13485SOL    HW151674   5.299   6.935   2.640 -0.1254  0.7112 -0.4023
13485SOL    HW251675   5.452   6.989   2.625  0.5925 -0.5149  2.2891
13486SOL     OW51676   3.091   6.007   4.953  0.0946 -0.6867  0.6002
13486SOL    HW151677   3.136   5.954   4.881  0.5214  0.0538  0.3101
13486SOL    HW251678   3.077   6.100   4.921 -0.7445 -0.6532  1.0674
13487SOL     OW51679   9.982   9.010   3.959  0.1506 -0.0702  0.5903
13487SOL    HW151680   9.910   9.048   4.017  0.4939 -0.2846  1.1621
13487SOL    HW251681   9.941   8.955   3.886 -0.2186 -1.2695  1.6897
13488SOL     OW51682   5.258   8.534   3.377  0.3086  0.2872 -0.1673
13488SOL    HW151683   5.254   8.616   3.435 -2.0386  0.8486 -1.0799
13488SOL    HW251684   5.271   8.562   3.282  0.9733 -0.4878 -0.3099
13489SOL     OW51685   8.474   3.261   4.495 -0.6292  0.0182 -0.7333
13489SOL    HW151686   8.511   3.338   4.547  0.6478  0.5740 -2.4221
13489SOL    HW251687   8.429   3.198   4.558 -0.4860  1.4458  0.8488
13490SOL     OW51688   5.942   9.674   4.966 -0.0915 -0.2533 -0.2832
13490SOL    HW151689   5.975   9.581   4.981  2.5812  0.7318  0.2541
13490SOL    HW251690   6.014   9.729   4.923 -1.9516  1.3272 -1.4679
13491SOL     OW51691   3.903   9.866   5.054 -0.2161  0.5780  0.0255
13491SOL    HW151692   3.948   9.793   5.003  2.1091  0.6791  1.8735
13491SOL    HW251693   3.909   9.952   5.002  0.0269  0.1769 -0.6064
13492SOL     OW51694   9.672   4.193   5.792 -0.2294  0.4648  0.4441
13492SOL    HW151695   9.589   4.245   5.816 -1.1099 -1.7046  2.3194
13492SOL    HW251696   9.648   4.120   5.728  0.8039  1.6427 -1.3249
13493SOL     OW51697   6.125   1.415   3.427  0.0885 -0.4155  0.1417
13493SOL    HW151698   6.036   1.452   3.399  0.6242  0.5655 -0.2983
13493SOL    HW251699   6.113   1.355   3.505 -0.7971  0.7784  0.9460
13494SOL     OW51700   4.721   9.408   5.208  0.2993 -0.6645 -0.1388
13494SOL    HW151701   4.675   9.493   5.232  1.9009 -0.2141  1.4810
13494SOL    HW251702   4.800   9.427   5.151 -0.1608 -1.2248 -0.9851
13495SOL     OW51703   0.043   0.268   0.449 -0.0361  0.3201  0.7556
13495SOL    HW151704   0.009   0.358   0.422 -0.8864  0.2428  1.5641
13495SOL    HW251705   0.142   0.265   0.436 -0.1208  1.0640 -0.1376
13496SOL     OW51706   0.479   9.787   6.719  0.2918  0.1996  0.4144
13496SOL    HW151707   0.576   9.787   6.692  0.2669  0.1248  0.3249
13496SOL    HW251708   0.437   9.872   6.691  0.4084  0.3618  0.7302
13497SOL     OW51709   8.999   2.569   0.739  0.1521  0.1656 -0.2764
13497SOL    HW151710   8.969   2.596   0.831  1.3966  2.0075 -0.3609
13497SOL    HW251711   9.099   2.557   0.740 -0.1094 -2.2056 -0.8341
13498SOL     OW51712   2.473   6.395   5.662  0.2599  0.2674 -0.3624
13498SOL    HW151713   2.572   6.390   5.649  0.3221  1.2282 -0.2821
13498SOL    HW251714   2.432   6.309   5.634  1.0003  0.2640 -1.4742
13499SOL     OW51715   5.371   1.524   0.874  0.3613  0.5916  0.2885
13499SOL    HW151716   5.321   1.559   0.953 -0.5170  0.4404 -0.2001
13499SOL    HW251717   5.406   1.600   0.820  1.1224  0.6951  0.9197
13500SOL     OW51718   6.579   1.538   5.296 -0.2462 -0.3553 -0.1638
13500SOL    HW151719   6.515   1.610   5.272 -0.8063 -1.3207 -1.5812
13500SOL    HW251720   6.532   1.466   5.347  0.3210  0.2756  1.2892
13501SOL     OW51721   8.613   0.895   0.656 -0.1211  0.2306  0.5838
13501SOL    HW151722   8.648   0.988   0.657 -1.0917  0.6949 -2.1523
13501SOL    HW251723   8.615   0.861   0.562 -3.2499 -1.1527  0.9757
13502SOL     OW51724   7.412   1.051   6.158  1.0872  0.5768  0.2690
13502SOL    HW151725   7.475   0.982   6.122 -0.1280  0.4082 -1.5778
13502SOL    HW251726   7.445   1.142   6.134  1.0426  0.5156 -0.0302
13503SOL     OW51727   7.095   9.414   5.553 -0.6119  0.2144 -0.3531
13503SOL    HW151728   7.082   9.315   5.545 -0.6168  0.1592  0.3172
13503SOL    HW251729   7.027   9.461   5.497  0.3746 -0.1855 -1.8984
13504SOL     OW51730   6.522   7.934   2.650 -0.2418  0.4515  0.0833
13504SOL    HW151731   6.588   7.889   2.710  0.7254  1.2786 -0.3377
13504SOL    HW251732   6.556   8.025   2.624 -1.2231  0.6160 -0.7011
13505SOL     OW51733   2.584   5.963   2.558  0.0855 -0.1107  0.1905
13505SOL    HW151734   2.540   5.979   2.647  1.7578 -1.4185  1.2822
13505SOL    HW251735   2.618   6.049   2.522 -0.9723  0.4971  0.6092
13506SOL     OW51736   8.229   4.118   6.744  0.0835  0.3649  0.2300
13506SOL    HW151737   8.254   4.210   6.715 -0.7365  0.6554  0.4498
13506SOL    HW251738   8.143   4.091   6.700  0.7069 -0.5960 -0.4385
13507SOL     OW51739   1.732   1.926   5.563 -0.1466 -0.7474 -0.0388
13507SOL    HW151740   1.659   1.953   5.626 -1.1476 -1.0640 -1.0419
13507SOL    HW251741   1.776   2.007   5.525 -0.0780 -0.5556  0.4415
13508SOL     OW51742   5.839   9.162   3.153 -0.0082  0.0775 -0.4450
13508SOL    HW151743   5.863   9.068   3.130 -1.1278  0.1353 -1.9444
13508SOL    HW251744   5.922   9.214   3.173  0.5340 -1.5197  1.6060
13509SOL     OW51745   0.123   0.831   2.288  0.2081  0.1651 -0.1059
13509SOL    HW151746   0.190   0.818   2.215  0.4277 -0.2380  0.1658
13509SOL    HW251747   0.034   0.852   2.248 -0.1894 -2.2377 -0.6001
13510SOL     OW51748   6.690   1.554   2.240 -0.4709  0.4293 -0.0224
13510SOL    HW151749   6.688   1.471   2.297 -0.2551  1.4787  1.5357
13510SOL    HW251750   6.785   1.574   2.214 -0.5513  0.0490 -0.6368
13511SOL     OW51751   4.239   5.065   6.531  0.3420  0.3582 -0.0159
13511SOL    HW151752   4.322   5.023   6.495  0.0614 -0.1521 -0.0670
13511SOL    HW251753   4.187   5.105   6.456  1.1581  1.7762  0.1627
13512SOL     OW51754   0.872   3.281   0.482  0.4491  0.3372  0.4272
13512SOL    HW151755   0.891   3.222   0.404  0.5527 -0.2194  0.8737
13512SOL    HW251756   0.799   3.242   0.537  0.4127  0.7012  0.6401
13513SOL     OW51757   2.673   7.493   5.559  0.3313  0.3190 -0.1127
13513SOL    HW151758   2.712   7.441   5.636 -0.1051  0.9503  0.5471
13513SOL    HW251759   2.707   7.587   5.562 -0.9269  0.7687  0.2424
13514SOL     OW51760   9.798   7.984   0.486 -0.0400  0.2230  0.7097
13514SOL    HW151761   9.708   7.942   0.470 -0.6146  1.8422 -0.4677
13514SOL    HW251762   9.837   7.948   0.571 -1.8946 -0.3311  1.3485
13515SOL     OW51763   8.349   4.943   5.480  0.0673 -0.0093  0.0797
13515SOL    HW151764   8.409   4.871   5.515 -1.2773 -0.9603  0.4493
13515SOL    HW251765   8.260   4.905   5.457 -0.7353  1.5725  0.4746
13516SOL     OW51766   3.872   3.081   6.344  0.6036 -0.4233  0.3507
13516SOL    HW151767   3.888   3.099   6.247 -0.2641  0.5103  0.3745
13516SOL    HW251768   3.799   3.139   6.378 -0.7587 -2.4476  0.9948
13517SOL     OW51769   9.495   7.717   4.558 -0.3827  0.3659 -0.0061
13517SOL    HW151770   9.552   7.753   4.633  0.3719  1.2117 -0.9771
13517SOL    HW251771   9.551   7.708   4.475 -0.8250 -2.0095 -0.0996
13518SOL     OW51772   8.479   7.521   2.647  0.0475 -0.0052 -0.0175
13518SOL    HW151773   8.469   7.570   2.734  0.0050  0.1350 -0.1014
13518SOL    HW251774   8.568   7.474   2.646 -0.7796 -1.6180  0.9016
13519SOL     OW51775   3.803   1.391   2.928  0.0388  0.0264  0.0110
13519SOL    HW151776   3.837   1.485   2.915 -0.2241  0.1066 -0.0943
13519SOL    HW251777   3.791   1.348   2.839 -0.3995  0.0914  0.0357
13520SOL     OW51778   2.420   4.925   5.640 -0.3077  0.1926  0.8717
13520SOL    HW151779   2.352   4.960   5.575  0.8415 -0.3077 -0.6325
13520SOL    HW251780   2.394   4.834   5.670  1.4879 -1.5293 -2.5108
13521SOL     OW51781   1.865   1.330   2.606  0.3399 -0.0616 -0.9321
13521SOL    HW151782   1.845   1.418   2.648  1.3500  0.0712 -0.7198
13521SOL    HW251783   1.839   1.332   2.509 -2.5436 -0.5650 -0.2022
13522SOL     OW51784   2.868   2.241   1.117  0.1998 -0.1739 -0.0128
13522SOL    HW151785   2.848   2.259   1.021 -0.5605 -0.5780  0.0662
13522SOL    HW251786   2.920   2.155   1.125 -0.9951 -0.9036  0.0439
13523SOL     OW51787   1.808   8.888   1.413 -0.2269 -0.2939 -0.2636
13523SOL    HW151788   1.735   8.957   1.412 -0.6897 -0.7650  0.2926
13523SOL    HW251789   1.775   8.806   1.460  0.9301 -0.2303  0.6814
13524SOL     OW51790   0.969   0.252   1.093  0.0427  0.4209  0.0837
13524SOL    HW151791   0.936   0.245   1.187  0.7926 -0.0952  0.3095
13524SOL    HW251792   0.996   0.162   1.059 -0.2525  0.5991 -0.6371
13525SOL     OW51793   2.904   8.080   5.759  0.3330  0.1661 -0.0045
13525SOL    HW151794   2.921   7.984   5.736 -0.7131 -0.1931  0.6858
13525SOL    HW251795   2.950   8.139   5.692  0.7176 -0.8175 -0.6151
13526SOL     OW51796   0.365   3.572   3.369  0.0803 -0.3051 -0.1362
13526SOL    HW151797   0.327   3.633   3.299  0.9678  1.4261  0.8447
13526SOL    HW251798   0.295   3.509   3.400 -1.3768  1.4203  0.1123
13527SOL     OW51799   6.310   9.803   2.407 -0.2775  0.2216 -0.3585
13527SOL    HW151800   6.402   9.836   2.424  0.3896 -0.3569 -2.6529
13527SOL    HW251801   6.268   9.858   2.334 -1.0675 -0.6584 -0.5753
13528SOL     OW51802   9.373   6.356   1.046 -0.0721  0.1564  0.7073
13528SOL    HW151803   9.465   6.383   1.074  1.0460 -1.1374 -1.5818
13528SOL    HW251804   9.326   6.312   1.124  1.5881 -0.0505  1.6154
13529SOL     OW51805   3.537   3.902   6.333  0.2086  0.3543  0.5746
13529SOL    HW151806   3.453   3.847   6.334 -0.2866  1.0713 -0.4978
13529SOL    HW251807   3.589   3.885   6.416 -0.3571 -1.0978  0.6427
13530SOL     OW51808   8.881   4.216   3.355 -0.3648  0.5856 -0.4194
13530SOL    HW151809   8.794   4.184   3.317 -0.6714  0.4862  0.3620
13530SOL    HW251810   8.944   4.139   3.364  0.3461  0.9002 -2.3922
13531SOL     OW51811   1.600   9.175   2.986  0.1814  0.3799 -0.4863
13531SOL    HW151812   1.527   9.155   3.052 -1.1950 -1.7691 -2.5600
13531SOL    HW251813   1.688   9.146   3.023 -0.4586 -0.0639  0.7241
13532SOL     OW51814   8.446   6.220   4.417 -0.1415 -0.0643  0.0998
13532SOL    HW151815   8.521   6.287   4.414 -0.2026 -0.0320 -0.7515
13532SOL    HW251816   8.460   6.159   4.495 -0.3034  1.1969  1.1390
13533SOL     OW51817   2.693   1.030   0.314  0.1727  0.4040  0.1809
13533SOL    HW151818   2.611   0.999   0.363 -0.4864  0.7831 -0.6679
13533SOL    HW251819   2.686   1.002   0.218  0.6813  1.1251 -0.0631
13534SOL     OW51820   8.865   4.107   6.508 -0.3096 -0.5499  0.2619
13534SOL    HW151821   8.915   4.071   6.587  0.2716  0.1099  0.2036
13534SOL    HW251822   8.769   4.119   6.532 -0.6007 -2.5224  0.1450
13535SOL     OW51823   1.794   7.940   2.438 -0.6556  0.2571  0.5837
13535SOL    HW151824   1.811   7.859   2.383 -0.1775  1.2089 -0.6776
13535SOL    HW251825   1.737   7.915   2.517  0.2014 -1.4560  0.6856
13536SOL     OW51826   3.407   2.697   2.217  0.2460  0.4254  0.1645
13536SOL    HW151827   3.312   2.667   2.205  0.3864  0.3241 -0.6953
13536SOL    HW251828   3.427   2.772   2.154  0.0462  2.0475  1.9815
13537SOL     OW51829   0.345   5.771   1.094  0.4640 -0.1267 -0.0834
13537SOL    HW151830   0.439   5.803   1.092  0.0213  1.2287  0.2996
13537SOL    HW251831   0.286   5.836   1.046 -0.4590 -0.3617  0.7123
13538SOL     OW51832   3.950   3.831   1.002 -0.1811 -0.4707  0.2486
13538SOL    HW151833   3.881   3.872   0.942  1.1327  0.2778 -0.7599
13538SOL    HW251834   3.969   3.738   0.971 -0.0755 -0.3597 -0.0242
13539SOL     OW51835   3.757   9.958   0.836  0.6274  0.1811  0.3517
13539SOL    HW151836   3.667   9.981   0.872  0.7519 -1.3911  1.6854
13539SOL    HW251837   3.772  10.008   0.750 -1.7393 -0.0094 -0.2006
13540SOL     OW51838   8.997   9.387   5.746  0.4147 -0.9439 -0.3161
13540SOL    HW151839   9.019   9.478   5.712 -0.2992 -1.1340 -1.2984
13540SOL    HW251840   9.055   9.366   5.825  0.2208  0.5636  0.2456
13541SOL     OW51841   8.670   4.947   3.874 -0.3875  0.0427 -0.3208
13541SOL    HW151842   8.732   4.878   3.912 -0.9119 -0.8408 -1.0590
13541SOL    HW251843   8.677   5.031   3.928  0.7480 -0.3630  0.1800
13542SOL     OW51844   5.810   5.716   0.607  0.1117 -0.1520  0.3225
13542SOL    HW151845   5.771   5.808   0.597  2.0668  0.6519 -0.0727
13542SOL    HW251846   5.752   5.650   0.558 -1.4281  0.8198  0.8093
13543SOL     OW51847   5.686   1.631   4.265  0.1600  0.3281 -0.5797
13543SOL    HW151848   5.697   1.713   4.322 -0.4928 -0.2900  0.4464
13543SOL    HW251849   5.766   1.571   4.278 -0.0114  0.1648 -0.2680
13544SOL     OW51850   7.503   0.387   5.101  0.2409 -0.1789  0.1927
13544SOL    HW151851   7.556   0.348   5.025 -1.7684 -0.0612 -1.3231
13544SOL    HW251852   7.474   0.480   5.076 -0.6870 -0.2573  0.9929
13545SOL     OW51853   3.776   2.592   5.210 -0.1036 -0.3030 -0.5951
13545SOL    HW151854   3.706   2.614   5.142 -0.3376 -1.7550 -0.8366
13545SOL    HW251855   3.734   2.592   5.301 -0.5335 -1.6591 -0.7887
13546SOL     OW51856   6.674   3.663   0.567 -0.8141 -0.3607 -0.5006
13546SOL    HW151857   6.737   3.740   0.580 -0.8815 -0.3068 -0.4898
13546SOL    HW251858   6.717   3.578   0.598 -0.1175 -0.5790 -2.0505
13547SOL     OW51859   4.197   4.649   0.511 -0.2783 -0.5186 -0.0846
13547SOL    HW151860   4.186   4.581   0.438  0.0018 -2.3284  1.5194
13547SOL    HW251861   4.266   4.617   0.576  0.3073  1.6197  0.3632
13548SOL     OW51862   2.724   0.589   4.550  0.1246 -0.2517 -0.3451
13548SOL    HW151863   2.664   0.607   4.472 -1.8992 -1.9239  0.7847
13548SOL    HW251864   2.699   0.650   4.625 -1.1537 -1.9044  0.6086
13549SOL     OW51865   6.624   2.902   0.314  0.0131  0.4540  0.1755
13549SOL    HW151866   6.558   2.974   0.295 -0.9595  0.2678  2.6224
13549SOL    HW251867   6.577   2.813   0.316  0.7740  0.0272 -0.4472
13550SOL     OW51868   2.282   2.030   1.351 -0.5776  0.1301 -0.5932
13550SOL    HW151869   2.381   2.034   1.354 -0.4963 -1.2451 -1.2188
13550SOL    HW251870   2.248   2.080   1.271 -0.3302 -0.1105 -0.8511
13551SOL     OW51871   6.398   4.605   0.866  0.3867  0.5918 -0.2065
13551SOL    HW151872   6.305   4.600   0.902  0.2527  0.4546 -0.5660
13551SOL    HW251873   6.400   4.668   0.789  0.3966 -0.1051 -0.7803
13552SOL     OW51874   3.177   8.337   1.444 -0.0167 -0.0324 -0.0807
13552SOL    HW151875   3.224   8.254   1.414  0.5257 -0.6589  2.3552
13552SOL    HW251876   3.084   8.315   1.473 -0.4094  0.4868 -0.9360
13553SOL     OW51877   0.058   7.399   6.058 -0.2138 -0.3715 -0.3704
13553SOL    HW151878  -0.004   7.434   6.128  3.3995  1.7012  1.9381
13553SOL    HW251879   0.075   7.302   6.074 -0.1589 -0.1331  1.0848
13554SOL     OW51880   2.811   7.310   5.224 -0.5202  0.4410 -0.2073
13554SOL    HW151881   2.741   7.284   5.290 -0.3248  0.5868  0.0575
13554SOL    HW251882   2.851   7.398   5.251  0.1290  0.1045 -0.0733
13555SOL     OW51883   0.492   1.717   3.149 -0.3915  0.0936 -0.4091
13555SOL    HW151884   0.452   1.802   3.185  1.0931  0.1823  1.0497
13555SOL    HW251885   0.471   1.710   3.051  1.1107  3.1599 -1.0183
13556SOL     OW51886   8.928   2.302   4.500  0.3234 -0.3066  0.3468
13556SOL    HW151887   8.963   2.322   4.409 -0.8888 -0.3682 -0.1361
13556SOL    HW251888   8.947   2.379   4.561 -1.7758  1.1595 -0.7870
13557SOL     OW51889   8.595   3.914   5.592  0.1115  0.2761 -0.6288
13557SOL    HW151890   8.628   4.008   5.594 -1.5808  0.8628  1.0232
13557SOL    HW251891   8.637   3.863   5.668 -1.7906  0.6973  0.7277
13558SOL     OW51892   4.970   0.175   3.619  0.2285  0.2311 -0.4628
13558SOL    HW151893   5.004   0.153   3.528 -1.4336 -0.3892 -0.9607
13558SOL    HW251894   4.909   0.254   3.613 -0.7051 -0.4548 -0.0609
13559SOL     OW51895   9.170   3.318   4.173 -0.9753 -0.0047 -0.6569
13559SOL    HW151896   9.194   3.412   4.197 -0.4746 -0.1800 -0.4676
13559SOL    HW251897   9.252   3.260   4.176 -1.5651 -0.7996  0.8628
13560SOL     OW51898   2.426   7.453   3.657 -0.3257 -0.0643  0.1456
13560SOL    HW151899   2.386   7.456   3.565  0.7930 -2.0799 -0.4423
13560SOL    HW251900   2.378   7.384   3.712  1.2927 -1.3775 -0.0646
13561SOL     OW51901   9.528   6.645   6.262  0.0681 -0.1643 -0.5408
13561SOL    HW151902   9.523   6.683   6.354  0.2310  0.2929 -0.7197
13561SOL    HW251903   9.450   6.584   6.247 -1.1964  1.4767 -0.8582
13562SOL     OW51904   9.284   1.748   4.134 -0.0732  0.3838  0.2012
13562SOL    HW151905   9.196   1.772   4.094  0.6810  0.3495 -1.5575
13562SOL    HW251906   9.305   1.653   4.113  0.3501  0.3698  0.6733
13563SOL     OW51907   4.477   2.777   0.503 -0.3249 -0.1094  0.9779
13563SOL    HW151908   4.491   2.684   0.539 -1.5087 -1.0038 -0.7931
13563SOL    HW251909   4.379   2.797   0.504 -0.1156  0.9243  0.8124
13564SOL     OW51910   0.590   6.498   5.385 -0.6940  0.1383 -0.1038
13564SOL    HW151911   0.555   6.415   5.341 -2.1890 -0.0804  1.4421
13564SOL    HW251912   0.574   6.576   5.325 -1.4244 -0.3618 -0.5800
13565SOL     OW51913   1.360   2.255   3.317  0.6569  0.2469 -0.2872
13565SOL    HW151914   1.273   2.218   3.350  0.6098  0.0674 -0.6196
13565SOL    HW251915   1.407   2.300   3.393  1.2466 -1.5046  0.3961
13566SOL     OW51916   8.359   6.875   5.923  0.6444  0.2195  0.9239
13566SOL    HW151917   8.309   6.950   5.966  2.2036  2.0688 -0.4463
13566SOL    HW251918   8.448   6.865   5.967  0.7330 -0.3451  0.6177
13567SOL     OW51919   3.533   5.851   4.786 -0.5959  0.5464 -0.0307
13567SOL    HW151920   3.587   5.781   4.740 -1.2823 -0.2248  0.3192
13567SOL    HW251921   3.506   5.817   4.877 -1.2254  1.1311  0.0021
13568SOL     OW51922   0.973   6.273   0.939 -0.2511  0.5446  0.6410
13568SOL    HW151923   0.959   6.174   0.935  0.9784  0.3979 -0.1556
13568SOL    HW251924   1.017   6.296   1.026 -1.2109  0.4979  1.1576
13569SOL     OW51925   7.977   7.142   3.593 -0.8231 -0.1983 -0.7114
13569SOL    HW151926   7.950   7.126   3.498 -0.9491 -1.3621 -0.4829
13569SOL    HW251927   8.073   7.119   3.605 -0.5675  0.8263 -0.7631
13570SOL     OW51928   9.553   5.296   5.314 -0.1630  0.5398 -0.4583
13570SOL    HW151929   9.553   5.368   5.383  0.3003  1.5015 -1.4525
13570SOL    HW251930   9.482   5.228   5.336  1.0835 -0.0554  1.8573
13571SOL     OW51931   7.633   5.674   0.447 -0.3370 -0.0838  0.0370
13571SOL    HW151932   7.647   5.603   0.516 -0.1955 -0.9533 -0.8765
13571SOL    HW251933   7.701   5.746   0.461 -1.3841  0.5857  1.8560
13572SOL     OW51934   3.489   4.034   5.571 -0.7064  0.8832 -0.5375
13572SOL    HW151935   3.401   4.040   5.618  0.0296 -0.8035  1.1679
13572SOL    HW251936   3.562   4.059   5.634  0.1999 -0.0256 -1.1998
13573SOL     OW51937   0.017   7.030   1.989 -0.0374 -0.4421 -0.7904
13573SOL    HW151938   0.024   7.091   1.910  0.9327 -0.1864 -0.5190
13573SOL    HW251939   0.067   6.946   1.971  0.2657 -0.3457 -0.4200
13574SOL     OW51940   9.432   5.501   5.150  0.5092  0.4903 -0.9100
13574SOL    HW151941   9.493   5.430   5.186 -0.5116  0.3725  0.6306
13574SOL    HW251942   9.379   5.540   5.225 -2.1336 -0.1895 -2.3570
13575SOL     OW51943   0.712   5.970   4.564  0.1221 -0.1393 -0.5134
13575SOL    HW151944   0.799   5.926   4.587 -0.3517  0.0179  1.7494
13575SOL    HW251945   0.637   5.908   4.587 -0.5030  1.2773  1.3904
13576SOL     OW51946   0.956   2.218   0.549  0.1168  0.0565 -0.2249
13576SOL    HW151947   1.012   2.173   0.480 -0.9717  0.6578 -1.5277
13576SOL    HW251948   0.963   2.317   0.538  0.9181  0.1913  1.3419
13577SOL     OW51949   0.954   7.618   3.657  0.3707 -0.1448 -0.0687
13577SOL    HW151950   0.922   7.703   3.699  1.0753  0.0199  0.1413
13577SOL    HW251951   1.020   7.573   3.717 -0.7390 -1.3531  0.2598
13578SOL     OW51952   7.784   9.975   3.826  0.2487 -0.4041  0.3333
13578SOL    HW151953   7.848   9.968   3.749  0.4924 -1.5716  0.6399
13578SOL    HW251954   7.785   9.890   3.878 -1.8353 -0.5868  0.1217
13579SOL     OW51955   8.434   4.587   1.353  0.2258 -0.2042 -0.0004
13579SOL    HW151956   8.403   4.535   1.432  1.1012  0.5409  0.8432
13579SOL    HW251957   8.402   4.682   1.361  0.7626  0.0013 -0.2690
13580SOL     OW51958   9.627   6.541   0.526  0.1254 -0.1340 -0.0660
13580SOL    HW151959   9.553   6.531   0.593 -0.7981 -2.9947 -1.4211
13580SOL    HW251960   9.710   6.499   0.562  0.0140 -0.3915 -0.1014
13581SOL     OW51961   2.343   6.384   6.154 -0.5352  0.7525  0.2187
13581SOL    HW151962   2.390   6.459   6.201 -0.5331  1.1033 -0.3402
13581SOL    HW251963   2.345   6.400   6.056  0.8491 -0.7858 -0.0211
13582SOL     OW51964   7.777   0.052   3.249 -0.0713  0.5646 -0.1884
13582SOL    HW151965   7.796   0.128   3.310 -3.5282 -0.8625  2.8493
13582SOL    HW251966   7.718   0.083   3.174 -0.2193  1.1785  0.1830
13583SOL     OW51967   1.356   7.391   6.575 -0.2899 -0.3987 -0.2248
13583SOL    HW151968   1.413   7.339   6.511 -0.6765 -0.1322 -0.7972
13583SOL    HW251969   1.349   7.342   6.661  0.6407 -0.5295 -0.2160
13584SOL     OW51970   4.183   6.462   0.501  0.1733  0.2158 -0.1249
13584SOL    HW151971   4.265   6.515   0.480  0.6948 -0.6403 -0.3036
13584SOL    HW251972   4.111   6.484   0.435  0.9016 -0.4473 -1.1484
13585SOL     OW51973   7.761   4.437   2.179  0.0059  0.3228  0.0558
13585SOL    HW151974   7.855   4.421   2.149 -0.5579 -2.6040 -0.3058
13585SOL    HW251975   7.758   4.437   2.279  0.4967  1.1807  0.0750
13586SOL     OW51976   8.721   3.359   5.180  0.3242 -0.7560 -0.0179
13586SOL    HW151977   8.652   3.421   5.217  0.3862 -1.1702  0.7982
13586SOL    HW251978   8.703   3.342   5.083 -0.0794  0.0071 -0.0724
13587SOL     OW51979   0.196   4.240   3.702  0.0683 -0.6127  0.0185
13587SOL    HW151980   0.108   4.191   3.699  0.0707 -0.6379  0.3261
13587SOL    HW251981   0.251   4.214   3.622 -0.2127 -0.5801 -0.1863
13588SOL     OW51982   4.643   0.470   3.893 -0.1322  0.0988  0.5625
13588SOL    HW151983   4.704   0.549   3.884 -0.7844  0.6169  0.7231
13588SOL    HW251984   4.553   0.500   3.924 -0.7373 -0.5576 -0.5160
13589SOL     OW51985   8.837   5.032   1.692  0.1633 -0.1034 -0.6671
13589SOL    HW151986   8.791   4.944   1.688 -0.9721  0.5032 -1.1908
13589SOL    HW251987   8.913   5.027   1.757  0.7955 -1.7743 -1.5035
13590SOL     OW51988   4.167   6.760   1.140 -0.7210  0.0919 -0.6685
13590SOL    HW151989   4.217   6.834   1.094 -1.1202 -1.1604 -3.1868
13590SOL    HW251990   4.232   6.689   1.168 -0.5585  0.5377  0.0873
13591SOL     OW51991   4.033   9.977   1.410  0.6425  0.0820 -0.4862
13591SOL    HW151992   4.025   9.896   1.469 -0.3275  0.3813 -0.2073
13591SOL    HW251993   4.118   9.970   1.357  0.4217 -1.2758 -0.6924
13592SOL     OW51994   9.787   6.799   5.024  0.5610 -0.1599 -0.6663
13592SOL    HW151995   9.753   6.721   5.077  0.0139  1.2884  1.1829
13592SOL    HW251996   9.877   6.777   4.986 -0.4237 -2.3636 -1.7635
13593SOL     OW51997   9.254   4.537   6.319 -0.3821  0.6189 -0.0166
13593SOL    HW151998   9.194   4.530   6.240  1.9461 -0.7429 -1.7445
13593SOL    HW251999   9.296   4.628   6.322 -0.3797  0.6302 -0.4119
13594SOL     OW52000   4.802   8.064   3.401  0.2475  0.0910  0.4880
13594SOL    HW152001   4.832   7.997   3.469  1.7258  1.1065  0.8669
13594SOL    HW252002   4.761   8.142   3.448 -1.8457 -0.6908  0.0290
13595SOL     OW52003   2.592   6.476   1.132  0.0964  0.4416 -0.2382
13595SOL    HW152004   2.593   6.490   1.231  1.2954 -0.7846 -0.0604
13595SOL    HW252005   2.534   6.545   1.089  1.4692  2.5157  1.1141
13596SOL     OW52006   3.795   4.946   1.497 -0.0746  0.2873 -0.2175
13596SOL    HW152007   3.738   4.999   1.434 -1.0258 -1.0115 -0.4756
13596SOL    HW252008   3.889   4.940   1.461 -0.4101  0.2581 -1.1047
13597SOL     OW52009   3.183   3.698   6.114 -0.1184 -0.3377  0.7183
13597SOL    HW152010   3.119   3.774   6.126 -1.9069 -2.0377  2.3826
13597SOL    HW252011   3.170   3.657   6.024 -0.2819  0.3276  0.4408
13598SOL     OW52012   9.594   6.762   4.077  0.1119 -0.3295  0.4792
13598SOL    HW152013   9.505   6.795   4.108  1.0481  2.0747  0.7102
13598SOL    HW252014   9.620   6.681   4.130 -2.7188 -2.1706 -0.8486
13599SOL     OW52015   8.520   0.158   3.007  0.0876 -0.0501 -0.5998
13599SOL    HW152016   8.502   0.067   3.045  1.6598 -0.7931 -1.5573
13599SOL    HW252017   8.480   0.228   3.067 -1.3543 -1.3688  0.0207
13600SOL     OW52018   3.284   1.932   3.270  0.1447  0.5632 -0.2700
13600SOL    HW152019   3.204   1.982   3.303 -1.4971 -0.6041 -2.4377
13600SOL    HW252020   3.267   1.834   3.275  2.0683  0.2552  0.7503
13601SOL     OW52021   5.430   8.103   3.844  0.3535 -0.0373 -0.4889
13601SOL    HW152022   5.456   8.086   3.749  1.7957  0.8733 -0.2766
13601SOL    HW252023   5.501   8.158   3.889 -2.6263  3.9508 -0.3402
13602SOL     OW52024   1.612   8.912   3.237 -0.1226  0.6303 -0.4516
13602SOL    HW152025   1.586   8.836   3.298 -0.5812  0.8472 -0.3777
13602SOL    HW252026   1.617   8.997   3.290  1.8480  0.4054 -0.2296
13603SOL     OW52027   6.513   1.163   0.264 -0.1952 -0.2957 -0.0809
13603SOL    HW152028   6.556   1.082   0.225  0.1235 -0.2269  0.1248
13603SOL    HW252029   6.544   1.244   0.214 -0.3812 -0.2860 -0.1776
13604SOL     OW52030   8.567   9.044   2.098  0.3706  0.0231  0.4010
13604SOL    HW152031   8.530   9.022   2.007 -0.2832  1.1903  0.3714
13604SOL    HW252032   8.498   9.024   2.168 -0.0169  1.3700  0.4227
13605SOL     OW52033   9.552   2.440   2.544  0.0404  0.4101  0.2155
13605SOL    HW152034   9.465   2.489   2.537  0.9248  1.8516 -1.0051
13605SOL    HW252035   9.535   2.343   2.562 -1.8044  0.6746 -0.0682
13606SOL     OW52036   9.209   3.769   0.442  0.2945  0.3915  0.2782
13606SOL    HW152037   9.303   3.748   0.467  0.6960  0.1561 -1.4341
13606SOL    HW252038   9.207   3.852   0.386 -0.6314  1.0197  1.2051
13607SOL     OW52039   2.634   4.412   1.316 -0.2287  0.2536  0.3428
13607SOL    HW152040   2.612   4.316   1.334  0.4782  0.0784  0.2909
13607SOL    HW252041   2.600   4.468   1.391 -1.3945  0.0626 -0.0329
13608SOL     OW52042   8.627   3.267   3.134  0.0388  0.5418  0.1699
13608SOL    HW152043   8.558   3.333   3.103  0.0775  0.5695  0.1434
13608SOL    HW252044   8.582   3.181   3.157  0.2277 -0.0405 -1.6157
13609SOL     OW52045   1.674   5.693   4.860  0.1337 -0.1617 -0.7872
13609SOL    HW152046   1.696   5.766   4.924  3.0472  0.8190 -2.7827
13609SOL    HW252047   1.690   5.605   4.903  1.1411  0.4635  0.1318
13610SOL     OW52048   7.473   2.828   2.655 -0.1385  0.3390 -0.6887
13610SOL    HW152049   7.475   2.743   2.707 -0.2430  0.8639  0.1875
13610SOL    HW252050   7.378   2.851   2.634 -0.3366  1.6733  1.4927
13611SOL     OW52051   2.958   0.705   2.859 -0.2215  0.1660  0.1626
13611SOL    HW152052   2.929   0.798   2.837  0.9146  0.0346 -2.0053
13611SOL    HW252053   2.879   0.644   2.861 -0.7989  0.9187  0.2596
13612SOL     OW52054   9.815   2.488   5.317 -0.0026  0.0310  0.1585
13612SOL    HW152055   9.808   2.391   5.338  0.5299  0.4737  2.4478
13612SOL    HW252056   9.907   2.509   5.285  0.2714  0.0288  0.9503
13613SOL     OW52057   5.894   8.496   2.949  0.0560 -0.1913  0.1489
13613SOL    HW152058   5.980   8.447   2.941 -0.6915 -1.3704 -0.8058
13613SOL    HW252059   5.887   8.563   2.875  0.7295  0.8253  0.9959
13614SOL     OW52060   7.730   8.822   3.156 -0.0067 -0.1872 -0.3110
13614SOL    HW152061   7.648   8.830   3.099  0.5808 -2.7641 -1.6149
13614SOL    HW252062   7.788   8.901   3.142 -0.1030 -0.5348 -2.9974
13615SOL     OW52063   3.628   7.563   2.882 -0.1265  0.0022  0.0040
13615SOL    HW152064   3.687   7.601   2.812 -0.5147  0.6317  0.0164
13615SOL    HW252065   3.666   7.476   2.914 -0.5908 -0.9201 -1.8714
13616SOL     OW52066   2.148   2.977   4.741  0.3700 -0.9821 -0.5928
13616SOL    HW152067   2.113   3.031   4.818 -1.3777 -2.2334 -0.4742
13616SOL    HW252068   2.248   2.979   4.741  0.4113 -1.3788  2.0388
13617SOL     OW52069   4.201   0.787   2.433 -0.0927  0.3258 -0.3641
13617SOL    HW152070   4.208   0.774   2.532  1.4660 -1.1054 -0.6430
13617SOL    HW252071   4.249   0.872   2.408 -0.8537  0.9143  0.1469
13618SOL     OW52072   9.736   2.851   2.932  0.2602 -0.2276  0.5962
13618SOL    HW152073   9.778   2.885   3.016 -0.0002 -2.0578  1.4996
13618SOL    HW252074   9.721   2.927   2.869  0.1105  1.2282  2.3482
13619SOL     OW52075   2.521   6.111   0.372  0.2479 -0.1214  0.1669
13619SOL    HW152076   2.614   6.095   0.405 -0.1059 -1.6099  0.4408
13619SOL    HW252077   2.503   6.053   0.292  0.1049  1.3639 -0.9158
13620SOL     OW52078   2.682   4.665   3.561 -0.1396 -0.0058 -0.4763
13620SOL    HW152079   2.704   4.755   3.523  1.7342 -0.1342  0.2409
13620SOL    HW252080   2.588   4.642   3.539 -1.1669  2.8164  0.6396
13621SOL     OW52081   6.920   6.683   5.015 -0.8772  0.0431 -0.2761
13621SOL    HW152082   6.905   6.674   5.114 -0.3954  0.9536 -0.1066
13621SOL    HW252083   6.835   6.713   4.972 -1.4715 -1.7113 -0.3418
13622SOL     OW52084   8.220   3.494   0.898  0.3819  0.0701  0.2663
13622SOL    HW152085   8.291   3.435   0.859 -0.5978 -0.5127 -0.6325
13622SOL    HW252086   8.254   3.587   0.905  0.7953  0.0482 -1.3589
13623SOL     OW52087   1.125   7.539   1.891 -0.5832 -0.5224 -0.1320
13623SOL    HW152088   1.174   7.496   1.815 -1.3955  1.7427 -2.0044
13623SOL    HW252089   1.190   7.592   1.946 -0.4596  0.3726 -1.1088
13624SOL     OW52090   2.056   1.270   3.182 -0.3732  0.6647 -0.4959
13624SOL    HW152091   1.981   1.315   3.230 -1.1519  0.1224 -1.1753
13624SOL    HW252092   2.128   1.245   3.247 -2.0229 -1.3100  0.6322
13625SOL     OW52093   4.163   2.507   5.821 -0.2943 -0.2746 -0.2561
13625SOL    HW152094   4.079   2.489   5.872 -0.5101 -1.1303 -0.9095
13625SOL    HW252095   4.140   2.530   5.726  0.2810 -1.9693 -0.8141
13626SOL     OW52096   4.688   2.310   1.362 -0.1881  0.2109 -0.3945
13626SOL    HW152097   4.660   2.347   1.274  1.5124  1.9356 -0.2367
13626SOL    HW252098   4.620   2.333   1.431 -1.3582 -0.8548 -1.1593
13627SOL     OW52099   7.204   0.738   4.592  1.1143 -0.3649  0.3190
13627SOL    HW152100   7.209   0.731   4.492  0.2317 -0.3427  0.2661
13627SOL    HW252101   7.252   0.820   4.622  0.7929  0.0082 -0.1564
13628SOL     OW52102   8.420   7.156   0.396  0.1405 -0.4771 -0.3288
13628SOL    HW152103   8.452   7.112   0.480 -1.4431 -1.5757 -0.2622
13628SOL    HW252104   8.495   7.165   0.332  1.1202 -0.6886  0.7760
13629SOL     OW52105   1.111   8.521   3.281  0.0091  0.2002  0.1159
13629SOL    HW152106   1.176   8.528   3.205 -0.3812  0.4654 -0.1894
13629SOL    HW252107   1.018   8.526   3.246 -0.2438 -2.1925  0.3147
13630SOL     OW52108   5.413   1.666   1.862  0.3378  0.0972  0.0883
13630SOL    HW152109   5.506   1.683   1.831  0.5919  0.6938  1.1735
13630SOL    HW252110   5.385   1.575   1.832  1.9694 -0.8650  1.4023
13631SOL     OW52111   4.054   4.529   1.001 -0.5485  0.0750 -0.2996
13631SOL    HW152112   3.977   4.574   1.047 -1.5220 -1.4961 -0.3665
13631SOL    HW252113   4.079   4.446   1.051  0.3465 -0.0584 -0.9478
13632SOL     OW52114   3.122   2.666   5.929  0.1561 -0.5898 -0.4553
13632SOL    HW152115   3.165   2.596   5.872 -0.6446 -2.2129  0.9058
13632SOL    HW252116   3.115   2.633   6.023 -0.3273  1.2835  0.1924
13633SOL     OW52117   7.833   6.848   2.433 -0.4681 -0.8055  0.0227
13633SOL    HW152118   7.868   6.942   2.429 -1.5797 -0.3846  0.1081
13633SOL    HW252119   7.805   6.819   2.341 -0.7167 -0.8248  0.1043
13634SOL     OW52120   9.923   3.855   2.465  0.2416 -0.0881  0.5381
13634SOL    HW152121  10.006   3.820   2.421 -0.2299 -0.1409 -0.3404
13634SOL    HW252122   9.947   3.912   2.543  1.1148  0.0793  0.1521
13635SOL     OW52123   8.630   4.248   3.227 -0.1767  0.0633  0.2047
13635SOL    HW152124   8.663   4.340   3.204 -0.5330 -0.2646 -1.7081
13635SOL    HW252125   8.586   4.250   3.316  0.6762  1.5434  0.6221
13636SOL     OW52126   2.037   4.930   4.649  0.5567  0.3559 -0.7210
13636SOL    HW152127   2.038   4.832   4.669  0.2590  0.3950 -0.5157
13636SOL    HW252128   2.126   4.957   4.611  1.3324  0.3841  1.0547
13637SOL     OW52129   8.579   1.834   0.808 -0.0697 -0.0930  0.4301
13637SOL    HW152130   8.578   1.883   0.895 -0.2261  0.2900  0.2197
13637SOL    HW252131   8.673   1.809   0.784 -0.0868 -0.6416  0.9532
13638SOL     OW52132   1.085   6.116   6.141 -0.3754  0.1861  0.9533
13638SOL    HW152133   1.011   6.069   6.094 -0.5444 -0.6035  1.9896
13638SOL    HW252134   1.076   6.215   6.128 -1.5533  0.0867  1.0022
13639SOL     OW52135   9.935   3.178   3.880  0.1227 -0.0803  0.1405
13639SOL    HW152136   9.874   3.114   3.832  0.8375  0.3379 -1.3489
13639SOL    HW252137   9.899   3.271   3.872  0.1591 -0.0326  0.5484
13640SOL     OW52138   2.483   3.351   5.767  0.2348 -0.0204 -0.2480
13640SOL    HW152139   2.536   3.343   5.852  2.4877 -1.1444 -1.7309
13640SOL    HW252140   2.530   3.413   5.704 -0.3736 -0.8072 -1.4860
13641SOL     OW52141   6.244   4.990   0.487 -0.0657  0.4844 -0.3700
13641SOL    HW152142   6.241   5.090   0.482  0.5405  0.5074 -0.4100
13641SOL    HW252143   6.326   4.957   0.440 -0.5950 -0.0761 -0.9144
13642SOL     OW52144   5.298   1.567   5.151  0.0341 -0.1104  0.0694
13642SOL    HW152145   5.285   1.500   5.223  2.3419  0.3178  0.9004
13642SOL    HW252146   5.270   1.657   5.184  1.2010  0.1053  0.4555
13643SOL     OW52147   7.820   4.495   6.363  0.0947  0.0308  0.0289
13643SOL    HW152148   7.831   4.505   6.461 -1.4187  0.7228  0.1425
13643SOL    HW252149   7.726   4.517   6.337  0.8202  1.2035 -1.7510
13644SOL     OW52150   0.751   1.820   1.659 -0.6047 -0.3916 -0.6230
13644SOL    HW152151   0.693   1.901   1.664  1.4284  1.0647 -0.1201
13644SOL    HW252152   0.766   1.795   1.563  0.2806  0.9404 -0.8328
13645SOL     OW52153   3.600   4.075   3.099  0.1893  0.0614 -0.2129
13645SOL    HW152154   3.515   4.025   3.112  0.1104  0.4018  0.6200
13645SOL    HW252155   3.601   4.155   3.158  1.8610 -0.9273  1.1598
13646SOL     OW52156   5.133   1.135   1.758 -0.2417 -0.2040 -0.1113
13646SOL    HW152157   5.112   1.233   1.755  1.6038  0.1678 -1.7391
13646SOL    HW252158   5.219   1.121   1.807 -0.8174 -1.0845  0.6551
13647SOL     OW52159   4.093   0.775   6.057  0.4634  0.4310 -0.7143
13647SOL    HW152160   3.993   0.771   6.048  0.3795  1.6731 -0.4908
13647SOL    HW252161   4.130   0.835   5.986  1.0418  0.0594 -0.7271
13648SOL     OW52162   1.387   8.753   2.742 -0.0980 -0.1195 -0.7543
13648SOL    HW152163   1.453   8.828   2.734  0.0815 -0.0415  1.3320
13648SOL    HW252164   1.429   8.668   2.712  1.2204 -0.1973  1.2462
13649SOL     OW52165   7.094   7.454   2.819 -0.2155 -0.1874  0.0939
13649SOL    HW152166   7.192   7.451   2.796  0.0442 -0.5012  1.2021
13649SOL    HW252167   7.041   7.412   2.745  0.7187 -2.5526  0.7217
13650SOL     OW52168   4.251   1.944   6.758  0.3733  0.4610 -0.4785
13650SOL    HW152169   4.221   2.039   6.767  1.8001  1.1126 -2.4299
13650SOL    HW252170   4.340   1.932   6.801  0.1240 -0.0435 -0.0932
13651SOL     OW52171   2.413   1.190   0.059  0.2675  0.1679 -0.1350
13651SOL    HW152172   2.430   1.139  -0.025  1.7963  4.2872 -2.4264
13651SOL    HW252173   2.496   1.194   0.114  0.6169  1.5649 -0.7538
13652SOL     OW52174   8.516   3.923   0.357 -0.3355  0.3359  0.6913
13652SOL    HW152175   8.544   3.995   0.421 -0.4774 -1.3900  2.7311
13652SOL    HW252176   8.460   3.856   0.405 -1.5984 -0.2855 -1.5835
13653SOL     OW52177   8.604   8.135   4.762 -0.1697 -0.2114  0.2649
13653SOL    HW152178   8.592   8.131   4.861 -0.2459 -1.6213  0.2047
13653SOL    HW252179   8.626   8.044   4.727 -1.3337  0.0357 -1.1546
13654SOL     OW52180   1.277   1.575   1.920 -0.2642 -0.4782 -0.5865
13654SOL    HW152181   1.288   1.598   2.017  0.4388 -1.7609 -0.3364
13654SOL    HW252182   1.243   1.481   1.913  0.1068 -0.5396 -1.5881
13655SOL     OW52183   3.913   0.168   1.769 -0.5565 -0.5173  0.5455
13655SOL    HW152184   3.981   0.168   1.695 -1.6188 -0.1046 -0.4556
13655SOL    HW252185   3.928   0.247   1.828  0.2522 -0.8014  0.7277
13656SOL     OW52186   3.254   8.388   0.304 -0.2553  0.3984 -0.1033
13656SOL    HW152187   3.332   8.437   0.343 -0.4566  1.1264 -0.6057
13656SOL    HW252188   3.191   8.363   0.377 -0.2584  1.0902  0.1344
13657SOL     OW52189   1.664   2.156   3.753 -0.0569 -0.0424 -0.1837
13657SOL    HW152190   1.670   2.207   3.667  0.3707  0.7228  0.2954
13657SOL    HW252191   1.737   2.088   3.757 -0.7743 -0.8766 -0.9317
13658SOL     OW52192   9.302   3.677   1.647  0.3490 -0.0262 -0.5628
13658SOL    HW152193   9.354   3.715   1.724 -1.6636  2.7723 -0.5001
13658SOL    HW252194   9.219   3.634   1.680 -0.3344  0.8451 -1.0987
13659SOL     OW52195   0.696   1.863   2.335  0.2857 -0.1853 -0.0929
13659SOL    HW152196   0.700   1.786   2.398 -1.8856 -0.5290 -0.3240
13659SOL    HW252197   0.704   1.949   2.386  0.1492 -0.4999  0.4613
13660SOL     OW52198   3.482   7.249   4.193 -0.1353  0.0131 -0.2473
13660SOL    HW152199   3.542   7.257   4.272 -0.2676 -0.4154 -0.1030
13660SOL    HW252200   3.432   7.334   4.180  1.6736  0.9501 -1.3096
13661SOL     OW52201   8.279   8.206   2.418  0.1268 -0.0718 -0.8382
13661SOL    HW152202   8.359   8.261   2.442  0.6000 -0.6406 -1.0923
13661SOL    HW252203   8.202   8.231   2.477  1.0118 -0.8316  0.6866
13662SOL     OW52204   3.319   4.144   3.458  0.2254 -0.4238 -0.2149
13662SOL    HW152205   3.298   4.163   3.554 -0.1576 -0.6189 -0.2619
13662SOL    HW252206   3.409   4.101   3.452 -1.2448 -3.7366  0.3794
13663SOL     OW52207   3.771   4.472   4.050 -0.5345  0.1024  0.0254
13663SOL    HW152208   3.808   4.561   4.077  1.1360 -0.5156 -0.1662
13663SOL    HW252209   3.719   4.433   4.126 -0.3906  0.7713  0.4704
13664SOL     OW52210   9.389   7.391   1.597  0.6974  0.4493  0.2957
13664SOL    HW152211   9.321   7.402   1.524 -0.4751 -0.1645  1.2681
13664SOL    HW252212   9.439   7.477   1.609 -0.2919  1.0842 -0.0593
13665SOL     OW52213   4.982   2.356   1.808  0.5961 -0.4048 -0.3587
13665SOL    HW152214   5.053   2.425   1.821 -0.5053  0.7844 -0.5526
13665SOL    HW252215   5.010   2.270   1.851  1.8031  0.2723  0.2258
13666SOL     OW52216   7.799   2.905   0.560 -0.2490 -0.4880  0.2385
13666SOL    HW152217   7.756   2.924   0.648 -0.0165 -0.8330  0.4303
13666SOL    HW252218   7.736   2.927   0.486 -0.6394 -0.6976  0.5079
13667SOL     OW52219   0.811   1.693   1.111 -0.0262 -0.1780 -0.4366
13667SOL    HW152220   0.882   1.749   1.067  0.5918  0.4323  1.3204
13667SOL    HW252221   0.855   1.626   1.171 -0.9408  0.3022  0.7792
13668SOL     OW52222   8.202   1.111   4.639  0.0281 -0.2060  0.1166
13668SOL    HW152223   8.207   1.184   4.571 -2.8019 -1.0667 -1.1148
13668SOL    HW252224   8.211   1.149   4.731 -0.1562  1.5051 -0.5639
13669SOL     OW52225   0.574   0.952   0.451  0.1904  0.0462  0.1606
13669SOL    HW152226   0.543   1.021   0.516 -0.4068 -0.7938  0.7904
13669SOL    HW252227   0.496   0.916   0.400  0.6085  0.4309 -0.7572
13670SOL     OW52228   6.290   2.502   4.319  0.0653  0.0460 -0.1577
13670SOL    HW152229   6.276   2.495   4.221  1.2903  1.1863 -0.4133
13670SOL    HW252230   6.388   2.506   4.340 -0.1580 -0.8720  1.1539
13671SOL     OW52231   7.756   4.202   2.039 -0.2007 -0.2535 -0.4906
13671SOL    HW152232   7.734   4.279   2.099  0.7380 -0.2121 -0.1890
13671SOL    HW252233   7.676   4.143   2.029 -0.0497 -0.8653  1.6847
13672SOL     OW52234   8.899   3.112   5.319  0.0618  0.0732  0.0278
13672SOL    HW152235   8.828   3.171   5.281  0.5935 -0.2110 -1.4086
13672SOL    HW252236   8.983   3.122   5.267 -0.3784 -3.3562 -1.4452
13673SOL     OW52237   6.981   0.103   1.743 -0.4356  0.2991  0.0362
13673SOL    HW152238   7.031   0.183   1.711  0.6136  0.4984  2.1390
13673SOL    HW252239   7.017   0.021   1.698  0.2508  0.7033 -0.1518
13674SOL     OW52240   3.875   3.604   6.130  0.1507 -0.1330 -0.3347
13674SOL    HW152241   3.938   3.647   6.065  0.6818  0.3692  0.4976
13674SOL    HW252242   3.901   3.629   6.223 -0.2525 -1.3208  0.1089
13675SOL     OW52243   9.247   6.065   2.203  0.2255  0.3463 -0.2131
13675SOL    HW152244   9.163   6.117   2.221  0.1124  0.0258  0.1783
13675SOL    HW252245   9.262   6.061   2.104 -0.1547  0.5055 -0.2819
13676SOL     OW52246   7.352   7.044   3.732  0.1051 -0.0902 -0.2714
13676SOL    HW152247   7.299   6.979   3.678  0.0507 -0.6263  0.4108
13676SOL    HW252248   7.314   7.049   3.825  0.6418  0.2581 -0.0636
13677SOL     OW52249   8.494   1.042   3.693 -0.2102  0.0741  0.6846
13677SOL    HW152250   8.497   1.102   3.613  2.6242 -0.2801  0.4658
13677SOL    HW252251   8.486   1.098   3.776 -0.4566  0.5794  0.3272
13678SOL     OW52252   0.154   4.418   6.585 -0.3037 -0.2712 -0.1865
13678SOL    HW152253   0.069   4.399   6.536  1.2633 -1.8458 -2.3475
13678SOL    HW252254   0.219   4.344   6.569  1.0141  0.2250  2.5820
13679SOL     OW52255   5.466   8.563   4.585  0.8536 -0.0462 -0.3584
13679SOL    HW152256   5.390   8.564   4.520  0.3212  0.3804  0.2581
13679SOL    HW252257   5.447   8.497   4.658 -0.9892  3.0992  2.1660
13680SOL     OW52258   0.221   9.797   0.685  0.8061  0.0911 -0.2475
13680SOL    HW152259   0.132   9.793   0.731  0.8933 -1.0299 -0.1714
13680SOL    HW252260   0.235   9.889   0.648 -1.1893 -0.2549 -1.8936
13681SOL     OW52261   2.889   4.645   1.708  0.5156 -0.0911  0.3388
13681SOL    HW152262   2.932   4.694   1.784 -1.5799  0.5876  1.1335
13681SOL    HW252263   2.910   4.691   1.622  2.3386 -0.4629  0.5650
13682SOL     OW52264   7.510   1.845   3.438 -0.0259 -0.6250 -0.0619
13682SOL    HW152265   7.437   1.787   3.471 -1.7805  0.5507 -1.7313
13682SOL    HW252266   7.580   1.789   3.393 -0.9588 -1.5853 -0.3398
13683SOL     OW52267   7.168   2.835   0.231  0.0641 -0.6548  0.1132
13683SOL    HW152268   7.131   2.749   0.266  1.1105 -0.9423  0.5353
13683SOL    HW252269   7.231   2.816   0.155  0.7928 -0.3080  0.6311
13684SOL     OW52270   9.628   8.158   3.165  0.3539  0.1444 -0.0569
13684SOL    HW152271   9.621   8.191   3.259  0.6716  1.5868 -0.5223
13684SOL    HW252272   9.724   8.158   3.137  0.2552 -0.2125 -0.4037
13685SOL     OW52273   1.856   8.644   3.642  0.4255 -0.5310  0.6151
13685SOL    HW152274   1.788   8.578   3.612 -0.6230  1.3577 -1.2204
13685SOL    HW252275   1.919   8.664   3.567 -0.9683  2.6403  0.1917
13686SOL     OW52276   1.239   0.117   0.858 -0.0319  0.1888 -0.0522
13686SOL    HW152277   1.270   0.107   0.952  1.2064  2.0696 -0.2403
13686SOL    HW252278   1.250   0.031   0.810  2.7233  0.1785  0.5421
13687SOL     OW52279   8.659   3.920   5.874 -1.0083 -0.5279 -0.2451
13687SOL    HW152280   8.627   4.012   5.900 -1.7655 -0.5749 -0.9762
13687SOL    HW252281   8.644   3.857   5.950 -1.3825 -0.2482 -0.0839
13688SOL     OW52282   7.322   9.890   0.627  0.2859  0.3608 -0.3170
13688SOL    HW152283   7.339   9.829   0.704 -0.8457 -0.1678 -0.4679
13688SOL    HW252284   7.384   9.868   0.552  1.6024  1.0809  0.5411
13689SOL     OW52285   1.555   5.105   0.097  1.0984 -0.3622  0.3656
13689SOL    HW152286   1.641   5.143   0.130  1.2643  0.6598 -1.1725
13689SOL    HW252287   1.499   5.178   0.057 -0.0155 -1.1953  0.3698
13690SOL     OW52288   3.624   6.858   2.969 -0.5950  0.0298  0.1483
13690SOL    HW152289   3.645   6.790   2.899  1.5881 -0.6197  1.4120
13690SOL    HW252290   3.628   6.817   3.059 -0.1476  1.6216  0.8776
13691SOL     OW52291   3.496   2.815   2.643 -0.1865 -0.0191 -0.0014
13691SOL    HW152292   3.533   2.828   2.551  0.2173  0.1247  0.1805
13691SOL    HW252293   3.560   2.853   2.710 -0.1923 -0.6701  0.3739
13692SOL     OW52294   9.706   2.802   2.403 -0.0600  0.1537  0.3325
13692SOL    HW152295   9.698   2.794   2.303  0.8398 -1.8086  0.4076
13692SOL    HW252296   9.789   2.756   2.434 -0.6088  0.2910  2.0514
13693SOL     OW52297   9.365   4.810   1.019 -0.0704  0.2893 -0.3242
13693SOL    HW152298   9.360   4.727   1.074 -2.3369 -0.2946 -1.3572
13693SOL    HW252299   9.273   4.838   0.992  0.9306  0.8644 -3.3429
13694SOL     OW52300   9.042   5.722   4.974  0.1079  0.0487 -0.0780
13694SOL    HW152301   9.014   5.643   4.919  0.4289 -2.4323  3.1835
13694SOL    HW252302   9.140   5.715   4.995  0.5292  2.2175 -1.0745
13695SOL     OW52303   1.671   4.879   0.419  0.0394 -0.1066  0.4139
13695SOL    HW152304   1.741   4.940   0.380 -0.8136  0.0103 -0.9756
13695SOL    HW252305   1.580   4.917   0.401 -0.5148 -1.8811 -0.6646
13696SOL     OW52306   4.873   4.566   3.455 -0.5003  0.0920  0.2825
13696SOL    HW152307   4.917   4.655   3.465  0.8922 -0.7669  2.1733
13696SOL    HW252308   4.941   4.497   3.432 -1.4310 -0.6300 -0.3552
13697SOL     OW52309   3.790   0.371   5.881  0.0200  0.2281  0.0270
13697SOL    HW152310   3.870   0.426   5.906 -1.2531  1.4855  1.3895
13697SOL    HW252311   3.726   0.369   5.957 -2.1907  0.9167 -1.7680
13698SOL     OW52312   1.974   1.494   2.177  0.0871  0.3956  0.2611
13698SOL    HW152313   1.899   1.463   2.236 -0.0985 -0.7643 -0.5566
13698SOL    HW252314   1.950   1.476   2.082  0.5492  1.9034 -0.1404
13699SOL     OW52315   5.324   1.578   2.535  0.4016 -0.0288  0.3651
13699SOL    HW152316   5.380   1.531   2.466 -1.4777  0.6401 -1.6958
13699SOL    HW252317   5.284   1.510   2.596  2.9699 -0.5514  1.5273
13700SOL     OW52318   5.394   9.543   1.355 -0.6324  0.4972 -0.1783
13700SOL    HW152319   5.333   9.464   1.356  0.0456 -0.0334 -0.3116
13700SOL    HW252320   5.430   9.557   1.263  0.2675  0.1678  0.1182
13701SOL     OW52321   7.938   5.400   2.687  0.0354 -0.0658  0.6993
13701SOL    HW152322   7.942   5.304   2.714  0.6716 -0.3059 -0.2233
13701SOL    HW252323   7.885   5.451   2.755 -0.4856 -1.0986  1.0938
13702SOL     OW52324   2.670   3.181   1.005  0.1581 -0.3578 -0.4942
13702SOL    HW152325   2.578   3.155   0.977  0.6758  0.5331 -3.1772
13702SOL    HW252326   2.720   3.217   0.926  2.1502  1.0554  1.3450
13703SOL     OW52327   8.241   7.464   2.462  0.3702  0.0902 -0.6061
13703SOL    HW152328   8.223   7.562   2.460 -0.5805 -0.0835 -1.5508
13703SOL    HW252329   8.237   7.431   2.557  1.8478  1.1545 -0.1724
13704SOL     OW52330   9.229   0.849   1.764  0.0996  0.1605 -0.9731
13704SOL    HW152331   9.129   0.847   1.772  0.0650 -0.1647 -1.4495
13704SOL    HW252332   9.267   0.911   1.833 -0.4441  0.4557 -0.9340
13705SOL     OW52333   8.133   2.950   5.852  0.3949  0.3149  0.7990
13705SOL    HW152334   8.185   3.012   5.910  0.1430  1.0550  0.2486
13705SOL    HW252335   8.076   3.003   5.789  0.6386 -0.4648 -0.0970
13706SOL     OW52336   7.320   5.651   0.873  0.5183 -0.0102 -0.0859
13706SOL    HW152337   7.346   5.733   0.822 -1.6423  1.1719  0.6245
13706SOL    HW252338   7.272   5.588   0.812  0.5269  0.0947 -0.2023
13707SOL     OW52339   7.705   1.562   4.840 -0.4630 -0.0384 -0.1886
13707SOL    HW152340   7.723   1.566   4.939  3.2552  2.0774 -0.8690
13707SOL    HW252341   7.763   1.493   4.798 -0.0976  0.8964 -1.2506
13708SOL     OW52342   0.589   9.443   0.178  0.1667  0.3520 -0.2086
13708SOL    HW152343   0.647   9.488   0.109  0.7882 -0.4696 -0.2367
13708SOL    HW252344   0.538   9.369   0.134 -1.9772  1.9664 -0.4739
13709SOL     OW52345   8.065   0.229   1.142 -0.3785  0.0312 -0.4981
13709SOL    HW152346   8.110   0.282   1.071  0.8368 -2.2891 -1.5208
13709SOL    HW252347   8.072   0.131   1.121 -0.5377 -0.6876  2.4863
13710SOL     OW52348   1.105   1.264   3.966  0.4519  0.7250 -0.0354
13710SOL    HW152349   1.107   1.178   3.915 -0.7162  0.4965  0.3043
13710SOL    HW252350   1.011   1.296   3.973  0.8764  2.0241 -0.1408
13711SOL     OW52351   0.228   2.475   0.309  0.5059  0.4008  0.2468
13711SOL    HW152352   0.159   2.512   0.247  0.3949 -0.8078 -0.3677
13711SOL    HW252353   0.183   2.426   0.384  0.6724 -2.3791 -1.3888
13712SOL     OW52354   5.635   8.723   3.458  0.4290  0.2725  0.0976
13712SOL    HW152355   5.635   8.805   3.516  1.1715 -0.5146  1.2484
13712SOL    HW252356   5.574   8.736   3.380  0.0478  1.6713  0.6276
13713SOL     OW52357   0.352   8.256   5.685  0.4748  0.0644 -0.8861
13713SOL    HW152358   0.378   8.250   5.589  1.4928  2.0882 -0.7641
13713SOL    HW252359   0.434   8.271   5.741 -0.4036  1.5964  0.0148
13714SOL     OW52360   3.568   4.834   1.090 -0.0705  0.1376  0.3765
13714SOL    HW152361   3.627   4.881   1.155 -0.4557  0.5196  0.4500
13714SOL    HW252362   3.516   4.901   1.036 -0.9713 -0.2041  0.8079
13715SOL     OW52363   9.401   1.362   6.576  0.4692 -0.2796 -0.3082
13715SOL    HW152364   9.430   1.280   6.527 -1.2935 -1.4393  0.5779
13715SOL    HW252365   9.398   1.439   6.512  0.2088 -1.3244 -1.5776
13716SOL     OW52366   8.240   0.385   2.854  0.0298  0.3332  0.5174
13716SOL    HW152367   8.312   0.444   2.890  0.1095  1.0454 -0.7661
13716SOL    HW252368   8.259   0.364   2.758 -1.9518  1.3315 -0.1387
13717SOL     OW52369   6.990   0.128   5.626  0.0146 -0.0252  0.1090
13717SOL    HW152370   6.938   0.049   5.594 -0.3576  0.5887 -0.8057
13717SOL    HW252371   6.931   0.209   5.626 -0.0805 -0.0400  2.5668
13718SOL     OW52372   4.583   4.172   0.345 -0.1066  0.4011  0.3454
13718SOL    HW152373   4.658   4.188   0.280 -0.0913 -1.4356 -0.1074
13718SOL    HW252374   4.514   4.244   0.334  1.0116  1.4423 -0.0560
13719SOL     OW52375   3.985   4.039   5.851  0.6955 -0.5918 -0.7826
13719SOL    HW152376   3.991   4.131   5.891 -1.4392 -0.4649 -0.6546
13719SOL    HW252377   4.005   4.044   5.754 -3.7438  0.8829 -1.7647
13720SOL     OW52378   9.366   7.560   0.755 -0.0682  0.0730  0.0401
13720SOL    HW152379   9.407   7.624   0.690  0.5962 -0.1071  0.2811
13720SOL    HW252380   9.308   7.495   0.706 -1.9301  1.7669 -0.0645
13721SOL     OW52381   8.005   3.927   2.069  0.2282  0.4774  0.4446
13721SOL    HW152382   7.966   3.977   1.991 -0.1713 -1.0278 -0.3347
13721SOL    HW252383   8.095   3.893   2.045 -1.5830 -3.6325 -0.9287
13722SOL     OW52384   1.515   8.354   1.778 -0.2961  0.4106 -0.1934
13722SOL    HW152385   1.559   8.436   1.815  1.2462 -0.0192 -1.0603
13722SOL    HW252386   1.531   8.349   1.679  1.0377 -1.7973  0.1038
13723SOL     OW52387   7.144   8.648   4.156  0.5498 -0.2458  0.0278
13723SOL    HW152388   7.090   8.566   4.135 -1.5757  0.7661  1.2686
13723SOL    HW252389   7.099   8.698   4.231  1.8610  1.9833 -0.6415
13724SOL     OW52390   3.648   4.188   1.763 -0.0282  0.2016  0.4407
13724SOL    HW152391   3.553   4.185   1.730 -0.5420  0.2597  1.8697
13724SOL    HW252392   3.685   4.095   1.766 -0.0193  0.1866 -0.1950
13725SOL     OW52393   2.654   1.341   1.336 -0.6033 -0.5497 -0.3855
13725SOL    HW152394   2.562   1.327   1.299 -0.5739 -0.1995 -0.5969
13725SOL    HW252395   2.650   1.405   1.413 -0.5716 -0.7398 -0.2252
13726SOL     OW52396   3.089   2.241   3.571  0.2014 -0.0969 -0.5056
13726SOL    HW152397   3.097   2.272   3.666 -0.1548 -1.2712 -0.0802
13726SOL    HW252398   3.007   2.281   3.530  0.0381 -0.0522 -0.1374
13727SOL     OW52399   0.255   5.920   5.981  0.6396  0.2250  0.2623
13727SOL    HW152400   0.172   5.904   6.035  1.0511 -2.3704  0.1578
13727SOL    HW252401   0.230   5.923   5.884  0.3835  1.5551  0.3598
13728SOL     OW52402   9.021   6.620   0.688 -0.0763  0.1150 -0.3831
13728SOL    HW152403   9.047   6.716   0.688 -1.9531  0.6317  0.3994
13728SOL    HW252404   9.023   6.585   0.594  1.0238  0.7819 -0.6168
13729SOL     OW52405   0.396   3.773   4.490 -0.4671 -0.3867 -0.3585
13729SOL    HW152406   0.426   3.701   4.427  0.6732 -1.0726  0.9275
13729SOL    HW252407   0.394   3.861   4.443  1.0909 -0.7702 -1.1653
13730SOL     OW52408   7.338   3.025   4.867 -0.5252  0.2111 -0.6486
13730SOL    HW152409   7.263   3.002   4.806 -2.8395 -0.4630  2.3657
13730SOL    HW252410   7.361   2.946   4.924  0.2217  1.4099  0.7605
13731SOL     OW52411   2.227   9.197   0.959  0.3047  0.1043  0.2746
13731SOL    HW152412   2.304   9.259   0.975  0.4687  0.0900 -0.4652
13731SOL    HW252413   2.158   9.243   0.902  0.4675 -0.4257 -0.3540
13732SOL     OW52414   2.557   6.395   3.443  0.2608  0.3122 -0.0834
13732SOL    HW152415   2.610   6.408   3.360 -0.0155 -1.0894 -0.4846
13732SOL    HW252416   2.465   6.364   3.420  0.9382 -2.4954  0.8145
13733SOL     OW52417   4.196   5.107   0.601  0.1016 -0.2030  0.4264
13733SOL    HW152418   4.209   5.125   0.699  1.0855 -1.2180  0.4948
13733SOL    HW252419   4.105   5.137   0.573 -1.0141 -1.8762  2.1339
13734SOL     OW52420   8.601   7.045   2.345  0.3001 -0.9133  0.3731
13734SOL    HW152421   8.552   7.132   2.341 -0.9389 -1.4358  3.1476
13734SOL    HW252422   8.662   7.044   2.424  1.4578 -2.0251 -0.4944
13735SOL     OW52423   0.731   7.703   1.705  0.3036 -0.3462 -0.0993
13735SOL    HW152424   0.783   7.788   1.690 -0.0690 -0.1621 -0.3477
13735SOL    HW252425   0.784   7.642   1.765  0.4706  0.1606  0.2750
13736SOL     OW52426   1.263   4.760   1.700 -0.5353 -0.0632 -0.4898
13736SOL    HW152427   1.342   4.792   1.646 -1.6696  1.0506 -1.5232
13736SOL    HW252428   1.269   4.798   1.792 -0.3891  0.8604 -0.8714
13737SOL     OW52429   8.702   3.645   5.663  0.7519 -0.0242 -0.1585
13737SOL    HW152430   8.727   3.701   5.584  0.9029  0.1872  0.0365
13737SOL    HW252431   8.777   3.583   5.685  2.0428  2.0983  1.7465
13738SOL     OW52432   2.981   8.708   4.436  0.0668  0.1761 -0.3093
13738SOL    HW152433   2.902   8.680   4.490 -1.0042  1.7516 -1.0435
13738SOL    HW252434   3.030   8.781   4.484 -0.2808  0.8383 -0.9479
13739SOL     OW52435   7.033   2.104   5.471  0.6879 -0.2872  0.0986
13739SOL    HW152436   6.962   2.046   5.430  0.0254  1.7000 -1.6246
13739SOL    HW252437   7.116   2.101   5.414  0.6000  0.5611 -0.0822
13740SOL     OW52438   5.650   7.980   2.323 -0.3539 -0.4134  0.1925
13740SOL    HW152439   5.632   8.073   2.291 -0.7251 -0.4782  0.2093
13740SOL    HW252440   5.749   7.964   2.325 -0.2772  0.0578  0.4073
13741SOL     OW52441   7.070   8.301   3.620  0.2391 -0.1355  0.1884
13741SOL    HW152442   7.059   8.267   3.527 -0.7584 -0.5702  0.4559
13741SOL    HW252443   6.980   8.316   3.661  0.6485 -1.1305  1.5058
13742SOL     OW52444   2.164   9.015   0.521 -0.3368  0.1767 -0.3558
13742SOL    HW152445   2.075   9.023   0.476  0.1528  0.6682 -1.2411
13742SOL    HW252446   2.236   9.045   0.459  0.4200  0.1256  0.4843
13743SOL     OW52447   2.899   5.857   1.114 -0.1032  0.0389  0.0260
13743SOL    HW152448   2.850   5.933   1.156  0.1954  0.1934  0.0980
13743SOL    HW252449   2.871   5.847   1.019  0.6316  0.9103 -0.2898
13744SOL     OW52450   3.281   3.543   4.200  0.0738 -0.1420  0.3832
13744SOL    HW152451   3.273   3.643   4.205  1.3792 -0.1286  2.8179
13744SOL    HW252452   3.370   3.515   4.237 -0.7336 -2.2804  0.7593
13745SOL     OW52453   8.992   8.129   3.468 -0.1222 -0.0715 -0.3929
13745SOL    HW152454   8.908   8.078   3.490 -0.5223 -0.1653 -2.0771
13745SOL    HW252455   8.991   8.217   3.515 -0.1553 -0.9515  1.3056
13746SOL     OW52456   2.435   1.643   2.054  0.3601 -0.3055  0.2052
13746SOL    HW152457   2.532   1.618   2.064  0.9587  1.0961 -1.7195
13746SOL    HW252458   2.400   1.605   1.968 -0.8514 -0.9140  0.9513
13747SOL     OW52459   9.228   9.468   3.019  0.3585  0.0549  0.0007
13747SOL    HW152460   9.260   9.561   3.001 -0.2347  0.4205  0.8095
13747SOL    HW252461   9.145   9.450   2.967  0.2319  0.1259  0.1795
13748SOL     OW52462   1.690   3.921   1.997 -0.0433 -0.1927  0.0162
13748SOL    HW152463   1.605   3.870   1.979 -0.3608 -0.1296  1.2804
13748SOL    HW252464   1.757   3.860   2.039  0.5151 -0.2167 -0.8960
13749SOL     OW52465   3.686   6.871   4.035  0.3908  0.1687 -0.1470
13749SOL    HW152466   3.626   6.828   3.968  1.2162 -1.8502  0.3827
13749SOL    HW252467   3.753   6.804   4.068  0.7321  1.4400  1.8305
13750SOL     OW52468   9.010   3.300   3.314 -0.7969  0.2239  0.4407
13750SOL    HW152469   9.104   3.267   3.321 -0.1000  1.9508 -0.2129
13750SOL    HW252470   8.946   3.231   3.349  0.7600 -0.6670  1.5555
13751SOL     OW52471   8.157   1.144   2.497 -0.3831 -0.0549 -0.3301
13751SOL    HW152472   8.118   1.073   2.438 -0.6517 -0.2489  0.0783
13751SOL    HW252473   8.108   1.230   2.481  0.8418  0.3986 -1.8326
13752SOL     OW52474   1.040   3.219   0.760  0.0899 -0.1709 -0.3442
13752SOL    HW152475   1.037   3.309   0.804  0.2080 -0.4647  0.2670
13752SOL    HW252476   1.087   3.227   0.672 -0.6462  0.5242 -0.6805
13753SOL     OW52477   1.451   1.848   1.561  0.6291 -0.3375  0.0638
13753SOL    HW152478   1.443   1.804   1.651 -0.2018 -0.3533 -0.0150
13753SOL    HW252479   1.446   1.947   1.573 -0.5025 -0.3772 -0.0696
13754SOL     OW52480   8.638   1.467   2.229 -0.4252 -0.4587  0.1216
13754SOL    HW152481   8.621   1.387   2.286  2.0680  0.2137  1.8545
13754SOL    HW252482   8.693   1.440   2.149 -0.3131 -0.6188  0.2530
13755SOL     OW52483   3.719   1.529   5.318 -0.2950 -0.1262  0.0865
13755SOL    HW152484   3.683   1.556   5.407  0.7723  0.3657  0.3793
13755SOL    HW252485   3.782   1.452   5.330 -0.6236 -0.4656 -0.3271
13756SOL     OW52486   4.242   0.056   2.060  0.3248  0.1581 -0.2169
13756SOL    HW152487   4.317   0.101   2.109  0.1164  0.2312  0.0349
13756SOL    HW252488   4.279   0.010   1.979  0.6019  0.4155 -0.2394
13757SOL     OW52489   4.901   9.671   2.532  0.7035 -0.2269 -0.0547
13757SOL    HW152490   4.891   9.628   2.442  1.0101  0.1978 -0.2912
13757SOL    HW252491   4.970   9.621   2.585  0.6774 -0.3501 -0.1363
13758SOL     OW52492   4.242   8.711   2.236  0.5071  0.7074 -0.4892
13758SOL    HW152493   4.192   8.629   2.266  1.1805  0.2387 -0.6419
13758SOL    HW252494   4.328   8.717   2.286  0.4055  1.3908 -0.3962
13759SOL     OW52495   5.762   1.843   5.520 -0.2289  0.3619 -0.5085
13759SOL    HW152496   5.826   1.920   5.516  0.2077  0.1918  2.3185
13759SOL    HW252497   5.744   1.811   5.427  2.3501  1.5890 -1.5015
13760SOL     OW52498   2.896   7.224   1.970  0.3726  0.1542 -0.5871
13760SOL    HW152499   2.913   7.126   1.958  0.0754  0.4401 -3.6215
13760SOL    HW252500   2.973   7.276   1.935  0.6359  1.0281  1.2389
13761SOL     OW52501   0.831   5.530   6.598 -0.1998  0.0138  0.1761
13761SOL    HW152502   0.748   5.557   6.647  0.5048  0.3246  1.2217
13761SOL    HW252503   0.863   5.442   6.634 -0.4123 -0.4112 -0.6540
13762SOL     OW52504   2.014   8.213   5.458 -0.0395  0.1520 -0.2245
13762SOL    HW152505   1.942   8.248   5.399 -0.9157 -0.0100  0.7463
13762SOL    HW252506   1.981   8.134   5.508  0.5446  0.5841  0.8569
13763SOL     OW52507   8.311   1.018   2.831 -0.7294  0.1358  0.4335
13763SOL    HW152508   8.275   1.103   2.792 -0.3057  1.1557  2.2027
13763SOL    HW252509   8.312   1.025   2.930  0.4334 -1.4892  0.5545
13764SOL     OW52510   9.266   3.610   6.472 -0.2519  0.6031 -0.1916
13764SOL    HW152511   9.294   3.657   6.556 -2.9401  0.8740  0.6102
13764SOL    HW252512   9.224   3.523   6.496 -2.2243  1.2740 -1.1544
13765SOL     OW52513   9.048   7.552   6.415  0.4488 -0.2056  0.2592
13765SOL    HW152514   9.062   7.520   6.509  1.7045 -1.3487 -0.2977
13765SOL    HW252515   9.134   7.543   6.364 -0.1994  0.5115 -0.9711
13766SOL     OW52516   2.810   8.736   4.683  0.5079 -0.6620  0.0171
13766SOL    HW152517   2.727   8.737   4.739  1.3678 -2.2105  1.3818
13766SOL    HW252518   2.853   8.646   4.690  2.2184  0.0798 -0.7877
13767SOL     OW52519   0.711   0.298   0.228  0.4852 -0.3594 -0.4211
13767SOL    HW152520   0.715   0.198   0.237 -0.2366 -0.3347  0.2469
13767SOL    HW252521   0.756   0.340   0.307 -0.8023 -0.1565  0.2148
13768SOL     OW52522   2.473   8.193   2.006 -0.2868 -0.2847  0.8725
13768SOL    HW152523   2.390   8.167   2.055 -0.3262  0.3636  1.1590
13768SOL    HW252524   2.448   8.235   1.918 -0.3908  2.5072  2.1773
13769SOL     OW52525   3.745   8.293   5.023  0.0005  0.1897 -0.0415
13769SOL    HW152526   3.793   8.328   4.943 -1.0271  0.6781 -0.4640
13769SOL    HW252527   3.810   8.273   5.096  1.0999 -1.3920 -1.4008
13770SOL     OW52528   6.079   1.391   4.128  0.5455  0.0446 -0.1890
13770SOL    HW152529   5.985   1.394   4.094  0.8128  2.7157 -0.7740
13770SOL    HW252530   6.080   1.351   4.220 -1.1304 -0.2311 -0.2767
13771SOL     OW52531   8.086   4.385   4.423 -0.3279  0.4457 -0.4080
13771SOL    HW152532   8.045   4.436   4.499  0.3069  0.5255 -0.1158
13771SOL    HW252533   8.088   4.288   4.447 -0.9742  0.3536 -0.7093
13772SOL     OW52534   3.263   4.177   0.265 -0.3349  0.2611  0.0904
13772SOL    HW152535   3.326   4.185   0.342 -0.2818 -0.7582  0.1651
13772SOL    HW252536   3.294   4.235   0.190  0.2130  0.4197  0.4402
13773SOL     OW52537   7.203   0.792   1.044  0.3671 -0.3723 -0.0854
13773SOL    HW152538   7.147   0.733   1.102 -0.5132  0.8325  0.3126
13773SOL    HW252539   7.265   0.846   1.101 -1.2607  1.6243 -0.1193
13774SOL     OW52540   4.931   0.507   2.966  0.3692  0.1673 -0.0330
13774SOL    HW152541   4.908   0.429   2.908  3.4054 -1.9483  1.5215
13774SOL    HW252542   4.983   0.574   2.913  0.7011 -0.4427 -0.4709
13775SOL     OW52543   7.682   5.531   5.502  0.1786 -0.1778 -0.3694
13775SOL    HW152544   7.593   5.556   5.539  0.7876  0.0586  0.9606
13775SOL    HW252545   7.677   5.530   5.402 -0.4428  3.0770 -0.4335
13776SOL     OW52546   7.669   3.692   1.779  0.0012 -0.0256  0.0087
13776SOL    HW152547   7.761   3.690   1.816  0.1381 -0.1137 -0.3317
13776SOL    HW252548   7.621   3.608   1.804 -0.1169  0.1892  0.5100
13777SOL     OW52549   1.088   0.591   2.947 -0.4093  0.2004  0.4217
13777SOL    HW152550   1.083   0.519   3.016 -1.3052 -0.1252  0.0430
13777SOL    HW252551   1.097   0.680   2.991 -1.4072  0.0377  0.9821
13778SOL     OW52552   4.976   6.941   1.874  0.3769  0.3812  0.0945
13778SOL    HW152553   5.009   6.847   1.868 -2.0135 -0.5555  0.7744
13778SOL    HW252554   4.878   6.943   1.853  0.6877  2.9455 -1.4145
13779SOL     OW52555   2.550   0.629   5.979 -0.5342 -0.0872  0.1299
13779SOL    HW152556   2.532   0.713   5.928  3.0333  0.5668 -0.1841
13779SOL    HW252557   2.517   0.551   5.926 -0.8002  0.8841 -1.1781
13780SOL     OW52558   8.420   1.154   2.445  0.3259 -0.9055  0.4780
13780SOL    HW152559   8.451   1.109   2.529 -0.9831  0.4217  1.6993
13780SOL    HW252560   8.320   1.152   2.442  0.2264  2.2073  0.7298
13781SOL     OW52561   5.531   9.198   5.425  0.2965 -0.4650  0.6406
13781SOL    HW152562   5.481   9.111   5.425 -2.1565  0.8962  0.5857
13781SOL    HW252563   5.468   9.271   5.451  1.8314  1.5778 -1.2943
13782SOL     OW52564   9.433   6.523   1.322  0.1479 -0.2385 -0.4347
13782SOL    HW152565   9.516   6.537   1.268 -0.0877 -1.1064 -1.0286
13782SOL    HW252566   9.447   6.449   1.388 -0.5265 -1.2168 -1.3606
13783SOL     OW52567   1.866   8.485   1.739  0.1588 -0.5601 -0.2196
13783SOL    HW152568   1.874   8.393   1.700 -1.4144 -0.4132 -0.9005
13783SOL    HW252569   1.945   8.502   1.798  0.6393 -2.2222 -0.3452
13784SOL     OW52570   7.501   7.671   4.877  0.1133  0.1015 -0.3833
13784SOL    HW152571   7.498   7.646   4.780 -0.5231  1.3727 -0.6975
13784SOL    HW252572   7.550   7.757   4.889 -0.0556  0.1014  0.3937
13785SOL     OW52573   5.085   8.346   1.733  0.2710  0.4544 -0.2619
13785SOL    HW152574   5.023   8.268   1.747  1.2788 -0.1148  1.2089
13785SOL    HW252575   5.177   8.312   1.715  1.0514  1.2899  2.0164
13786SOL     OW52576   4.695   7.322   3.223 -0.4113  0.1523  0.6318
13786SOL    HW152577   4.649   7.304   3.136 -0.8597  1.1237  0.6708
13786SOL    HW252578   4.664   7.409   3.261  0.6604  0.3022  1.1857
13787SOL     OW52579   1.232   2.107   2.347 -0.4727 -0.1806  0.5057
13787SOL    HW152580   1.238   2.206   2.361 -0.1648 -0.4360  2.3248
13787SOL    HW252581   1.273   2.083   2.259  0.8161  1.1503  0.7203
13788SOL     OW52582   8.904   5.127   3.768  0.4952 -0.0028 -0.3288
13788SOL    HW152583   8.985   5.106   3.823  1.2338 -2.4697 -2.2931
13788SOL    HW252584   8.863   5.043   3.734 -1.6669  1.3294 -1.1438
13789SOL     OW52585   3.187   3.889   3.732  0.2870 -0.4708  0.5409
13789SOL    HW152586   3.271   3.852   3.690 -0.6948 -0.4830 -1.4727
13789SOL    HW252587   3.123   3.814   3.749  0.2481 -0.3192  1.0752
13790SOL     OW52588   0.022   3.082   1.481  0.2066  0.0701  0.0767
13790SOL    HW152589   0.066   3.067   1.570  0.4359 -1.8857 -0.3499
13790SOL    HW252590   0.090   3.116   1.416  0.2116  0.7584  0.4364
13791SOL     OW52591   0.593   4.617   2.385  0.3272 -0.2785 -0.2263
13791SOL    HW152592   0.543   4.558   2.322 -0.3050  0.5918 -0.5449
13791SOL    HW252593   0.620   4.701   2.338  0.5721  0.0097  0.4267
13792SOL     OW52594   8.253   5.971   3.298  0.4284 -0.3389 -0.0496
13792SOL    HW152595   8.213   5.989   3.208 -1.9112  0.8695  1.1851
13792SOL    HW252596   8.261   6.057   3.348 -1.3597 -1.4163  2.1294
13793SOL     OW52597   2.355   0.828   4.965 -0.9488 -0.3757  0.3207
13793SOL    HW152598   2.326   0.733   4.976 -1.1208 -0.6033 -1.9156
13793SOL    HW252599   2.442   0.842   5.012 -0.7958 -1.6916  0.4447
13794SOL     OW52600   7.187   2.494   4.721  0.1987 -0.6773 -0.3749
13794SOL    HW152601   7.115   2.477   4.653  0.5837 -0.6666 -0.7848
13794SOL    HW252602   7.275   2.500   4.675  0.2867  0.7764 -0.0414
13795SOL     OW52603   7.509   9.525   2.167 -0.5968 -0.3686  0.2461
13795SOL    HW152604   7.545   9.608   2.125 -1.4112  0.3361  0.9404
13795SOL    HW252605   7.518   9.449   2.103 -1.0032  0.5085 -0.8752
13796SOL     OW52606   2.168   6.011   4.557 -0.1437  0.0984  0.6236
13796SOL    HW152607   2.247   5.953   4.574 -0.6250 -0.7660 -0.0929
13796SOL    HW252608   2.197   6.096   4.513  0.2795 -0.5773 -0.3911
13797SOL     OW52609   3.096   4.431   2.632  0.3454 -0.0752 -0.0438
13797SOL    HW152610   3.138   4.514   2.669  0.2063 -1.1587  2.6831
13797SOL    HW252611   3.151   4.352   2.657  0.0888 -0.8909 -1.9908
13798SOL     OW52612   1.602   0.727   1.830  0.1933 -0.3349 -0.1490
13798SOL    HW152613   1.556   0.777   1.903 -0.7028  1.2407 -1.7620
13798SOL    HW252614   1.647   0.646   1.869 -2.0316 -0.7073  1.8176
13799SOL     OW52615   2.741   1.290   6.229 -0.3123 -0.2097  0.4884
13799SOL    HW152616   2.723   1.207   6.176  0.5452 -0.9412  1.3094
13799SOL    HW252617   2.717   1.274   6.325 -1.5429  0.9931  0.4008
13800SOL     OW52618   4.174   0.437   1.197 -0.8599  0.1335 -0.1493
13800SOL    HW152619   4.228   0.403   1.120 -0.1523  0.2448  0.2906
13800SOL    HW252620   4.078   0.442   1.171 -0.7920 -0.9968 -0.6198
13801SOL     OW52621   7.874   7.458   6.713 -0.1629 -0.4452 -0.4480
13801SOL    HW152622   7.959   7.471   6.764 -0.5348 -0.5650  0.2007
13801SOL    HW252623   7.816   7.391   6.760  0.3053 -1.9976 -2.0165
13802SOL     OW52624   9.990   5.075   4.321  0.0943  0.7531 -0.0672
13802SOL    HW152625  10.012   4.977   4.324 -0.0112  0.7389  0.3195
13802SOL    HW252626  10.066   5.125   4.281  0.7914  0.6840  1.1311
13803SOL     OW52627   5.286   8.859   5.159 -0.1169 -0.4855 -0.0898
13803SOL    HW152628   5.371   8.808   5.145  0.4114  0.2903  0.2590
13803SOL    HW252629   5.216   8.825   5.096  0.5529 -0.9067 -0.6135
13804SOL     OW52630   0.891   7.344   5.370 -0.1444  0.3471 -0.2639
13804SOL    HW152631   0.855   7.297   5.290  1.1834 -0.4929 -0.3886
13804SOL    HW252632   0.981   7.382   5.348  0.3399 -0.1110  0.8903
13805SOL     OW52633   8.255   7.078   3.640 -0.2020 -0.6455  0.2988
13805SOL    HW152634   8.321   7.126   3.698 -0.4855  0.2067 -0.0769
13805SOL    HW252635   8.222   6.997   3.688 -0.0830 -0.2025  1.1466
13806SOL     OW52636   8.110   5.178   6.359  0.1347 -0.0875  0.4694
13806SOL    HW152637   8.022   5.146   6.395  0.4728  0.8832  2.1974
13806SOL    HW252638   8.184   5.139   6.413  0.6775  1.0390  0.5461
13807SOL     OW52639   1.467   5.795   2.462 -0.3194  0.2473 -0.7275
13807SOL    HW152640   1.564   5.809   2.442 -1.0077  2.2536 -2.8446
13807SOL    HW252641   1.417   5.881   2.454 -2.1351 -0.5233  1.4455
13808SOL     OW52642   8.508   8.920   2.931  0.2370  0.0684 -0.0609
13808SOL    HW152643   8.461   8.954   2.850  0.0531 -1.1953 -0.5014
13808SOL    HW252644   8.600   8.959   2.936 -0.2173  1.1633 -0.1619
13809SOL     OW52645   9.081   6.009   5.532  0.7553  0.0180  0.0942
13809SOL    HW152646   9.123   6.036   5.445  0.2958  0.7326  0.0858
13809SOL    HW252647   9.119   6.065   5.606 -1.2082  1.6979 -0.1141
13810SOL     OW52648   0.411   9.778   1.671 -0.0868  0.0745 -0.3444
13810SOL    HW152649   0.482   9.781   1.601  0.2385 -0.1698 -0.0295
13810SOL    HW252650   0.376   9.685   1.680 -0.0289  0.0757 -0.0875
13811SOL     OW52651   1.315   1.577   0.270  0.2828  0.1672 -0.3564
13811SOL    HW152652   1.254   1.653   0.250 -0.7119  0.1787  2.5054
13811SOL    HW252653   1.410   1.609   0.266 -0.0958  1.3672  0.0961
13812SOL     OW52654   1.979   0.376   2.959  0.3139 -0.2733 -0.2038
13812SOL    HW152655   1.964   0.409   2.866  0.3490  0.0754 -0.0868
13812SOL    HW252656   1.902   0.318   2.986  1.0753 -1.7176 -1.0374
13813SOL     OW52657   0.763   2.567   4.084  0.2881  0.4766  0.6928
13813SOL    HW152658   0.819   2.571   4.168  1.7672  0.2945 -0.2617
13813SOL    HW252659   0.700   2.644   4.083 -0.1354  0.1712  2.2486
13814SOL     OW52660   9.971   3.800   3.951 -0.0798  0.4257  0.4680
13814SOL    HW152661   9.967   3.707   3.987  1.6171  0.1234 -0.0986
13814SOL    HW252662   9.902   3.811   3.880  1.4773 -1.2542 -1.3780
13815SOL     OW52663   0.071   9.977   5.913 -0.4737  0.0184  0.4900
13815SOL    HW152664   0.013   9.897   5.899  0.0999 -0.5162  1.1703
13815SOL    HW252665   0.167   9.952   5.900 -0.4345  1.0976 -1.4920
13816SOL     OW52666   3.152   0.878   1.528  0.5335  0.4478 -0.3036
13816SOL    HW152667   3.115   0.787   1.545  0.5232  0.4587 -0.2677
13816SOL    HW252668   3.079   0.937   1.492  0.4407  0.5549  0.0556
13817SOL     OW52669   4.435   2.442   5.816  0.2316 -0.2909 -0.4078
13817SOL    HW152670   4.473   2.406   5.901  0.6979 -2.1204 -1.3464
13817SOL    HW252671   4.338   2.461   5.828  0.2684 -0.6568  0.5116
13818SOL     OW52672   4.132   2.950   3.288 -0.1112 -0.3523 -0.1836
13818SOL    HW152673   4.216   2.943   3.234  0.1393  1.7303 -0.0993
13818SOL    HW252674   4.064   2.884   3.253  1.0490 -1.0529 -1.1537
13819SOL     OW52675   2.919   1.822   6.474 -0.4797 -0.0589 -0.5971
13819SOL    HW152676   2.890   1.884   6.546  0.7280 -0.3913  0.1940
13819SOL    HW252677   2.843   1.806   6.411 -1.1942  1.1532 -0.0604
13820SOL     OW52678   4.628   5.958   2.106 -0.3322 -0.3750 -0.0111
13820SOL    HW152679   4.664   6.047   2.133 -0.6046  0.1230 -1.2249
13820SOL    HW252680   4.538   5.970   2.064 -0.2524 -1.1938 -0.4348
13821SOL     OW52681   5.384   0.163   1.977  0.2008  0.5687  0.5535
13821SOL    HW152682   5.354   0.258   1.968  0.1575  0.4910 -0.1898
13821SOL    HW252683   5.453   0.156   2.048  1.3519  1.4284 -0.4528
13822SOL     OW52684   8.015   5.606   0.814 -0.6903 -0.6447  0.2301
13822SOL    HW152685   7.998   5.549   0.733 -1.6704  0.8685 -0.6642
13822SOL    HW252686   8.062   5.690   0.785  0.5134 -0.8751  1.4918
13823SOL     OW52687   4.185   0.926   5.848 -0.0858  0.2124 -0.1972
13823SOL    HW152688   4.135   0.845   5.817  1.4474 -0.6745 -0.3610
13823SOL    HW252689   4.219   0.976   5.768 -1.8498  1.5659 -0.1380
13824SOL     OW52690   2.972   4.782   0.079  0.3186 -0.0211  0.2381
13824SOL    HW152691   2.964   4.741   0.170  0.0593  0.2737  0.3518
13824SOL    HW252692   2.991   4.711   0.011 -0.0744 -0.3243  0.4385
13825SOL     OW52693   2.252   1.016   0.257 -0.5563  0.1908 -0.6222
13825SOL    HW152694   2.338   1.063   0.237  0.2871 -1.9932 -2.2942
13825SOL    HW252695   2.234   1.020   0.355  1.2712  0.9877 -0.3031
13826SOL     OW52696   1.783   9.809   4.083  0.1774 -0.6055  0.2460
13826SOL    HW152697   1.806   9.849   3.994 -2.7469 -0.3366 -0.4465
13826SOL    HW252698   1.793   9.878   4.154  2.3897 -0.7793  0.1597
13827SOL     OW52699   1.723   2.259   4.029  0.5880 -0.1112 -0.3909
13827SOL    HW152700   1.783   2.270   4.109 -1.2509 -0.4897  1.0728
13827SOL    HW252701   1.742   2.332   3.963  3.3351 -0.7838 -0.4355
13828SOL     OW52702   2.588   7.069   2.948  0.3395 -0.3133 -0.5310
13828SOL    HW152703   2.671   7.100   2.995  0.2532 -1.1576  0.1941
13828SOL    HW252704   2.521   7.143   2.946  0.1919 -0.3847  1.0353
13829SOL     OW52705   9.871   3.305   1.779  0.4643 -0.1756 -0.1438
13829SOL    HW152706   9.887   3.372   1.851 -0.0548 -0.1236 -0.0734
13829SOL    HW252707   9.779   3.266   1.789  0.2399  0.1126 -1.0029
13830SOL     OW52708   9.038   3.684   2.463  0.7177  0.7618 -0.1889
13830SOL    HW152709   9.053   3.759   2.398 -0.4856 -0.1464 -1.5347
13830SOL    HW252710   8.969   3.711   2.530 -0.8122  0.3406 -1.5663
13831SOL     OW52711   8.877   4.354   1.665 -0.6283 -0.3888 -0.1587
13831SOL    HW152712   8.856   4.414   1.588  1.6664  0.7816  0.1176
13831SOL    HW252713   8.811   4.370   1.738 -0.7566  0.9130 -0.5524
13832SOL     OW52714   2.298   7.240   1.462 -0.3850  0.4757 -0.3876
13832SOL    HW152715   2.351   7.155   1.454 -0.7690  0.2391 -0.3936
13832SOL    HW252716   2.354   7.310   1.507 -0.8063 -0.4230  1.5958
13833SOL     OW52717   3.027   5.656   2.001 -0.1841  0.1484  0.1996
13833SOL    HW152718   2.994   5.713   2.076  2.0115  1.4780  0.1956
13833SOL    HW252719   3.120   5.626   2.021  0.6404  0.9881 -2.2598
13834SOL     OW52720   0.767   1.581   4.947 -0.4716 -0.6403 -0.1819
13834SOL    HW152721   0.764   1.583   5.047 -0.9084  0.9564 -0.2099
13834SOL    HW252722   0.862   1.587   4.916 -0.3607 -0.7403  0.1440
13835SOL     OW52723   8.860   7.156   4.498 -0.4486  0.2893 -0.2398
13835SOL    HW152724   8.941   7.121   4.545 -0.3169  0.0838 -0.6172
13835SOL    HW252725   8.841   7.249   4.529  0.7784  0.8690 -1.2119
13836SOL     OW52726   9.935   3.843   4.406  0.7004 -0.5102 -0.1540
13836SOL    HW152727   9.907   3.918   4.466 -1.2658  0.1627 -1.8928
13836SOL    HW252728   9.940   3.758   4.459 -0.5620  0.1637  1.0517
13837SOL     OW52729   7.442   3.273   3.945  0.8043 -0.2031 -0.0678
13837SOL    HW152730   7.541   3.277   3.932  0.9626 -0.0593  1.0676
13837SOL    HW252731   7.398   3.235   3.863  1.6748  0.8998 -1.0524
13838SOL     OW52732   4.370   0.594   4.622  0.4575  0.1459 -0.1646
13838SOL    HW152733   4.398   0.657   4.550  0.5170  1.5591  1.0552
13838SOL    HW252734   4.274   0.611   4.646  0.9744  0.9788  1.3686
13839SOL     OW52735   6.344   0.034   1.664 -0.5342  0.2897 -0.5835
13839SOL    HW152736   6.381  -0.038   1.723  0.6477  1.7814  0.5563
13839SOL    HW252737   6.399   0.040   1.580 -0.6703 -0.1716 -0.7058
13840SOL     OW52738   2.228   9.178   6.574 -0.1222  0.1232  0.6805
13840SOL    HW152739   2.308   9.229   6.544  0.6783 -0.1828  2.2093
13840SOL    HW252740   2.249   9.132   6.661 -0.5332 -3.4660 -1.0352
13841SOL     OW52741   4.225   1.081   5.606 -0.6878  0.0877  0.4124
13841SOL    HW152742   4.239   1.117   5.514  1.1052 -0.1605  0.5879
13841SOL    HW252743   4.249   1.151   5.674  0.1704 -0.5075  0.7223
13842SOL     OW52744   2.805   7.925   3.274 -0.5704 -0.2979 -0.6608
13842SOL    HW152745   2.888   7.921   3.218 -0.8087 -0.9941 -0.9728
13842SOL    HW252746   2.787   8.019   3.300  0.9300 -0.2753  0.3210
13843SOL     OW52747   2.516   2.620   6.359  0.0697  0.4107 -0.1952
13843SOL    HW152748   2.550   2.646   6.268  2.7653  0.1188  0.6754
13843SOL    HW252749   2.491   2.702   6.410  1.4263  0.7888 -0.1273
13844SOL     OW52750   2.547   2.077   3.880 -0.0478  0.5125 -0.0385
13844SOL    HW152751   2.585   1.985   3.892 -0.7668  0.2388  0.1169
13844SOL    HW252752   2.452   2.071   3.853 -0.6875  1.2246  1.9514
13845SOL     OW52753   1.295   3.698   1.743 -0.0687  0.5158  0.0239
13845SOL    HW152754   1.305   3.728   1.648 -0.1181  1.1484  0.2128
13845SOL    HW252755   1.278   3.600   1.746  0.0320  0.4788 -0.6172
13846SOL     OW52756   0.074   2.459   1.530  0.1243  0.0192  0.6026
13846SOL    HW152757   0.081   2.433   1.626  1.1542  1.8266  1.0341
13846SOL    HW252758   0.152   2.421   1.479 -0.1281 -0.4715  0.5744
13847SOL     OW52759   2.305   2.586   4.417  0.1443  0.2829 -0.3036
13847SOL    HW152760   2.302   2.602   4.319  0.4894 -0.4541 -0.4362
13847SOL    HW252761   2.320   2.673   4.465 -1.4811  0.8686 -0.8078
13848SOL     OW52762   0.282   5.463   1.358  0.0349 -0.6519  0.1262
13848SOL    HW152763   0.286   5.482   1.260  1.7989 -1.4257  0.0467
13848SOL    HW252764   0.238   5.374   1.373  1.3047 -1.3140 -0.0565
13849SOL     OW52765   1.046   0.096   1.795 -0.0336 -0.0572 -0.6097
13849SOL    HW152766   0.957   0.062   1.764  0.0706  0.4261 -1.4467
13849SOL    HW252767   1.112   0.090   1.720  0.2227  1.1455 -0.4910
13850SOL     OW52768   8.525   8.549   4.550  0.1026 -0.1015 -0.0609
13850SOL    HW152769   8.554   8.575   4.642  0.2124 -2.4671  0.6162
13850SOL    HW252770   8.605   8.532   4.493  0.0489  2.1564 -0.8827
13851SOL     OW52771   1.747   3.276   5.135  0.1827 -0.3004 -0.2421
13851SOL    HW152772   1.844   3.298   5.149 -0.1287  1.1586 -0.2505
13851SOL    HW252773   1.694   3.361   5.134 -1.5028 -1.2272  2.8160
13852SOL     OW52774   1.475   2.614   1.068 -0.1049 -0.2607  0.0474
13852SOL    HW152775   1.443   2.654   1.154 -0.4162 -1.6668  0.5949
13852SOL    HW252776   1.475   2.684   0.996 -1.3682  0.5203  0.8012
13853SOL     OW52777   8.572   7.871   0.872 -0.2096  0.1544  0.0217
13853SOL    HW152778   8.548   7.872   0.969  0.7997  0.8209  0.2680
13853SOL    HW252779   8.525   7.795   0.827  0.2740 -0.9012  1.2693
13854SOL     OW52780   4.618   3.400   4.439 -0.0296 -0.3151  0.0851
13854SOL    HW152781   4.621   3.496   4.467 -0.2996 -0.0840 -0.6601
13854SOL    HW252782   4.542   3.354   4.484  0.8740 -0.5047  1.4413
13855SOL     OW52783   1.154   8.784   0.453  0.0432  0.1796 -0.0657
13855SOL    HW152784   1.121   8.767   0.547  1.6641 -2.7250  0.0324
13855SOL    HW252785   1.252   8.801   0.455  0.4040 -1.5704 -1.3627
13856SOL     OW52786   8.773   8.719   1.233 -0.0564 -0.2057  0.2708
13856SOL    HW152787   8.716   8.637   1.232  1.7804 -1.5340  0.3416
13856SOL    HW252788   8.808   8.734   1.326  1.5493 -0.7704 -0.2183
13857SOL     OW52789   9.879   8.547   5.218 -0.4074 -0.2123 -0.1248
13857SOL    HW152790   9.965   8.571   5.263 -0.9486 -0.4844  1.0683
13857SOL    HW252791   9.862   8.611   5.143  0.5905  0.1358 -0.0627
13858SOL     OW52792   1.380   3.747   4.510 -0.5186 -0.1473  0.0345
13858SOL    HW152793   1.326   3.665   4.492 -0.5093  0.4303 -2.7903
13858SOL    HW252794   1.412   3.786   4.424  1.9624  1.1835  1.4992
13859SOL     OW52795   2.776   8.839   3.585  0.4595  0.0817  0.4801
13859SOL    HW152796   2.748   8.934   3.594  0.1973  0.2475 -1.7852
13859SOL    HW252797   2.695   8.779   3.588  0.5376 -0.0050  0.9558
13860SOL     OW52798   8.114   1.012   0.136  0.3668 -0.8196 -0.7578
13860SOL    HW152799   8.173   0.994   0.215  0.1307 -0.1214 -0.4147
13860SOL    HW252800   8.047   0.939   0.127 -1.8333  0.7981  1.7707
13861SOL     OW52801   9.100   7.483   6.677 -0.3713 -0.1539 -0.6965
13861SOL    HW152802   9.030   7.476   6.747  0.6630  0.5692  0.4202
13861SOL    HW252803   9.135   7.392   6.656 -0.4268 -0.3335 -0.0144
13862SOL     OW52804   5.486   8.153   4.964 -0.5033 -0.4056  0.0138
13862SOL    HW152805   5.564   8.182   5.018 -2.3044  1.2515  1.8147
13862SOL    HW252806   5.488   8.053   4.953  0.8753 -0.5737  1.6093
13863SOL     OW52807   2.836   2.835   4.117  0.0427 -0.0131 -0.1860
13863SOL    HW152808   2.791   2.809   4.202  1.2856 -1.8441 -0.0553
13863SOL    HW252809   2.768   2.847   4.045 -0.7120 -2.6519  0.0316
13864SOL     OW52810   8.226   9.080   6.524  0.2433 -0.1738 -0.2946
13864SOL    HW152811   8.321   9.066   6.495  0.0134  0.2541 -1.2903
13864SOL    HW252812   8.178   8.992   6.523  1.2347 -0.7755  2.4970
13865SOL     OW52813   9.419   9.733   5.904 -0.9819  0.6830 -0.2956
13865SOL    HW152814   9.477   9.772   5.975 -0.4830  0.6332 -0.6719
13865SOL    HW252815   9.412   9.634   5.916 -0.0987  0.5414 -0.8814
13866SOL     OW52816   3.636   6.096   2.567  0.7103  0.7805  0.0162
13866SOL    HW152817   3.662   6.051   2.482  3.1154  1.2472  0.4432
13866SOL    HW252818   3.653   6.195   2.559  0.5492  0.8814  0.8709
13867SOL     OW52819   2.255   5.042   5.435  0.1128 -0.2889 -0.2690
13867SOL    HW152820   2.255   5.107   5.359 -1.9743 -0.9007 -0.8223
13867SOL    HW252821   2.163   5.004   5.447  0.8536 -1.6650  1.3146
13868SOL     OW52822   2.436   0.483   5.086  0.1842 -0.2728 -0.0431
13868SOL    HW152823   2.413   0.549   5.159  1.1735  0.1681 -0.1276
13868SOL    HW252824   2.422   0.390   5.120 -1.5672 -0.0352 -0.0283
13869SOL     OW52825   0.565   4.930   4.278 -0.1435 -0.1510  0.0160
13869SOL    HW152826   0.665   4.928   4.287 -0.0388 -0.9715 -1.2729
13869SOL    HW252827   0.526   4.847   4.316 -0.4396  0.6652  1.5428
13870SOL     OW52828   2.365   1.981   6.584  0.2846 -0.5359  0.4536
13870SOL    HW152829   2.439   2.015   6.526  0.3037  0.0762  0.8297
13870SOL    HW252830   2.280   1.978   6.532  0.4085 -0.4888  0.2469
13871SOL     OW52831   9.361   8.645   0.510 -0.0329 -0.3194 -0.0443
13871SOL    HW152832   9.426   8.644   0.434 -0.1970  0.7634 -0.2108
13871SOL    HW252833   9.408   8.676   0.593  0.1334 -1.4537  0.2821
13872SOL     OW52834   3.911   3.602   0.836 -0.1822 -0.2522  0.1116
13872SOL    HW152835   3.838   3.545   0.799  0.3116  0.2279 -1.6551
13872SOL    HW252836   3.943   3.665   0.765  0.2252  1.2794  1.6120
13873SOL     OW52837   1.239   0.606   1.568  0.4296  0.0232 -0.1199
13873SOL    HW152838   1.318   0.657   1.603 -0.0750  1.3129 -0.8306
13873SOL    HW252839   1.169   0.600   1.639 -0.3565  2.1357 -0.6936
13874SOL     OW52840   6.583   7.582   4.387 -0.0553  0.4341  0.5898
13874SOL    HW152841   6.599   7.655   4.453  2.6024  0.0853  0.3498
13874SOL    HW252842   6.615   7.611   4.297 -2.6160  0.4662 -0.3678
13875SOL     OW52843   6.024   9.938   5.280 -0.5792  0.2319  0.0215
13875SOL    HW152844   6.109   9.886   5.265  0.7803  2.0803  1.1092
13875SOL    HW252845   5.969   9.892   5.349 -1.0876 -1.6767 -1.6182
13876SOL     OW52846   6.600   5.226   6.198 -0.0544 -0.4772  0.2712
13876SOL    HW152847   6.539   5.211   6.276  0.8672 -0.4837  0.9999
13876SOL    HW252848   6.636   5.319   6.202  2.0299 -1.2969  1.3186
13877SOL     OW52849   4.337   0.551   0.528 -0.1639 -0.2834 -0.3305
13877SOL    HW152850   4.298   0.559   0.619 -0.3363  0.3327 -0.4580
13877SOL    HW252851   4.436   0.565   0.532 -0.2925  0.6494 -0.3686
13878SOL     OW52852   7.788   2.130   4.598 -0.0339 -0.1518 -0.2324
13878SOL    HW152853   7.804   2.104   4.693  0.9341 -0.7777 -0.5608
13878SOL    HW252854   7.859   2.195   4.569  0.6685 -1.2613 -1.0334
13879SOL     OW52855   8.932   6.387   2.500  0.0509 -0.0376 -0.1113
13879SOL    HW152856   8.868   6.458   2.471 -0.2085 -0.5353 -0.7813
13879SOL    HW252857   8.884   6.319   2.555  0.1083 -0.1339 -0.1786
13880SOL     OW52858   7.815   7.753   4.693  0.4123 -0.1486 -0.7660
13880SOL    HW152859   7.882   7.679   4.690 -0.1680 -0.6896 -0.5632
13880SOL    HW252860   7.854   7.835   4.652  0.8812 -0.7185 -1.4722
13881SOL     OW52861   6.752   9.244   3.245  0.2484 -0.0647 -0.1881
13881SOL    HW152862   6.773   9.326   3.192  1.5129 -0.2597 -0.0171
13881SOL    HW252863   6.702   9.179   3.187 -0.7862  0.8304 -0.3073
13882SOL     OW52864   5.113   1.425   0.264  1.1119 -0.2757  0.3093
13882SOL    HW152865   5.209   1.449   0.281  1.7970 -1.6559 -1.4037
13882SOL    HW252866   5.089   1.345   0.319  0.3799  1.1664  2.1147
13883SOL     OW52867   3.152   0.070   2.036  0.2857 -0.1782  0.1420
13883SOL    HW152868   3.185  -0.012   1.990 -0.4636  0.7300 -2.1105
13883SOL    HW252869   3.052   0.069   2.038  0.3154 -0.3094  1.9788
13884SOL     OW52870   1.282   2.110   4.084  0.7434  0.3595  0.9965
13884SOL    HW152871   1.222   2.032   4.069  0.7737  0.0662  2.3450
13884SOL    HW252872   1.235   2.194   4.055  0.6295 -0.1146 -0.2337
13885SOL     OW52873   3.522   2.798   4.092  0.1675  0.5915 -0.5933
13885SOL    HW152874   3.564   2.874   4.043  0.9224  0.6334  0.1300
13885SOL    HW252875   3.583   2.719   4.091  0.1813  0.5910  0.2928
13886SOL     OW52876   4.600   8.608   4.883 -0.0086  0.3029  0.5181
13886SOL    HW152877   4.598   8.588   4.981  2.0750  0.7069  0.6801
13886SOL    HW252878   4.647   8.534   4.834  0.3444  0.8360  0.0382
13887SOL     OW52879   0.795   0.474   5.498  0.0263 -0.2167  0.4688
13887SOL    HW152880   0.879   0.506   5.454 -0.7632 -1.4331 -2.0410
13887SOL    HW252881   0.717   0.524   5.461 -0.5211 -0.2157  1.6057
13888SOL     OW52882   1.706   4.434   2.256  0.7796 -0.1632  0.1751
13888SOL    HW152883   1.800   4.400   2.251  1.7546  2.6540 -2.1554
13888SOL    HW252884   1.707   4.528   2.290 -1.2217 -0.0254 -0.0798
13889SOL     OW52885   0.341   9.276   2.469 -0.3580 -0.4053  0.4639
13889SOL    HW152886   0.279   9.204   2.438 -2.3422  0.6156  1.9213
13889SOL    HW252887   0.293   9.364   2.468  1.8712  0.8534 -0.8015
13890SOL     OW52888   2.504   4.309   4.893 -0.1610  0.1095 -0.1060
13890SOL    HW152889   2.494   4.214   4.923 -1.9129  0.7024  1.2184
13890SOL    HW252890   2.470   4.318   4.799 -0.4385 -0.4697 -0.0599
13891SOL     OW52891   8.755   0.325   1.540 -0.4134  0.1650  0.0395
13891SOL    HW152892   8.854   0.321   1.557 -0.7416 -1.8372  1.6997
13891SOL    HW252893   8.737   0.291   1.447  0.3124 -1.5365  0.4875
13892SOL     OW52894   4.528   1.213   4.919  0.0858  0.0964  0.6345
13892SOL    HW152895   4.533   1.154   5.000 -1.9116 -0.7747  0.1346
13892SOL    HW252896   4.533   1.156   4.837  0.3168  0.8365  0.1325
13893SOL     OW52897   2.435   0.882   5.465  0.3193 -0.5673  0.4462
13893SOL    HW152898   2.527   0.902   5.434  0.2390 -0.3346  0.3584
13893SOL    HW252899   2.411   0.787   5.442 -0.3875  0.1353 -1.7651
13894SOL     OW52900   6.316   7.627   4.620  0.2642 -0.0037 -0.2267
13894SOL    HW152901   6.216   7.631   4.613  0.2061  0.9750  1.0464
13894SOL    HW252902   6.356   7.683   4.548 -0.1815  2.5246  1.4329
13895SOL     OW52903   2.897   4.743   4.643 -0.3088 -0.1723 -0.2098
13895SOL    HW152904   2.967   4.708   4.581  1.9685  1.1810  1.4784
13895SOL    HW252905   2.939   4.762   4.732 -2.7946  0.9046  0.7743
13896SOL     OW52906   0.381   7.344   5.474  0.1841  0.0966  0.0397
13896SOL    HW152907   0.386   7.305   5.566  1.3158  0.3454  0.0926
13896SOL    HW252908   0.470   7.383   5.450  0.1768 -0.8087 -1.5240
13897SOL     OW52909   5.485   5.060   1.141 -0.3618 -0.0538 -0.0441
13897SOL    HW152910   5.534   4.973   1.136 -0.6726 -0.1682 -1.3692
13897SOL    HW252911   5.525   5.117   1.212 -0.2645 -1.3488  0.9566
13898SOL     OW52912   1.737   6.955   4.802 -0.3745 -0.0120 -0.1607
13898SOL    HW152913   1.642   6.987   4.797 -0.3917 -0.0804 -0.2653
13898SOL    HW252914   1.772   6.939   4.710 -0.8984 -1.8901 -0.0396
13899SOL     OW52915   0.399   5.053   1.080 -0.1935 -0.5791 -0.1900
13899SOL    HW152916   0.386   5.006   1.167 -0.3374 -1.1255 -0.5067
13899SOL    HW252917   0.450   4.994   1.018 -0.0900 -0.1882 -0.4756
13900SOL     OW52918   4.251   0.255   6.488  0.3488  0.4676  0.1165
13900SOL    HW152919   4.169   0.305   6.458 -0.2268 -0.4593  0.1342
13900SOL    HW252920   4.294   0.213   6.409 -0.2484 -0.6083  0.3549
13901SOL     OW52921   4.181   4.044   1.034 -0.4011 -0.0179  0.1462
13901SOL    HW152922   4.258   4.075   0.979 -1.6156  0.1751 -1.5059
13901SOL    HW252923   4.123   3.984   0.978 -2.5518  1.5041  0.6693
13902SOL     OW52924   4.021   1.687   1.189 -0.2197  0.1742 -0.7310
13902SOL    HW152925   3.965   1.650   1.116 -1.1402  0.8905 -0.4001
13902SOL    HW252926   3.995   1.782   1.206 -0.3732 -0.1373  0.8651
13903SOL     OW52927   0.885   3.584   1.648 -0.0604  0.4098 -0.3187
13903SOL    HW152928   0.941   3.628   1.578 -0.2268  0.7362 -0.2475
13903SOL    HW252929   0.854   3.652   1.714  2.3869 -0.3228  1.6582
13904SOL     OW52930   2.670   2.958   5.866  0.1499  0.4268 -0.2657
13904SOL    HW152931   2.751   3.010   5.892  0.8919 -0.1136 -1.4639
13904SOL    HW252932   2.618   3.010   5.798  0.1475  0.2240 -0.4181
13905SOL     OW52933   3.790   6.723   2.229 -0.2416 -0.4195  0.0380
13905SOL    HW152934   3.781   6.822   2.223 -2.3289 -0.6625 -1.4419
13905SOL    HW252935   3.772   6.682   2.139  1.0602 -2.1248  0.5122
13906SOL     OW52936   4.569   1.694   4.719 -0.0446 -0.0896 -0.1776
13906SOL    HW152937   4.563   1.792   4.742  0.0016  0.0182 -0.6152
13906SOL    HW252938   4.480   1.651   4.738 -0.5597  0.3749 -1.4893
13907SOL     OW52939   1.082   7.472   2.829 -0.1992 -0.5748 -0.0116
13907SOL    HW152940   1.112   7.540   2.761  0.1026 -1.0856 -0.3886
13907SOL    HW252941   0.983   7.461   2.823 -0.2242 -0.3133 -0.0881
13908SOL     OW52942   7.266   4.245   2.057  0.4127  0.2818  0.0266
13908SOL    HW152943   7.169   4.228   2.041  0.4466 -1.6456  1.6319
13908SOL    HW252944   7.282   4.344   2.062 -1.5338  0.6145  0.0808
13909SOL     OW52945   8.016   1.597   1.672 -0.0911 -0.2047  1.0650
13909SOL    HW152946   8.063   1.540   1.605 -0.2121 -1.4872  2.0542
13909SOL    HW252947   7.929   1.627   1.635 -0.5453 -1.6131  0.9498
13910SOL     OW52948   2.499   1.882   0.438 -0.2721 -0.0097  0.3765
13910SOL    HW152949   2.483   1.910   0.343 -0.1740  2.6260  1.1098
13910SOL    HW252950   2.522   1.785   0.440  1.8330  0.3727 -2.5024
13911SOL     OW52951   9.536   7.835   1.531  0.6534  0.4856 -0.2076
13911SOL    HW152952   9.442   7.851   1.502  1.3480  0.7459 -2.3892
13911SOL    HW252953   9.551   7.880   1.619 -1.7226 -1.0043  1.0135
13912SOL     OW52954   0.550   6.401   4.423  0.1962  0.1189 -0.2791
13912SOL    HW152955   0.650   6.393   4.423  0.0568 -2.0016 -0.6491
13912SOL    HW252956   0.521   6.457   4.500  1.5377 -1.1739  1.2064
13913SOL     OW52957   7.020   9.398   3.229  0.5689  0.4865 -0.6380
13913SOL    HW152958   7.076   9.467   3.276 -1.5773  2.1376 -0.4244
13913SOL    HW252959   6.958   9.443   3.165  0.3142 -1.4059 -1.7757
13914SOL     OW52960   1.330   5.017   3.169  0.0915 -0.3105  0.0084
13914SOL    HW152961   1.348   5.038   3.073  1.0839  0.4334  0.3488
13914SOL    HW252962   1.385   4.938   3.197 -0.2325 -0.5554 -0.0449
13915SOL     OW52963   0.031   7.830   3.214 -0.4934 -0.1922 -0.2665
13915SOL    HW152964  -0.038   7.757   3.212 -0.3945 -0.3120  0.4323
13915SOL    HW252965   0.098   7.810   3.285  0.2051 -0.0212 -0.8733
13916SOL     OW52966   1.248   7.368   3.257  0.1738 -0.1110  0.2272
13916SOL    HW152967   1.223   7.453   3.211  1.8300  1.3994  2.0869
13916SOL    HW252968   1.330   7.329   3.214  0.6065  0.2975  0.6856
13917SOL     OW52969   8.311   0.781   2.365  0.0651  0.0254 -0.0225
13917SOL    HW152970   8.406   0.789   2.336  0.1946  1.7635  0.7934
13917SOL    HW252971   8.261   0.863   2.339 -0.8835 -0.2847  0.7736
13918SOL     OW52972   8.065   4.630   2.680 -0.5157 -0.1153 -0.0392
13918SOL    HW152973   7.966   4.617   2.673 -0.6686 -0.4210  2.2763
13918SOL    HW252974   8.110   4.542   2.692 -0.3198  0.3202  2.5927
13919SOL     OW52975   9.326   6.337   3.388  0.2746  0.3052 -0.1824
13919SOL    HW152976   9.412   6.366   3.344  0.1427 -0.3414 -0.8754
13919SOL    HW252977   9.311   6.240   3.369 -0.2510  0.2494  0.5385
13920SOL     OW52978   2.489   9.622   1.118 -0.0472  0.1543 -0.1078
13920SOL    HW152979   2.433   9.653   1.041  0.5517  2.7384  0.4368
13920SOL    HW252980   2.455   9.663   1.203  0.9466 -0.5077  0.6301
13921SOL     OW52981   9.536   7.597   5.477  0.6410 -0.7974 -0.1633
13921SOL    HW152982   9.494   7.519   5.429 -0.0987 -0.7797  0.4460
13921SOL    HW252983   9.622   7.568   5.517  0.4469 -1.2644 -0.0735
13922SOL     OW52984   2.130   7.961   3.919  0.2092  0.2222 -0.1201
13922SOL    HW152985   2.179   7.933   4.001 -2.4428  0.0842  1.4434
13922SOL    HW252986   2.058   7.894   3.898  0.4589  0.5600 -2.2286
13923SOL     OW52987   5.872   1.785   3.151  0.0311  0.2556  0.0057
13923SOL    HW152988   5.913   1.803   3.062  0.6767 -0.5990  0.1324
13923SOL    HW252989   5.775   1.763   3.139  0.4104 -1.1134 -0.6079
13924SOL     OW52990   8.049   3.836   0.495 -0.3150  0.0488  0.2423
13924SOL    HW152991   8.094   3.904   0.437 -0.3035 -1.1119 -1.1424
13924SOL    HW252992   8.059   3.862   0.591  0.9645  1.2203 -0.1951
13925SOL     OW52993   7.960   2.581   3.244 -0.1760 -1.0750  0.4711
13925SOL    HW152994   7.912   2.514   3.302 -0.4631 -0.9668  0.3579
13925SOL    HW252995   7.974   2.665   3.296 -0.9193 -0.7848  0.2063
13926SOL     OW52996   9.997   3.132   6.671 -0.0223 -0.2679 -0.2732
13926SOL    HW152997  10.050   3.165   6.593 -0.3922  0.6785 -0.1268
13926SOL    HW252998  10.053   3.069   6.725  1.4763  1.8918  0.7288
13927SOL     OW52999   9.015   0.058   1.447 -0.4807  0.0789  0.8340
13927SOL    HW153000   9.109   0.026   1.457 -0.4667  0.3813  1.6806
13927SOL    HW253001   9.013   0.144   1.396 -0.2743  0.1743  0.9866
13928SOL     OW53002   0.477   4.158   4.952  0.3654 -0.1035  0.3607
13928SOL    HW153003   0.410   4.125   4.886 -0.4517 -0.9946  1.6250
13928SOL    HW253004   0.460   4.255   4.971 -1.1034 -0.5377  1.3110
13929SOL     OW53005   1.598   9.299   5.919 -0.5111  0.2649  0.4478
13929SOL    HW153006   1.651   9.383   5.919 -0.9434  0.5360  0.4716
13929SOL    HW253007   1.546   9.292   5.833 -0.8761  0.2750  0.6656
13930SOL     OW53008   9.013   7.227   4.945 -0.3548 -0.5545 -0.2431
13930SOL    HW153009   9.061   7.302   4.900  0.1118 -1.1618 -0.7733
13930SOL    HW253010   9.061   7.141   4.927 -1.2596 -1.0765 -0.2123
13931SOL     OW53011   8.253   0.237   3.613  0.1212 -0.7198 -0.3586
13931SOL    HW153012   8.168   0.282   3.640 -0.5124 -1.0572 -1.7704
13931SOL    HW253013   8.236   0.174   3.537  1.7202 -0.4128 -1.0030
13932SOL     OW53014   3.435   4.768   5.137  0.1082 -0.7101 -0.0556
13932SOL    HW153015   3.351   4.770   5.192 -0.7735  0.8457 -1.4214
13932SOL    HW253016   3.488   4.851   5.154  1.4359 -1.7206  0.8477
13933SOL     OW53017   3.560   0.659   2.357  0.0336  0.4561 -0.0878
13933SOL    HW153018   3.567   0.750   2.396  0.3766  0.5461 -0.3511
13933SOL    HW253019   3.493   0.605   2.408 -0.0225  0.7905  0.1910
13934SOL     OW53020   9.046   2.716   0.493  0.2844  0.8390 -0.7938
13934SOL    HW153021   9.140   2.686   0.507  0.5081  2.3059  1.1287
13934SOL    HW253022   8.990   2.688   0.571  0.2173  4.1656  0.4429
13935SOL     OW53023   7.154   7.398   4.284  0.2821 -0.2890 -0.4785
13935SOL    HW153024   7.188   7.357   4.368 -2.4542  0.4826  1.0789
13935SOL    HW253025   7.209   7.479   4.262 -0.3751  0.8571  1.8959
13936SOL     OW53026   2.095   1.323   0.380  0.1799  0.0392 -0.0737
13936SOL    HW153027   2.107   1.331   0.479 -1.8858  1.2407  0.1038
13936SOL    HW253028   2.009   1.275   0.361  0.2571  0.3821 -1.2811
13937SOL     OW53029   7.570   9.279   5.742 -0.2599 -0.0769  0.1688
13937SOL    HW153030   7.596   9.347   5.673  0.2187  0.3784  0.7931
13937SOL    HW253031   7.580   9.187   5.704  4.4643 -0.0646  1.0556
13938SOL     OW53032   0.394   0.075   1.098  0.1736  0.0012 -0.2467
13938SOL    HW153033   0.394   0.018   1.015  0.7187 -0.8812  0.3549
13938SOL    HW253034   0.350   0.162   1.078  0.1565 -0.2705 -1.4292
13939SOL     OW53035   7.455   4.361   6.171  0.8906  0.1142  1.0250
13939SOL    HW153036   7.369   4.326   6.133  0.1694  0.7476  2.0490
13939SOL    HW253037   7.450   4.360   6.271  2.2144 -0.1746  1.0961
13940SOL     OW53038   1.689   0.580   1.439  0.0937 -0.0065  0.3389
13940SOL    HW153039   1.710   0.505   1.377  0.4466 -1.6268  2.3469
13940SOL    HW253040   1.649   0.544   1.524 -1.1996  2.2045  0.7327
13941SOL     OW53041   9.507   6.054   2.817  0.5461 -0.6628  0.2006
13941SOL    HW153042   9.517   6.089   2.909 -0.7801  0.8602 -0.2158
13941SOL    HW253043   9.432   6.102   2.770  1.4761 -1.1086 -1.8093
13942SOL     OW53044   3.894   9.371   1.791 -0.6124 -0.1511 -0.0019
13942SOL    HW153045   3.830   9.407   1.723 -1.5354 -0.3746  0.7362
13942SOL    HW253046   3.913   9.441   1.860 -1.0945 -0.5173  0.5052
13943SOL     OW53047   9.682   1.323   5.208  1.1119  0.2145 -0.3779
13943SOL    HW153048   9.644   1.260   5.140  0.4503  0.2503 -0.0486
13943SOL    HW253049   9.668   1.417   5.178  1.0331  0.2264 -0.3029
13944SOL     OW53050   0.156   3.794   5.333 -0.0200  0.2397 -0.1666
13944SOL    HW153051   0.195   3.726   5.396  0.4548 -0.2400 -0.9597
13944SOL    HW253052   0.193   3.778   5.241  1.4385  2.6368 -0.0484
13945SOL     OW53053   1.034   7.464   5.818  0.0130  0.3667 -0.3067
13945SOL    HW153054   1.042   7.416   5.906 -2.9761  0.0989 -0.0971
13945SOL    HW253055   1.054   7.401   5.744 -2.5912 -0.9224  0.0222
13946SOL     OW53056   4.039   0.850   4.573 -0.1990 -0.3042  0.2323
13946SOL    HW153057   4.066   0.783   4.642  0.5227 -0.6307 -0.3652
13946SOL    HW253058   4.067   0.819   4.483 -0.9036  0.2509 -0.1876
13947SOL     OW53059   3.579   1.109   4.036  0.2950 -0.0890  0.2194
13947SOL    HW153060   3.623   1.160   3.962 -2.9023 -1.5217 -2.7967
13947SOL    HW253061   3.504   1.163   4.074 -1.6180 -1.5094 -1.4202
13948SOL     OW53062   8.667   9.076   3.427 -0.2503  0.0542  0.4748
13948SOL    HW153063   8.591   9.013   3.438  0.1532 -0.5474 -0.0867
13948SOL    HW253064   8.713   9.057   3.340 -0.1999  1.2071  0.2428
13949SOL     OW53065   3.514   0.096   3.029  0.2680 -0.2593 -0.1165
13949SOL    HW153066   3.577   0.045   3.088 -0.8645 -1.1141  0.3807
13949SOL    HW253067   3.536   0.194   3.034  2.6664 -0.6976 -1.3474
13950SOL     OW53068   2.320   9.537   2.462 -0.5860 -0.0152  0.6431
13950SOL    HW153069   2.352   9.445   2.440 -0.5773  0.5618 -1.9850
13950SOL    HW253070   2.222   9.543   2.445 -0.6280  0.4039  1.0087
13951SOL     OW53071   1.579   7.381   0.808  0.4890  0.4684  0.0750
13951SOL    HW153072   1.643   7.398   0.733  0.0003  2.2449  0.0488
13951SOL    HW253073   1.630   7.353   0.889  1.0809 -0.6727 -0.6664
13952SOL     OW53074   8.445   7.807   5.410 -0.0698  0.3550  0.0858
13952SOL    HW153075   8.477   7.717   5.438  2.3301  1.4998  1.1915
13952SOL    HW253076   8.367   7.834   5.466 -0.6079 -0.9021 -0.0598
13953SOL     OW53077   3.147   5.904   5.223 -0.4971 -0.0795 -0.1764
13953SOL    HW153078   3.075   5.836   5.230 -0.4786 -0.2358 -1.3265
13953SOL    HW253079   3.126   5.968   5.148  0.4588 -0.0237 -0.4144
13954SOL     OW53080   7.622   8.605   4.071  0.7442 -0.7592 -0.0569
13954SOL    HW153081   7.718   8.619   4.048  0.4115  1.9319 -0.0234
13954SOL    HW253082   7.570   8.687   4.048 -1.7243 -2.5039 -0.9258
13955SOL     OW53083   2.452   4.369   1.563 -0.1638  0.3581 -0.4108
13955SOL    HW153084   2.534   4.426   1.570  0.5727 -0.5685 -1.3462
13955SOL    HW253085   2.384   4.415   1.506  0.0545  0.7404 -0.3627
13956SOL     OW53086   0.579   7.043   5.235  0.4535  0.3961  0.0729
13956SOL    HW153087   0.573   7.026   5.137  1.0557  0.8970 -0.0553
13956SOL    HW253088   0.614   7.136   5.251 -0.2181  0.5414  0.7566
13957SOL     OW53089   0.726   2.399   1.744  0.3395 -0.2397  0.1451
13957SOL    HW153090   0.629   2.396   1.769  0.2129 -0.2416 -0.3569
13957SOL    HW253091   0.747   2.324   1.681  0.9242 -0.9666  1.1756
13958SOL     OW53092   0.346   7.077   2.595 -0.4686 -0.1098  0.1761
13958SOL    HW153093   0.382   7.164   2.562  1.6036 -1.3215 -0.8795
13958SOL    HW253094   0.378   7.062   2.689  0.9965 -0.7279 -0.4131
13959SOL     OW53095   8.750   4.493   4.236  0.6096  0.0874 -0.1575
13959SOL    HW153096   8.666   4.513   4.287  1.0994  0.2792  0.5873
13959SOL    HW253097   8.734   4.417   4.173 -0.3831  0.7302 -0.7004
13960SOL     OW53098   2.328   7.130   2.041 -0.2590 -0.6025 -0.7517
13960SOL    HW153099   2.254   7.073   2.005  0.2028 -0.4913 -1.8833
13960SOL    HW253100   2.399   7.140   1.972  1.5073 -1.9047  0.8340
13961SOL     OW53101   1.776   4.924   5.186  0.2062 -0.6175  0.2191
13961SOL    HW153102   1.777   5.000   5.250  0.5675 -1.3361  1.0758
13961SOL    HW253103   1.824   4.846   5.226  1.7195 -0.6117 -1.4891
13962SOL     OW53104   8.506   5.602   4.285  0.3496 -0.0814  0.1823
13962SOL    HW153105   8.565   5.570   4.211 -0.1871  1.7327 -1.0681
13962SOL    HW253106   8.538   5.691   4.317 -1.5336  0.8363 -0.3657
13963SOL     OW53107   2.459   5.983   5.409 -0.0566  0.1999 -0.2712
13963SOL    HW153108   2.533   5.980   5.342  0.2367 -0.7385  0.0872
13963SOL    HW253109   2.379   5.935   5.373  0.0210 -0.0975 -0.0526
13964SOL     OW53110   4.135   2.340   0.894 -0.2550 -0.6059 -0.0517
13964SOL    HW153111   4.226   2.346   0.934 -0.1916 -0.5790 -0.1975
13964SOL    HW253112   4.092   2.430   0.894 -0.5943 -0.7660  0.7361
13965SOL     OW53113   0.343   0.579   2.891  0.4733  0.3358 -0.2348
13965SOL    HW153114   0.349   0.515   2.968 -1.7156  0.8149  0.3767
13965SOL    HW253115   0.399   0.659   2.910  1.4155 -0.3773  0.0224
13966SOL     OW53116   8.362   3.670   5.895  0.4254  0.0216 -0.1484
13966SOL    HW153117   8.349   3.763   5.860 -1.2142 -0.2746 -0.3485
13966SOL    HW253118   8.294   3.609   5.855  1.6877 -1.3448 -0.2558
13967SOL     OW53119   4.546   0.092   5.036 -0.0875 -0.8796  0.1294
13967SOL    HW153120   4.594   0.102   5.122 -3.0034 -0.9405  1.8352
13967SOL    HW253121   4.469   0.029   5.047 -0.5879 -0.8084 -2.4876
13968SOL     OW53122   2.130   2.038   1.851  0.1023  0.2520 -0.0672
13968SOL    HW153123   2.175   2.040   1.761  1.0090  0.5023  0.3840
13968SOL    HW253124   2.176   1.971   1.909 -1.2003 -0.7354 -0.1534
13969SOL     OW53125   9.343   0.568   1.898  0.2227  0.0922 -0.8880
13969SOL    HW153126   9.258   0.526   1.864 -0.9209  0.4446  1.4381
13969SOL    HW253127   9.347   0.663   1.869  1.4068 -0.7639 -3.7043
13970SOL     OW53128   7.966   9.192   1.215  0.1267  0.3729  0.2353
13970SOL    HW153129   7.977   9.113   1.275 -2.8200 -1.1286 -1.0845
13970SOL    HW253130   7.926   9.267   1.267 -1.3451 -0.5453  0.4638
13971SOL     OW53131   8.658   2.549   2.137 -0.1308 -0.4928  0.3642
13971SOL    HW153132   8.752   2.531   2.168  0.1993  0.9638  0.2598
13971SOL    HW253133   8.609   2.601   2.207  0.3195  1.9763 -1.0866
13972SOL     OW53134   9.978   9.159   5.924  0.5039 -0.3039  0.2912
13972SOL    HW153135   9.916   9.149   6.002 -1.3004  1.0056 -0.9411
13972SOL    HW253136  10.009   9.254   5.917 -0.8558  0.0287 -1.6658
13973SOL     OW53137   9.739   3.099   0.422  0.7922 -0.4980 -0.3547
13973SOL    HW153138   9.690   3.126   0.339  0.1445 -0.3625  0.0734
13973SOL    HW253139   9.674   3.066   0.490  1.5437 -3.0973 -0.8321
13974SOL     OW53140   1.929   5.539   4.310 -0.0521  0.4699 -0.2499
13974SOL    HW153141   1.944   5.631   4.347  1.1237 -0.0927  0.6792
13974SOL    HW253142   1.923   5.473   4.384 -2.1833 -0.0589 -0.8424
13975SOL     OW53143   3.818   4.348   5.669 -0.2947 -0.6519 -0.4095
13975SOL    HW153144   3.832   4.269   5.609 -1.2442 -2.4271  1.6757
13975SOL    HW253145   3.725   4.348   5.704  0.2357  0.3637  1.0580
13976SOL     OW53146   3.811   9.054   1.587  0.4307  0.0834  0.1259
13976SOL    HW153147   3.720   9.029   1.554 -0.0437 -0.5444  1.8500
13976SOL    HW253148   3.803   9.128   1.654  1.2210  0.2850  0.0047
13977SOL     OW53149   9.351   0.853   1.526 -0.3816  0.5499  0.3580
13977SOL    HW153150   9.293   0.839   1.606  1.3615  0.4447  1.6316
13977SOL    HW253151   9.445   0.872   1.556  0.6800 -1.2600 -1.6825
13978SOL     OW53152   7.079   2.442   2.706 -0.5265 -0.0764  0.5510
13978SOL    HW153153   7.041   2.484   2.789 -0.5620 -1.2126  1.1127
13978SOL    HW253154   7.177   2.427   2.719 -0.4947 -0.0781  0.3034
13979SOL     OW53155   4.126   0.399   5.081 -0.0472  0.4367 -0.0277
13979SOL    HW153156   4.201   0.449   5.037  0.2680 -0.5718 -0.6405
13979SOL    HW253157   4.145   0.301   5.078 -2.2592  0.0288 -1.8223
13980SOL     OW53158   0.016   1.880   4.069  0.0691  0.1636  0.1289
13980SOL    HW153159  -0.054   1.898   4.000 -0.2015  2.8548  1.0546
13980SOL    HW253160  -0.008   1.798   4.121 -0.9717 -0.4884 -1.3431
13981SOL     OW53161   9.143   7.502   2.255 -0.7033  0.0797 -0.2622
13981SOL    HW153162   9.076   7.461   2.193 -0.6368 -0.3445 -0.0491
13981SOL    HW253163   9.225   7.528   2.203 -0.8466  0.1730 -0.4398
13982SOL     OW53164   5.012   8.619   1.784 -0.2589  0.1517 -0.3954
13982SOL    HW153165   5.070   8.538   1.778  0.1961  0.3301  1.5202
13982SOL    HW253166   4.923   8.594   1.822 -0.6237  0.3123 -1.1207
13983SOL     OW53167   1.449   5.899   4.559 -0.4309 -0.2635 -0.3435
13983SOL    HW153168   1.419   5.812   4.599 -1.2602  0.7987  1.4139
13983SOL    HW253169   1.531   5.931   4.607 -0.3198  0.0762 -0.7571
13984SOL     OW53170   9.423   4.038   5.121  0.0256 -0.1883  0.2172
13984SOL    HW153171   9.442   3.947   5.157 -0.2650 -0.7632 -1.0690
13984SOL    HW253172   9.328   4.043   5.090  0.4999  0.0332 -1.2303
13985SOL     OW53173   8.392   3.552   2.044  0.3208  0.2252  0.2516
13985SOL    HW153174   8.344   3.539   1.957  2.5411  2.7725 -1.4355
13985SOL    HW253175   8.351   3.628   2.094  2.0078  1.9314 -0.8616
13986SOL     OW53176   1.232   7.727   1.296 -0.0757 -0.0215 -0.0587
13986SOL    HW153177   1.197   7.636   1.319  0.5126  0.5405  3.4517
13986SOL    HW253178   1.330   7.732   1.317  0.6653  0.4559 -3.3969
13987SOL     OW53179   1.577   0.610   4.950 -0.7128 -0.2795 -0.0592
13987SOL    HW153180   1.669   0.583   4.922 -0.6402  0.1040 -0.1869
13987SOL    HW253181   1.569   0.709   4.948 -0.5383 -0.2121  1.7993
13988SOL     OW53182   3.425   7.355   0.747  0.2197  0.3662 -0.1186
13988SOL    HW153183   3.443   7.453   0.754 -1.4541  0.5602  1.9752
13988SOL    HW253184   3.457   7.309   0.830  0.3928 -0.7597 -0.7987
13989SOL     OW53185   2.909   8.892   5.384  0.1103  0.7011  0.1839
13989SOL    HW153186   2.856   8.963   5.337  2.5210  3.1818  1.0540
13989SOL    HW253187   2.992   8.874   5.332 -1.3923 -3.0383 -1.0870
13990SOL     OW53188   7.896   0.873   6.181 -0.1050  0.2052  0.0943
13990SOL    HW153189   7.814   0.897   6.131 -1.9243 -1.0840  2.3711
13990SOL    HW253190   7.913   0.775   6.172  0.7056  0.3127  0.3772
13991SOL     OW53191   9.713   8.807   4.530  0.2680 -0.4555 -0.5332
13991SOL    HW153192   9.789   8.842   4.475  0.2456  0.8685  0.2539
13991SOL    HW253193   9.629   8.812   4.477 -0.0287  2.3254  0.1391
13992SOL     OW53194   1.186   3.207   3.764 -0.4757 -0.0645  0.9653
13992SOL    HW153195   1.159   3.287   3.711  3.0296  0.5228 -0.0814
13992SOL    HW253196   1.150   3.124   3.720  0.6559  0.5760 -1.2414
13993SOL     OW53197   0.559   5.632   5.752  0.6780 -0.5319  0.1030
13993SOL    HW153198   0.641   5.668   5.707 -0.2085  0.0315 -1.0755
13993SOL    HW253199   0.565   5.649   5.850  1.3876  0.6601 -0.1382
13994SOL     OW53200   1.743   3.520   3.246  0.1060  0.4663  0.2078
13994SOL    HW153201   1.696   3.470   3.173  2.2019  1.0838 -1.6142
13994SOL    HW253202   1.715   3.616   3.244 -0.9627  0.1839  1.1960
13995SOL     OW53203   9.746   4.566   5.726  0.3068 -0.1369 -0.2947
13995SOL    HW153204   9.666   4.596   5.674  0.3751 -0.5778 -0.6568
13995SOL    HW253205   9.802   4.506   5.668  1.4111  0.9601 -0.3804
13996SOL     OW53206   1.410   3.019   2.086 -0.1374  0.4724 -0.2429
13996SOL    HW153207   1.447   2.993   1.997 -0.7075  0.9047 -0.6140
13996SOL    HW253208   1.478   3.071   2.137 -0.2291  1.2490 -0.9127
13997SOL     OW53209   8.314   9.823   4.388 -0.1949  0.2408 -0.1752
13997SOL    HW153210   8.365   9.892   4.336  2.2107 -0.2890  1.3589
13997SOL    HW253211   8.309   9.851   4.484  3.3834 -2.9900  1.0669
13998SOL     OW53212   2.324   6.006   2.377 -0.3079  0.0926  0.0770
13998SOL    HW153213   2.244   5.953   2.406  1.7547 -2.7487  0.7529
13998SOL    HW253214   2.395   5.999   2.446  0.9353  1.6927 -1.0161
13999SOL     OW53215   4.322   9.079   0.149  0.1188 -0.6918 -0.0477
13999SOL    HW153216   4.246   9.090   0.214 -1.1701 -2.4117 -1.2198
13999SOL    HW253217   4.287   9.042   0.063  2.4580 -2.5277 -0.2573
14000SOL     OW53218   6.168   9.958   1.471 -0.2603  0.4988 -0.1275
14000SOL    HW153219   6.201   9.996   1.557 -1.6767  2.3827 -0.3895
14000SOL    HW253220   6.069   9.972   1.464 -0.1451  0.4472 -2.0704
14001SOL     OW53221   5.314   2.025   1.914 -0.0312 -0.9955 -0.5724
14001SOL    HW153222   5.333   1.988   1.823  0.0642 -2.4157  0.0178
14001SOL    HW253223   5.362   1.970   1.983 -0.7513 -0.4176  0.3914
14002SOL     OW53224   8.657   1.077   5.170  0.6415 -0.1231  0.0450
14002SOL    HW153225   8.607   0.999   5.135  1.0632  0.3268 -1.5926
14002SOL    HW253226   8.730   1.102   5.106 -0.1520  2.2519  0.0153
14003SOL     OW53227   4.289   6.018   1.395  0.0575  0.1914 -0.2660
14003SOL    HW153228   4.244   6.037   1.308 -0.0662  2.7852  0.3373
14003SOL    HW253229   4.379   6.061   1.397 -0.2634  0.8384  1.1974
14004SOL     OW53230   7.708   6.011   5.506  0.4231 -0.5218  0.4571
14004SOL    HW153231   7.760   5.929   5.528  1.0602 -0.0023  0.9375
14004SOL    HW253232   7.762   6.092   5.531 -0.3479  0.0331  0.3482
14005SOL     OW53233   3.386   3.985   6.700 -0.5763  0.2862  0.6374
14005SOL    HW153234   3.297   3.953   6.667  0.0160  0.7056 -1.4220
14005SOL    HW253235   3.381   4.082   6.722 -0.6777  0.2668  0.6992
14006SOL     OW53236   1.624   2.624   6.663  0.4625  0.2009  0.0719
14006SOL    HW153237   1.603   2.695   6.596  2.3681  1.0634  0.3310
14006SOL    HW253238   1.669   2.666   6.742 -0.3270 -1.0206  1.1886
14007SOL     OW53239   9.276   1.232   3.992  0.7824 -0.2272 -0.7454
14007SOL    HW153240   9.222   1.193   3.917  0.5302 -1.8875  0.2803
14007SOL    HW253241   9.372   1.204   3.982  0.8302 -0.0911 -0.6753
14008SOL     OW53242   8.010   6.288   3.804 -0.4196  0.0617  0.1584
14008SOL    HW153243   7.947   6.364   3.816 -1.3199 -0.4231 -1.3782
14008SOL    HW253244   7.988   6.216   3.870  0.3285  1.0412  1.4975
14009SOL     OW53245   2.998   1.523   5.533 -0.3065 -0.3437  0.0717
14009SOL    HW153246   3.089   1.485   5.547 -0.6647 -0.6781  1.5471
14009SOL    HW253247   2.964   1.496   5.443  0.4193 -1.5164  0.1424
14010SOL     OW53248   6.942   2.849   2.724  0.4016  0.0623  0.1155
14010SOL    HW153249   6.865   2.888   2.674  0.5642 -0.7162 -0.7642
14010SOL    HW253250   6.914   2.763   2.766  0.9170 -0.4542 -0.5941
14011SOL     OW53251   7.317   2.357   6.501  0.4464 -0.1166 -0.1034
14011SOL    HW153252   7.353   2.286   6.440 -0.1690 -0.0975 -0.4985
14011SOL    HW253253   7.264   2.314   6.573 -0.4692 -0.0270 -0.7152
14012SOL     OW53254   1.487   3.925   3.425  0.0446 -0.2796 -0.5234
14012SOL    HW153255   1.518   3.836   3.391 -1.0360 -0.5504 -0.8502
14012SOL    HW253256   1.403   3.951   3.377 -0.6211  0.0877  0.8191
14013SOL     OW53257   3.076   8.575   3.517 -0.1282 -0.5058 -0.0318
14013SOL    HW153258   3.038   8.663   3.487  1.7891  0.3316 -0.1208
14013SOL    HW253259   3.099   8.520   3.436 -1.3523 -1.1075  0.0248
14014SOL     OW53260   1.606   0.560   2.207  0.2905 -0.1811 -0.1000
14014SOL    HW153261   1.634   0.597   2.296  0.5825  0.4567 -0.4550
14014SOL    HW253262   1.506   0.562   2.200  0.3681  1.8778 -0.6886
14015SOL     OW53263   0.914   5.925   0.380  0.1675  0.1225 -0.4398
14015SOL    HW153264   0.985   5.985   0.344  3.3127 -2.2113  1.6189
14015SOL    HW253265   0.944   5.885   0.466 -3.1784 -1.8622 -0.0938
14016SOL     OW53266   4.969   0.122   6.094 -0.3477  0.0354 -0.6144
14016SOL    HW153267   4.998   0.218   6.094 -1.2905  0.3635  2.4053
14016SOL    HW253268   4.895   0.109   6.160  0.5878 -3.0111 -0.0845
14017SOL     OW53269   0.394   7.861   1.557 -0.0478  0.3458  0.6486
14017SOL    HW153270   0.458   7.914   1.613  0.9537 -0.3261  0.1468
14017SOL    HW253271   0.390   7.767   1.591 -0.0149  0.1350  0.0638
14018SOL     OW53272   7.329   3.680   5.344 -0.0982 -0.0602  0.3846
14018SOL    HW153273   7.308   3.756   5.405 -0.1635 -1.2826  1.9019
14018SOL    HW253274   7.320   3.711   5.249 -0.2556  1.7793  0.9718
14019SOL     OW53275   9.313   8.475   4.650  0.1140 -0.3058 -0.1322
14019SOL    HW153276   9.331   8.573   4.661  1.7622 -0.7572  1.3197
14019SOL    HW253277   9.215   8.461   4.636 -0.4121  1.3867  1.6088
14020SOL     OW53278   8.655   0.560   0.957  0.1530 -0.2584 -0.1356
14020SOL    HW153279   8.752   0.537   0.963  0.0690 -0.8051 -0.8216
14020SOL    HW253280   8.616   0.563   1.049  0.6304 -0.8486  0.0901
14021SOL     OW53281   8.386   0.880   1.623  0.1619  0.0178  0.4114
14021SOL    HW153282   8.461   0.827   1.664  1.3386  1.1648 -0.2038
14021SOL    HW253283   8.343   0.827   1.551 -0.3211 -1.0710  1.4846
14022SOL     OW53284   1.386   6.548   0.388  0.3176 -0.0621  0.4497
14022SOL    HW153285   1.379   6.451   0.411  0.6542  0.1242  1.3556
14022SOL    HW253286   1.296   6.583   0.363  0.0057 -0.3622  1.1282
14023SOL     OW53287   1.037   6.665   2.362  0.2845 -0.0337 -0.0302
14023SOL    HW153288   1.110   6.607   2.397  1.5902  2.2738  1.2065
14023SOL    HW253289   1.075   6.751   2.328 -1.7292  0.6857 -0.5916
14024SOL     OW53290   2.147   9.869   3.611 -0.0312  0.0680 -0.0341
14024SOL    HW153291   2.159   9.968   3.612  2.5470 -0.1469 -3.1980
14024SOL    HW253292   2.148   9.835   3.705  0.2300  2.8904  1.0438
14025SOL     OW53293   5.061   1.387   5.101 -0.6352 -0.0788 -0.4692
14025SOL    HW153294   5.048   1.345   5.011  1.3732 -1.1901 -0.2880
14025SOL    HW253295   5.113   1.472   5.091 -0.4067 -0.2055 -0.3785
14026SOL     OW53296   9.277   3.088   5.826 -0.2386 -0.3341 -0.1461
14026SOL    HW153297   9.220   3.139   5.890 -0.2264  0.6166 -0.8884
14026SOL    HW253298   9.306   3.002   5.869 -0.6143  0.0737  0.9510
14027SOL     OW53299   2.280   1.502   2.761 -0.3612 -0.4219 -0.3846
14027SOL    HW153300   2.364   1.450   2.780 -1.0491 -1.6150 -0.5746
14027SOL    HW253301   2.205   1.467   2.817 -0.9141  0.1465 -0.7608
14028SOL     OW53302   3.227   9.062   5.488  0.3395  0.0446 -0.5340
14028SOL    HW153303   3.164   9.135   5.460  0.9577  1.6610  2.1350
14028SOL    HW253304   3.206   8.979   5.437 -0.8974  1.8428 -3.0926
14029SOL     OW53305   0.266   8.869   1.144 -0.1549 -0.1304  0.5598
14029SOL    HW153306   0.225   8.947   1.096  0.5366 -1.7545 -2.8260
14029SOL    HW253307   0.366   8.876   1.138 -0.0946 -1.4009  0.0074
14030SOL     OW53308   0.946   9.192   4.734  0.1225  0.2481 -0.3473
14030SOL    HW153309   1.030   9.197   4.787 -1.0284  3.4817  1.2811
14030SOL    HW253310   0.869   9.174   4.795 -0.7496  0.1589 -1.4569
14031SOL     OW53311   2.192   2.261   6.559 -0.1201 -0.2666 -0.0922
14031SOL    HW153312   2.159   2.190   6.496 -0.3093 -0.0277 -0.2645
14031SOL    HW253313   2.278   2.298   6.526  0.2461 -0.7886  0.2807
14032SOL     OW53314   7.798   7.923   3.988  0.2356  0.0677  0.6835
14032SOL    HW153315   7.822   7.892   3.896 -1.6425 -0.1880  0.2576
14032SOL    HW253316   7.753   7.848   4.037 -1.9584  1.2458  0.5630
14033SOL     OW53317   9.163   3.275   5.982  0.2261 -0.1585 -0.1718
14033SOL    HW153318   9.109   3.352   5.948  0.4058  0.5059  1.0291
14033SOL    HW253319   9.238   3.309   6.038 -1.8509 -1.3092  3.4708
14034SOL     OW53320   0.187   6.917   0.728 -0.0210 -0.5059 -0.1152
14034SOL    HW153321   0.266   6.857   0.719  1.1594  1.0198 -0.2899
14034SOL    HW253322   0.149   6.937   0.637  1.4362  1.3614 -0.3501
14035SOL     OW53323   6.261   7.459   3.468  0.3567  0.4663  0.5455
14035SOL    HW153324   6.327   7.489   3.537  0.5322 -0.8449  0.9562
14035SOL    HW253325   6.172   7.445   3.511  0.8673 -2.0173  0.8840
14036SOL     OW53326   0.084   6.290   2.465 -0.5434  0.2851 -0.4072
14036SOL    HW153327   0.097   6.245   2.376 -0.9751 -2.0269  0.6490
14036SOL    HW253328  -0.013   6.289   2.488 -0.4586  1.1021 -0.0120
14037SOL     OW53329   9.709   2.556   1.452 -0.5114 -0.0911 -0.0787
14037SOL    HW153330   9.656   2.639   1.432  1.1822  0.9148 -0.4850
14037SOL    HW253331   9.793   2.556   1.398  0.2306 -1.3391  1.0411
14038SOL     OW53332   2.788   4.864   2.257  0.2667 -0.6244 -0.5560
14038SOL    HW153333   2.765   4.948   2.306  0.6297 -0.2177 -1.0769
14038SOL    HW253334   2.735   4.859   2.172  0.2909 -0.8934 -0.5575
14039SOL     OW53335   3.862   4.319   0.370  0.3511  0.8295  0.2071
14039SOL    HW153336   3.885   4.373   0.451 -0.5707  1.5108  0.0311
14039SOL    HW253337   3.794   4.250   0.394  1.1291  0.0994  0.3153
14040SOL     OW53338   7.811   2.510   1.816  0.4792  0.0429  0.6123
14040SOL    HW153339   7.784   2.431   1.871  0.6205 -0.9669 -0.7321
14040SOL    HW253340   7.769   2.503   1.726  1.1555  1.0791  0.2128
14041SOL     OW53341   7.262   4.727   0.679  0.1523 -0.0949  0.2751
14041SOL    HW153342   7.291   4.716   0.584  0.3745 -0.6219  0.4037
14041SOL    HW253343   7.177   4.780   0.681 -0.9358 -1.7472 -0.3641
14042SOL     OW53344   7.761   1.309   4.387  0.2134 -0.6574  0.2518
14042SOL    HW153345   7.714   1.220   4.387 -0.7087 -0.1792 -0.7636
14042SOL    HW253346   7.707   1.375   4.335  0.9608  0.4746  0.8967
14043SOL     OW53347   2.895   5.818   1.694 -0.1158 -0.5472  0.5321
14043SOL    HW153348   2.919   5.860   1.606 -1.7937  0.7720  0.6880
14043SOL    HW253349   2.882   5.720   1.681  1.1269 -0.5989 -0.3893
14044SOL     OW53350   8.540   6.728   5.472 -0.1363 -0.0959  0.1982
14044SOL    HW153351   8.595   6.687   5.399 -1.2697  0.4909 -1.0087
14044SOL    HW253352   8.464   6.779   5.431 -2.6258 -2.3732  1.8504
14045SOL     OW53353   7.739   5.885   2.294 -0.1549 -0.4239 -0.2692
14045SOL    HW153354   7.643   5.911   2.288  0.5249  2.1843 -0.3309
14045SOL    HW253355   7.781   5.929   2.374  1.1634 -0.9563 -0.6557
14046SOL     OW53356   4.123   6.279   1.695  0.1400  0.0394  0.0917
14046SOL    HW153357   4.089   6.364   1.656 -0.0248 -0.2856 -0.4943
14046SOL    HW253358   4.186   6.299   1.770 -1.5041  0.6348  1.3306
14047SOL     OW53359   2.539   4.846   1.851  0.0524  0.3613 -0.9315
14047SOL    HW153360   2.528   4.858   1.950 -1.4319  2.4326 -1.3144
14047SOL    HW253361   2.515   4.752   1.827  0.3762 -0.1515  0.6656
14048SOL     OW53362   8.425   8.901   2.469  0.2906 -0.4109  0.2972
14048SOL    HW153363   8.437   8.815   2.419  1.7038  1.2623 -2.3536
14048SOL    HW253364   8.372   8.964   2.413 -0.3273  0.6114  2.0359
14049SOL     OW53365   1.723   5.395   2.452  0.2996 -0.0124  0.3507
14049SOL    HW153366   1.814   5.423   2.481  0.2551 -0.9822  1.4568
14049SOL    HW253367   1.718   5.396   2.352  0.8977  1.9717  0.3287
14050SOL     OW53368   9.093   1.530   0.031  0.1120  0.2500  0.1958
14050SOL    HW153369   9.181   1.497   0.063  0.2073 -0.2261 -0.5360
14050SOL    HW253370   9.105   1.618  -0.015 -0.0091  0.8727  1.3307
14051SOL     OW53371   9.806   1.519   0.531  0.2350 -0.0589  0.3046
14051SOL    HW153372   9.791   1.423   0.553  0.1121 -0.5014 -1.6481
14051SOL    HW253373   9.718   1.567   0.526  0.2394 -0.0364  0.4490
14052SOL     OW53374   0.980   8.313   6.723 -0.9656  0.5455 -0.3750
14052SOL    HW153375   0.926   8.324   6.640 -2.6062  1.8909  0.8331
14052SOL    HW253376   1.030   8.227   6.719 -1.0375  0.5846 -2.7298
14053SOL     OW53377   9.141   8.359   1.820  0.6914 -0.0564 -0.0590
14053SOL    HW153378   9.080   8.438   1.813 -0.1725 -0.6499  0.6188
14053SOL    HW253379   9.234   8.387   1.798  0.1218  0.7769 -1.5100
14054SOL     OW53380   2.956   1.388   1.364 -0.0004 -0.0719 -0.5321
14054SOL    HW153381   2.876   1.329   1.363  0.4117 -0.6592  0.2892
14054SOL    HW253382   2.934   1.475   1.322 -0.3935 -1.0944 -2.4967
14055SOL     OW53383   8.403   7.823   1.759 -0.2934 -0.1213 -0.3083
14055SOL    HW153384   8.324   7.806   1.700 -0.1839  1.1692 -0.8324
14055SOL    HW253385   8.484   7.838   1.703  0.1296 -0.4226  0.2095
14056SOL     OW53386   8.173   1.256   5.670 -0.2961  0.6477  0.3958
14056SOL    HW153387   8.251   1.238   5.730 -0.0687  0.6409  0.0943
14056SOL    HW253388   8.185   1.343   5.624  1.0413 -0.8050 -2.0719
14057SOL     OW53389   9.544   6.331   0.341 -0.0115 -0.3087 -0.2661
14057SOL    HW153390   9.531   6.367   0.248 -0.5875 -1.5296 -0.6674
14057SOL    HW253391   9.525   6.403   0.407  3.0899  1.3904 -1.1242
14058SOL     OW53392   0.969   9.919   2.289  0.5738 -0.2317 -0.8483
14058SOL    HW153393   0.951   9.939   2.193  1.2384  0.9504 -0.7264
14058SOL    HW253394   0.889   9.875   2.330 -1.6131  3.7022 -0.6637
14059SOL     OW53395   3.839   8.739   5.811 -0.0668  0.0231  0.3067
14059SOL    HW153396   3.868   8.731   5.716 -1.6073 -0.6040 -0.1397
14059SOL    HW253397   3.771   8.813   5.818 -0.9280 -0.7839  0.6525
14060SOL     OW53398   7.249   5.031   5.671  0.2707 -0.0244 -0.1721
14060SOL    HW153399   7.155   5.064   5.656 -1.0137 -3.0840  0.7604
14060SOL    HW253400   7.290   5.081   5.747 -1.3215 -0.0197  0.7001
14061SOL     OW53401   3.423   3.772   1.781 -0.3439  0.4259  0.1898
14061SOL    HW153402   3.442   3.675   1.764 -0.0150  0.6032 -0.4730
14061SOL    HW253403   3.352   3.780   1.852 -2.0854 -0.3627 -1.4001
14062SOL     OW53404   8.528   2.745   2.733 -0.5183 -0.0602  0.2581
14062SOL    HW153405   8.491   2.662   2.775 -0.5282 -0.2388 -0.1060
14062SOL    HW253406   8.472   2.823   2.760 -0.4443 -0.1518  0.6928
14063SOL     OW53407   3.338   8.680   2.395 -0.2545 -0.0213  0.0909
14063SOL    HW153408   3.410   8.644   2.455  0.6127  3.3050  1.1793
14063SOL    HW253409   3.334   8.780   2.406 -1.4737  0.4165 -3.8944
14064SOL     OW53410   3.900   4.587   4.613  0.7275 -0.2195  0.1542
14064SOL    HW153411   3.820   4.595   4.673  0.4163  1.6060 -0.4627
14064SOL    HW253412   3.871   4.589   4.518  1.3884 -1.1102 -0.0703
14065SOL     OW53413   1.859   8.352   0.128 -0.0042 -0.0679  0.0744
14065SOL    HW153414   1.938   8.345   0.066 -0.6361 -0.7129 -0.6692
14065SOL    HW253415   1.847   8.264   0.175 -0.0212  0.1661  0.5065
14066SOL     OW53416   7.949   0.027   5.731  0.3327 -0.5558  0.1168
14066SOL    HW153417   8.019  -0.041   5.755  0.6039 -0.6085 -0.7998
14066SOL    HW253418   7.883  -0.014   5.668  0.5559  0.0578 -0.5179
14067SOL     OW53419   2.146   1.746   0.169  0.8623  0.1339  0.4218
14067SOL    HW153420   2.237   1.706   0.178  1.0782  0.2957 -0.9240
14067SOL    HW253421   2.149   1.842   0.195  1.8121  1.0047 -2.6958
14068SOL     OW53422   1.798   4.811   1.226 -0.4668  0.5184  0.1374
14068SOL    HW153423   1.810   4.712   1.225 -0.6545  0.4573  1.5919
14068SOL    HW253424   1.704   4.832   1.254 -0.5548  1.0963 -0.5996
14069SOL     OW53425   5.273   9.302   1.414 -0.2018 -0.6541  0.1627
14069SOL    HW153426   5.224   9.249   1.484  0.1916 -0.4910  0.5594
14069SOL    HW253427   5.358   9.256   1.391 -0.1144 -0.4730  0.1198
14070SOL     OW53428   8.518   5.235   5.775  0.1071 -0.1737 -0.3538
14070SOL    HW153429   8.478   5.225   5.684  1.3416 -1.3082 -0.7895
14070SOL    HW253430   8.459   5.193   5.843 -2.0729  2.8307 -0.2625
14071SOL     OW53431   2.067   5.713   2.041 -0.5409  0.1011 -0.0826
14071SOL    HW153432   1.984   5.732   2.093  0.3273 -0.7276  1.6512
14071SOL    HW253433   2.114   5.634   2.081 -0.3712 -1.2047 -2.7590
14072SOL     OW53434   1.201   5.368   5.184 -0.4796 -0.0363  0.2570
14072SOL    HW153435   1.222   5.436   5.114  1.3566  0.1375  0.9542
14072SOL    HW253436   1.263   5.289   5.173 -1.6943 -1.0154  0.2861
14073SOL     OW53437   3.077   7.526   1.539 -0.1276 -0.1158  0.4805
14073SOL    HW153438   3.066   7.623   1.562 -1.0676  0.0790 -0.7407
14073SOL    HW253439   3.149   7.516   1.470 -0.5102 -0.2101  0.0932
14074SOL     OW53440   0.496   5.454   4.889  0.3625 -0.3590  0.6023
14074SOL    HW153441   0.470   5.501   4.973 -1.0949 -2.5531  1.4125
14074SOL    HW253442   0.596   5.442   4.886  0.5658  1.1303  1.2334
14075SOL     OW53443   7.106   7.952   3.445 -0.8623  0.0371 -0.6484
14075SOL    HW153444   7.184   7.933   3.384 -0.6097  0.3638 -0.4273
14075SOL    HW253445   7.136   8.012   3.519 -1.6609  1.2983 -1.3313
14076SOL     OW53446   7.874   5.775   2.673  0.8088 -0.0548 -0.1029
14076SOL    HW153447   7.858   5.722   2.590 -1.3725 -0.0011  0.2569
14076SOL    HW253448   7.861   5.716   2.753  0.1318  0.5780  0.2567
14077SOL     OW53449   3.291   5.007   4.781 -0.1823  0.7837  0.2626
14077SOL    HW153450   3.292   4.929   4.718 -2.7579  1.5195 -0.7668
14077SOL    HW253451   3.372   5.005   4.838  0.9202 -1.3738 -1.3164
14078SOL     OW53452   3.749   2.891   1.705 -0.1577 -0.5290 -0.1881
14078SOL    HW153453   3.705   2.872   1.617 -1.4401  0.6559  0.1751
14078SOL    HW253454   3.802   2.975   1.699 -0.8641 -0.0387  0.3710
14079SOL     OW53455   2.769   3.016   1.630 -0.3926  0.1094 -0.1723
14079SOL    HW153456   2.851   2.963   1.608  0.0877 -0.0141  1.8509
14079SOL    HW253457   2.687   2.962   1.607  0.0865 -1.5549  1.8358
14080SOL     OW53458   4.560   1.766   2.225 -0.1305 -0.0846  0.0199
14080SOL    HW153459   4.614   1.818   2.159  0.7388  0.2695  0.9968
14080SOL    HW253460   4.605   1.769   2.314 -0.8621 -1.2581  0.4324
14081SOL     OW53461   9.026   1.272   3.362  1.0664 -0.1605  0.2981
14081SOL    HW153462   8.937   1.236   3.389 -0.2913  1.6597 -1.5693
14081SOL    HW253463   9.040   1.256   3.265  1.8302  1.4804  0.1296
14082SOL     OW53464   2.056   0.661   5.248 -0.4887 -0.4837 -0.1540
14082SOL    HW153465   1.962   0.628   5.236 -0.5384  0.1357 -1.5648
14082SOL    HW253466   2.055   0.756   5.277 -0.3055 -0.8971  1.2402
14083SOL     OW53467   2.501   9.388   5.091  0.0209 -0.2370 -0.2582
14083SOL    HW153468   2.436   9.346   5.027  1.8254 -0.9911 -1.6330
14083SOL    HW253469   2.493   9.344   5.181 -0.9444 -0.7419 -0.5837
14084SOL     OW53470   9.082   6.906   5.059 -0.6788  0.0375  0.6605
14084SOL    HW153471   9.045   6.815   5.077 -2.2394  0.7877  1.3262
14084SOL    HW253472   9.035   6.973   5.116 -0.0194  1.3569 -0.3216
14085SOL     OW53473   3.860   6.880   1.468  0.2578 -0.0375 -0.4034
14085SOL    HW153474   3.946   6.839   1.438  1.0977  1.1123  0.4171
14085SOL    HW253475   3.786   6.849   1.408  1.1670 -1.3770 -0.8414
14086SOL     OW53476   5.003   9.774   4.400  0.0359 -0.4128  0.4958
14086SOL    HW153477   5.003   9.849   4.467  1.5058 -0.6239  0.7622
14086SOL    HW253478   5.087   9.779   4.346 -0.3416 -1.2769 -0.1660
14087SOL     OW53479   2.756   0.714   1.373  0.0559 -0.7638  0.7075
14087SOL    HW153480   2.825   0.673   1.433 -0.8464 -0.0993  2.2415
14087SOL    HW253481   2.666   0.707   1.417 -0.3838  1.1399  0.1339
14088SOL     OW53482   5.394   8.032   2.814  0.4818  0.0849 -0.6792
14088SOL    HW153483   5.441   7.970   2.751 -2.3289 -2.3890 -0.4496
14088SOL    HW253484   5.334   8.093   2.762  2.0126  1.5588 -0.7649
14089SOL     OW53485   7.020   1.627   1.940  0.3174  0.0414  0.6669
14089SOL    HW153486   7.025   1.606   1.843 -0.3331 -0.3497  0.7140
14089SOL    HW253487   6.991   1.722   1.952 -0.4290 -0.1590  0.4823
14090SOL     OW53488   1.919   3.877   0.317 -0.2442  0.2765 -0.3711
14090SOL    HW153489   1.842   3.853   0.376  0.0226  1.5501  0.5274
14090SOL    HW253490   2.001   3.890   0.373  0.1448  0.9314 -1.0885
14091SOL     OW53491   9.967   6.670   5.308  0.3942 -0.0495  0.8096
14091SOL    HW153492   9.872   6.697   5.295 -0.6509 -3.4303  0.7687
14091SOL    HW253493   9.983   6.651   5.405  0.3283 -1.8051  0.4894
14092SOL     OW53494   0.195   0.758   4.703  0.0465 -0.6332 -0.2658
14092SOL    HW153495   0.275   0.722   4.751  0.4611 -0.0349 -0.5029
14092SOL    HW253496   0.218   0.773   4.607 -0.0814  0.4015 -0.1359
14093SOL     OW53497   4.251   5.556   1.688  0.3736  0.6152 -0.5604
14093SOL    HW153498   4.219   5.464   1.666  0.5912 -0.0039  1.6049
14093SOL    HW253499   4.335   5.575   1.637  1.4739 -1.1886  0.5438
14094SOL     OW53500   1.916   0.271   1.450 -0.1506 -0.1474  0.1596
14094SOL    HW153501   1.977   0.330   1.504 -1.4491  1.5482 -0.1753
14094SOL    HW253502   1.890   0.319   1.367 -1.9519 -0.8657  0.2953
14095SOL     OW53503   0.505   7.734   5.516 -0.2613  0.4490  0.3338
14095SOL    HW153504   0.453   7.701   5.595  1.4588  1.1497  1.7989
14095SOL    HW253505   0.540   7.656   5.464  1.1169 -0.0847  1.9884
14096SOL     OW53506   2.158   7.993   4.228 -0.2640  0.2696 -0.3438
14096SOL    HW153507   2.078   7.934   4.236  0.9271 -1.3490 -0.0894
14096SOL    HW253508   2.215   7.984   4.310  0.5357  0.8636 -0.8210
14097SOL     OW53509   4.141   9.601   4.432  0.2174 -0.3176  0.7972
14097SOL    HW153510   4.107   9.690   4.404  0.0351 -0.6183  0.0519
14097SOL    HW253511   4.241   9.597   4.420  0.0087 -0.8123 -0.8478
14098SOL     OW53512   8.347   7.047   6.352 -0.2345 -0.7380  0.0129
14098SOL    HW153513   8.293   6.971   6.316  0.6922 -0.1001 -2.8195
14098SOL    HW253514   8.441   7.040   6.317  1.1738 -0.9772  3.6138
14099SOL     OW53515   7.347   0.833   4.307 -0.0435  0.4711 -0.0361
14099SOL    HW153516   7.306   0.883   4.230  0.1743  1.0664  0.2402
14099SOL    HW253517   7.398   0.754   4.271  1.4713  1.6958 -0.6306
14100SOL     OW53518   0.805   6.532   1.708  0.1111 -0.0484 -0.3354
14100SOL    HW153519   0.767   6.600   1.771 -3.2063 -1.2808 -0.9224
14100SOL    HW253520   0.830   6.450   1.759  1.3902  0.4889 -0.0625
14101SOL     OW53521   4.532   1.636   1.827  0.3593  0.7310  0.6178
14101SOL    HW153522   4.438   1.627   1.793  1.5811  0.8539 -2.9433
14101SOL    HW253523   4.574   1.717   1.787  2.9950 -1.0463 -0.2917
14102SOL     OW53524   7.041   3.782   0.055  0.0612 -0.3064 -0.4040
14102SOL    HW153525   6.990   3.706   0.095 -0.9079 -0.0569 -1.1489
14102SOL    HW253526   7.078   3.840   0.128 -1.2774 -0.1346  0.1399
14103SOL     OW53527   9.820   7.319   1.080 -0.4252  0.3829  0.0470
14103SOL    HW153528   9.913   7.304   1.113 -0.2263  1.6272  0.0900
14103SOL    HW253529   9.780   7.396   1.129 -1.5872 -0.3291  0.2343
14104SOL     OW53530   3.362   7.512   4.114 -0.0810  0.4394 -0.2299
14104SOL    HW153531   3.377   7.557   4.026 -0.3954  1.4021  0.1937
14104SOL    HW253532   3.377   7.578   4.188 -2.6984  0.4749  0.3281
14105SOL     OW53533   2.465   4.418   2.546  0.4705 -0.4383  0.1819
14105SOL    HW153534   2.472   4.340   2.484  0.6357  0.3332 -0.7951
14105SOL    HW253535   2.538   4.484   2.525  0.1328  0.1291  0.7629
14106SOL     OW53536   5.820   9.445   4.480  0.6601 -0.2658  0.0078
14106SOL    HW153537   5.726   9.476   4.468 -0.1589 -2.4554  0.4629
14106SOL    HW253538   5.867   9.441   4.392  0.4191  1.0901 -0.1849
14107SOL     OW53539   9.745   2.275   4.954 -0.1512 -0.0603 -0.5405
14107SOL    HW153540   9.691   2.356   4.931 -0.5641 -0.3940 -0.7624
14107SOL    HW253541   9.831   2.303   4.996  0.9299  0.6194 -3.0860
14108SOL     OW53542   1.109   6.420   5.172  0.2310 -0.3502  0.4701
14108SOL    HW153543   1.033   6.481   5.194 -0.6582 -1.3053  0.0766
14108SOL    HW253544   1.125   6.358   5.249 -1.8338 -2.6176 -0.8469
14109SOL     OW53545   2.013   9.199   4.987  0.2888  0.8590 -0.0929
14109SOL    HW153546   2.040   9.143   5.066 -3.7288 -0.1589  0.6695
14109SOL    HW253547   1.988   9.139   4.911  0.5189  1.7423 -0.8682
14110SOL     OW53548   8.873   4.516   2.711  0.5686  0.0301 -0.2613
14110SOL    HW153549   8.851   4.466   2.795  0.4457  0.0441 -0.2850
14110SOL    HW253550   8.972   4.531   2.706  0.4190  1.3474  0.6062
14111SOL     OW53551   6.939   1.769   4.072 -0.5193  0.0991  0.1968
14111SOL    HW153552   6.923   1.867   4.088 -2.1866 -0.1968  0.3626
14111SOL    HW253553   6.858   1.728   4.031  1.2062 -0.6169 -2.6247
14112SOL     OW53554   4.990   1.105   0.978  0.2695 -0.1137  0.3097
14112SOL    HW153555   4.926   1.136   0.908 -0.0629  0.1675  0.7294
14112SOL    HW253556   5.083   1.104   0.941 -0.0376 -1.0219 -0.4613
14113SOL     OW53557   2.982   8.492   2.798  0.4024  0.2139 -0.6942
14113SOL    HW153558   2.917   8.467   2.726  0.7405 -1.4389 -0.4417
14113SOL    HW253559   2.967   8.587   2.824 -1.6173 -0.0034 -0.9582
14114SOL     OW53560   3.616   5.614   0.665  0.1627  0.0063  0.3944
14114SOL    HW153561   3.576   5.619   0.574 -1.0453 -0.2737  0.8962
14114SOL    HW253562   3.617   5.705   0.706 -0.8945 -0.1393  0.7621
14115SOL     OW53563   9.108   7.759   0.580 -0.2310 -0.0130  0.3584
14115SOL    HW153564   9.077   7.850   0.609  0.2036 -0.0450  0.9317
14115SOL    HW253565   9.120   7.758   0.480  1.4149  1.0784  0.5244
14116SOL     OW53566   5.629   1.482   2.438  0.1946  0.2282 -0.1450
14116SOL    HW153567   5.627   1.425   2.356  0.9125 -0.7960  0.5185
14116SOL    HW253568   5.652   1.576   2.413  2.3605 -0.4696 -0.9327
14117SOL     OW53569   0.075   6.495   0.124  0.3961 -0.0223  0.0532
14117SOL    HW153570   0.090   6.576   0.066 -0.3905 -0.1039 -0.2747
14117SOL    HW253571   0.048   6.524   0.215 -2.0715  0.0856 -0.6745
14118SOL     OW53572   5.911   0.380   5.512 -0.0647  0.2216  0.8367
14118SOL    HW153573   5.825   0.375   5.460  0.1576 -2.4119  0.6650
14118SOL    HW253574   5.988   0.373   5.449  0.2444  0.1553  1.2240
14119SOL     OW53575   3.328   5.529   6.701 -0.1868 -0.1405 -0.1975
14119SOL    HW153576   3.242   5.575   6.723  0.5404  0.9841  0.3180
14119SOL    HW253577   3.320   5.484   6.612 -1.2068  0.2026 -0.2813
14120SOL     OW53578   1.791   3.482   4.560  1.0779  0.0701 -0.2494
14120SOL    HW153579   1.744   3.446   4.479  2.2693 -1.5171 -0.2657
14120SOL    HW253580   1.734   3.466   4.640 -0.0056  1.4362 -0.7383
14121SOL     OW53581   1.518   8.689   3.370  0.4765  0.6221 -0.1193
14121SOL    HW153582   1.422   8.704   3.394  0.8044  0.7188  1.2151
14121SOL    HW253583   1.557   8.621   3.433  0.8572 -0.6214 -1.6760
14122SOL     OW53584   3.100   4.684   2.962  0.0637  0.7735 -0.4526
14122SOL    HW153585   3.130   4.716   3.052 -1.0525  0.9919 -0.1504
14122SOL    HW253586   3.180   4.657   2.908  0.8197  1.6181  0.2254
14123SOL     OW53587   8.197   9.076   5.027  0.5493  0.0122  0.7900
14123SOL    HW153588   8.257   9.015   5.080  0.8695 -1.7741 -1.5301
14123SOL    HW253589   8.105   9.037   5.023  0.7038 -0.2435 -0.5422
14124SOL     OW53590   0.455   9.157   0.320 -0.2904 -0.0677 -0.2911
14124SOL    HW153591   0.412   9.159   0.230 -0.6481 -0.1997 -0.1229
14124SOL    HW253592   0.466   9.063   0.350 -0.4968 -0.0127 -0.0402
14125SOL     OW53593   2.028   7.343   2.072  0.3450 -0.6391 -0.6015
14125SOL    HW153594   1.950   7.281   2.064  0.4013 -1.0616  1.7823
14125SOL    HW253595   2.104   7.308   2.017 -0.8647 -0.6249 -2.3276
14126SOL     OW53596   2.258   4.196   6.185  0.2471 -0.0485 -0.4854
14126SOL    HW153597   2.348   4.224   6.152  0.0548  1.6387  0.4126
14126SOL    HW253598   2.249   4.219   6.281 -1.5135  0.6916 -0.8145
14127SOL     OW53599   4.155   3.148   1.877  0.2086  0.7851 -0.4027
14127SOL    HW153600   4.062   3.185   1.876 -0.1360 -0.0527  0.7494
14127SOL    HW253601   4.197   3.166   1.965  0.8995  0.5438 -0.6810
14128SOL     OW53602   5.890   1.507   4.397  0.5355  0.3531  0.5372
14128SOL    HW153603   5.968   1.445   4.390 -0.5311 -0.8389 -1.6653
14128SOL    HW253604   5.841   1.489   4.483  1.9320  0.2259  1.3231
14129SOL     OW53605   4.633   8.269   5.257  0.6292  0.5035  0.3734
14129SOL    HW153606   4.697   8.315   5.195 -0.4802  0.2845 -0.9575
14129SOL    HW253607   4.634   8.315   5.345  1.4832  1.4612 -0.1192
14130SOL     OW53608   0.872   3.895   4.093  0.1068 -0.2236 -0.0015
14130SOL    HW153609   0.832   3.855   4.175  0.7315 -1.6783 -0.4034
14130SOL    HW253610   0.844   3.842   4.013  0.8187  0.2359 -0.5569
14131SOL     OW53611   0.934   8.718   2.603 -0.3596 -0.1525  0.2086
14131SOL    HW153612   0.917   8.762   2.514 -1.6770  0.9225  0.9653
14131SOL    HW253613   1.011   8.764   2.648  0.4808 -0.8692 -0.4710
14132SOL     OW53614   0.965   4.038   3.631 -0.0665 -0.0641 -0.3041
14132SOL    HW153615   0.884   3.980   3.646 -0.5035  0.5705 -0.1916
14132SOL    HW253616   0.985   4.089   3.715 -0.1547  0.5389 -0.6470
14133SOL     OW53617   1.230   1.644   5.858 -0.2270  0.2694  0.2334
14133SOL    HW153618   1.146   1.621   5.810  0.2913 -0.4713 -0.3238
14133SOL    HW253619   1.222   1.617   5.954 -0.6777  0.3281  0.2123
14134SOL     OW53620   4.349   5.841   2.287 -0.7346 -0.3235  0.2767
14134SOL    HW153621   4.321   5.795   2.371  0.1430 -0.0808  0.7156
14134SOL    HW253622   4.275   5.898   2.253 -0.9154 -0.0100  1.1838
14135SOL     OW53623   8.646   0.958   2.080  0.2066  0.1995 -0.2365
14135SOL    HW153624   8.621   0.861   2.073 -1.9704  0.8103 -1.0439
14135SOL    HW253625   8.682   0.990   1.992 -2.2941  0.9864 -1.0112
14136SOL     OW53626   9.401   6.295   1.577 -0.1376  0.2521  0.1001
14136SOL    HW153627   9.369   6.355   1.651 -1.4146  0.3483 -0.5060
14136SOL    HW253628   9.461   6.225   1.614 -0.7034  0.3469  1.2258
14137SOL     OW53629   1.482   7.631   0.990 -0.1719  0.3524 -0.1844
14137SOL    HW153630   1.513   7.673   1.075 -0.3772  0.2960 -0.0803
14137SOL    HW253631   1.383   7.615   0.995  0.2012 -1.9046  0.5399
14138SOL     OW53632   2.257   0.696   0.850  0.3559  0.4910 -0.4985
14138SOL    HW153633   2.336   0.756   0.861 -0.8832  1.9313  0.8276
14138SOL    HW253634   2.274   0.609   0.897  0.3944  1.5434  1.4566
14139SOL     OW53635   0.648   4.216   2.539  0.1450  0.1526 -0.5172
14139SOL    HW153636   0.693   4.186   2.624 -0.3413 -1.8069 -0.9242
14139SOL    HW253637   0.707   4.280   2.491  0.3181  1.4956  1.4278
14140SOL     OW53638   9.230   7.658   0.202  0.3786  1.0711  0.1527
14140SOL    HW153639   9.166   7.582   0.195  1.1837  0.3063  0.9957
14140SOL    HW253640   9.222   7.716   0.121 -0.9458  0.6492 -0.0224
14141SOL     OW53641   7.557   0.142   6.199  0.4337  0.0172 -0.1013
14141SOL    HW153642   7.634   0.124   6.261  0.3006  0.0921  0.0872
14141SOL    HW253643   7.588   0.139   6.104  0.8875  1.1283  0.0096
14142SOL     OW53644   3.835   6.299   1.478 -0.1079  0.5408 -0.0460
14142SOL    HW153645   3.906   6.334   1.417  0.4938  0.4380  0.5853
14142SOL    HW253646   3.823   6.363   1.554 -0.4108  0.3543  0.0620
14143SOL     OW53647   1.233   4.231   2.362  0.4005  0.0354  0.3505
14143SOL    HW153648   1.198   4.156   2.418  0.4793  0.2671  0.7114
14143SOL    HW253649   1.177   4.239   2.280  0.5436 -0.5782  0.1890
14144SOL     OW53650   8.077   7.122   5.211  0.0874 -0.2689 -0.1019
14144SOL    HW153651   8.132   7.205   5.207 -0.5135  0.0866 -1.2779
14144SOL    HW253652   8.063   7.095   5.306 -0.5117  1.5154  0.3313
14145SOL     OW53653   1.106   0.579   2.463 -0.1000 -0.0777  0.1031
14145SOL    HW153654   1.036   0.526   2.415  1.1050 -1.2881 -0.3334
14145SOL    HW253655   1.163   0.518   2.518  0.9319  0.8417  0.0757
14146SOL     OW53656   3.293   5.227   2.415 -0.3105 -0.4002 -0.0210
14146SOL    HW153657   3.385   5.254   2.385 -0.2518 -1.2323 -0.5845
14146SOL    HW253658   3.301   5.159   2.488 -0.4586 -3.6317 -2.8911
14147SOL     OW53659   0.651   1.508   1.334 -0.2949  0.2996 -0.0928
14147SOL    HW153660   0.728   1.444   1.337 -0.1876  0.4463  0.3100
14147SOL    HW253661   0.571   1.465   1.375  0.2082  1.0013  1.6609
14148SOL     OW53662   0.711   3.392   1.532 -0.4735 -0.6506  0.2066
14148SOL    HW153663   0.781   3.463   1.533  0.4657 -1.5215 -1.4852
14148SOL    HW253664   0.674   3.380   1.625  2.9333 -1.4713  1.5202
14149SOL     OW53665   7.619   5.131   6.029 -0.1241 -0.1164  0.1962
14149SOL    HW153666   7.715   5.158   6.024  0.0076 -0.1526  2.1687
14149SOL    HW253667   7.611   5.042   6.074 -1.2193  0.8146  1.8998
14150SOL     OW53668   9.620   4.379   2.332 -0.0300 -0.1086 -0.1623
14150SOL    HW153669   9.719   4.372   2.346 -0.4025 -2.3423  1.6325
14150SOL    HW253670   9.592   4.320   2.257 -0.4700 -2.3998  1.7618
14151SOL     OW53671   3.175   3.627   1.613  0.1613  0.3259 -0.2104
14151SOL    HW153672   3.239   3.567   1.662  1.0911 -0.0368 -1.8545
14151SOL    HW253673   3.226   3.692   1.557 -0.8979  0.7627 -0.6853
14152SOL     OW53674   4.764   3.285   4.235  0.3543 -0.4710 -0.0848
14152SOL    HW153675   4.722   3.327   4.315  1.0008 -0.2166  0.1217
14152SOL    HW253676   4.743   3.340   4.154  1.1487  0.2112  0.1765
14153SOL     OW53677   3.720   2.293   4.820 -0.2005 -0.1515  0.0990
14153SOL    HW153678   3.698   2.204   4.779  0.4406 -0.7956  1.1494
14153SOL    HW253679   3.770   2.279   4.905  1.1811  1.2430 -0.4675
14154SOL     OW53680   5.953   2.253   4.420  0.2290 -0.1571 -0.1798
14154SOL    HW153681   5.867   2.212   4.390 -0.4205  0.2834  1.0376
14154SOL    HW253682   5.998   2.192   4.484  0.1728  0.2008  0.2015
14155SOL     OW53683   3.846   2.937   4.067  0.6137 -0.3776 -0.0949
14155SOL    HW153684   3.869   2.841   4.051  1.8280 -0.0799 -0.1976
14155SOL    HW253685   3.854   2.958   4.164  1.4869 -0.0983 -0.2232
14156SOL     OW53686   0.631   0.048   0.797  0.4270 -0.1058 -0.0193
14156SOL    HW153687   0.696   0.010   0.731 -0.0548 -1.6244  0.3715
14156SOL    HW253688   0.647   0.008   0.887 -0.2627  0.4301  0.3443
14157SOL     OW53689   9.489   4.590   2.432 -0.3433  0.3060  0.0433
14157SOL    HW153690   9.555   4.521   2.400 -0.1324 -0.4372  2.0485
14157SOL    HW253691   9.534   4.651   2.497 -1.3688  0.4710  0.5961
14158SOL     OW53692   8.400   9.665   3.504  0.2353  0.7440  0.2943
14158SOL    HW153693   8.346   9.664   3.589  0.5161 -1.5768  0.4785
14158SOL    HW253694   8.494   9.639   3.525  0.5289  1.1029 -0.5908
14159SOL     OW53695   4.596   3.040   2.570 -0.0469 -0.7242  0.6366
14159SOL    HW153696   4.589   2.959   2.629 -0.4289 -0.3493  1.1113
14159SOL    HW253697   4.657   3.107   2.613  1.3817 -1.3206 -0.4126
14160SOL     OW53698   5.509   2.017   5.166  0.0264 -0.1327  0.2223
14160SOL    HW153699   5.512   1.918   5.178 -0.0876 -0.0088  1.3315
14160SOL    HW253700   5.414   2.045   5.149  0.0858 -0.2298 -0.2817
14161SOL     OW53701   9.647   7.475   2.531 -0.0691 -0.0311  0.5862
14161SOL    HW153702   9.653   7.487   2.630  0.8061 -2.5251  0.8714
14161SOL    HW253703   9.696   7.549   2.485  1.8476 -0.3291  2.1023
14162SOL     OW53704   5.540   1.454   5.010 -0.1651 -0.5415 -0.5601
14162SOL    HW153705   5.608   1.463   5.083  0.7941 -1.1559 -1.3699
14162SOL    HW253706   5.451   1.482   5.045  0.1163 -1.6548  1.1163
14163SOL     OW53707   9.953   0.056   6.130  0.6403  0.4198  0.1052
14163SOL    HW153708   9.924   0.151   6.143  0.8816  0.5533 -0.3379
14163SOL    HW253709   9.988   0.044   6.038  2.5061  0.3925  0.8024
14164SOL     OW53710   2.739   3.013   3.460 -0.3804 -0.4012  0.5382
14164SOL    HW153711   2.731   3.101   3.506 -2.7147 -0.2763 -0.0432
14164SOL    HW253712   2.649   2.985   3.425  0.7258 -1.9822 -1.1604
14165SOL     OW53713   3.478   2.402   2.839  0.2294  0.1317 -0.0638
14165SOL    HW153714   3.394   2.362   2.877  0.2806 -0.1033 -0.1993
14165SOL    HW253715   3.527   2.450   2.911  0.0260  0.1891  0.0377
14166SOL     OW53716   0.158   4.820   0.810  0.1219  0.0688  0.2459
14166SOL    HW153717   0.221   4.837   0.735 -0.3032  0.6850  0.0233
14166SOL    HW253718   0.206   4.829   0.898  0.5184 -0.2431  0.0627
14167SOL     OW53719   8.582   2.640   6.412 -0.3350  0.1683 -0.3120
14167SOL    HW153720   8.652   2.642   6.484 -1.5143  1.4777  0.8483
14167SOL    HW253721   8.615   2.587   6.334  1.7056  0.2761  0.4522
14168SOL     OW53722   5.151   1.850   4.256  0.1652  0.0529 -0.3956
14168SOL    HW153723   5.074   1.798   4.293  0.7845  0.6686  1.7998
14168SOL    HW253724   5.202   1.792   4.192 -1.9905 -0.4093 -1.7184
14169SOL     OW53725   3.177   6.841   4.479  0.3662  0.4975 -0.0763
14169SOL    HW153726   3.168   6.938   4.459  1.0586  0.6107  0.1247
14169SOL    HW253727   3.110   6.789   4.427  1.5124  0.8635 -1.9833
14170SOL     OW53728   1.687   1.358   0.357 -0.0676  0.1845  0.3499
14170SOL    HW153729   1.723   1.450   0.369 -1.0711  0.5321  0.7574
14170SOL    HW253730   1.614   1.342   0.423 -1.8656  0.1312 -1.6020
14171SOL     OW53731   7.928   4.624   3.250  0.7352  0.0758  0.0667
14171SOL    HW153732   7.915   4.550   3.184  0.5556  0.7054 -0.6125
14171SOL    HW253733   7.854   4.691   3.239  1.1069  0.5447  0.4205
14172SOL     OW53734   3.003   7.804   4.245 -0.1018 -0.0807  0.2555
14172SOL    HW153735   3.014   7.738   4.171  0.3638  0.6256 -0.3071
14172SOL    HW253736   3.050   7.771   4.327 -0.3854 -0.7312  0.1612
14173SOL     OW53737   9.895   6.325   4.660 -0.2219 -0.2002  0.3845
14173SOL    HW153738   9.936   6.244   4.703 -0.6100 -1.1598 -1.0236
14173SOL    HW253739   9.966   6.379   4.616  0.0100  0.1229  1.1386
14174SOL     OW53740   9.891   0.795   6.184 -0.2936 -0.2899  0.3372
14174SOL    HW153741   9.931   0.734   6.115  0.3235  0.0039  0.4245
14174SOL    HW253742   9.828   0.744   6.242 -1.5367 -0.3404 -1.0297
14175SOL     OW53743   4.456   2.178   4.199 -0.0599 -0.1934  0.7129
14175SOL    HW153744   4.514   2.215   4.126 -2.0858  3.1382  0.6979
14175SOL    HW253745   4.513   2.154   4.277  2.0970 -3.3929 -1.7240
14176SOL     OW53746   5.278   9.821   5.063 -0.2656  0.3500 -0.6669
14176SOL    HW153747   5.311   9.904   5.018  0.7449  0.4545  0.2371
14176SOL    HW253748   5.183   9.833   5.091 -0.2329  1.0650 -0.8649
14177SOL     OW53749   0.992   5.106   1.442  0.4101 -0.0098  0.2102
14177SOL    HW153750   0.992   5.205   1.426 -1.2889 -0.1988 -1.1516
14177SOL    HW253751   1.055   5.062   1.378  1.0074  0.1512  0.6760
14178SOL     OW53752   9.254   3.182   3.289  0.1152  0.3731 -0.2631
14178SOL    HW153753   9.346   3.155   3.320 -0.2779 -0.2191  0.4053
14178SOL    HW253754   9.262   3.242   3.210  1.0453 -0.8792 -1.1347
14179SOL     OW53755   3.092   4.102   3.619 -0.0662 -0.1502 -0.1229
14179SOL    HW153756   3.096   4.079   3.521  0.5828 -0.4161 -0.0380
14179SOL    HW253757   3.121   4.023   3.673  1.5809  0.6295  0.1934
14180SOL     OW53758   4.743   8.402   4.493  0.4447 -0.0994 -0.0878
14180SOL    HW153759   4.701   8.355   4.570 -0.0511  1.8142  0.8266
14180SOL    HW253760   4.840   8.379   4.489  0.1014 -1.6640 -0.0357
14181SOL     OW53761   6.798   0.879   2.135  0.6455 -0.7433  0.3626
14181SOL    HW153762   6.731   0.935   2.087  2.0183  0.8283  0.2619
14181SOL    HW253763   6.833   0.929   2.215  4.2926 -0.0814 -1.5431
14182SOL     OW53764   2.337   4.357   4.357 -0.0148  0.6275  0.3460
14182SOL    HW153765   2.415   4.330   4.301  0.9005  0.8382  1.4912
14182SOL    HW253766   2.252   4.324   4.315  0.8915 -1.9856  0.5193
14183SOL     OW53767   3.052   0.277   0.280  0.6238 -0.2013 -0.4538
14183SOL    HW153768   2.956   0.302   0.268  0.8364  1.5490  1.2544
14183SOL    HW253769   3.106   0.359   0.296  1.8362 -1.4851  2.2873
14184SOL     OW53770   3.521   1.641   6.008  0.0467  0.3456  0.0653
14184SOL    HW153771   3.435   1.649   6.058 -0.6012  0.1141 -0.9790
14184SOL    HW253772   3.596   1.620   6.071 -0.2978  2.5961  1.2509
14185SOL     OW53773   6.015   0.174   5.135 -0.4234  0.4413 -0.2360
14185SOL    HW153774   6.028   0.090   5.188  0.6653  0.6641 -0.1480
14185SOL    HW253775   6.062   0.249   5.181  1.0961  0.5071 -1.8698
14186SOL     OW53776   7.212   1.848   6.654 -0.0650  0.5309  0.1908
14186SOL    HW153777   7.296   1.848   6.707 -1.0143  2.4783  1.7586
14186SOL    HW253778   7.133   1.841   6.716 -1.0607 -3.0079 -1.3336
14187SOL     OW53779   6.450   8.302   3.082 -0.2350 -0.0269 -0.4287
14187SOL    HW153780   6.352   8.281   3.086 -0.1676 -0.3711 -0.5267
14187SOL    HW253781   6.492   8.276   3.169  0.0496 -1.3614 -0.9435
14188SOL     OW53782   0.832   2.875   1.027 -0.6023  0.2287 -1.1135
14188SOL    HW153783   0.772   2.903   1.102  0.9873 -0.4212  0.4113
14188SOL    HW253784   0.786   2.805   0.972 -1.4303  0.0908 -0.2535
14189SOL     OW53785   1.133   9.481   5.448  0.0835  0.1987 -0.1184
14189SOL    HW153786   1.105   9.569   5.410  0.8040  0.6566  0.3979
14189SOL    HW253787   1.065   9.412   5.425  1.0644  0.1986 -3.2540
14190SOL     OW53788   2.574   1.076   2.171 -0.3646 -0.6532 -0.2209
14190SOL    HW153789   2.672   1.054   2.163  0.4995  2.3357  1.4298
14190SOL    HW253790   2.543   1.054   2.263 -0.5513  0.9207  0.1007
14191SOL     OW53791   9.279   8.373   3.454 -0.4974  0.3098  0.4048
14191SOL    HW153792   9.191   8.367   3.500 -0.6142 -1.2885  0.0189
14191SOL    HW253793   9.332   8.290   3.472 -0.7688 -0.6216 -2.7112
14192SOL     OW53794   1.235   5.024   6.235 -0.3528  0.0085  0.0834
14192SOL    HW153795   1.229   5.060   6.328  2.1806 -2.8324  1.4265
14192SOL    HW253796   1.156   4.965   6.217 -1.7090  1.8632 -0.2100
14193SOL     OW53797   4.408   0.321   4.565 -0.1070  0.8712  0.3774
14193SOL    HW153798   4.462   0.309   4.482 -1.8025  1.5293 -0.8423
14193SOL    HW253799   4.392   0.418   4.581  0.7990  0.7897  1.8791
14194SOL     OW53800   7.928   2.026   0.824 -0.3150  0.2098 -0.4844
14194SOL    HW153801   8.019   1.984   0.814  0.1169  1.3810 -1.6835
14194SOL    HW253802   7.937   2.112   0.874 -0.7394  0.3996 -0.7342
14195SOL     OW53803   4.142   3.404   4.833  0.4408  0.2647 -0.1403
14195SOL    HW153804   4.193   3.455   4.902  0.2414 -1.5799  1.4159
14195SOL    HW253805   4.193   3.322   4.807  0.1574  0.5513 -1.6344
14196SOL     OW53806   9.274   8.163   3.796  0.1935 -0.2001  0.8790
14196SOL    HW153807   9.222   8.078   3.799 -0.1214 -0.0023  0.9672
14196SOL    HW253808   9.215   8.240   3.822  0.6383 -0.0358  1.4308
14197SOL     OW53809   8.493   7.884   0.532  0.1501  0.1858  0.4920
14197SOL    HW153810   8.568   7.828   0.568 -0.1746  0.4146  1.5514
14197SOL    HW253811   8.504   7.978   0.564  0.2112  0.5338 -0.5598
14198SOL     OW53812   4.362   2.718   2.909  0.1507  0.7620 -0.0927
14198SOL    HW153813   4.407   2.803   2.935  1.1712  0.1639  0.1242
14198SOL    HW253814   4.288   2.698   2.974  0.0001  1.4122 -0.0670
14199SOL     OW53815   9.972   7.221   1.515  0.0820  0.8516 -0.4700
14199SOL    HW153816  10.024   7.258   1.437  2.3567  1.2324  1.1629
14199SOL    HW253817   9.886   7.270   1.524  1.0035  2.6423 -1.1586
14200SOL     OW53818   1.453   9.494   4.361  0.1356  0.1456 -0.0291
14200SOL    HW153819   1.550   9.491   4.338 -0.1048 -1.1701 -0.9400
14200SOL    HW253820   1.441   9.465   4.456  0.5110 -1.2165 -0.3801
14201SOL     OW53821   1.180   0.520   1.308 -0.0339 -0.2741 -0.4642
14201SOL    HW153822   1.199   0.532   1.406 -0.2857  1.6294 -0.6353
14201SOL    HW253823   1.198   0.606   1.260  1.1322 -1.4952 -2.2796
14202SOL     OW53824   7.288   6.629   0.178 -1.1317 -0.2034  0.0621
14202SOL    HW153825   7.329   6.695   0.116 -2.3242  0.8775  0.3866
14202SOL    HW253826   7.276   6.671   0.268 -0.1493 -1.4902  0.8213
14203SOL     OW53827   2.022   4.045   3.602 -0.5924  0.2347 -0.0113
14203SOL    HW153828   1.959   4.112   3.641 -1.1611 -0.8749  1.0234
14203SOL    HW253829   1.970   3.965   3.571  0.0704  0.2886 -1.3112
14204SOL     OW53830   7.207   8.051   3.720  0.2440  0.3858 -0.4534
14204SOL    HW153831   7.156   7.967   3.735 -1.9816  1.5252 -1.4736
14204SOL    HW253832   7.203   8.108   3.802 -0.9132  0.8791 -0.8489
14205SOL     OW53833   6.290   0.561   5.457  0.0634 -0.0364 -0.0387
14205SOL    HW153834   6.312   0.613   5.375  0.8004  1.2446  0.9415
14205SOL    HW253835   6.371   0.509   5.486 -0.1140 -0.2788  0.0183
14206SOL     OW53836   9.607   2.841   3.485  0.1519 -0.5157  0.1614
14206SOL    HW153837   9.626   2.841   3.583  0.0048 -2.1790  0.1966
14206SOL    HW253838   9.524   2.789   3.467  0.8780 -1.3072 -0.9647
14207SOL     OW53839   4.561   2.129   2.052  0.1098 -0.0264  0.0370
14207SOL    HW153840   4.549   2.228   2.042  0.1408  0.0906  1.1125
14207SOL    HW253841   4.479   2.082   2.021  0.6352  0.2492 -1.8567
14208SOL     OW53842   9.231   8.483   3.800  0.0176 -0.0542  0.1580
14208SOL    HW153843   9.307   8.495   3.864 -0.2059  2.3627 -0.0028
14208SOL    HW253844   9.214   8.568   3.751 -1.6452 -1.0768 -1.1066
14209SOL     OW53845   5.844   9.874   1.387  0.1315  0.1009  0.5205
14209SOL    HW153846   5.776   9.940   1.355  1.8304  1.3972 -0.5556
14209SOL    HW253847   5.848   9.875   1.487 -1.0032  0.4685  0.5634
14210SOL     OW53848   8.442   2.489   4.757 -0.1609  0.1413  0.3556
14210SOL    HW153849   8.512   2.557   4.781  0.3898  0.2053 -1.3870
14210SOL    HW253850   8.377   2.530   4.694 -0.9591 -0.3586  0.8530
14211SOL     OW53851   1.314   0.453   4.951  0.0851 -0.3237 -0.1666
14211SOL    HW153852   1.413   0.455   4.969  0.3082 -0.0997 -1.3553
14211SOL    HW253853   1.286   0.360   4.929  0.2939 -0.1487 -1.1949
14212SOL     OW53854   4.060   4.181   3.734  0.6157 -0.2851  0.1008
14212SOL    HW153855   4.118   4.256   3.703 -0.2259  0.1641 -0.4182
14212SOL    HW253856   4.050   4.185   3.833 -0.4067  1.0261 -0.0328
14213SOL     OW53857   8.780   7.787   5.182  0.0919 -0.0062  0.1896
14213SOL    HW153858   8.808   7.739   5.265  0.4995  1.0623  0.6847
14213SOL    HW253859   8.812   7.882   5.186  0.0339  0.0838 -1.1492
14214SOL     OW53860   7.797   3.612   6.034 -0.1387  0.7576  0.2829
14214SOL    HW153861   7.830   3.539   5.975  0.8118  2.7886 -1.7953
14214SOL    HW253862   7.871   3.677   6.051 -1.6271  2.6354 -0.1482
14215SOL     OW53863   2.591   7.627   5.968  0.5765  0.1608 -0.3995
14215SOL    HW153864   2.537   7.611   5.886 -1.3482 -1.2647  1.1016
14215SOL    HW253865   2.559   7.567   6.042  1.8111  1.8896  1.6050
14216SOL     OW53866   2.597   8.930   2.465 -0.1252 -0.0204  0.7073
14216SOL    HW153867   2.606   8.845   2.517  1.4086 -0.6377 -0.5121
14216SOL    HW253868   2.598   8.908   2.367  1.3557  1.4808  0.3615
14217SOL     OW53869   4.408   6.161   2.511 -0.7545  0.3901  0.7656
14217SOL    HW153870   4.474   6.104   2.463 -0.9843  1.6150 -1.0297
14217SOL    HW253871   4.453   6.205   2.589  0.6885  1.5144 -0.6567
14218SOL     OW53872   9.208   6.066   1.007 -0.6258 -0.0130  0.1120
14218SOL    HW153873   9.301   6.103   1.016 -1.3386  1.8935 -0.1942
14218SOL    HW253874   9.178   6.030   1.095  0.1356  0.0231  0.3921
14219SOL     OW53875   5.652   2.541   4.498 -0.7440 -0.7753 -0.2457
14219SOL    HW153876   5.628   2.526   4.594 -0.9162 -1.5446 -0.4036
14219SOL    HW253877   5.711   2.621   4.490 -1.2394 -0.3393  0.4289
14220SOL     OW53878   1.080   4.755   5.893 -0.3241 -0.3723 -0.0781
14220SOL    HW153879   1.098   4.812   5.973  0.6679  0.2636 -0.7517
14220SOL    HW253880   0.981   4.752   5.876 -0.5664 -0.7346  1.3217
14221SOL     OW53881   1.803   5.739   2.190 -0.2601  0.7419 -0.0845
14221SOL    HW153882   1.706   5.718   2.194  0.3771 -2.2950  0.9088
14221SOL    HW253883   1.829   5.796   2.268 -0.8556 -0.1831  0.7936
14222SOL     OW53884   1.803   5.788   5.438 -0.5187  0.0276  0.7879
14222SOL    HW153885   1.802   5.698   5.481 -0.1606  0.9492  2.7754
14222SOL    HW253886   1.709   5.824   5.434 -0.7969 -0.8373 -0.9283
14223SOL     OW53887   0.074   0.421   3.921 -0.1407  0.1372 -0.1020
14223SOL    HW153888   0.056   0.327   3.947  0.9968  0.0205  0.2864
14223SOL    HW253889   0.063   0.481   4.000  1.6343 -0.0008  0.2650
14224SOL     OW53890   6.296   0.144   4.914  0.4658  0.1053 -0.4545
14224SOL    HW153891   6.294   0.194   5.001  0.7721  0.7997 -0.8359
14224SOL    HW253892   6.390   0.114   4.895  0.6970  1.3082 -1.2906
14225SOL     OW53893   5.725   2.393   4.106 -0.6749 -0.4746 -0.4304
14225SOL    HW153894   5.663   2.368   4.031 -0.8940 -0.5893 -0.2124
14225SOL    HW253895   5.684   2.364   4.193 -0.2213 -0.7259 -0.3023
14226SOL     OW53896   3.161   1.301   0.691  0.2795 -0.3199 -0.6392
14226SOL    HW153897   3.196   1.391   0.661  1.1441  0.0328  1.3289
14226SOL    HW253898   3.146   1.243   0.611  1.9460  0.7843 -1.7954
14227SOL     OW53899   6.655   6.676   5.273  0.2288  0.1727  0.0159
14227SOL    HW153900   6.623   6.770   5.282  0.4421  0.2572 -0.1105
14227SOL    HW253901   6.581   6.613   5.298  0.4483  0.3869  1.2088
14228SOL     OW53902   2.879   0.026   2.049 -1.1847 -0.0118 -0.2912
14228SOL    HW153903   2.868  -0.056   2.105  2.1338  0.5034  1.2564
14228SOL    HW253904   2.802   0.088   2.066 -1.6295 -1.0435  1.6638
14229SOL     OW53905   2.903   1.605   4.238 -0.5259  0.9564 -0.0031
14229SOL    HW153906   2.896   1.552   4.323 -0.6525  0.8010 -0.1093
14229SOL    HW253907   2.814   1.645   4.217 -0.6945  0.3492 -0.4783
14230SOL     OW53908   0.050   0.315   2.336  0.4895 -0.0626  0.3540
14230SOL    HW153909   0.136   0.290   2.381 -0.8176  0.0935  3.0018
14230SOL    HW253910   0.017   0.401   2.374 -0.6380  0.1072 -0.9783
14231SOL     OW53911   7.489   2.512   6.640 -0.8696  0.4808 -0.0294
14231SOL    HW153912   7.409   2.486   6.585 -0.9154  2.0743 -0.7513
14231SOL    HW253913   7.493   2.455   6.721 -1.5597 -1.0227 -1.0310
14232SOL     OW53914   0.036   5.332   6.092 -0.1570 -0.1284 -0.3325
14232SOL    HW153915  -0.038   5.394   6.118 -0.4929  0.3079 -2.2641
14232SOL    HW253916   0.033   5.317   5.993 -0.0143 -3.1081  0.0711
14233SOL     OW53917   3.857   9.288   4.924 -0.7282  0.4539 -0.2387
14233SOL    HW153918   3.860   9.199   4.878 -0.8114  2.1271 -3.5927
14233SOL    HW253919   3.948   9.311   4.957  0.1804  0.8911 -2.9350
14234SOL     OW53920   1.853   6.553   5.626  0.5291 -0.1823 -0.1529
14234SOL    HW153921   1.785   6.545   5.699  0.4041 -1.0647 -0.3643
14234SOL    HW253922   1.913   6.474   5.627 -0.2299 -0.8037 -1.7696
14235SOL     OW53923   0.894   4.636   0.643  0.1857  0.0279 -0.1366
14235SOL    HW153924   0.801   4.654   0.611  0.5248  2.1629 -0.0235
14235SOL    HW253925   0.891   4.583   0.728 -0.8823 -0.9554 -0.7856
14236SOL     OW53926   1.946   5.494   1.784  0.1226 -0.5959  0.2785
14236SOL    HW153927   1.908   5.410   1.745 -0.3031 -0.2276 -0.1055
14236SOL    HW253928   1.905   5.512   1.873  2.2540 -2.3017  1.6616
14237SOL     OW53929   8.549   5.699   1.109 -0.4834  0.4093  0.1342
14237SOL    HW153930   8.565   5.600   1.100  0.0944  0.6503 -1.6069
14237SOL    HW253931   8.584   5.730   1.198  2.6455 -0.3275 -0.7850
14238SOL     OW53932   3.118   2.751   1.429 -0.0241  0.1550  0.2675
14238SOL    HW153933   3.022   2.722   1.435 -0.8009  2.7200  1.1359
14238SOL    HW253934   3.131   2.801   1.343  0.2948  0.5819  0.5639
14239SOL     OW53935   4.606   0.895   0.079 -0.0154 -0.9230  0.3987
14239SOL    HW153936   4.571   0.875   0.171  0.5454 -1.3373  0.5234
14239SOL    HW253937   4.530   0.925   0.021 -0.2018  0.3754  1.2840
14240SOL     OW53938   7.028   9.301   4.218  0.3399  0.2754  0.4228
14240SOL    HW153939   6.948   9.242   4.207 -0.1584  1.4180 -2.5287
14240SOL    HW253940   7.110   9.252   4.188 -0.0626  0.9392 -1.9394
14241SOL     OW53941   8.964   6.271   0.897  0.4015  0.2297 -0.6244
14241SOL    HW153942   8.929   6.315   0.980 -0.2304  0.1147 -0.8235
14241SOL    HW253943   9.019   6.192   0.922 -0.8899 -0.5943 -0.3443
14242SOL     OW53944   7.218   1.112   0.842  0.3017  0.0061 -0.1164
14242SOL    HW153945   7.292   1.071   0.896  0.6071  1.6929  0.7871
14242SOL    HW253946   7.256   1.163   0.765 -0.0926 -1.6775 -1.4514
14243SOL     OW53947   9.785   6.213   5.198  0.1939 -0.2180 -0.1308
14243SOL    HW153948   9.787   6.289   5.264  0.8795 -0.7739  0.4952
14243SOL    HW253949   9.878   6.191   5.169  0.0505 -1.2158  0.1463
14244SOL     OW53950   4.870   0.171   4.578 -0.2914  0.6846 -0.4306
14244SOL    HW153951   4.942   0.170   4.509  0.1947  1.0844  0.0640
14244SOL    HW253952   4.904   0.218   4.660 -1.3806  1.6242 -0.5024
14245SOL     OW53953   9.971   0.033   6.726 -0.2597  0.3568 -0.2853
14245SOL    HW153954   9.908   0.065   6.797  0.3817 -0.2550  0.5704
14245SOL    HW253955   9.919  -0.002   6.648 -0.9713  1.1483 -0.1679
14246SOL     OW53956   2.312   8.742   4.218 -0.1463  0.2074 -0.2161
14246SOL    HW153957   2.333   8.691   4.134  0.0394 -0.0705  0.0005
14246SOL    HW253958   2.360   8.701   4.295  0.0768  0.7587 -0.0550
14247SOL     OW53959   1.893   8.307   6.216  0.5026  0.5282 -0.1423
14247SOL    HW153960   1.835   8.307   6.298  0.9155 -1.8395  0.1801
14247SOL    HW253961   1.976   8.360   6.233  0.1666  0.7984  0.6608
14248SOL     OW53962   4.504   1.694   6.116 -0.0824  0.1225  0.0403
14248SOL    HW153963   4.558   1.707   6.199  0.4760  0.4873 -0.3698
14248SOL    HW253964   4.564   1.700   6.036 -0.4950 -0.9460 -0.3567
14249SOL     OW53965   9.976   5.090   3.172 -0.3020  0.2879 -0.5043
14249SOL    HW153966  10.008   5.092   3.077  2.1769  1.8727  0.3311
14249SOL    HW253967   9.932   5.177   3.194  0.5006  0.4915  0.2730
14250SOL     OW53968   0.214   8.928   4.124  0.4442 -0.0752 -0.2299
14250SOL    HW153969   0.223   8.833   4.097 -0.7900 -0.7939  1.7707
14250SOL    HW253970   0.148   8.974   4.064  0.3855 -0.7090 -0.6487
14251SOL     OW53971   2.423   8.645   3.349 -0.1816  0.1761  1.1130
14251SOL    HW153972   2.405   8.548   3.335  2.0840 -0.0896 -0.1818
14251SOL    HW253973   2.354   8.699   3.300  0.1753 -0.7839 -0.4808
14252SOL     OW53974   9.736   2.256   0.553  0.5354  0.6434  0.4774
14252SOL    HW153975   9.738   2.239   0.652  1.2260 -0.0368  0.3476
14252SOL    HW253976   9.826   2.237   0.514 -0.3035 -1.2005 -0.6327
14253SOL     OW53977   6.144   9.808   3.109  0.1823  0.4287 -0.2521
14253SOL    HW153978   6.206   9.887   3.100  3.7219 -2.1434  0.4781
14253SOL    HW253979   6.157   9.746   3.032 -0.5466 -0.7759  0.5824
14254SOL     OW53980   1.661   7.832   3.181  0.4790 -0.6376 -0.3938
14254SOL    HW153981   1.688   7.742   3.147  0.7132 -1.6198  2.3135
14254SOL    HW253982   1.721   7.901   3.141  1.5967 -1.8868 -0.9325
14255SOL     OW53983   0.264   2.252   5.305 -0.0246 -0.6300 -0.0487
14255SOL    HW153984   0.326   2.274   5.381  0.8151 -0.9297 -0.6379
14255SOL    HW253985   0.316   2.253   5.220 -1.2859  1.3636 -0.8348
14256SOL     OW53986   7.834   0.393   1.234 -0.2727 -0.5702 -0.3743
14256SOL    HW153987   7.759   0.329   1.252 -0.1885 -0.3503  0.7985
14256SOL    HW253988   7.916   0.342   1.209 -1.0882 -0.7702 -2.7968
14257SOL     OW53989   7.019   2.499   1.215 -0.2664 -0.5889 -0.2279
14257SOL    HW153990   7.099   2.476   1.160  0.6197 -0.2504  0.9053
14257SOL    HW253991   6.947   2.536   1.156  0.2274 -1.3520 -1.3161
14258SOL     OW53992   7.013   0.802   3.352 -0.1534 -0.1158  0.1713
14258SOL    HW153993   6.968   0.887   3.377 -0.0724 -0.2860  0.9326
14258SOL    HW253994   6.963   0.725   3.393 -0.1397 -0.4184 -0.3805
14259SOL     OW53995   6.821   2.405   1.688 -0.2984  0.1067  0.0229
14259SOL    HW153996   6.796   2.318   1.729  0.0390  0.2147  0.4548
14259SOL    HW253997   6.745   2.469   1.696 -0.9233 -0.4636 -1.1992
14260SOL     OW53998   2.510   5.983   0.974  0.2540  0.1318 -0.2274
14260SOL    HW153999   2.487   6.080   0.983  0.8346  0.2846 -0.3994
14260SOL    HW254000   2.512   5.941   1.064  1.8475  0.6994  0.0031
14261SOL     OW54001   9.600   4.718   2.850  0.1210  0.1414  0.1985
14261SOL    HW154002   9.615   4.705   2.752 -2.1018  0.9128 -0.2593
14261SOL    HW254003   9.562   4.634   2.890  1.8721 -0.4855  0.6084
14262SOL     OW54004   9.824   5.822   3.474 -0.5782  0.2273 -0.0020
14262SOL    HW154005   9.827   5.765   3.391  3.2418  1.9158 -1.1407
14262SOL    HW254006   9.833   5.763   3.554 -0.2400 -1.0813 -0.9739
14263SOL     OW54007   3.345   9.943   1.275 -0.4171 -0.2806 -0.0549
14263SOL    HW154008   3.261   9.997   1.280 -0.4394 -0.1837 -1.2335
14263SOL    HW254009   3.421  10.001   1.247 -0.3397 -0.7365 -0.8283
14264SOL     OW54010   7.849   1.397   4.667  0.1531  0.5369 -0.7787
14264SOL    HW154011   7.816   1.320   4.722 -0.7597  2.0599  0.8689
14264SOL    HW254012   7.824   1.383   4.572 -1.0731 -0.6140 -0.3034
14265SOL     OW54013   6.916   4.661   0.051  0.2638  0.2942  0.0886
14265SOL    HW154014   6.893   4.591   0.117  0.0332  0.1828 -0.1100
14265SOL    HW254015   6.932   4.619  -0.039 -0.1371  0.5253 -0.0915
14266SOL     OW54016   7.894   0.870   0.076 -0.1202 -0.0266  0.5140
14266SOL    HW154017   7.839   0.888  -0.005  1.1657 -0.0709 -0.3770
14266SOL    HW254018   7.882   0.775   0.104 -0.1243 -0.1679  0.0356
14267SOL     OW54019   3.258   6.804   0.475  0.5100 -0.1061 -0.5725
14267SOL    HW154020   3.339   6.812   0.417  0.7119  1.7033 -0.0782
14267SOL    HW254021   3.176   6.799   0.418  0.5697  3.2656 -1.0744
14268SOL     OW54022   1.467   8.607   1.466 -0.0634 -0.0982  0.0684
14268SOL    HW154023   1.461   8.519   1.513  0.0824  0.3824  1.0009
14268SOL    HW254024   1.552   8.653   1.492  0.5675 -0.3135 -1.5447
14269SOL     OW54025   1.167   6.598   0.799  0.4482 -0.3924  0.0937
14269SOL    HW154026   1.099   6.531   0.768 -0.4890  0.1451  0.9730
14269SOL    HW254027   1.209   6.642   0.719 -0.0398 -0.9228 -0.4595
14270SOL     OW54028   9.055   0.971   4.047  0.1619 -0.4578 -0.0480
14270SOL    HW154029   9.155   0.968   4.046  0.1223 -1.7204 -1.8333
14270SOL    HW254030   9.023   1.048   3.992  0.1083 -2.7252 -3.3269
14271SOL     OW54031   7.763   8.594   6.398 -0.0451  0.7553 -0.2232
14271SOL    HW154032   7.789   8.672   6.342 -0.0447  1.2173  0.4273
14271SOL    HW254033   7.666   8.572   6.382  0.3951 -0.1959 -1.7035
14272SOL     OW54034   7.733   1.781   0.393 -0.3674 -0.6212 -0.2046
14272SOL    HW154035   7.741   1.769   0.492  1.6183  1.4834 -0.0653
14272SOL    HW254036   7.823   1.772   0.351 -1.1140 -0.9418 -1.7531
14273SOL     OW54037   0.945   7.892   1.006 -0.6018 -0.2127  0.5509
14273SOL    HW154038   0.854   7.910   0.969  0.6243  0.5386 -2.2224
14273SOL    HW254039   0.983   7.810   0.963  1.1494  1.1119 -0.5115
14274SOL     OW54040   2.783   2.474   6.281  0.3083 -0.0313 -0.8063
14274SOL    HW154041   2.870   2.489   6.327  0.4643 -1.2783 -0.6782
14274SOL    HW254042   2.712   2.531   6.323  0.3101 -1.6055  1.3996
14275SOL     OW54043   0.351   0.138   3.952 -0.1003 -0.0571  0.0428
14275SOL    HW154044   0.412   0.204   3.997  0.2415 -0.8655  0.7942
14275SOL    HW254045   0.298   0.089   4.022 -1.2303  0.2680 -0.5783
14276SOL     OW54046   3.808   3.408   1.492 -0.3950  0.1572  0.7115
14276SOL    HW154047   3.791   3.506   1.482 -1.6056 -0.0712  0.4137
14276SOL    HW254048   3.889   3.382   1.440 -0.7747  0.7858 -0.1988
14277SOL     OW54049   4.555   5.571   2.649  0.6796 -0.0133 -0.0493
14277SOL    HW154050   4.559   5.661   2.692  0.8543  0.0201 -0.1331
14277SOL    HW254051   4.460   5.541   2.642  0.6148  0.2096 -0.1140
14278SOL     OW54052   3.337   5.751   1.534  0.4418 -0.0620 -0.4351
14278SOL    HW154053   3.397   5.681   1.575  1.4003  0.5132 -0.8338
14278SOL    HW254054   3.352   5.838   1.581 -0.6338 -0.0795 -0.0515
14279SOL     OW54055   7.805   1.097   1.281  0.1555 -1.1048 -0.0129
14279SOL    HW154056   7.728   1.049   1.323  0.3903 -1.0648  0.4628
14279SOL    HW254057   7.833   1.049   1.198 -0.1348 -1.3308  0.0204
14280SOL     OW54058   6.875   7.593   3.239  0.6729  0.4092  0.1992
14280SOL    HW154059   6.804   7.542   3.289  0.8980 -0.9830 -0.8791
14280SOL    HW254060   6.864   7.691   3.256 -0.6711  0.1095  1.1259
14281SOL     OW54061   0.511   2.253   4.604 -0.5235  0.6932  0.1329
14281SOL    HW154062   0.531   2.323   4.673 -0.4233  0.1044  0.6995
14281SOL    HW254063   0.575   2.261   4.528  0.5580  0.1321  0.9825
14282SOL     OW54064   2.963   1.862   4.585 -0.4366  0.1788  0.1799
14282SOL    HW154065   3.062   1.854   4.596 -0.4006 -0.1358 -0.3357
14282SOL    HW254066   2.921   1.886   4.672  0.2909  2.1313  0.0377
14283SOL     OW54067   1.812   4.673   1.983  0.1807  0.6051 -0.3386
14283SOL    HW154068   1.735   4.612   1.964 -0.0866  0.8531 -0.0607
14283SOL    HW254069   1.881   4.624   2.036 -0.4690  0.8168  0.7231
14284SOL     OW54070   9.149   6.246   1.940 -0.3568  0.8134  0.0071
14284SOL    HW154071   9.053   6.220   1.948 -0.2173  0.6346  1.2864
14284SOL    HW254072   9.200   6.173   1.894 -0.7072  0.5946 -0.0347
14285SOL     OW54073   8.194   8.027   2.834 -0.2551 -0.0737 -0.0217
14285SOL    HW154074   8.104   8.036   2.792 -1.4378  1.4821  2.7631
14285SOL    HW254075   8.251   8.105   2.808 -1.5589  1.8047  2.4938
14286SOL     OW54076   3.710   8.470   4.242 -0.5950 -0.1323 -0.0397
14286SOL    HW154077   3.656   8.554   4.226  0.5351  0.4306 -1.0221
14286SOL    HW254078   3.650   8.391   4.233 -1.6482  0.5619  0.7101
14287SOL     OW54079   8.823   1.244   5.841  0.3681  0.1628 -0.1704
14287SOL    HW154080   8.817   1.307   5.919  0.2218  1.9932 -1.6153
14287SOL    HW254081   8.819   1.150   5.874 -2.2678  0.9005  1.8389
14288SOL     OW54082   1.545   3.125   0.893 -0.5769  0.2738  0.1716
14288SOL    HW154083   1.612   3.104   0.964  0.6314  0.6257 -0.8599
14288SOL    HW254084   1.541   3.224   0.878 -1.3207  0.2561  0.2227
14289SOL     OW54085   2.631   0.199   1.264  0.2361 -0.1226 -0.4840
14289SOL    HW154086   2.537   0.224   1.240 -0.5005 -2.7919 -0.4674
14289SOL    HW254087   2.638   0.183   1.362  0.6017 -0.4093 -0.5545
14290SOL     OW54088   9.293   0.213   6.421  0.2932  0.0675  0.0426
14290SOL    HW154089   9.310   0.185   6.515  1.4323 -1.7186 -0.6773
14290SOL    HW254090   9.263   0.308   6.419  0.3899  0.1508  2.1874
14291SOL     OW54091   1.670   9.159   6.436 -0.2211 -0.1210 -0.1132
14291SOL    HW154092   1.584   9.130   6.479 -0.2935  1.4258  0.8276
14291SOL    HW254093   1.650   9.211   6.353 -0.2576  1.5496  0.9256
14292SOL     OW54094   6.325   8.494   3.529  0.2554  0.0704 -0.0471
14292SOL    HW154095   6.275   8.489   3.443  0.5297  0.0659 -0.2067
14292SOL    HW254096   6.280   8.558   3.590 -0.1254 -0.1725 -0.0705
14293SOL     OW54097   1.115   7.376   5.181 -0.4219  0.1833  0.9436
14293SOL    HW154098   1.145   7.335   5.095 -1.6680 -1.9406  1.4671
14293SOL    HW254099   1.166   7.336   5.257 -1.9979 -0.8339  1.5048
14294SOL     OW54100   9.396   4.418   1.767 -0.0096 -0.6507 -0.2252
14294SOL    HW154101   9.309   4.375   1.745 -0.1924 -0.5201  0.2286
14294SOL    HW254102   9.413   4.410   1.865 -0.5740  1.2807  0.0524
14295SOL     OW54103   8.015   6.252   3.328 -0.3646  0.0547 -0.0283
14295SOL    HW154104   7.953   6.330   3.329  0.4258  0.7008 -0.4790
14295SOL    HW254105   8.051   6.237   3.420  1.5642  1.9275 -0.4435
14296SOL     OW54106   7.051   2.232   3.280  0.1427 -0.0642  0.3554
14296SOL    HW154107   7.101   2.270   3.357  0.3567 -0.3013  0.3351
14296SOL    HW254108   7.070   2.286   3.198 -0.2635  0.3243  0.5131
14297SOL     OW54109   0.572   7.237   5.809 -0.1514  0.4560  0.0502
14297SOL    HW154110   0.582   7.211   5.713 -0.7398 -1.4918  0.4948
14297SOL    HW254111   0.646   7.299   5.835  1.7678 -1.4084 -0.8412
14298SOL     OW54112   0.205   3.550   6.624  0.2260  0.1212  0.4465
14298SOL    HW154113   0.228   3.474   6.684  1.4918 -0.8644 -1.2442
14298SOL    HW254114   0.288   3.601   6.601 -0.5144  1.6486  1.0457
14299SOL     OW54115   9.194   5.852   2.973 -0.0514  0.3726  0.0303
14299SOL    HW154116   9.096   5.833   2.974  0.0782 -0.3710  1.5927
14299SOL    HW254117   9.211   5.942   3.013 -0.1273  0.6167 -0.4936
14300SOL     OW54118   9.713   1.958   2.598 -0.0009 -0.5758 -0.2774
14300SOL    HW154119   9.691   1.919   2.687 -3.9760  1.1099 -0.4084
14300SOL    HW254120   9.677   1.898   2.526  1.6783 -1.0701 -0.7103
14301SOL     OW54121   3.142   0.913   0.294  0.1308  0.4078 -0.3548
14301SOL    HW154122   3.109   1.007   0.308 -0.2551  0.0183  1.4545
14301SOL    HW254123   3.217   0.894   0.357 -1.1500 -1.1512  0.7384
14302SOL     OW54124   0.071   0.526   4.776 -0.1270  0.4660 -0.6750
14302SOL    HW154125   0.070   0.537   4.875 -2.2012  0.1666 -0.6335
14302SOL    HW254126   0.125   0.599   4.735 -0.4106  1.4023  0.5909
14303SOL     OW54127   0.103   7.300   1.034  0.0889  0.4589  0.0140
14303SOL    HW154128   0.113   7.334   1.128 -2.2378 -1.4329  0.9875
14303SOL    HW254129   0.149   7.212   1.025 -0.9380 -0.0529 -0.2245
14304SOL     OW54130   4.802   3.774   0.926 -0.2521  0.1241  0.3604
14304SOL    HW154131   4.840   3.685   0.951  0.7176  0.7498  1.1459
14304SOL    HW254132   4.807   3.786   0.827 -2.8867 -1.8149 -0.0529
14305SOL     OW54133   3.411   1.378   1.164  0.1686  0.8029 -0.2469
14305SOL    HW154134   3.352   1.375   1.083 -0.4337  0.9226  0.1796
14305SOL    HW254135   3.469   1.459   1.160 -1.5469  2.1185  0.5816
14306SOL     OW54136   8.470   5.438   4.815  0.1285 -0.0264 -0.5670
14306SOL    HW154137   8.474   5.498   4.894  1.7513  1.1390 -1.5187
14306SOL    HW254138   8.562   5.419   4.782 -0.3852 -2.4132 -0.7753
14307SOL     OW54139   5.254   2.044   2.404 -0.1929  0.4557  0.6450
14307SOL    HW154140   5.300   1.965   2.363 -3.1625 -0.1081 -1.9060
14307SOL    HW254141   5.205   2.015   2.486 -3.5343 -1.1545 -1.7673
14308SOL     OW54142   9.723   2.275   6.167 -0.0267  0.5847 -1.0075
14308SOL    HW154143   9.701   2.370   6.191  3.2187  0.6423  2.1028
14308SOL    HW254144   9.769   2.273   6.078  2.1674  2.2831  0.0329
14309SOL     OW54145   0.813   4.961   5.702  0.6905 -0.2998 -0.1322
14309SOL    HW154146   0.805   4.886   5.769 -1.8514  1.3262  1.4858
14309SOL    HW254147   0.850   5.042   5.746 -1.1575  0.8414 -0.6051
14310SOL     OW54148   0.395   2.884   5.033 -0.9358 -0.3348  0.2128
14310SOL    HW154149   0.316   2.924   4.987 -0.9461  0.4813  0.9192
14310SOL    HW254150   0.445   2.956   5.082 -0.3692 -1.0230  0.6613
14311SOL     OW54151   0.041   6.023   5.579  0.3075  0.0119 -0.1352
14311SOL    HW154152   0.119   6.060   5.629  1.1894 -0.8822 -0.8262
14311SOL    HW254153   0.071   5.990   5.490 -0.6653 -1.3010  0.0037
14312SOL     OW54154   7.815   5.306   4.924 -0.6243  0.4789  0.1871
14312SOL    HW154155   7.830   5.350   4.835  0.4533 -1.1674 -0.4743
14312SOL    HW254156   7.873   5.350   4.993 -0.4187  0.8475 -0.2158
14313SOL     OW54157   9.059   5.878   6.124 -0.0857  0.0202 -0.1768
14313SOL    HW154158   9.130   5.944   6.147  0.1263 -0.5783  0.9188
14313SOL    HW254159   8.995   5.919   6.059  1.7832  0.2465 -1.9180
14314SOL     OW54160   0.321   6.015   5.708  0.0296 -0.0978 -0.4622
14314SOL    HW154161   0.335   6.086   5.776 -1.5710 -0.3854  0.1781
14314SOL    HW254162   0.410   5.984   5.674  0.7702  1.3455  0.1344
14315SOL     OW54163   8.125   4.224   1.891  0.3262  0.4885  0.4857
14315SOL    HW154164   8.132   4.293   1.819 -2.6314  1.2780  0.8898
14315SOL    HW254165   8.055   4.157   1.865  0.6446 -0.3234  1.7301
14316SOL     OW54166   2.804   2.511   2.164 -0.2590 -0.4049 -0.2568
14316SOL    HW154167   2.733   2.444   2.143 -1.1201  0.3618  0.1534
14316SOL    HW254168   2.765   2.584   2.221  1.2423 -0.7834  1.2874
14317SOL     OW54169   6.041   8.048   3.441  0.3098  0.2558  0.5715
14317SOL    HW154170   6.139   8.036   3.453  0.1291 -0.7411  1.1584
14317SOL    HW254171   5.998   7.958   3.432 -0.0887  0.7444 -3.4799
14318SOL     OW54172   0.179   7.002   4.992  0.3835  0.6759 -0.3447
14318SOL    HW154173   0.166   6.932   4.922  3.0995  0.3174 -0.5632
14318SOL    HW254174   0.241   7.073   4.958  0.6426  1.2124  1.1778
14319SOL     OW54175   2.362   6.652   0.451  0.1384  0.2124 -0.2037
14319SOL    HW154176   2.455   6.653   0.490  0.0807  1.9389 -0.0734
14319SOL    HW254177   2.366   6.618   0.357  0.7328 -0.7972  0.1694
14320SOL     OW54178   0.721   6.899   5.412 -0.1605  0.2674 -0.2056
14320SOL    HW154179   0.811   6.935   5.436 -0.8709  1.8558  0.1693
14320SOL    HW254180   0.683   6.953   5.336 -0.9413 -0.1463 -0.1127
14321SOL     OW54181   4.645   3.956   1.756  0.1057  0.4444 -0.1901
14321SOL    HW154182   4.722   3.949   1.693  0.6591 -2.7798  0.7822
14321SOL    HW254183   4.570   3.898   1.724 -0.7045  1.0192  0.6197
14322SOL     OW54184   6.591   0.696   2.917 -0.6259  0.0748 -0.4050
14322SOL    HW154185   6.570   0.689   2.819  0.2497 -0.6991 -0.5550
14322SOL    HW254186   6.689   0.681   2.931 -0.4454  1.8934  0.4330
14323SOL     OW54187   3.586   9.428   5.153 -0.8898 -0.0254  0.6484
14323SOL    HW154188   3.632   9.396   5.237  0.4205  1.4572  0.5209
14323SOL    HW254189   3.507   9.484   5.177 -1.9654 -1.5943  0.8699
14324SOL     OW54190   7.047   5.415   0.151  0.4187 -0.1843  0.0601
14324SOL    HW154191   7.083   5.448   0.063 -2.6931  0.7375 -0.9531
14324SOL    HW254192   7.052   5.316   0.153  0.4561 -0.2258 -1.2015
14325SOL     OW54193   1.885   9.692   5.789 -0.1044 -0.0659 -0.1609
14325SOL    HW154194   1.941   9.773   5.770 -0.2003  0.0968  0.2351
14325SOL    HW254195   1.789   9.720   5.802 -0.0449 -0.1728  0.5355
14326SOL     OW54196   7.505   0.616   5.664 -0.2424  0.3123  0.1293
14326SOL    HW154197   7.489   0.596   5.760  0.2390  2.0671  0.5972
14326SOL    HW254198   7.461   0.547   5.607 -0.4120 -0.8068  1.6121
14327SOL     OW54199   7.605   9.312   2.045 -0.0866  0.3605 -0.2834
14327SOL    HW154200   7.609   9.253   2.126  0.4618  1.2001  0.3092
14327SOL    HW254201   7.566   9.261   1.968 -1.1782 -0.2554  0.6690
14328SOL     OW54202   9.515   2.120   4.826 -0.2927 -0.4341  0.1213
14328SOL    HW154203   9.464   2.048   4.872 -2.4115  0.5283 -0.6445
14328SOL    HW254204   9.600   2.138   4.875 -0.8805 -1.7828  1.6680
14329SOL     OW54205   3.964   8.568   3.151  0.2623 -0.7860  0.4070
14329SOL    HW154206   3.915   8.643   3.196 -0.9606 -1.6573  0.5410
14329SOL    HW254207   3.976   8.590   3.054  0.3973 -0.1777  0.5570
14330SOL     OW54208   3.024   0.081   1.035 -0.0311  0.0924 -0.4321
14330SOL    HW154209   2.939   0.133   1.046 -0.1936 -0.3556  0.4154
14330SOL    HW254210   3.081   0.092   1.116  1.0425  0.9605 -1.2793
14331SOL     OW54211   0.591   4.673   3.568 -0.0189 -0.1416  0.4263
14331SOL    HW154212   0.523   4.607   3.533  0.3714 -0.0830 -0.4733
14331SOL    HW254213   0.682   4.645   3.537  0.1635  0.7583  0.1412
14332SOL     OW54214   8.742   7.664   2.623  0.9015 -0.0581 -0.6866
14332SOL    HW154215   8.803   7.741   2.637 -1.2618  1.0328  3.6277
14332SOL    HW254216   8.680   7.683   2.547  0.5873  2.3679  0.1508
14333SOL     OW54217   7.963   8.758   4.243 -0.4087  0.2664 -0.1985
14333SOL    HW154218   7.963   8.666   4.281 -1.2738  0.8460  1.2651
14333SOL    HW254219   8.032   8.814   4.289 -0.1127  0.4449 -0.8485
14334SOL     OW54220   7.209   6.960   4.631 -0.4319 -0.1455  0.6410
14334SOL    HW154221   7.285   7.004   4.584  0.5615 -1.0907  1.3466
14334SOL    HW254222   7.232   6.865   4.651 -1.5473 -0.2608  1.4332
14335SOL     OW54223   9.564   9.128   3.967  0.4837 -0.6107  0.0918
14335SOL    HW154224   9.534   9.038   3.998 -1.4798  0.1968  0.6154
14335SOL    HW254225   9.571   9.128   3.867  0.4395 -1.3304  0.0868
14336SOL     OW54226   3.014   9.347   2.789 -0.2161  0.3831  0.5273
14336SOL    HW154227   2.940   9.285   2.760 -0.0092  0.3708  0.0221
14336SOL    HW254228   2.984   9.442   2.778  0.6239  0.4147 -1.7902
14337SOL     OW54229   2.063   8.316   2.506  0.1083  0.4760  0.0867
14337SOL    HW154230   2.114   8.336   2.590  1.3357 -3.7667  0.4711
14337SOL    HW254231   1.984   8.258   2.529  0.7195 -1.1062 -1.7259
14338SOL     OW54232   6.497   2.891   4.612  0.5824  0.1329  0.4029
14338SOL    HW154233   6.573   2.858   4.668 -0.4620 -1.1265  1.0987
14338SOL    HW254234   6.414   2.842   4.636 -0.2114  0.6587 -1.1961
14339SOL     OW54235   4.510   8.278   2.936  0.0923  0.5268  0.6585
14339SOL    HW154236   4.536   8.372   2.913 -1.7867  1.0098  0.4819
14339SOL    HW254237   4.415   8.262   2.910  0.0691 -1.0971  1.6691
14340SOL     OW54238   8.596   0.493   3.790 -0.3269 -0.0611  0.4224
14340SOL    HW154239   8.540   0.499   3.708  1.7929  0.3199 -1.0438
14340SOL    HW254240   8.550   0.540   3.866 -2.6589 -1.0989 -0.3276
14341SOL     OW54241   7.996   1.902   1.877 -0.3305 -0.0850  0.0703
14341SOL    HW154242   8.067   1.840   1.844 -1.3834 -1.0092 -0.5109
14341SOL    HW254243   8.020   1.996   1.855  0.2741 -0.4672 -0.9372
14342SOL     OW54244   2.749   1.595   0.133 -0.1702 -0.1575  0.2692
14342SOL    HW154245   2.791   1.589   0.042  0.9821  0.1767  0.7632
14342SOL    HW254246   2.818   1.575   0.202 -1.4502 -2.1554  1.0184
14343SOL     OW54247   3.754   7.528   4.602  0.5054  0.3241 -0.1023
14343SOL    HW154248   3.683   7.464   4.574  0.2790  0.3926  0.3060
14343SOL    HW254249   3.756   7.606   4.539 -0.1179  0.5663  0.1743
14344SOL     OW54250   3.609   5.998   3.339 -0.4559 -0.0613  0.4003
14344SOL    HW154251   3.571   5.954   3.420 -0.4482 -0.1398  0.3614
14344SOL    HW254252   3.552   5.977   3.259  0.6850 -1.6915 -0.0094
14345SOL     OW54253   8.874   4.767   5.681 -0.0676  0.4383 -0.2307
14345SOL    HW154254   8.898   4.769   5.778  1.6693 -2.7565 -0.5312
14345SOL    HW254255   8.880   4.674   5.647  0.9125  1.7043 -3.8003
14346SOL     OW54256   0.602   6.298   2.504  0.1602 -0.1164  0.2963
14346SOL    HW154257   0.515   6.343   2.483  0.3950 -0.6845 -2.0825
14346SOL    HW254258   0.587   6.200   2.517  0.1428  0.1104  2.0540
14347SOL     OW54259   2.510   2.400   4.552 -0.5565 -0.4353 -0.4664
14347SOL    HW154260   2.417   2.428   4.529 -1.0593 -2.0531 -0.4767
14347SOL    HW254261   2.508   2.309   4.593  1.0780 -0.7065 -0.9597
14348SOL     OW54262   8.977   8.165   5.759 -0.3853 -0.1228  0.3185
14348SOL    HW154263   8.989   8.126   5.668  0.6243 -1.2551  0.9254
14348SOL    HW254264   9.035   8.246   5.768  1.2689 -1.3235  0.7118
14349SOL     OW54265   2.000   5.844   6.620 -0.2594  0.5350  0.8541
14349SOL    HW154266   1.948   5.925   6.594 -1.5632 -0.5182  0.1062
14349SOL    HW254267   1.977   5.768   6.558  0.7294 -0.4782  1.7055
14350SOL     OW54268   0.329   6.398   0.420 -0.1311  0.1328  0.1243
14350SOL    HW154269   0.383   6.447   0.352  1.3443 -1.6715 -0.0382
14350SOL    HW254270   0.306   6.460   0.495  0.7050  1.3653 -0.6216
14351SOL     OW54271   9.775   2.745   1.656 -0.0784 -0.0425 -0.5680
14351SOL    HW154272   9.748   2.664   1.604 -0.0102  1.2736 -2.6994
14351SOL    HW254273   9.871   2.766   1.639  0.0943  0.0721  0.5331
14352SOL     OW54274   8.702   7.854   1.907  0.1465 -0.1777 -0.3833
14352SOL    HW154275   8.670   7.878   1.998  0.4013 -0.5843 -0.1840
14352SOL    HW254276   8.645   7.780   1.869  1.8815 -2.1331  0.6809
14353SOL     OW54277   7.582   2.017   2.768 -0.4013 -0.6712  0.2753
14353SOL    HW154278   7.525   2.024   2.686 -0.8778  0.8436  0.7278
14353SOL    HW254279   7.678   2.025   2.743 -0.4418 -1.8182 -0.3140
14354SOL     OW54280   8.047   0.772   4.869 -0.4869 -0.1788 -0.0415
14354SOL    HW154281   8.057   0.755   4.771 -0.1148  0.4650 -0.1157
14354SOL    HW254282   7.979   0.843   4.884 -0.0770  0.1790  0.1351
14355SOL     OW54283   9.473   7.029   0.045  0.0143  0.4664  0.2521
14355SOL    HW154284   9.555   7.064  -0.000  0.8774  0.0355  1.4642
14355SOL    HW254285   9.436   7.100   0.105 -1.0874  1.0100 -1.0346
14356SOL     OW54286   9.252   0.253   3.089 -0.1731  0.1207 -0.6346
14356SOL    HW154287   9.266   0.292   3.181  2.8746  0.5615 -1.2126
14356SOL    HW254288   9.259   0.154   3.094  2.6802  0.2687 -0.7294
14357SOL     OW54289   1.404   3.594   4.856  0.5705  0.0410 -0.3796
14357SOL    HW154290   1.317   3.644   4.848  0.4249 -0.2081 -0.3670
14357SOL    HW254291   1.475   3.643   4.806  0.2162 -0.2195 -1.1530
14358SOL     OW54292   1.733   3.739   0.473 -0.0268  0.4589 -0.2102
14358SOL    HW154293   1.708   3.643   0.458  2.0473 -0.1244 -0.1844
14358SOL    HW254294   1.651   3.794   0.482 -1.2973 -1.0173 -2.1864
14359SOL     OW54295   8.599   6.023   2.535 -0.1378 -0.1152 -0.2885
14359SOL    HW154296   8.507   5.982   2.533 -1.0450  1.9226 -2.4135
14359SOL    HW254297   8.619   6.053   2.628 -1.9072  0.0155  0.0761
14360SOL     OW54298   2.089   6.779   0.179 -0.2384  0.3235  0.0077
14360SOL    HW154299   2.040   6.852   0.227 -0.3131  0.4469 -0.2589
14360SOL    HW254300   2.060   6.691   0.216 -1.6486  0.3327 -1.0604
14361SOL     OW54301   7.703   7.161   0.546  0.3553 -0.5013 -1.1493
14361SOL    HW154302   7.607   7.163   0.574  0.5328  0.6697 -0.5805
14361SOL    HW254303   7.743   7.073   0.569  0.6144  0.5292  2.7776
14362SOL     OW54304   6.996   0.082   2.516  0.4377  0.2255  0.0574
14362SOL    HW154305   7.081   0.065   2.466  0.0394  1.5254 -1.0848
14362SOL    HW254306   6.919   0.043   2.465  0.2072  0.1094  0.4929
14363SOL     OW54307   1.491   7.993   0.524 -0.7173 -0.1513  0.2686
14363SOL    HW154308   1.497   7.926   0.450  0.3257 -0.3859  0.5581
14363SOL    HW254309   1.395   8.004   0.552 -1.0748 -0.3041 -0.8884
14364SOL     OW54310   8.460   4.797   2.185  0.3109  0.3097 -0.2213
14364SOL    HW154311   8.485   4.714   2.234 -0.5009  0.4381  0.4303
14364SOL    HW254312   8.472   4.876   2.246 -1.1257  0.4247 -0.0802
14365SOL     OW54313   0.205   1.485   3.004 -0.0182  0.2447 -0.5303
14365SOL    HW154314   0.238   1.485   2.909 -0.9579  0.1228 -0.8651
14365SOL    HW254315   0.140   1.410   3.016  0.4649 -0.0352  0.3464
14366SOL     OW54316   0.285   1.340   3.384 -0.5500  0.4867  0.0398
14366SOL    HW154317   0.195   1.332   3.428 -0.8731  0.1161 -0.6803
14366SOL    HW254318   0.307   1.254   3.337 -0.1314  0.8190 -0.3796
14367SOL     OW54319   8.961   9.929   5.811 -0.0758 -0.4992 -0.0609
14367SOL    HW154320   9.006   9.931   5.901 -0.3002  0.2645  0.0371
14367SOL    HW254321   8.866   9.958   5.821 -0.3774 -1.3576 -0.3946
14368SOL     OW54322   6.933   1.285   4.511  0.8980  0.4888 -0.7321
14368SOL    HW154323   6.927   1.382   4.490  2.5225  1.3787  2.4650
14368SOL    HW254324   6.875   1.264   4.590  1.2067 -0.9430 -0.8588
14369SOL     OW54325   9.312   1.488   5.978 -0.1518 -0.4057 -0.0922
14369SOL    HW154326   9.271   1.427   5.911 -1.2253  0.6481 -0.4234
14369SOL    HW254327   9.340   1.435   6.059  1.1245 -1.6641 -1.3311
14370SOL     OW54328   0.090   6.451   1.599  0.3499  0.4264  0.1994
14370SOL    HW154329   0.008   6.493   1.560  0.5039  1.1834  0.6634
14370SOL    HW254330   0.077   6.439   1.698 -0.4120 -2.3579 -0.2112
14371SOL     OW54331   7.820   3.605   3.843  0.1939  0.2918 -0.1217
14371SOL    HW154332   7.907   3.609   3.891 -0.1307  1.5364  0.3903
14371SOL    HW254333   7.752   3.659   3.893 -1.1566 -1.5292  0.0529
14372SOL     OW54334   4.792   4.774   0.847 -0.4554  0.2469  0.6439
14372SOL    HW154335   4.794   4.849   0.780  1.0990 -0.0439  0.3323
14372SOL    HW254336   4.698   4.743   0.859 -0.8845  0.9754 -0.6603
14373SOL     OW54337   4.629   8.060   3.770 -0.5165  0.0235  0.4096
14373SOL    HW154338   4.576   7.998   3.712 -0.2249 -0.5020  0.6968
14373SOL    HW254339   4.615   8.035   3.866 -1.7262  1.4765  0.6106
14374SOL     OW54340   0.692   0.955   1.148 -0.3699 -0.7798  0.6393
14374SOL    HW154341   0.781   0.913   1.165 -0.3220 -0.6720  0.6505
14374SOL    HW254342   0.674   0.957   1.049  1.1653  2.3642  0.3602
14375SOL     OW54343   4.177   2.231   0.012  0.0851 -0.0080  0.0820
14375SOL    HW154344   4.111   2.281  -0.044  1.1497  0.1428 -1.0345
14375SOL    HW254345   4.257   2.287   0.028  0.9625 -1.0627 -0.5331
14376SOL     OW54346   2.169   6.755   2.446  0.0192 -0.3022  0.5625
14376SOL    HW154347   2.252   6.787   2.492 -0.3891  2.2779 -0.4414
14376SOL    HW254348   2.167   6.655   2.448  2.7747 -0.3871  1.2539
14377SOL     OW54349   0.922   2.098   5.523 -0.3456 -0.7463 -0.0043
14377SOL    HW154350   0.983   2.124   5.598 -0.2072 -2.2596  0.4269
14377SOL    HW254351   0.849   2.040   5.559 -1.0618 -0.3429 -0.8149
14378SOL     OW54352   2.179   7.918   2.393  0.4870 -0.5729 -0.2333
14378SOL    HW154353   2.216   7.828   2.415 -0.7480 -1.1229 -0.4250
14378SOL    HW254354   2.100   7.909   2.334  0.5323  0.6602 -0.5037
14379SOL     OW54355   9.640   8.378   5.636 -0.1118  0.1045  0.5079
14379SOL    HW154356   9.712   8.445   5.658 -0.3319  1.7894 -3.5205
14379SOL    HW254357   9.556   8.405   5.682  0.6404  0.7310  1.5615
14380SOL     OW54358   2.335   0.605   6.559  0.2108 -0.2827  0.0430
14380SOL    HW154359   2.308   0.510   6.547 -0.5582 -0.1568  0.7056
14380SOL    HW254360   2.382   0.637   6.477  1.6820 -1.6374  0.3332
14381SOL     OW54361   3.102   8.069   2.083 -0.3519  0.2494  0.1157
14381SOL    HW154362   3.098   8.096   1.987  0.2919 -0.7367 -0.1994
14381SOL    HW254363   3.050   7.984   2.096 -2.4846  1.6821  1.1165
14382SOL     OW54364   7.462   0.380   1.082  0.4085 -0.3686 -0.1170
14382SOL    HW154365   7.385   0.437   1.110  0.8677  0.9645 -1.5028
14382SOL    HW254366   7.430   0.308   1.021 -0.0898 -1.2454  1.1784
14383SOL     OW54367   3.011   2.280   4.418 -0.1808  0.0386  0.3197
14383SOL    HW154368   3.070   2.265   4.497 -0.1791 -4.1877 -0.4064
14383SOL    HW254369   2.917   2.297   4.449 -0.3060 -2.2099  1.2440
14384SOL     OW54370   4.418   4.524   4.883  0.7827 -0.2448 -0.5389
14384SOL    HW154371   4.425   4.552   4.978 -1.3661 -3.1261  0.5591
14384SOL    HW254372   4.508   4.497   4.848  1.1761 -1.6458  1.5006
14385SOL     OW54373   9.052   4.380   4.342  0.1608 -0.2600 -0.0178
14385SOL    HW154374   8.989   4.302   4.345  0.1921 -0.4251 -2.6773
14385SOL    HW254375   9.142   4.351   4.375  0.7098 -1.9415 -2.8337
14386SOL     OW54376   4.280   5.819   0.591 -0.3913 -0.4304 -0.0569
14386SOL    HW154377   4.212   5.749   0.614  0.2604 -1.1969 -0.4246
14386SOL    HW254378   4.362   5.775   0.555  0.9590  0.3889  1.9496
14387SOL     OW54379   7.524   6.724   2.782 -0.1777 -0.1902 -0.3732
14387SOL    HW154380   7.475   6.730   2.695  0.0091  2.2039 -0.3448
14387SOL    HW254381   7.528   6.629   2.811 -1.3449 -0.8793 -2.3523
14388SOL     OW54382   0.958   4.163   0.251  0.1087 -0.1623 -0.2715
14388SOL    HW154383   0.862   4.154   0.278  0.0411 -1.8601 -1.0194
14388SOL    HW254384   0.983   4.087   0.190  1.6435  0.8286 -0.9094
14389SOL     OW54385   9.841   3.906   6.243  0.2514  0.2886 -0.0256
14389SOL    HW154386   9.881   3.839   6.304 -1.7837  0.6800  1.8145
14389SOL    HW254387   9.779   3.860   6.179  0.4915  0.1537 -0.1572
14390SOL     OW54388   1.962   0.711   6.321 -0.5142  0.6904 -0.6700
14390SOL    HW154389   2.037   0.675   6.265  0.3076  0.6530  0.4488
14390SOL    HW254390   1.883   0.728   6.262  0.0407 -0.1876 -1.7029
14391SOL     OW54391   2.725   1.677   5.691  0.1459  0.1536  0.4320
14391SOL    HW154392   2.684   1.585   5.687  3.5264 -1.4004 -0.8541
14391SOL    HW254393   2.757   1.695   5.784 -0.7294  0.1419  0.7420
14392SOL     OW54394   5.986   1.477   0.173  0.3242  0.0972  0.3881
14392SOL    HW154395   5.937   1.556   0.135 -0.1556 -0.0988  0.5920
14392SOL    HW254396   6.015   1.497   0.266  0.4990  0.1613  0.3183
14393SOL     OW54397   1.915   2.094   3.933  0.1224  0.0027 -0.5061
14393SOL    HW154398   1.936   2.103   3.836  0.4615  0.5848 -0.3843
14393SOL    HW254399   1.846   2.162   3.958  1.0728  0.7993 -0.0384
14394SOL     OW54400   1.565   6.256   4.563  0.6271 -0.6790  0.7783
14394SOL    HW154401   1.659   6.276   4.535  0.5023 -0.0188  0.8083
14394SOL    HW254402   1.559   6.162   4.596  1.1777 -0.8713  0.3419
14395SOL     OW54403   1.067   6.107   0.190 -0.0625  0.2569  0.1100
14395SOL    HW154404   1.020   6.194   0.204  2.3535  1.4342  1.1937
14395SOL    HW254405   1.164   6.124   0.171 -0.4995 -1.9702 -4.7603
14396SOL     OW54406   9.556   1.247   1.947  0.4082 -0.7860 -0.6835
14396SOL    HW154407   9.642   1.195   1.947  0.1307 -1.2408 -0.1160
14396SOL    HW254408   9.563   1.322   1.881  1.5691 -0.2737  0.0082
14397SOL     OW54409   9.832   9.386   3.702 -0.4099 -0.6139 -0.2456
14397SOL    HW154410   9.832   9.287   3.717  0.3957 -0.3757  1.4278
14397SOL    HW254411   9.774   9.407   3.623 -1.7241 -2.2952  0.2192
14398SOL     OW54412   9.464   6.733   2.843 -0.0121  0.0097  0.3849
14398SOL    HW154413   9.426   6.668   2.777 -0.0806  0.6570 -0.2159
14398SOL    HW254414   9.395   6.754   2.913 -0.4086  0.3827 -0.1167
14399SOL     OW54415   6.051   8.027   3.944  0.4123 -0.2914  0.5689
14399SOL    HW154416   6.115   7.971   3.891 -0.0731  0.1591 -0.5247
14399SOL    HW254417   6.070   8.017   4.041  3.0007  0.8689  0.2145
14400SOL     OW54418   6.633   0.673   4.526  0.2615 -0.2122  0.3038
14400SOL    HW154419   6.535   0.660   4.537  0.2715 -0.7682 -0.2185
14400SOL    HW254420   6.667   0.734   4.597 -0.8524  1.7921 -0.8448
14401SOL     OW54421   4.013   3.297   1.331 -0.0431 -0.1236  0.0838
14401SOL    HW154422   4.107   3.319   1.356  0.7930 -1.7673 -1.4720
14401SOL    HW254423   4.007   3.282   1.232 -2.0956  0.6384  0.0551
14402SOL     OW54424   2.161   5.821   0.864  0.3307 -0.5272 -0.5478
14402SOL    HW154425   2.168   5.832   0.765 -0.1625 -0.8991 -0.6275
14402SOL    HW254426   2.068   5.843   0.894  1.2178  2.3876  0.2301
14403SOL     OW54427   9.734   4.688   2.012  0.3559 -0.1698 -0.2109
14403SOL    HW154428   9.756   4.620   1.942  1.4716  0.1411 -0.1583
14403SOL    HW254429   9.666   4.649   2.075 -0.5531 -0.4964 -1.3703
14404SOL     OW54430   1.747   3.950   3.048  0.7505  0.5943 -0.2925
14404SOL    HW154431   1.724   4.023   3.111  0.9870  1.2907 -0.9978
14404SOL    HW254432   1.759   3.988   2.956 -0.5243 -0.5357 -0.9402
14405SOL     OW54433   3.437   3.766   0.635 -0.7659  0.2498  0.0134
14405SOL    HW154434   3.475   3.728   0.551  1.9486  2.2462  0.2915
14405SOL    HW254435   3.475   3.857   0.651 -2.8889  0.7909  2.2955
14406SOL     OW54436   1.089   4.238   3.147  0.4335  0.1871 -0.5790
14406SOL    HW154437   1.017   4.286   3.097  1.0100  1.4777 -0.2064
14406SOL    HW254438   1.174   4.241   3.093 -0.4168 -3.7484 -2.3244
14407SOL     OW54439   2.382   1.607   3.477 -0.0648 -0.2200  0.1614
14407SOL    HW154440   2.405   1.594   3.573  0.5988  0.8600  0.1649
14407SOL    HW254441   2.405   1.525   3.425  1.2192 -0.1741  0.6395
14408SOL     OW54442   0.348   8.092   0.299 -0.1819 -0.0081  0.1309
14408SOL    HW154443   0.347   8.190   0.280 -0.5893  0.4881  2.5020
14408SOL    HW254444   0.424   8.071   0.359 -0.4474 -1.0520  0.1042
14409SOL     OW54445   1.287   1.217   2.657 -0.0797  0.3045  0.2077
14409SOL    HW154446   1.377   1.236   2.696 -0.2018 -0.9538  1.1078
14409SOL    HW254447   1.272   1.118   2.651 -0.9232  0.4834 -1.0532
14410SOL     OW54448   4.203   3.751   4.478 -0.5227  0.1223 -0.4626
14410SOL    HW154449   4.301   3.768   4.467 -0.2838 -1.7736 -1.5286
14410SOL    HW254450   4.190   3.662   4.521 -1.7644  1.1977  1.4250
14411SOL     OW54451   4.713   3.048   2.991  0.3627 -0.0235 -0.1819
14411SOL    HW154452   4.708   3.027   3.089 -0.6491  1.1370  0.0227
14411SOL    HW254453   4.728   3.146   2.979 -0.1076 -0.0721 -1.1975
14412SOL     OW54454   9.506   7.932   0.208  0.0119 -0.1014 -0.3313
14412SOL    HW154455   9.537   8.025   0.185 -0.4008  0.0624 -0.2201
14412SOL    HW254456   9.510   7.920   0.307 -2.1833  0.5917 -0.1441
14413SOL     OW54457   2.259   3.002   5.498  0.1991  0.2225 -0.2381
14413SOL    HW154458   2.194   3.067   5.458 -0.4403 -0.9583 -1.1345
14413SOL    HW254459   2.210   2.923   5.533  0.9356  0.4109  1.2768
14414SOL     OW54460   4.387   3.240   1.177  0.2712  0.4942 -0.1518
14414SOL    HW154461   4.480   3.215   1.151  0.3132  1.0032 -0.4947
14414SOL    HW254462   4.361   3.325   1.131 -0.7419 -0.2013 -0.8754
14415SOL     OW54463   5.978   7.880   3.041 -0.3860  0.3010 -0.5574
14415SOL    HW154464   6.059   7.891   2.983 -0.5799  2.4279 -0.4497
14415SOL    HW254465   5.993   7.804   3.104  0.5044 -0.9644 -2.2424
14416SOL     OW54466   2.707   6.137   1.198  0.1940  0.3323  0.7535
14416SOL    HW154467   2.742   6.223   1.234  1.1640  0.3438 -0.1646
14416SOL    HW254468   2.678   6.150   1.103 -3.4793  0.6119  1.8358
14417SOL     OW54469   2.406   9.580   2.207  0.2081  0.0398  0.7144
14417SOL    HW154470   2.468   9.508   2.176  1.6595  1.9559 -0.9448
14417SOL    HW254471   2.387   9.567   2.304 -0.8650 -3.4893  0.1205
14418SOL     OW54472   3.974   8.972   5.064  1.1774 -0.4109  0.1203
14418SOL    HW154473   4.072   8.989   5.060  1.1606 -0.4211 -0.4477
14418SOL    HW254474   3.929   9.021   4.989  0.4838  1.3390  1.6491
14419SOL     OW54475   4.049   1.830   6.623  0.5002 -0.3680  0.4907
14419SOL    HW154476   4.059   1.732   6.606  1.1919 -0.2834  0.3814
14419SOL    HW254477   4.124   1.861   6.682 -0.2517 -0.0920  1.3111
14420SOL     OW54478   8.759   1.898   0.550 -0.0425  0.3989 -0.1483
14420SOL    HW154479   8.789   1.886   0.455 -1.0684 -0.3215 -0.3913
14420SOL    HW254480   8.659   1.896   0.553  0.0100 -0.4810  1.0696
14421SOL     OW54481   7.218   1.296   0.065  0.3578 -0.4849 -0.0828
14421SOL    HW154482   7.124   1.264   0.057  0.1343  0.1519 -0.0080
14421SOL    HW254483   7.280   1.228   0.025 -0.1890 -0.5317 -0.8572
14422SOL     OW54484   3.363   1.947   2.224 -0.7162 -1.0956  0.6051
14422SOL    HW154485   3.312   1.930   2.139 -1.3806  0.7601  0.6088
14422SOL    HW254486   3.333   2.034   2.263  1.9407 -0.3280  1.0033
14423SOL     OW54487   8.869   6.774   3.739  0.2070  0.3661 -0.1689
14423SOL    HW154488   8.904   6.754   3.647  0.0175 -0.3513 -0.0929
14423SOL    HW254489   8.804   6.849   3.734 -1.3174 -0.9769 -0.9318
14424SOL     OW54490   9.960   8.119   5.154  0.0227 -0.0166  0.1838
14424SOL    HW154491   9.976   8.145   5.059  2.4489  0.7270  0.7726
14424SOL    HW254492   9.954   8.201   5.211 -1.4555 -0.4566  0.6970
14425SOL     OW54493   8.168   3.712   2.828  0.1154  0.2073  0.4098
14425SOL    HW154494   8.254   3.764   2.827 -0.3446  0.9714 -0.1305
14425SOL    HW254495   8.188   3.615   2.812  0.8606  0.4109  0.0531
14426SOL     OW54496   1.295   5.616   2.552 -0.1421  0.1218  0.3526
14426SOL    HW154497   1.361   5.689   2.534 -1.0626  0.6048 -1.1055
14426SOL    HW254498   1.226   5.649   2.617 -0.8157  0.7091 -0.6531
14427SOL     OW54499   6.763   0.504   5.761  0.3768  0.6936 -0.3863
14427SOL    HW154500   6.812   0.461   5.837  0.3245  3.1018  1.0549
14427SOL    HW254501   6.816   0.581   5.727 -1.0187  1.5074 -0.7575
14428SOL     OW54502   8.178   8.073   1.172 -0.6607 -0.1533 -0.0019
14428SOL    HW154503   8.162   7.975   1.157 -1.3248 -0.1653  0.7184
14428SOL    HW254504   8.173   8.121   1.085  1.1702 -0.9554 -0.5664
14429SOL     OW54505   8.671   8.990   5.269  0.7615 -0.3863 -0.2276
14429SOL    HW154506   8.719   8.908   5.237  0.0122 -0.7224 -0.5122
14429SOL    HW254507   8.721   9.030   5.346  0.6883 -1.5896  0.4635
14430SOL     OW54508   1.760   5.368   3.687 -0.2755 -0.3658 -0.3230
14430SOL    HW154509   1.857   5.364   3.665 -0.1196  0.0660  0.2712
14430SOL    HW254510   1.707   5.331   3.611  0.2609  0.9288 -1.3370
14431SOL     OW54511   1.339   5.472   3.120 -0.0306 -0.0284 -0.1166
14431SOL    HW154512   1.247   5.436   3.136  0.8650 -1.6740  1.4294
14431SOL    HW254513   1.362   5.465   3.023 -1.4643  0.2635 -0.4850
14432SOL     OW54514   9.201   0.285   4.770  0.0798  0.4693  0.0625
14432SOL    HW154515   9.295   0.311   4.748  0.5714  0.0976  1.6332
14432SOL    HW254516   9.179   0.199   4.724  1.4402 -0.8397  1.7758
14433SOL     OW54517   2.726   1.311   1.080 -0.3028 -0.5089  0.1279
14433SOL    HW154518   2.672   1.326   1.163  0.2577 -0.0156  0.4023
14433SOL    HW254519   2.747   1.213   1.071 -0.6534 -0.6091  0.3811
14434SOL     OW54520   6.255   1.608   3.856 -0.0203 -0.3063 -0.3101
14434SOL    HW154521   6.320   1.636   3.926 -0.1369 -2.7673  0.8430
14434SOL    HW254522   6.256   1.674   3.781  1.0097  1.6958  1.4326
14435SOL     OW54523   9.215   6.727   3.758 -0.4304  0.4098  0.0808
14435SOL    HW154524   9.128   6.689   3.789 -0.6343  1.4629  0.8382
14435SOL    HW254525   9.207   6.757   3.662 -0.4873 -0.7418 -0.2761
14436SOL     OW54526   2.320   0.356   5.747 -0.1669  0.6406 -0.2869
14436SOL    HW154527   2.324   0.262   5.714  1.6811  0.4802  0.2892
14436SOL    HW254528   2.413   0.387   5.767 -0.6643  2.9445 -1.4336
14437SOL     OW54529   0.171   9.171   4.318  0.3855  0.1795 -0.0511
14437SOL    HW154530   0.216   9.117   4.247  0.2067  0.9690 -0.7709
14437SOL    HW254531   0.093   9.220   4.279 -1.2578 -1.3159  1.2170
14438SOL     OW54532   4.609   5.339   2.016  0.0565 -0.5354  0.4272
14438SOL    HW154533   4.678   5.406   1.988  0.1091 -1.3840 -1.5832
14438SOL    HW254534   4.518   5.375   1.994 -0.0459 -0.1312  1.5148
14439SOL     OW54535   1.415   3.882   0.031  0.9715 -0.2513  0.0230
14439SOL    HW154536   1.326   3.883  -0.015  0.5292 -0.2045  0.8559
14439SOL    HW254537   1.423   3.798   0.085  2.0670 -0.9787 -1.2401
14440SOL     OW54538   2.138   4.147   0.473  0.6178  0.7768  0.2037
14440SOL    HW154539   2.175   4.202   0.547  1.2564  1.1032 -0.3579
14440SOL    HW254540   2.200   4.071   0.453  0.5617  0.8256 -0.1572
14441SOL     OW54541   3.759   1.861   6.626 -0.3832 -0.9389  0.4777
14441SOL    HW154542   3.717   1.842   6.715  1.0003 -0.9782  1.1379
14441SOL    HW254543   3.854   1.832   6.628 -0.1287 -0.1985 -0.7658
14442SOL     OW54544   4.997   1.532   0.053  0.1655  0.1674 -0.4421
14442SOL    HW154545   5.004   1.480  -0.033 -0.5011 -0.2352 -0.2591
14442SOL    HW254546   5.034   1.477   0.128 -3.1420 -1.2602  0.2379
14443SOL     OW54547   7.367   1.489   5.197 -0.0629  0.1754  0.3934
14443SOL    HW154548   7.448   1.518   5.249  0.2975 -0.6349  0.2955
14443SOL    HW254549   7.287   1.489   5.257 -0.1159  1.5633  0.3438
14444SOL     OW54550   1.507   2.026   4.966 -0.1366 -0.1403  1.2265
14444SOL    HW154551   1.521   2.080   5.049  0.1607  2.1894 -0.2739
14444SOL    HW254552   1.587   1.968   4.950 -0.5283 -1.1805  2.9537
14445SOL     OW54553   1.889   5.224   5.563  0.0100 -0.3383 -0.4786
14445SOL    HW154554   1.972   5.278   5.576 -0.6921  0.5133  0.5874
14445SOL    HW254555   1.872   5.169   5.645 -1.6097  1.0846  0.1677
14446SOL     OW54556   9.993   9.994   2.484 -0.6233  0.0824 -0.5507
14446SOL    HW154557  10.067   9.994   2.417  0.1384 -1.4767  0.2776
14446SOL    HW254558   9.968   9.900   2.508 -0.5469  0.5973  1.7171
14447SOL     OW54559   2.775   4.648   3.813 -0.6514 -0.3403  0.5373
14447SOL    HW154560   2.744   4.643   3.718  0.0793 -0.2207  0.2863
14447SOL    HW254561   2.873   4.670   3.815 -0.7913  0.2373  1.3278
14448SOL     OW54562   0.652   8.007   0.766 -0.2209  0.1245 -0.4588
14448SOL    HW154563   0.605   8.088   0.728  1.5832  1.4680  0.1229
14448SOL    HW254564   0.708   7.965   0.695  1.3593  1.3028  0.0463
14449SOL     OW54565   4.285   2.508   0.622 -0.3968 -0.5068  0.0670
14449SOL    HW154566   4.385   2.500   0.620 -0.3973 -0.4900 -0.0410
14449SOL    HW254567   4.245   2.430   0.573 -0.4642 -1.0759  1.0126
14450SOL     OW54568   2.624   8.920   1.011  0.0793 -0.2818 -0.0031
14450SOL    HW154569   2.531   8.942   0.982 -0.2333 -0.9591  0.4495
14450SOL    HW254570   2.620   8.873   1.099  0.9636  1.2405  0.8758
14451SOL     OW54571   8.216   5.868   5.368 -0.2774 -0.2618  0.3911
14451SOL    HW154572   8.161   5.923   5.431  0.0348 -0.8877  1.2113
14451SOL    HW254573   8.283   5.926   5.323 -1.0061  0.3343  0.0641
14452SOL     OW54574   3.979   0.106   5.373 -0.5156 -0.0400 -0.2892
14452SOL    HW154575   4.027   0.144   5.293 -1.3060 -0.0194 -0.7598
14452SOL    HW254576   3.897   0.059   5.342 -1.0875  0.4003  0.5656
14453SOL     OW54577   0.968   9.685   4.889 -0.2489 -0.1281  0.4507
14453SOL    HW154578   1.048   9.652   4.839 -0.8759  0.5258 -1.0035
14453SOL    HW254579   0.932   9.611   4.946 -0.4148 -1.3430 -1.1886
14454SOL     OW54580   4.103   8.193   2.979  0.9747  0.1725  0.5694
14454SOL    HW154581   4.028   8.213   3.042 -0.0851  0.5163 -0.7868
14454SOL    HW254582   4.162   8.274   2.972 -1.4037  1.7093 -2.2854
14455SOL     OW54583   0.307   2.151   0.089  0.0653  0.3638 -0.1592
14455SOL    HW154584   0.214   2.185   0.104 -0.0569 -0.0828  0.1100
14455SOL    HW254585   0.319   2.065   0.139 -0.0360 -0.6660 -1.8713
14456SOL     OW54586   7.032   2.678   2.122  0.2032 -0.1512 -0.1812
14456SOL    HW154587   6.966   2.604   2.116  0.1469 -0.2493  1.3147
14456SOL    HW254588   7.122   2.646   2.092  0.3666 -1.0936  1.2473
14457SOL     OW54589   0.006   0.479   4.528  0.0633 -0.0862 -0.0304
14457SOL    HW154590   0.040   0.484   4.621  0.0947  1.2749 -0.1002
14457SOL    HW254591   0.081   0.460   4.465 -0.0122 -1.3283  0.2491
14458SOL     OW54592   6.272   0.647   3.120  0.3285 -0.6566 -0.2936
14458SOL    HW154593   6.341   0.670   3.189  0.8408 -1.9023 -0.3743
14458SOL    HW254594   6.249   0.549   3.127  0.4242 -0.8061 -1.9129
14459SOL     OW54595   4.574   5.131   2.657  0.4163  0.3128 -0.1480
14459SOL    HW154596   4.575   5.215   2.602  0.1109  0.0523 -0.5467
14459SOL    HW254597   4.559   5.052   2.598  2.3130 -0.1882  0.0015
14460SOL     OW54598   9.858   1.273   2.449  0.4071  0.1349  0.3047
14460SOL    HW154599   9.816   1.183   2.464  2.7419 -1.4172 -1.9342
14460SOL    HW254600   9.796   1.331   2.398 -0.5885 -0.6970  0.5522
14461SOL     OW54601   8.678   3.359   4.871 -0.4663 -0.2736  0.3177
14461SOL    HW154602   8.747   3.408   4.818  0.6228 -2.0581  0.0374
14461SOL    HW254603   8.587   3.384   4.839  0.1009  0.6957 -0.5687
14462SOL     OW54604   2.507   0.367   3.601  0.6631 -0.1587 -0.0180
14462SOL    HW154605   2.413   0.384   3.571  0.2245 -0.8540  0.9459
14462SOL    HW254606   2.525   0.269   3.604  0.6735 -0.1091  2.0320
14463SOL     OW54607   8.149   9.762   0.499 -0.2635 -0.2146  0.6467
14463SOL    HW154608   8.203   9.747   0.582  3.1005 -1.0972 -1.5940
14463SOL    HW254609   8.122   9.674   0.460 -0.5470  0.1430  0.0259
14464SOL     OW54610   5.596   2.394   3.635 -0.1593 -0.3675 -0.4744
14464SOL    HW154611   5.591   2.494   3.640 -2.4994 -0.4103 -1.2478
14464SOL    HW254612   5.578   2.364   3.542  1.5924 -1.4991 -0.4787
14465SOL     OW54613   7.906   6.644   4.554 -0.4593  0.5405  0.0369
14465SOL    HW154614   7.821   6.621   4.601 -1.0810  1.7717 -0.4537
14465SOL    HW254615   7.900   6.614   4.458  0.6234 -1.5506  0.5980
14466SOL     OW54616   0.521   4.748   5.935  0.4145 -0.3607  0.3454
14466SOL    HW154617   0.488   4.726   5.842  0.3295 -0.3952  0.3835
14466SOL    HW254618   0.455   4.714   6.002  0.2954 -0.0187  0.4051
14467SOL     OW54619   0.581   2.883   5.969  0.1373  0.3928  0.2804
14467SOL    HW154620   0.668   2.917   6.006  0.8052  0.0257 -0.9111
14467SOL    HW254621   0.562   2.793   6.007  0.5648  0.2291  0.1121
14468SOL     OW54622   8.792   2.723   2.363 -0.5871 -0.3661 -0.1273
14468SOL    HW154623   8.734   2.782   2.419  0.1057 -0.2532  0.4833
14468SOL    HW254624   8.813   2.640   2.414  2.4165  0.9941  0.9576
14469SOL     OW54625   0.328   8.900   4.392  0.3228  0.0925 -0.1345
14469SOL    HW154626   0.352   8.997   4.394 -0.8927  0.3846  1.1725
14469SOL    HW254627   0.265   8.883   4.316  2.5867 -0.1996 -2.0007
14470SOL     OW54628   0.013   2.189   3.322  0.4501 -0.5956 -0.5271
14470SOL    HW154629  -0.020   2.099   3.350 -0.0341 -0.8804 -1.9539
14470SOL    HW254630  -0.022   2.210   3.231  1.4386  0.5696 -0.6504
14471SOL     OW54631   1.373   0.252   0.510 -0.3266 -0.0325  0.4020
14471SOL    HW154632   1.322   0.299   0.582  0.3426  0.3386  0.6380
14471SOL    HW254633   1.452   0.308   0.483  0.4115 -0.9719  0.6094
14472SOL     OW54634   7.654   7.905   4.985 -0.0345  0.1897 -0.5748
14472SOL    HW154635   7.644   7.998   4.950  1.0757  1.3245  1.9557
14472SOL    HW254636   7.746   7.871   4.964 -0.1149  0.0318 -0.6726
14473SOL     OW54637   7.778   0.317   4.594 -0.1013 -0.1125  0.0680
14473SOL    HW154638   7.747   0.232   4.636  1.0454 -0.3264  0.5139
14473SOL    HW254639   7.872   0.305   4.561  0.2351  1.1102  0.5614
14474SOL     OW54640   5.632   0.687   2.795  0.2534  0.4376 -0.2758
14474SOL    HW154641   5.585   0.628   2.729  1.8682  0.0130 -1.0759
14474SOL    HW254642   5.637   0.780   2.760 -1.7241  0.9340  0.6999
14475SOL     OW54643   1.316   5.534   5.965 -0.2378  0.3174 -0.4546
14475SOL    HW154644   1.329   5.454   6.022 -0.7095 -0.6156 -1.6422
14475SOL    HW254645   1.402   5.585   5.959  0.8158 -1.5482 -1.8516
14476SOL     OW54646   6.732   5.504   0.093 -0.3745  0.1561  0.7385
14476SOL    HW154647   6.746   5.542   0.184  1.3956  0.2757  0.4345
14476SOL    HW254648   6.647   5.539   0.055  0.3711  2.5291  1.1402
14477SOL     OW54649   2.362   4.682   5.741 -0.3838 -0.2488  0.1445
14477SOL    HW154650   2.421   4.680   5.822 -0.5438  1.4259  0.3216
14477SOL    HW254651   2.303   4.602   5.741  0.9686 -1.2716  0.6569
14478SOL     OW54652   8.785   8.061   0.585 -0.2358 -0.0025 -0.3209
14478SOL    HW154653   8.778   7.962   0.573  2.1356 -0.1604 -0.6117
14478SOL    HW254654   8.881   8.087   0.596 -0.8561  2.2334  0.1392
14479SOL     OW54655   2.604   6.450   0.062 -0.3014  0.3476  0.3780
14479SOL    HW154656   2.558   6.487  -0.019 -1.4669 -1.4928  0.1844
14479SOL    HW254657   2.689   6.405   0.034 -0.7625 -0.3910  0.1495
14480SOL     OW54658   2.860   4.066   5.688  0.6097  0.1682  0.2248
14480SOL    HW154659   2.800   4.031   5.760 -1.8979  0.2368 -1.7599
14480SOL    HW254660   2.892   3.991   5.631 -1.2037  0.5403 -1.3593
14481SOL     OW54661   1.540   1.118   5.027 -0.7612  0.6681 -0.0061
14481SOL    HW154662   1.582   1.118   4.936 -0.4514  0.9892  0.1356
14481SOL    HW254663   1.549   1.209   5.068 -1.9425  0.8547 -0.1306
14482SOL     OW54664   9.109   1.077   5.709  0.4034  0.4208 -0.3757
14482SOL    HW154665   9.042   1.031   5.768  1.3842  0.7975  1.0613
14482SOL    HW254666   9.132   1.018   5.632 -1.7256  0.3622 -1.0142
14483SOL     OW54667   0.754   9.669   3.136  0.0645  0.1894 -0.0761
14483SOL    HW154668   0.802   9.707   3.215  0.7670 -0.0485 -0.3843
14483SOL    HW254669   0.791   9.578   3.116 -1.4791 -0.5951  0.5482
14484SOL     OW54670   4.170   8.699   0.407  0.2241  0.0392 -0.3407
14484SOL    HW154671   4.162   8.629   0.336  1.0854 -0.7340  0.3260
14484SOL    HW254672   4.079   8.731   0.432 -0.3696 -2.8014  1.2967
14485SOL     OW54673   0.917   6.654   4.463 -0.2648 -0.4749  0.0987
14485SOL    HW154674   0.946   6.725   4.399  1.4599 -1.7876 -0.6008
14485SOL    HW254675   0.872   6.579   4.414 -1.2458 -0.3255  0.7333
14486SOL     OW54676   1.047   1.098   2.436 -0.1855 -0.1383  0.2792
14486SOL    HW154677   1.137   1.142   2.441  0.5812 -1.2894 -2.3172
14486SOL    HW254678   0.999   1.130   2.354 -1.4819 -0.7320  0.7988
14487SOL     OW54679   9.447   4.883   5.264 -0.2281 -0.2949 -0.1186
14487SOL    HW154680   9.472   4.943   5.188  1.2315 -0.1956  0.4100
14487SOL    HW254681   9.410   4.937   5.339  0.7990 -0.0703  0.2388
14488SOL     OW54682   9.786   3.705   3.453 -0.3362 -0.3886 -0.3078
14488SOL    HW154683   9.860   3.734   3.392 -0.6648 -0.2587 -0.6444
14488SOL    HW254684   9.762   3.780   3.515 -1.2003  0.0697 -1.1923
14489SOL     OW54685   2.947   0.658   1.612 -0.5343 -0.2422  0.3941
14489SOL    HW154686   2.962   0.576   1.667 -0.4859 -0.3398  0.2379
14489SOL    HW254687   2.893   0.724   1.664 -0.4406 -0.3102  0.5788
14490SOL     OW54688   8.981   6.593   3.179  0.4495 -0.4432  0.3341
14490SOL    HW154689   8.995   6.582   3.081  2.7291 -0.8336  0.6777
14490SOL    HW254690   9.066   6.574   3.228 -0.8784 -1.1999  2.4666
14491SOL     OW54691   9.406   7.939   6.700 -0.2499  0.4767  0.5254
14491SOL    HW154692   9.353   7.855   6.695 -1.2220  1.1576 -0.4786
14491SOL    HW254693   9.436   7.953   6.795  0.1072 -1.1006  0.6626
14492SOL     OW54694   9.282   8.409   2.189 -0.4119  0.1191  0.2374
14492SOL    HW154695   9.313   8.340   2.124  1.6076  1.7171 -0.5487
14492SOL    HW254696   9.208   8.463   2.149 -2.0190 -1.5510  0.8646
14493SOL     OW54697   8.551   3.130   1.191 -0.5637 -0.3504  0.7397
14493SOL    HW154698   8.549   3.067   1.269 -3.9393 -0.9806  0.2203
14493SOL    HW254699   8.501   3.090   1.115  0.4100  1.4228 -0.8705
14494SOL     OW54700   1.936   3.958   1.330 -0.2888  0.9176  0.1875
14494SOL    HW154701   1.935   4.054   1.358 -0.8112  1.1906 -0.7285
14494SOL    HW254702   1.891   3.949   1.241  0.3666 -0.0778 -0.0526
14495SOL     OW54703   8.991   9.920   1.011 -0.2018  0.5719  0.0596
14495SOL    HW154704   8.942  10.006   1.024  1.3768  1.7340 -1.4994
14495SOL    HW254705   8.958   9.875   0.929 -0.7809 -0.1565  0.6835
14496SOL     OW54706   7.267   2.324   1.432  0.6504 -0.3041  0.0874
14496SOL    HW154707   7.242   2.319   1.336 -0.8455  0.1787  0.4394
14496SOL    HW254708   7.312   2.239   1.460  0.2553 -0.8022 -0.8021
14497SOL     OW54709   1.827   4.574   4.998  0.1341  0.1581 -0.4249
14497SOL    HW154710   1.893   4.635   5.042  2.2767 -1.1153 -1.7228
14497SOL    HW254711   1.808   4.496   5.058  0.9275 -0.1739 -0.5880
14498SOL     OW54712   5.966   8.602   2.628  0.3321 -0.3541  0.3164
14498SOL    HW154713   5.957   8.699   2.605  1.1607 -0.4658 -0.4984
14498SOL    HW254714   6.045   8.564   2.579 -0.8191 -1.7695 -0.4477
14499SOL     OW54715   1.610   0.090   5.942  0.5104  0.4872  0.1921
14499SOL    HW154716   1.585   0.127   6.031  0.0775 -0.6849  0.5517
14499SOL    HW254717   1.542   0.118   5.874 -0.1101 -0.1120  0.5703
14500SOL     OW54718   7.660   5.938   3.209  0.1229  0.4795  0.2456
14500SOL    HW154719   7.739   5.981   3.252 -0.1545  1.3824 -0.1299
14500SOL    HW254720   7.654   5.967   3.114  1.8246 -2.9770 -1.0154
14501SOL     OW54721   7.943   8.374   4.582  0.7030 -0.1409  0.3124
14501SOL    HW154722   7.865   8.313   4.586  0.1376  0.5877  0.5668
14501SOL    HW254723   8.021   8.327   4.541  0.5482 -1.3138  1.3457
14502SOL     OW54724   9.598   3.772   5.800 -0.1251 -0.0084 -0.3970
14502SOL    HW154725   9.571   3.849   5.742 -3.0191 -1.5422 -1.1547
14502SOL    HW254726   9.520   3.711   5.813  1.6308 -1.8747  1.7038
14503SOL     OW54727   3.073   3.587   2.900  0.2254 -0.6584 -0.2263
14503SOL    HW154728   3.018   3.514   2.940  0.2428 -1.3709 -1.4732
14503SOL    HW254729   3.024   3.674   2.908 -0.2642 -0.9835  0.3282
14504SOL     OW54730   7.515   7.763   1.990 -0.3053 -0.5827 -0.1764
14504SOL    HW154731   7.481   7.755   1.896 -0.2727  1.6961 -0.4070
14504SOL    HW254732   7.502   7.857   2.023  0.8953 -1.0188  1.6279
14505SOL     OW54733   7.874   9.722   5.018  0.0437 -0.4754 -0.0285
14505SOL    HW154734   7.827   9.767   4.942  1.8396  0.2266 -0.7668
14505SOL    HW254735   7.932   9.649   4.983  1.5179  0.3845  0.5510
14506SOL     OW54736   7.512   7.645   2.713 -0.0914 -0.3282 -0.1722
14506SOL    HW154737   7.574   7.585   2.661 -1.7228  0.2351 -2.8955
14506SOL    HW254738   7.550   7.737   2.717 -0.7085  0.0292 -1.8888
14507SOL     OW54739   1.870   6.878   4.574 -0.1641 -0.6546  0.3648
14507SOL    HW154740   1.968   6.900   4.575 -0.2201 -0.3364 -0.6172
14507SOL    HW254741   1.834   6.889   4.481 -1.6143  1.3622  1.1413
14508SOL     OW54742   0.408   3.580   2.730  0.4067  0.4485 -0.1982
14508SOL    HW154743   0.444   3.560   2.821 -1.2422 -0.5786  0.2524
14508SOL    HW254744   0.416   3.498   2.673  1.2294  1.0233 -0.9179
14509SOL     OW54745   1.175   6.368   4.610  0.3650  0.1796 -0.0239
14509SOL    HW154746   1.090   6.316   4.598 -0.3927  1.5567 -0.6963
14509SOL    HW254747   1.178   6.407   4.702 -0.9642  2.2648 -0.8256
14510SOL     OW54748   3.523   1.985   1.595 -0.3736 -0.2292 -0.0057
14510SOL    HW154749   3.493   2.080   1.589  2.6424  0.9464  2.0854
14510SOL    HW254750   3.447   1.927   1.625 -1.4844  2.0070  1.6032
14511SOL     OW54751   0.482   6.962   2.364 -0.4348  0.0658 -0.0383
14511SOL    HW154752   0.405   6.953   2.301 -0.3512 -1.2394  0.0302
14511SOL    HW254753   0.450   6.995   2.452 -0.9919 -1.0125  0.1569
14512SOL     OW54754   7.121   0.266   4.271 -0.3121 -0.2299  0.3178
14512SOL    HW154755   7.022   0.271   4.276 -0.3435  0.1649 -0.5759
14512SOL    HW254756   7.149   0.178   4.232 -0.2917 -0.4790  0.8809
14513SOL     OW54757   9.008   9.153   6.701  0.6807 -0.4518  0.6696
14513SOL    HW154758   8.941   9.187   6.767 -1.0558 -0.5882 -0.9588
14513SOL    HW254759   9.029   9.226   6.636 -1.3314 -1.7072 -1.4872
14514SOL     OW54760   2.486   5.456   3.409 -0.1440 -0.4996 -0.4733
14514SOL    HW154761   2.414   5.517   3.441 -1.0359 -1.3292 -0.9036
14514SOL    HW254762   2.494   5.463   3.310  2.8710  2.3514 -0.1642
14515SOL     OW54763   7.573   3.989   2.358 -0.6838  0.4761 -0.1101
14515SOL    HW154764   7.494   3.975   2.297  0.4079 -0.6110 -1.2895
14515SOL    HW254765   7.657   3.983   2.305  0.2806 -0.1717  1.4796
14516SOL     OW54766   4.106   2.626   4.878 -0.4955  0.0895 -0.4637
14516SOL    HW154767   4.087   2.593   4.970 -2.2099  0.3615 -0.6980
14516SOL    HW254768   4.178   2.571   4.836 -0.6392 -0.8832  0.5521
14517SOL     OW54769   3.493   9.192   0.994  0.0016  0.0237 -0.3472
14517SOL    HW154770   3.407   9.153   0.963  0.7395 -1.9810  0.0692
14517SOL    HW254771   3.493   9.199   1.094  0.0427  0.6891 -0.3912
14518SOL     OW54772   7.908   9.260   2.285 -0.0154  0.1894  0.0861
14518SOL    HW154773   8.003   9.250   2.317  0.2581  1.1806 -0.3873
14518SOL    HW254774   7.906   9.324   2.209 -0.9556 -0.5518 -0.5188
14519SOL     OW54775   1.659   3.157   3.636 -0.1684 -0.0939  0.2109
14519SOL    HW154776   1.680   3.139   3.540  2.4802  0.2170  0.6990
14519SOL    HW254777   1.690   3.080   3.692  0.1259  0.5866  1.0046
14520SOL     OW54778   2.487   6.406   2.259 -0.0712 -0.3284  0.3727
14520SOL    HW154779   2.421   6.467   2.215 -0.9438 -1.0008  0.7393
14520SOL    HW254780   2.441   6.352   2.330  0.4952 -1.9964 -0.4932
14521SOL     OW54781   9.704   1.183   3.455  0.1322  0.2798 -0.5855
14521SOL    HW154782   9.699   1.087   3.427  0.5956  0.6429 -1.9518
14521SOL    HW254783   9.636   1.236   3.405 -0.6608  0.5421  0.7476
14522SOL     OW54784   8.904   7.625   3.022 -0.1545 -0.0637 -0.7911
14522SOL    HW154785   8.934   7.541   3.067  0.9085 -0.7256 -2.6687
14522SOL    HW254786   8.864   7.602   2.933  0.4549  1.4367 -1.4643
14523SOL     OW54787   8.638   2.220   0.182 -0.3019 -0.2430 -0.3420
14523SOL    HW154788   8.678   2.276   0.254  0.5497 -1.3325  0.0603
14523SOL    HW254789   8.700   2.143   0.162 -1.7877 -1.4717 -0.3207
14524SOL     OW54790   0.077   8.926   1.361 -0.2519  0.0574  0.1456
14524SOL    HW154791   0.127   8.918   1.275  0.6443  1.1838  0.5544
14524SOL    HW254792   0.083   9.020   1.394  0.3508 -0.6233  2.0062
14525SOL     OW54793   8.267   2.994   4.481 -0.1595  0.6271 -0.6669
14525SOL    HW154794   8.291   3.000   4.578  1.5527 -0.1932 -1.0214
14525SOL    HW254795   8.245   2.900   4.457 -0.3896  0.7931 -1.1191
14526SOL     OW54796   3.365   4.952   0.611  0.0900 -0.0412  0.0927
14526SOL    HW154797   3.446   4.897   0.631 -0.0754  0.0251  0.9736
14526SOL    HW254798   3.390   5.049   0.614 -0.1094 -0.0061  0.8113
14527SOL     OW54799   1.184   3.253   0.325 -0.5039  0.2772 -0.4891
14527SOL    HW154800   1.102   3.222   0.277 -1.1360  0.7568  0.2493
14527SOL    HW254801   1.192   3.204   0.412  0.5257 -0.4601 -1.0035
14528SOL     OW54802   3.269   2.448   2.427  0.0992  0.1158 -0.1412
14528SOL    HW154803   3.328   2.503   2.487 -1.5613  1.2191  0.5032
14528SOL    HW254804   3.213   2.508   2.371 -1.3584 -0.9225  0.1841
14529SOL     OW54805   8.383   2.816   3.324 -0.3102 -0.2533 -0.3411
14529SOL    HW154806   8.420   2.723   3.327 -1.6061 -0.7658  0.6064
14529SOL    HW254807   8.304   2.818   3.262  0.2451  0.4202 -1.0336
14530SOL     OW54808   2.999   6.972   2.846  0.0590  0.6584 -0.0204
14530SOL    HW154809   3.025   6.877   2.829 -1.7616  0.0404  0.5046
14530SOL    HW254810   3.036   7.001   2.934  0.5191  0.3845 -0.1234
14531SOL     OW54811   4.307   1.173   3.327 -0.5322 -0.1240 -0.5317
14531SOL    HW154812   4.327   1.173   3.229  0.0692  0.0923 -0.4082
14531SOL    HW254813   4.217   1.212   3.343 -0.7460 -0.4135 -1.0243
14532SOL     OW54814   6.612   1.032   5.073  0.0060  0.2573  0.0004
14532SOL    HW154815   6.533   1.069   5.025 -0.1547 -0.2420 -0.1313
14532SOL    HW254816   6.672   1.106   5.103 -0.2811  0.6088 -0.3020
14533SOL     OW54817   2.171   5.802   0.580 -0.3501  0.6563 -0.6162
14533SOL    HW154818   2.141   5.707   0.585 -0.1176  0.4666 -2.5039
14533SOL    HW254819   2.256   5.808   0.527  0.0471  1.8321  0.1217
14534SOL     OW54820   2.748   8.432   1.338 -0.4474 -0.1613  0.1303
14534SOL    HW154821   2.778   8.362   1.273  1.8812  2.8057 -2.1753
14534SOL    HW254822   2.648   8.436   1.340 -0.5862 -2.9330 -0.3372
14535SOL     OW54823   0.903   1.542   4.528 -0.5009 -0.4532 -0.7275
14535SOL    HW154824   0.913   1.596   4.445 -0.5448  1.0271  0.2019
14535SOL    HW254825   0.822   1.483   4.521 -2.3549  2.0022 -0.4776
14536SOL     OW54826   9.674   4.329   2.841  0.3725 -0.2403  0.1588
14536SOL    HW154827   9.663   4.307   2.744  1.0864  1.1356 -0.2399
14536SOL    HW254828   9.611   4.401   2.867  1.8680  1.1105  0.1136
14537SOL     OW54829   0.239   2.026   4.980 -0.4579 -0.2795  0.6843
14537SOL    HW154830   0.141   2.043   4.985 -0.2713  0.6790  1.1876
14537SOL    HW254831   0.288   2.112   4.993  0.4376 -0.6649 -0.0976
14538SOL     OW54832   2.721   5.063   5.821 -0.2923  0.3389  0.7189
14538SOL    HW154833   2.639   5.037   5.872 -1.2379 -1.3139 -1.5850
14538SOL    HW254834   2.768   4.981   5.788  2.2521  1.2588  1.8665
14539SOL     OW54835   8.579   4.148   2.175 -0.2162 -0.1957 -0.4523
14539SOL    HW154836   8.493   4.148   2.124  0.1890  1.4693 -1.1572
14539SOL    HW254837   8.649   4.102   2.121 -0.8210 -2.1982  0.4290
14540SOL     OW54838   2.316   0.736   1.912  0.3015 -0.4167 -0.3054
14540SOL    HW154839   2.349   0.809   1.853 -1.3209 -1.7909 -3.0002
14540SOL    HW254840   2.315   0.768   2.007 -0.6971  3.1529 -1.4462
14541SOL     OW54841   9.558   3.389   0.882 -0.0207 -0.4558  0.8836
14541SOL    HW154842   9.643   3.391   0.830  0.2290 -0.1185  1.3064
14541SOL    HW254843   9.535   3.481   0.911 -1.3994 -0.2901 -0.6322
14542SOL     OW54844   4.109   0.334   4.590 -0.3408 -0.2766 -0.2024
14542SOL    HW154845   4.208   0.333   4.575 -0.3681 -1.4435 -0.3909
14542SOL    HW254846   4.074   0.240   4.586 -1.1263 -0.1092  2.0223
14543SOL     OW54847   8.093   6.037   4.694  0.7039  0.2737 -0.2435
14543SOL    HW154848   8.137   6.080   4.774 -1.2883  0.8000  0.5963
14543SOL    HW254849   8.057   6.108   4.634  0.0078 -0.1748 -0.3590
14544SOL     OW54850   4.046   1.700   3.068 -0.0217  0.3314 -0.0074
14544SOL    HW154851   4.085   1.609   3.084 -1.3930  0.0564  1.9568
14544SOL    HW254852   4.048   1.753   3.153  0.9408  2.2215 -1.1828
14545SOL     OW54853   3.024   6.559   6.079  1.0562  0.0468  0.1272
14545SOL    HW154854   2.984   6.614   6.153  0.8379 -0.2509  0.2276
14545SOL    HW254855   3.033   6.616   5.997  2.4374  0.7301  0.7405
14546SOL     OW54856   4.073   1.255   3.413  0.0483  0.0460 -0.2923
14546SOL    HW154857   4.086   1.337   3.469 -0.5024 -0.0382 -0.0395
14546SOL    HW254858   3.987   1.263   3.361 -2.4188 -2.3299  3.2064
14547SOL     OW54859   1.777   0.230   0.539 -0.0480 -0.1018 -0.3914
14547SOL    HW154860   1.732   0.229   0.628  0.4944  0.3352 -0.1024
14547SOL    HW254861   1.746   0.152   0.484 -0.4627 -0.3127  0.1395
14548SOL     OW54862   2.630   2.717   4.307 -0.3163 -0.2870  0.5158
14548SOL    HW154863   2.664   2.715   4.401 -1.3932 -0.7664  0.9006
14548SOL    HW254864   2.604   2.811   4.282  2.2222  0.2838 -0.1378
14549SOL     OW54865   5.731   0.232   3.992  0.3272  0.3395 -0.2648
14549SOL    HW154866   5.718   0.283   3.907  0.6763 -0.3926 -0.7651
14549SOL    HW254867   5.783   0.148   3.973  0.4161  0.1759  0.6708
14550SOL     OW54868   0.788   8.711   0.532 -0.4763  0.3469  0.3806
14550SOL    HW154869   0.807   8.710   0.630 -2.3460 -0.7578  0.7449
14550SOL    HW254870   0.828   8.629   0.490  0.2504  0.7786  0.2191
14551SOL     OW54871   9.854   1.125   0.107  0.5297 -0.6682  0.4273
14551SOL    HW154872   9.937   1.094   0.061  0.5362 -0.6623  0.4341
14551SOL    HW254873   9.860   1.224   0.123  1.0963 -0.8742  1.5926
14552SOL     OW54874   9.542   9.115   3.118 -0.8223 -0.0681  0.2202
14552SOL    HW154875   9.577   9.074   3.203 -1.4766  1.6517  1.3410
14552SOL    HW254876   9.449   9.148   3.132 -0.3640  1.7010 -0.6679
14553SOL     OW54877   9.380   6.067   2.439 -0.1243 -0.1082  0.4378
14553SOL    HW154878   9.349   6.154   2.478  1.1094  0.1066  0.9582
14553SOL    HW254879   9.339   6.055   2.349  0.0408  1.2163  0.1796
14554SOL     OW54880   2.243   2.205   0.052  0.2655 -0.5544 -0.4501
14554SOL    HW154881   2.218   2.211  -0.044  0.8043  0.3894 -0.5428
14554SOL    HW254882   2.173   2.250   0.108  0.3022 -0.4796 -0.4640
14555SOL     OW54883   8.118   4.124   2.547  0.7884 -0.1637  0.5574
14555SOL    HW154884   8.068   4.116   2.460  1.6216 -1.2779  0.1697
14555SOL    HW254885   8.216   4.115   2.529  1.0428  0.8152  1.4681
14556SOL     OW54886   0.392   1.730   1.823 -0.2232  0.0212  0.1514
14556SOL    HW154887   0.398   1.804   1.889 -0.3030 -1.2329  1.5905
14556SOL    HW254888   0.464   1.740   1.754  1.6883 -0.2345  2.0744
14557SOL     OW54889   1.873   2.134   5.471  0.3517  0.4348  0.0824
14557SOL    HW154890   1.882   2.136   5.570 -0.9389  1.1129  0.2010
14557SOL    HW254891   1.865   2.228   5.437 -0.9023  0.1411 -0.4787
14558SOL     OW54892   8.248   8.140   4.930 -0.0847 -0.7110 -0.1786
14558SOL    HW154893   8.231   8.161   5.026  1.2044  0.5444 -0.2044
14558SOL    HW254894   8.344   8.113   4.918 -0.1534 -0.5443 -1.1658
14559SOL     OW54895   1.298   3.377   6.709 -0.1878 -0.6287 -0.5088
14559SOL    HW154896   1.357   3.455   6.728 -2.6294  1.0170  0.4878
14559SOL    HW254897   1.345   3.293   6.734  2.2332  0.5490 -0.9961
14560SOL     OW54898   9.885   1.267   4.011  0.0289  0.1427 -0.4753
14560SOL    HW154899   9.931   1.326   3.943  2.8304  0.1078  1.2928
14560SOL    HW254900   9.901   1.171   3.988  1.2444  0.1310  0.3561
14561SOL     OW54901   0.212   0.315   5.109 -0.4130 -0.7225 -0.4482
14561SOL    HW154902   0.146   0.359   5.171 -0.7589 -0.5418 -0.9410
14561SOL    HW254903   0.225   0.219   5.137  1.8079  0.1918  1.8025
14562SOL     OW54904   0.568   1.127   6.386 -0.6053  0.0183 -0.3874
14562SOL    HW154905   0.469   1.144   6.382 -0.3755  1.3324 -0.5511
14562SOL    HW254906   0.617   1.207   6.354  0.5586  0.0288  1.3518
14563SOL     OW54907   8.702   1.731   2.779 -0.1336 -0.1791  0.2575
14563SOL    HW154908   8.767   1.780   2.838  0.9895  1.6520 -2.3888
14563SOL    HW254909   8.630   1.794   2.751 -1.0720 -1.2441  0.2728
14564SOL     OW54910   3.567   5.276   2.353 -0.0010 -0.0949  0.1987
14564SOL    HW154911   3.602   5.360   2.311 -1.9146  0.5574 -0.1483
14564SOL    HW254912   3.615   5.197   2.313  0.8546  0.7458 -0.4715
14565SOL     OW54913   1.026   4.412   1.336 -0.2048 -0.0507  0.2035
14565SOL    HW154914   1.106   4.376   1.384  0.5959  1.9884  0.4282
14565SOL    HW254915   1.054   4.452   1.249 -1.4662 -2.4502 -1.3631
14566SOL     OW54916   1.047   0.286   1.984 -0.2330 -0.6369  0.1571
14566SOL    HW154917   1.085   0.214   1.926  2.3759  0.3151  0.6274
14566SOL    HW254918   1.013   0.247   2.069  2.5602 -1.2036  1.0779
14567SOL     OW54919   0.085   9.781   2.808  0.5726 -0.3434 -0.3105
14567SOL    HW154920   0.055   9.813   2.898  0.6164 -0.6198 -0.1950
14567SOL    HW254921   0.153   9.844   2.771  0.8981 -0.4734  0.0579
14568SOL     OW54922   7.654   7.036   6.188  0.4817 -0.4842 -0.0367
14568SOL    HW154923   7.751   7.010   6.189  0.8540  0.8230 -0.4707
14568SOL    HW254924   7.597   6.954   6.191  1.6083 -1.2829 -0.1653
14569SOL     OW54925   0.089   5.565   3.819  0.2008 -0.3042  0.5050
14569SOL    HW154926   0.084   5.628   3.896  0.5887  1.7986 -1.1440
14569SOL    HW254927   0.140   5.483   3.847  0.8540  0.6795  2.3049
14570SOL     OW54928   1.637   7.440   3.196 -0.1487  0.3398 -0.0271
14570SOL    HW154929   1.695   7.499   3.139  0.8175 -0.4992  0.0674
14570SOL    HW254930   1.650   7.465   3.292  1.1077 -0.7478  0.0968
14571SOL     OW54931   4.345   1.214   4.061 -0.3869  0.0285 -0.0761
14571SOL    HW154932   4.357   1.270   3.980  0.6166  0.6178  0.4727
14571SOL    HW254933   4.247   1.202   4.079 -0.6225 -0.5362 -1.6423
14572SOL     OW54934   4.452   4.237   2.879 -0.1479  0.1181  0.1771
14572SOL    HW154935   4.523   4.274   2.939  0.2514 -0.7343  0.2342
14572SOL    HW254936   4.363   4.273   2.906  0.2281  0.9773  0.2800
14573SOL     OW54937   0.019   4.660   3.105 -0.3128 -0.3556 -0.4829
14573SOL    HW154938  -0.029   4.584   3.061  2.3933 -2.0821 -0.5227
14573SOL    HW254939   0.016   4.648   3.205 -2.2578  1.0110 -0.3293
14574SOL     OW54940   7.378   7.779   5.459  0.9876  0.0167 -0.0098
14574SOL    HW154941   7.288   7.819   5.476  0.8428 -1.4486  3.0870
14574SOL    HW254942   7.369   7.702   5.396 -0.1167 -0.7583  1.0673
14575SOL     OW54943   0.952   5.662   6.213 -0.0724 -0.0208  0.1448
14575SOL    HW154944   1.042   5.688   6.246 -0.9298  1.2615  1.5198
14575SOL    HW254945   0.919   5.583   6.264  0.0174 -0.1357  0.0277
14576SOL     OW54946   1.450   3.365   0.478 -0.2867 -0.2670 -0.4414
14576SOL    HW154947   1.354   3.361   0.449 -0.0549  0.7069 -1.3680
14576SOL    HW254948   1.459   3.433   0.551 -0.5557 -1.4381  0.7002
14577SOL     OW54949   8.151   6.579   0.878  0.3058 -0.0344 -0.1649
14577SOL    HW154950   8.074   6.635   0.908  0.5332  1.1760 -1.8048
14577SOL    HW254951   8.126   6.482   0.884 -0.6205  0.2816  1.2197
14578SOL     OW54952   0.236   3.638   3.072  0.0532 -0.0533 -0.1979
14578SOL    HW154953   0.263   3.730   3.042 -0.4438  0.7921  1.8515
14578SOL    HW254954   0.312   3.575   3.059  1.4139  1.2916  1.0608
14579SOL     OW54955   0.009   9.481   5.909  0.7911 -0.6432 -0.4454
14579SOL    HW154956  -0.078   9.518   5.939  0.1809 -1.2832 -1.3914
14579SOL    HW254957   0.067   9.461   5.989  0.9039  1.7256  0.1076
14580SOL     OW54958   1.039   8.247   1.242 -0.3825  0.1268 -0.5538
14580SOL    HW154959   1.072   8.158   1.272 -1.8640 -0.0551  0.5845
14580SOL    HW254960   1.086   8.273   1.158  1.3911 -0.8852  0.0923
14581SOL     OW54961   8.778   5.808   2.896 -0.0367  0.0922 -0.8407
14581SOL    HW154962   8.840   5.789   2.971 -1.3688  0.5054  0.3877
14581SOL    HW254963   8.719   5.729   2.879 -1.2961  0.8085  0.0926
14582SOL     OW54964   4.318   2.977   5.742  0.4577 -0.2757  0.0677
14582SOL    HW154965   4.335   2.889   5.699 -1.7910 -0.6432 -0.1206
14582SOL    HW254966   4.363   3.050   5.689 -0.1582 -0.9906 -1.4671
14583SOL     OW54967   1.948   7.762   5.610  0.0787  0.1692 -0.0653
14583SOL    HW154968   1.871   7.726   5.558 -0.1511 -0.4344  0.6851
14583SOL    HW254969   1.943   7.861   5.614 -0.7592  0.1223  0.1193
14584SOL     OW54970   3.547   0.377   3.052  0.4334  0.6171  0.2857
14584SOL    HW154971   3.569   0.434   3.131  1.6170  1.4098 -0.6006
14584SOL    HW254972   3.544   0.434   2.970 -1.1342 -0.1393 -0.2073
14585SOL     OW54973   4.618   8.421   2.098 -0.2769 -0.1531  0.4508
14585SOL    HW154974   4.519   8.406   2.102 -0.3026  0.2555  1.6542
14585SOL    HW254975   4.651   8.398   2.007 -1.4533 -0.4618  0.0833
14586SOL     OW54976   9.252   9.422   0.332 -0.4302 -0.0915  0.1534
14586SOL    HW154977   9.189   9.454   0.261  0.0842 -0.9499 -0.6985
14586SOL    HW254978   9.212   9.343   0.379  0.1781 -0.8759 -0.6478
14587SOL     OW54979   9.354   9.268   5.478 -0.1419 -0.0570 -0.2392
14587SOL    HW154980   9.381   9.358   5.512 -0.2805 -0.0543 -0.1357
14587SOL    HW254981   9.267   9.275   5.430 -1.0526 -0.4452  1.3119
14588SOL     OW54982   9.075   1.503   2.931 -0.4982 -0.3416 -0.1661
14588SOL    HW154983   8.975   1.507   2.938 -0.5735 -1.7755 -0.2268
14588SOL    HW254984   9.102   1.418   2.885  0.7454  0.0905 -0.2606
14589SOL     OW54985   3.473   0.098   5.035 -0.5918 -0.1060 -0.4304
14589SOL    HW154986   3.566   0.109   5.068 -0.4185  0.9877 -1.2558
14589SOL    HW254987   3.474   0.067   4.940 -1.0617  0.0512 -0.4915
14590SOL     OW54988   0.398   8.581   4.218  0.4358  0.3967  0.3220
14590SOL    HW154989   0.396   8.487   4.252  0.1537  0.4306  0.4008
14590SOL    HW254990   0.450   8.639   4.281  2.0831 -0.0429 -0.5951
14591SOL     OW54991   7.043   9.907   3.987  0.1929  0.1834 -0.6950
14591SOL    HW154992   7.022   9.868   3.897  1.7486  0.3185 -1.1342
14591SOL    HW254993   7.026   9.839   4.058 -0.5944 -0.0865 -1.1432
14592SOL     OW54994   9.444   1.485   4.971  0.0996 -0.0223  0.0852
14592SOL    HW154995   9.529   1.492   4.919  0.4634 -2.4690  0.3075
14592SOL    HW254996   9.381   1.556   4.940  1.5088  0.6395 -1.3903
14593SOL     OW54997   6.763   9.457   1.369  0.9172  0.4192 -0.7114
14593SOL    HW154998   6.809   9.442   1.457  1.7620  1.0146 -1.0450
14593SOL    HW254999   6.726   9.550   1.367 -2.6226 -0.9014  0.5975
14594SOL     OW55000   4.237   1.211   5.374  0.1422  0.6473  0.0417
14594SOL    HW155001   4.230   1.301   5.330 -0.9938  0.7495  0.4386
14594SOL    HW255002   4.253   1.142   5.304  0.8949  1.1367 -0.2802
14595SOL     OW55003   8.081   4.572   0.314 -0.4989 -0.0710 -0.1156
14595SOL    HW155004   8.151   4.506   0.286 -0.8569 -0.6679  0.3691
14595SOL    HW255005   8.071   4.570   0.413  0.5174  1.7794  0.0411
14596SOL     OW55006   4.549   1.410   2.370  0.2862  0.1348  0.0270
14596SOL    HW155007   4.569   1.360   2.454  0.2629  1.0911  0.6156
14596SOL    HW255008   4.634   1.443   2.329  0.2686  0.0220 -0.1003
14597SOL     OW55009   8.209   2.846   5.157  0.2638  0.4028  0.1625
14597SOL    HW155010   8.137   2.786   5.122  0.2603  0.8213 -0.5601
14597SOL    HW255011   8.168   2.926   5.201  0.2683  2.1100 -2.8171
14598SOL     OW55012   3.422   0.434   6.325  0.4032  0.0573 -0.1374
14598SOL    HW155013   3.392   0.466   6.415 -1.3702 -1.2381 -0.2427
14598SOL    HW255014   3.347   0.441   6.260  1.1276 -0.6984 -1.0795
14599SOL     OW55015   1.247   9.810   4.050  0.1390 -0.0247  0.3069
14599SOL    HW155016   1.205   9.890   4.093 -0.8608 -1.3134  1.7871
14599SOL    HW255017   1.347   9.819   4.053  0.0610  0.6165  1.5648
14600SOL     OW55018   7.524   8.590   1.601 -0.4941  0.9060 -0.6119
14600SOL    HW155019   7.455   8.659   1.626 -1.5401  0.1226 -1.2844
14600SOL    HW255020   7.481   8.500   1.595  0.2800  0.6333 -2.4962
14601SOL     OW55021   9.955   5.032   4.861 -0.0645 -0.5260  0.2430
14601SOL    HW155022   9.908   5.092   4.795  0.9154 -0.2263 -0.2016
14601SOL    HW255023  10.023   5.086   4.911 -1.3326 -0.5916  2.0420
14602SOL     OW55024   3.890   4.685   2.793 -0.2509 -0.1046 -0.3212
14602SOL    HW155025   3.941   4.767   2.821 -2.2096  0.9125  0.3584
14602SOL    HW255026   3.898   4.615   2.864 -0.2403  0.2521  0.0316
14603SOL     OW55027   9.903   7.306   2.341  0.2547 -0.0116  0.0260
14603SOL    HW155028   9.813   7.300   2.386  0.1001  1.8295 -0.0181
14603SOL    HW255029   9.895   7.273   2.247 -0.6130  1.0189 -0.2808
14604SOL     OW55030   8.291   6.857   5.372  0.2039  0.1091 -0.0253
14604SOL    HW155031   8.234   6.793   5.320 -0.0469 -0.4777  0.9363
14604SOL    HW255032   8.235   6.902   5.441  0.7612  0.0133  0.4984
14605SOL     OW55033   2.723   3.455   6.204  0.0478  0.3320  0.5477
14605SOL    HW155034   2.713   3.405   6.291 -0.3328  1.3107  1.0801
14605SOL    HW255035   2.694   3.396   6.129 -0.4688 -0.2257  1.1675
14606SOL     OW55036   4.505   9.153   6.257  0.2708 -0.0736  0.0837
14606SOL    HW155037   4.449   9.172   6.337  0.1805 -3.9128  1.0084
14606SOL    HW255038   4.601   9.169   6.279  0.1124  0.4221  0.4321
14607SOL     OW55039   2.798   3.947   6.363  0.8917  0.1537 -0.1675
14607SOL    HW155040   2.798   3.877   6.292 -0.1406 -0.7083  0.6741
14607SOL    HW255041   2.705   3.959   6.399  1.5790 -0.2036  1.7923
14608SOL     OW55042   2.025   1.727   4.626 -0.5849  0.1168 -0.4421
14608SOL    HW155043   2.026   1.754   4.530 -0.8886  0.8640 -0.2440
14608SOL    HW255044   2.052   1.632   4.635  0.5927  0.3839 -1.1617
14609SOL     OW55045   1.192   4.555   5.250  0.9397 -0.1980  0.4397
14609SOL    HW155046   1.171   4.472   5.301  1.2528 -0.2431  0.4957
14609SOL    HW255047   1.291   4.568   5.245  0.9105 -0.2005 -0.1741
14610SOL     OW55048   6.726   2.591   2.610 -0.4767 -0.3844  0.1022
14610SOL    HW155049   6.730   2.669   2.548  2.5794 -0.3100  0.3152
14610SOL    HW255050   6.670   2.614   2.689 -0.6244  1.1479 -0.4283
14611SOL     OW55051   2.642   2.150   5.072 -0.2147 -0.1211 -0.3789
14611SOL    HW155052   2.605   2.064   5.037  0.6649 -1.1706  1.2112
14611SOL    HW255053   2.660   2.140   5.170  1.8770  1.1997 -0.6220
14612SOL     OW55054   4.324   8.074   4.019  0.0355  0.0627  0.1712
14612SOL    HW155055   4.262   8.087   3.942  0.8489  0.5899 -0.4066
14612SOL    HW255056   4.334   8.160   4.069 -1.0124 -0.4428  1.2804
14613SOL     OW55057   1.134   7.904   2.975  0.2900  0.0163  0.6543
14613SOL    HW155058   1.137   7.925   3.073 -0.2623 -0.1328  0.7024
14613SOL    HW255059   1.143   7.805   2.962 -0.2785 -0.0280  0.5878
14614SOL     OW55060   1.278   5.690   2.045  0.5860 -0.2020 -0.1827
14614SOL    HW155061   1.335   5.770   2.026 -0.6922  0.8569  0.3426
14614SOL    HW255062   1.294   5.659   2.138 -0.9942  1.2215  0.5943
14615SOL     OW55063   4.624   0.795   4.769  0.1778 -0.3678  0.5074
14615SOL    HW155064   4.609   0.698   4.787  0.8771 -0.1525  2.4871
14615SOL    HW255065   4.685   0.832   4.840  1.0652  1.1860 -1.0343
14616SOL     OW55066   2.234   8.372   1.530 -0.3837  0.0081  0.4425
14616SOL    HW155067   2.220   8.469   1.545  0.8942  0.3730 -0.5465
14616SOL    HW255068   2.216   8.321   1.614 -3.1522  0.8430  0.3984
14617SOL     OW55069   7.350   3.715   0.895  0.5482 -0.6837 -0.0367
14617SOL    HW155070   7.252   3.722   0.912  0.3813  1.9028 -1.7247
14617SOL    HW255071   7.400   3.719   0.982 -0.8188 -1.4275  0.7831
14618SOL     OW55072   1.336   0.859   3.819 -0.4693 -0.8296 -0.4621
14618SOL    HW155073   1.244   0.823   3.831  0.1657 -2.1869  0.4379
14618SOL    HW255074   1.396   0.787   3.783  1.0702 -1.0199  2.3517
14619SOL     OW55075   9.739   7.448   5.209  0.5100 -0.4491  0.0203
14619SOL    HW155076   9.795   7.381   5.159 -1.2364 -0.6376 -1.7424
14619SOL    HW255077   9.715   7.523   5.148 -0.9345 -0.2533  0.8149
14620SOL     OW55078   0.339   0.087   0.700 -0.1515 -0.1454  0.6440
14620SOL    HW155079   0.406   0.053   0.766 -0.1764 -1.3838  0.0386
14620SOL    HW255080   0.363   0.054   0.608 -1.5225 -0.4968  0.4125
14621SOL     OW55081   5.749   8.905   3.026  0.1591  0.0560 -0.0579
14621SOL    HW155082   5.827   8.876   2.971  0.1706  1.2262 -0.6798
14621SOL    HW255083   5.687   8.828   3.041  0.4499 -0.4060 -1.2231
14622SOL     OW55084   8.106   6.599   6.495  0.4161 -0.1844  0.7218
14622SOL    HW155085   8.026   6.615   6.554  0.5570  2.1186  0.3215
14622SOL    HW255086   8.129   6.683   6.446  1.5659 -1.5112 -1.0825
14623SOL     OW55087   8.036   0.408   2.485 -0.1280  0.0751  0.2972
14623SOL    HW155088   7.966   0.477   2.504 -0.7832 -0.1256 -1.2943
14623SOL    HW255089   8.116   0.452   2.443 -0.4651 -0.0866 -0.5331
14624SOL     OW55090   0.790   4.614   5.337 -0.1473  0.0923 -0.0051
14624SOL    HW155091   0.757   4.706   5.318  0.5495  0.5166  0.7893
14624SOL    HW255092   0.871   4.595   5.281 -0.6098 -0.2395 -0.5624
14625SOL     OW55093   2.299   8.193   5.920 -0.2336 -0.1733  0.3483
14625SOL    HW155094   2.372   8.153   5.864  0.7679  2.9598 -0.7040
14625SOL    HW255095   2.322   8.183   6.017  2.5286  2.1819  0.0355
14626SOL     OW55096   1.705   8.067   4.883 -0.3883  0.2825 -0.1712
14626SOL    HW155097   1.762   8.052   4.964  2.2664 -0.2232 -2.0677
14626SOL    HW255098   1.713   8.163   4.855 -0.0008  0.0660 -0.7934
14627SOL     OW55099   3.542   1.491   5.777 -0.0182 -0.4300 -0.0326
14627SOL    HW155100   3.550   1.568   5.841 -1.6275 -0.8715  0.7146
14627SOL    HW255101   3.633   1.450   5.763  0.5112  0.2940  1.1854
14628SOL     OW55102   5.360   7.045   2.346  0.2057  0.4732 -0.2545
14628SOL    HW155103   5.279   7.092   2.379 -0.8982 -0.0424 -2.1884
14628SOL    HW255104   5.388   6.977   2.413  0.5425  2.3483  1.5687
14629SOL     OW55105   7.364   9.771   6.529  0.4945  0.0464 -0.9558
14629SOL    HW155106   7.404   9.808   6.446  1.7465 -1.5186 -1.0791
14629SOL    HW255107   7.432   9.715   6.577 -0.1583  1.0292  1.1986
14630SOL     OW55108   2.391   0.670   6.183 -0.2273 -0.4162  0.1871
14630SOL    HW155109   2.350   0.761   6.177  2.1002  0.6632  0.4987
14630SOL    HW255110   2.435   0.647   6.096  0.3714 -0.6873  0.5631
14631SOL     OW55111   0.213   3.946   3.119  0.1651 -0.2249  0.0685
14631SOL    HW155112   0.229   3.991   3.031  1.1230  0.4498  0.5843
14631SOL    HW255113   0.130   3.984   3.161 -0.8669 -1.2636 -0.9965
14632SOL     OW55114   0.667   1.176   5.108  0.7020  0.1596  0.5106
14632SOL    HW155115   0.697   1.256   5.161 -0.5103  0.6629  0.4582
14632SOL    HW255116   0.618   1.113   5.169 -1.4122  1.1236 -0.1442
14633SOL     OW55117   1.204   1.195   6.753  0.0239  0.6861 -0.6135
14633SOL    HW155118   1.158   1.107   6.763  1.8768 -0.3721 -0.9629
14633SOL    HW255119   1.303   1.180   6.747  0.6149  3.0222  2.0877
14634SOL     OW55120   3.707   6.969   0.383 -0.0330  0.0492 -0.4336
14634SOL    HW155121   3.741   7.047   0.435 -0.8570  1.1439 -1.5171
14634SOL    HW255122   3.784   6.924   0.337  0.4961 -0.0229  0.5002
14635SOL     OW55123   1.779   0.548   4.789  0.3963  0.2631  0.6824
14635SOL    HW155124   1.695   0.527   4.739  0.5705 -1.1088  0.9584
14635SOL    HW255125   1.834   0.613   4.736  0.2591 -0.6428 -0.5787
14636SOL     OW55126   4.907   9.498   5.024 -0.0439 -0.1433  0.8671
14636SOL    HW155127   5.002   9.468   5.021 -0.3482 -0.9988 -1.2479
14636SOL    HW255128   4.898   9.586   4.977 -0.3287 -0.1893  0.8309
14637SOL     OW55129   5.188   4.100   0.225  0.1944 -0.0159  0.2274
14637SOL    HW155130   5.283   4.085   0.254 -0.4251 -0.3676  2.1742
14637SOL    HW255131   5.183   4.184   0.170  1.6793 -0.1885 -0.2096
14638SOL     OW55132   1.069   1.220   5.092  0.2547 -0.2845 -0.1785
14638SOL    HW155133   0.987   1.194   5.143  0.7527  0.2270  0.8929
14638SOL    HW255134   1.149   1.207   5.149  0.9744 -1.1879 -1.3713
14639SOL     OW55135   6.773   0.897   0.769  0.1292  0.2426 -0.4426
14639SOL    HW155136   6.786   0.798   0.782  1.3637  0.5557  0.7954
14639SOL    HW255137   6.813   0.946   0.846  0.3157  1.7733 -1.5060
14640SOL     OW55138   9.765   7.896   1.972 -0.3577  0.1331 -0.2541
14640SOL    HW155139   9.804   7.882   2.062  0.0262 -1.4828 -0.6609
14640SOL    HW255140   9.816   7.968   1.924 -0.7935  1.2572  0.9263
14641SOL     OW55141   5.024   0.932   4.609  0.5084  0.1221 -0.6406
14641SOL    HW155142   5.015   0.991   4.690 -1.0672 -2.0231  0.8052
14641SOL    HW255143   4.935   0.925   4.564  1.0403  0.0748 -1.6774
14642SOL     OW55144   4.582   9.111   3.260 -0.7469  0.0239  0.0278
14642SOL    HW155145   4.487   9.114   3.229 -0.4338  0.3894 -0.9404
14642SOL    HW255146   4.599   9.026   3.310 -1.4219 -0.3195 -0.3200
14643SOL     OW55147   4.425   9.542   3.109  0.1227 -0.0256  0.2561
14643SOL    HW155148   4.359   9.471   3.132  1.2775 -1.0766  0.3691
14643SOL    HW255149   4.393   9.593   3.029 -0.5843 -0.8333  0.0218
14644SOL     OW55150   8.076   7.914   4.244 -0.2246  0.0447  0.3571
14644SOL    HW155151   8.001   7.872   4.194 -1.8764  1.6792  1.4225
14644SOL    HW255152   8.071   8.014   4.233  0.1938  0.3336  2.6711
14645SOL     OW55153   9.173   2.723   4.369 -0.2340  0.2602 -0.0830
14645SOL    HW155154   9.163   2.822   4.361 -1.5453  0.0772 -0.7995
14645SOL    HW255155   9.210   2.686   4.284  0.8996  0.2069  0.4257
14646SOL     OW55156   2.575   9.948   2.049 -0.0578  0.3733 -0.7725
14646SOL    HW155157   2.561   9.899   1.963  2.9636  1.1214 -1.7447
14646SOL    HW255158   2.612   9.886   2.118 -0.2332  0.3205 -0.7260
14647SOL     OW55159   0.781   8.249   3.201  0.1508 -0.3273  0.0215
14647SOL    HW155160   0.824   8.338   3.193 -1.6355  0.5367 -0.2715
14647SOL    HW255161   0.847   8.177   3.181  0.6225  1.0515 -3.6326
14648SOL     OW55162   6.894   0.022   5.050 -0.5227 -0.0547  0.5094
14648SOL    HW155163   6.830   0.081   5.100 -0.1591  0.9037 -0.1273
14648SOL    HW255164   6.966  -0.009   5.112  0.0418  1.2912  0.5443
14649SOL     OW55165   8.215   7.338   6.080  0.4784 -0.3087 -0.2467
14649SOL    HW155166   8.154   7.387   6.018  1.1957  1.8467  0.7022
14649SOL    HW255167   8.309   7.366   6.064  0.8225 -0.7913  0.8473
14650SOL     OW55168   0.574   4.782   6.286  0.0147  0.0161 -0.1667
14650SOL    HW155169   0.661   4.743   6.257  0.3257 -0.5783  1.5013
14650SOL    HW255170   0.502   4.714   6.277  0.2031 -0.3320  0.9033
14651SOL     OW55171   9.683   8.790   0.826  0.4430 -0.3703  0.0355
14651SOL    HW155172   9.616   8.863   0.844  0.4073 -0.4066  0.0520
14651SOL    HW255173   9.768   8.831   0.791  0.8392 -0.2147  1.1588
14652SOL     OW55174   0.446   7.658   4.688 -0.0933 -0.2531  0.9819
14652SOL    HW155175   0.540   7.680   4.710  0.1291 -1.1186  0.9189
14652SOL    HW255176   0.384   7.720   4.736  0.5024  0.2180  1.1341
14653SOL     OW55177   8.602   2.544   1.315 -0.3799 -0.4032  0.3656
14653SOL    HW155178   8.690   2.538   1.362 -0.2104 -0.3006  0.0617
14653SOL    HW255179   8.594   2.633   1.271 -0.4065 -0.6120 -0.0549
14654SOL     OW55180   5.739   1.144   4.696 -0.1588 -0.0724 -0.1090
14654SOL    HW155181   5.748   1.206   4.774 -0.9051 -0.5568  0.3693
14654SOL    HW255182   5.671   1.074   4.717  1.5903 -1.8072 -0.1492
14655SOL     OW55183   4.466   0.754   1.090 -0.3570 -0.1489  0.0799
14655SOL    HW155184   4.516   0.718   1.012  0.1245 -0.5492  0.5654
14655SOL    HW255185   4.452   0.681   1.157  0.1871  0.4518  0.8518
14656SOL     OW55186   8.579   9.692   0.679 -0.0684  0.0144 -0.5174
14656SOL    HW155187   8.631   9.617   0.637 -0.9696 -0.5640 -0.6198
14656SOL    HW255188   8.633   9.733   0.753  0.7988 -0.1437 -1.0642
14657SOL     OW55189   5.463   1.619   3.966 -0.0987 -0.5827 -0.1836
14657SOL    HW155190   5.535   1.676   3.926  0.2113 -0.3103  0.7361
14657SOL    HW255191   5.470   1.622   4.066  0.1625 -2.5497 -0.1243
14658SOL     OW55192   9.171   8.050   4.539 -0.1693  0.3749 -0.0056
14658SOL    HW155193   9.110   8.083   4.467  0.3228  0.1829 -0.5180
14658SOL    HW255194   9.121   8.046   4.626 -0.5819  1.2592 -0.1891
14659SOL     OW55195   2.382   8.396   3.277  0.8677 -0.1325 -0.0686
14659SOL    HW155196   2.358   8.305   3.312  1.4330 -0.3262 -0.1620
14659SOL    HW255197   2.381   8.395   3.177 -2.9510  1.0205 -0.1007
14660SOL     OW55198   4.713   3.292   3.575  0.0109 -0.2287  0.4056
14660SOL    HW155199   4.705   3.325   3.668  2.1546  1.2671  0.1008
14660SOL    HW255200   4.686   3.195   3.571  1.2632 -0.7053  2.8455
14661SOL     OW55201   9.433   3.287   1.354 -0.1214  0.4306  0.1673
14661SOL    HW155202   9.382   3.293   1.440 -1.8505  0.1024 -0.7928
14661SOL    HW255203   9.382   3.228   1.290  2.4263 -1.4635 -0.1883
14662SOL     OW55204   6.179   9.114   3.031  0.1132 -0.6464  0.3464
14662SOL    HW155205   6.144   9.039   3.088 -1.2765 -0.9303 -0.8292
14662SOL    HW255206   6.124   9.121   2.948 -0.4206  2.3248  0.8742
14663SOL     OW55207   8.957   4.411   4.923 -0.5800  0.7918  0.6191
14663SOL    HW155208   8.998   4.484   4.868 -0.3280  0.1330 -0.0791
14663SOL    HW255209   8.867   4.440   4.954 -0.8205  1.0923 -0.3256
14664SOL     OW55210   8.692   3.452   3.812  0.5400 -0.4821 -0.0274
14664SOL    HW155211   8.723   3.545   3.828 -1.1736  0.4133 -1.6553
14664SOL    HW255212   8.734   3.416   3.729 -2.3267  0.6089 -2.0406
14665SOL     OW55213   8.048   3.998   1.141 -0.1595 -0.1916  0.0176
14665SOL    HW155214   8.112   4.051   1.085 -0.2658 -0.7201 -0.6149
14665SOL    HW255215   7.976   4.058   1.176 -1.2928 -0.2041 -2.1651
14666SOL     OW55216   0.980   6.616   4.866  0.2523 -0.7562  0.0706
14666SOL    HW155217   1.035   6.539   4.899 -0.1781 -0.8690  0.5270
14666SOL    HW255218   0.923   6.585   4.789  0.2778 -0.8247  0.0789
14667SOL     OW55219   8.717   7.497   2.828 -0.3918 -0.0280 -0.2236
14667SOL    HW155220   8.719   7.534   2.735 -0.2821  1.4311  0.3353
14667SOL    HW255221   8.649   7.548   2.882  1.2476  0.7609  1.1302
14668SOL     OW55222   5.264   3.862   0.852 -0.1578  0.2126  0.0126
14668SOL    HW155223   5.221   3.950   0.830 -0.5544 -0.1764 -0.7770
14668SOL    HW255224   5.216   3.820   0.928 -1.2249 -0.2416 -0.8964
14669SOL     OW55225   1.460   5.479   0.933  0.2783 -0.0382  0.1486
14669SOL    HW155226   1.434   5.395   0.981 -0.8132  1.5776  2.4937
14669SOL    HW255227   1.505   5.541   0.998 -0.5488  1.9013 -1.1131
14670SOL     OW55228   8.112   2.379   5.058  0.3488 -0.0372  0.1091
14670SOL    HW155229   8.049   2.457   5.054 -0.9300 -1.1550 -3.7901
14670SOL    HW255230   8.139   2.363   5.153 -1.2824  3.5922  1.2887
14671SOL     OW55231   6.515   9.061   5.537 -0.4947 -0.0099  0.0652
14671SOL    HW155232   6.458   9.139   5.512 -0.5215 -0.0263  0.0768
14671SOL    HW255233   6.457   8.983   5.560 -0.4542 -0.4284 -1.2350
14672SOL     OW55234   2.545   4.832   1.285  0.2799 -0.2396  0.3135
14672SOL    HW155235   2.491   4.796   1.361 -0.7736 -0.8099 -0.6931
14672SOL    HW255236   2.582   4.756   1.231  0.9587  0.1630  0.2044
14673SOL     OW55237   1.231   0.204   2.467  0.2843 -0.0776  0.2292
14673SOL    HW155238   1.253   0.296   2.499 -2.0580  1.3436 -2.0174
14673SOL    HW255239   1.284   0.183   2.385 -0.3884 -0.0310 -0.2293
14674SOL     OW55240   2.511   4.228   0.555 -0.0373  0.5188 -0.5297
14674SOL    HW155241   2.609   4.218   0.535 -0.4951 -2.7590 -1.5096
14674SOL    HW255242   2.470   4.289   0.487  1.1407  1.0754 -0.7613
14675SOL     OW55243   1.804   3.817   6.704  0.1642  0.3723 -0.0294
14675SOL    HW155244   1.862   3.891   6.740 -0.1703  0.5145  0.2219
14675SOL    HW255245   1.848   3.775   6.625  1.0651 -0.1540  0.7448
14676SOL     OW55246   8.871   6.587   4.793 -0.1734 -0.3123  0.3399
14676SOL    HW155247   8.949   6.575   4.854  0.9000 -0.1180 -0.9803
14676SOL    HW255248   8.847   6.500   4.752 -0.5215 -0.3295  0.5765
14677SOL     OW55249   7.824   9.954   0.557 -0.2396 -0.2711 -0.2848
14677SOL    HW155250   7.878  10.023   0.509 -0.5704  0.2124  0.0334
14677SOL    HW255251   7.885   9.896   0.612 -0.1317  0.7785  0.6994
14678SOL     OW55252   4.012   8.873   2.272 -0.1110  0.1376 -0.2405
14678SOL    HW155253   3.968   8.869   2.182  0.5529  0.5715 -0.5972
14678SOL    HW255254   4.102   8.829   2.267  0.0071  0.3289  0.1615
14679SOL     OW55255   0.280   8.371   0.230 -0.0625 -0.4776 -0.3039
14679SOL    HW155256   0.300   8.392   0.325 -2.3755  1.9240 -0.3191
14679SOL    HW255257   0.182   8.355   0.218 -0.3449  2.5338 -2.8124
14680SOL     OW55258   2.634   5.542   1.659 -0.4357 -0.5595  0.1614
14680SOL    HW155259   2.691   5.525   1.579  0.6549  0.1659  0.7719
14680SOL    HW255260   2.692   5.547   1.741 -1.1227  2.2466  0.5200
14681SOL     OW55261   8.849   8.341   1.392 -0.1267 -0.2888  0.3648
14681SOL    HW155262   8.770   8.354   1.332 -0.4551 -1.4321  0.5392
14681SOL    HW255263   8.875   8.245   1.392  0.3155 -0.1782  1.5037
14682SOL     OW55264   1.769   7.793   2.845 -0.1507  0.0874 -0.3956
14682SOL    HW155265   1.705   7.831   2.778 -0.9789  2.0064  1.4525
14682SOL    HW255266   1.859   7.837   2.834 -1.3090  3.2676  2.2468
14683SOL     OW55267   1.653   6.677   6.034  0.0844 -0.3376 -0.1531
14683SOL    HW155268   1.676   6.620   6.112  1.8087  0.8963  0.2746
14683SOL    HW255269   1.639   6.771   6.065  2.1695  0.4446 -1.4834
14684SOL     OW55270   7.828   7.524   5.903  0.4590  0.2846  0.4298
14684SOL    HW155271   7.825   7.585   5.824 -1.2649 -0.5601 -0.1908
14684SOL    HW255272   7.787   7.570   5.982  0.9943  0.6513  0.4981
14685SOL     OW55273   8.377   9.432   6.159 -0.3735  0.4569 -0.1754
14685SOL    HW155274   8.307   9.361   6.170 -0.7458  0.8270 -0.1407
14685SOL    HW255275   8.400   9.442   6.062  0.3754 -0.3792 -0.0843
14686SOL     OW55276   9.205   3.352   3.096 -0.5103 -0.2730  0.5219
14686SOL    HW155277   9.165   3.443   3.084  1.3861  0.5739  0.4327
14686SOL    HW255278   9.210   3.306   3.007 -0.0427  0.1366  0.3404
14687SOL     OW55279   1.465   0.781   4.175  0.3024 -0.1212 -0.2562
14687SOL    HW155280   1.472   0.817   4.268  0.2299 -0.9212  0.0609
14687SOL    HW255281   1.529   0.831   4.115 -0.4882  1.1875 -0.0385
14688SOL     OW55282   1.125   5.822   0.120  0.2012  0.0788 -0.0845
14688SOL    HW155283   1.152   5.825   0.023  0.3314  1.2142 -0.0268
14688SOL    HW255284   1.104   5.915   0.151 -0.3583 -0.3527  0.8367
14689SOL     OW55285   2.001   9.284   0.807 -0.3504  0.3200  0.4383
14689SOL    HW155286   1.935   9.286   0.733  0.0571  1.0576  0.0934
14689SOL    HW255287   1.959   9.319   0.891  0.0377  2.2448 -0.1441
14690SOL     OW55288   9.178   1.419   5.232 -0.6055  0.1188 -0.1807
14690SOL    HW155289   9.236   1.444   5.310  0.9831 -0.0023 -1.3131
14690SOL    HW255290   9.230   1.363   5.168 -1.5693  1.0792 -1.8505
14691SOL     OW55291   4.069   4.854   6.346  0.9561  0.4262  0.6799
14691SOL    HW155292   4.013   4.935   6.331 -0.0726  0.0220  2.1598
14691SOL    HW255293   4.037   4.780   6.286  1.0997  0.7386  0.2144
14692SOL     OW55294   3.247   8.860   4.827  0.0286 -0.4044  0.5561
14692SOL    HW155295   3.218   8.769   4.799 -0.2280 -0.2926  0.4649
14692SOL    HW255296   3.338   8.879   4.789 -0.1584 -0.4006  0.1030
14693SOL     OW55297   3.071   9.400   3.135  0.7233 -0.0370  0.4908
14693SOL    HW155298   3.085   9.475   3.071 -0.9527 -1.3249 -1.4314
14693SOL    HW255299   3.150   9.338   3.131  0.9802  0.3001  0.2686
14694SOL     OW55300   5.296   7.336   3.251 -0.0890 -0.2668 -0.3862
14694SOL    HW155301   5.320   7.423   3.294  0.7511 -0.9822  0.6191
14694SOL    HW255302   5.197   7.322   3.257 -0.3793  1.0981 -1.5025
14695SOL     OW55303   9.609   1.874   5.432  0.1552 -0.0280 -0.2256
14695SOL    HW155304   9.523   1.837   5.467  0.3631 -0.7139 -0.4278
14695SOL    HW255305   9.599   1.899   5.336  0.1057  0.1519 -0.1742
14696SOL     OW55306   2.777   7.926   6.233  0.3370  0.6500  0.4959
14696SOL    HW155307   2.839   7.965   6.165  0.5286  1.5350  1.1625
14696SOL    HW255308   2.813   7.944   6.325 -1.1655  1.6566  0.9050
14697SOL     OW55309   2.389   1.154   2.470  0.4028  0.1207 -0.9433
14697SOL    HW155310   2.436   1.242   2.460  0.8357 -0.0932 -0.7592
14697SOL    HW255311   2.401   1.120   2.563 -0.0522  0.0265 -0.9151
14698SOL     OW55312   0.069   9.465   1.701  0.0481  0.0300  0.5466
14698SOL    HW155313  -0.004   9.450   1.634  0.2310 -0.5000  0.4630
14698SOL    HW255314   0.128   9.384   1.704  1.5817  1.0856 -0.5469
14699SOL     OW55315   8.747   9.983   1.887 -0.3430  0.5361  0.3651
14699SOL    HW155316   8.846   9.968   1.889 -0.0845  1.5212 -2.3379
14699SOL    HW255317   8.719  10.035   1.968  1.2242 -0.3333  1.4889
14700SOL     OW55318   2.614   9.869   3.872 -0.0774  0.0697  0.3019
14700SOL    HW155319   2.671   9.947   3.899 -1.6799  1.2999  0.1838
14700SOL    HW255320   2.663   9.784   3.891  1.7195  1.1007  0.3716
14701SOL     OW55321   3.712   5.511   2.402  0.4103  0.0203  0.4274
14701SOL    HW155322   3.786   5.577   2.417  0.4504 -0.1436  0.9442
14701SOL    HW255323   3.624   5.558   2.411  0.4539  0.2650 -0.4233
14702SOL     OW55324   2.624   3.841   3.556  0.6300  0.6429 -0.3586
14702SOL    HW155325   2.669   3.815   3.470  2.8707 -0.5284  1.1257
14702SOL    HW255326   2.676   3.915   3.599 -0.2269  0.9023  0.2322
14703SOL     OW55327   6.554   6.910   5.355 -0.2789  0.1757 -0.1666
14703SOL    HW155328   6.589   7.004   5.351 -2.3969  1.0159  0.2748
14703SOL    HW255329   6.484   6.898   5.284 -0.5155 -0.8679  0.2419
14704SOL     OW55330   8.667   8.197   1.147 -0.4696 -0.4525  0.5856
14704SOL    HW155331   8.668   8.155   1.056 -1.6413 -1.3741  0.9871
14704SOL    HW255332   8.711   8.287   1.143 -0.1119 -0.6846 -0.7960
14705SOL     OW55333   9.927   2.348   2.440  0.0128 -0.4601 -0.3910
14705SOL    HW155334   9.899   2.368   2.534  0.5024 -0.6425 -0.2050
14705SOL    HW255335   9.857   2.382   2.377  0.2392  0.6958 -0.0210
14706SOL     OW55336   2.705   4.065   4.359 -0.1806  0.6606 -0.0667
14706SOL    HW155337   2.739   4.139   4.301 -1.2557 -0.0332 -1.6001
14706SOL    HW255338   2.780   4.002   4.380  0.2465  0.9899 -0.5976
14707SOL     OW55339   0.881   9.227   3.691  0.5291  0.1344  0.2031
14707SOL    HW155340   0.876   9.127   3.697 -0.6833  0.0269 -1.9189
14707SOL    HW255341   0.792   9.263   3.662  1.6103  1.6093 -1.3982
14708SOL     OW55342   0.909   6.970   3.855  0.0456  0.0337  0.1501
14708SOL    HW155343   0.826   6.976   3.911  1.5446 -0.2175  2.4703
14708SOL    HW255344   0.961   6.889   3.882  1.6020  0.8081 -0.5051
14709SOL     OW55345   1.620   4.438   4.124  0.2099 -0.0445  0.5335
14709SOL    HW155346   1.548   4.498   4.158  0.8471  0.4855  0.9502
14709SOL    HW255347   1.579   4.352   4.093 -0.8089  0.8700 -0.7771
14710SOL     OW55348   1.672   6.125   5.018  0.6021 -0.2614  0.1731
14710SOL    HW155349   1.752   6.183   5.027  0.4227 -0.1920  1.3283
14710SOL    HW255350   1.696   6.030   5.038  0.3566 -0.2134  0.7031
14711SOL     OW55351   9.953   6.727   4.216  0.1636 -0.2407  0.0152
14711SOL    HW155352   9.858   6.697   4.220  0.2005 -0.5709 -1.2210
14711SOL    HW255353   9.965   6.788   4.137  0.8664  0.2185  0.4693
14712SOL     OW55354   6.476   8.794   2.479 -0.6475 -0.1359 -0.2519
14712SOL    HW155355   6.419   8.873   2.460  1.1866  1.1407 -0.5486
14712SOL    HW255356   6.485   8.738   2.397 -0.5156  0.2795 -0.5195
14713SOL     OW55357   8.952   5.148   3.266  0.5473  0.1496  1.2126
14713SOL    HW155358   8.874   5.115   3.213  0.7306 -0.3395  1.2465
14713SOL    HW255359   8.919   5.193   3.350  0.3800 -2.6370  2.6862
14714SOL     OW55360   4.618   0.153   3.467  0.1926 -0.2627 -0.8620
14714SOL    HW155361   4.662   0.151   3.377  0.4716 -0.5108 -0.7205
14714SOL    HW255362   4.651   0.232   3.519 -1.6463  1.1933 -1.8189
14715SOL     OW55363   4.732   0.709   1.527  0.0579 -0.0478  0.1559
14715SOL    HW155364   4.763   0.709   1.622 -1.8573  0.8083  0.8099
14715SOL    HW255365   4.672   0.631   1.511  0.2592 -0.1118 -0.3152
14716SOL     OW55366   7.219   0.340   4.887  0.0112  0.4472 -0.1473
14716SOL    HW155367   7.202   0.303   4.979 -0.3313  0.0936 -0.3546
14716SOL    HW255368   7.262   0.430   4.896  1.5329 -0.3094  0.3484
14717SOL     OW55369   7.638   0.213   1.204  0.4613 -0.4286 -0.5644
14717SOL    HW155370   7.642   0.132   1.145  0.5602 -0.2238 -0.8368
14717SOL    HW255371   7.556   0.267   1.181 -0.4916 -1.2989  0.7139
14718SOL     OW55372   1.589   9.703   3.473 -0.4979  0.0843  0.0499
14718SOL    HW155373   1.507   9.651   3.449 -1.2719  0.6096  1.4718
14718SOL    HW255374   1.587   9.725   3.571  2.1195 -1.2453  0.4451
14719SOL     OW55375   2.019   2.266   1.793  0.2350  0.0644 -0.0238
14719SOL    HW155376   1.920   2.258   1.782 -0.0316  1.4642  1.1830
14719SOL    HW255377   2.058   2.178   1.819 -0.9234 -0.0827  1.2250
14720SOL     OW55378   7.031   7.918   4.032  0.0555 -0.2612  0.3302
14720SOL    HW155379   7.095   7.961   4.096  0.3865  0.7631 -0.6825
14720SOL    HW255380   6.959   7.871   4.083 -0.1530  1.2545  1.4500
14721SOL     OW55381   8.378   2.541   5.344 -0.5373  0.1000  0.5973
14721SOL    HW155382   8.307   2.471   5.350  0.7128 -1.2207  0.1663
14721SOL    HW255383   8.402   2.556   5.248 -1.0239  1.3546  0.6669
14722SOL     OW55384   6.912   9.947   0.596 -0.2508 -0.1021 -0.3349
14722SOL    HW155385   6.914   9.931   0.498  0.0186 -0.9074 -0.2058
14722SOL    HW255386   6.940  10.040   0.616  1.4900 -0.4975 -0.8937
14723SOL     OW55387   8.643   4.675   3.339  0.0160 -0.3855 -0.3492
14723SOL    HW155388   8.569   4.739   3.318 -0.2460 -0.4576  0.3261
14723SOL    HW255389   8.604   4.592   3.379  0.5788  0.2888  1.6736
14724SOL     OW55390   6.440   9.797   1.828 -0.1194  0.0013  0.4785
14724SOL    HW155391   6.427   9.698   1.833 -0.1630  0.0415  1.4491
14724SOL    HW255392   6.483   9.829   1.913  0.1616  0.7723  0.0536
14725SOL     OW55393   8.637   0.228   5.256 -0.3437 -0.3814 -0.3512
14725SOL    HW155394   8.639   0.325   5.234 -1.4202 -0.8404 -2.7124
14725SOL    HW255395   8.585   0.213   5.340  0.3407  1.1198  0.3505
14726SOL     OW55396   0.087   5.662   0.844  0.2758  0.4618 -0.3257
14726SOL    HW155397   0.036   5.674   0.759 -0.3450  0.4238  0.0393
14726SOL    HW255398   0.087   5.565   0.870  0.6831  0.4361 -0.4149
14727SOL     OW55399   1.356   0.749   0.962  0.0876 -0.1277  0.5435
14727SOL    HW155400   1.452   0.739   0.989  0.0221  0.1073  0.8763
14727SOL    HW255401   1.350   0.775   0.866  0.3260 -1.0901  0.2683
14728SOL     OW55402   0.462   8.900   0.400 -0.1370 -0.5763 -0.4800
14728SOL    HW155403   0.395   8.896   0.475  1.2746 -2.3976  0.7587
14728SOL    HW255404   0.461   8.812   0.351  0.6770 -0.2682 -1.0440
14729SOL     OW55405   4.329   7.875   2.545 -0.1606 -0.0688  0.3595
14729SOL    HW155406   4.295   7.794   2.496 -0.5161  0.3394 -0.0716
14729SOL    HW255407   4.429   7.873   2.547 -0.1537 -0.2759 -0.0745
14730SOL     OW55408   5.612   1.479   3.169  0.2572 -0.5423 -0.1211
14730SOL    HW155409   5.591   1.506   3.074  0.2317 -0.1338 -0.0014
14730SOL    HW255410   5.681   1.407   3.168 -1.1053 -1.8917 -0.5267
14731SOL     OW55411   8.281   9.012   4.739  0.1095  0.2701 -0.7428
14731SOL    HW155412   8.212   8.940   4.737  1.0799 -0.7037 -0.2280
14731SOL    HW255413   8.255   9.081   4.806  0.1605 -0.6461  0.2405
14732SOL     OW55414   2.795   4.386   3.501  0.7022 -0.1319 -0.3848
14732SOL    HW155415   2.755   4.300   3.533  0.3312 -0.4353 -1.6379
14732SOL    HW255416   2.745   4.463   3.542 -1.0331 -0.5080 -1.7325
14733SOL     OW55417   0.063   3.904   6.489 -0.0557 -0.2517 -0.0707
14733SOL    HW155418   0.155   3.943   6.493  0.7770 -1.8000 -3.0642
14733SOL    HW255419   0.002   3.968   6.443  0.0119 -0.1540 -0.0264
14734SOL     OW55420   0.497   3.373   1.965 -0.5527  0.4700 -0.4683
14734SOL    HW155421   0.410   3.326   1.960 -1.3794  1.9525 -0.3254
14734SOL    HW255422   0.552   3.353   1.884 -0.0264 -2.3451  0.5119
14735SOL     OW55423   4.656   8.217   2.701 -0.4173 -0.4359 -0.4350
14735SOL    HW155424   4.591   8.248   2.770  0.6955 -0.7257  0.7465
14735SOL    HW255425   4.620   8.134   2.657 -1.0016 -0.4040 -0.0267
14736SOL     OW55426   3.070   1.586   1.595  0.3178 -0.2082  0.1590
14736SOL    HW155427   3.073   1.488   1.577  1.4550 -0.4069  1.3550
14736SOL    HW255428   2.974   1.616   1.600 -0.0315 -1.1588 -0.7021
14737SOL     OW55429   9.745   4.220   0.845 -0.0230 -0.0692 -0.0073
14737SOL    HW155430   9.770   4.133   0.885  1.4727  0.2113 -0.2854
14737SOL    HW255431   9.658   4.251   0.883 -0.4082 -1.5226  0.3137
14738SOL     OW55432   9.903   6.818   6.011  0.1097 -0.1998 -0.7112
14738SOL    HW155433   9.912   6.901   5.957  1.1856 -0.7481 -1.3754
14738SOL    HW255434   9.877   6.742   5.952  1.7174 -0.8945 -0.5321
14739SOL     OW55435   2.295   7.678   4.779  0.0754 -0.8353  0.2260
14739SOL    HW155436   2.205   7.638   4.794 -0.1172  0.2263  1.9240
14739SOL    HW255437   2.362   7.604   4.765 -0.5710 -1.7105  1.6731
14740SOL     OW55438   2.669   1.938   1.626  0.1412  0.4320 -0.6554
14740SOL    HW155439   2.633   2.016   1.574  0.6780  0.9713 -0.2167
14740SOL    HW255440   2.755   1.963   1.669 -0.7876  0.3313  1.3449
14741SOL     OW55441   0.586   0.179   5.531 -0.0578 -0.1639 -0.1517
14741SOL    HW155442   0.657   0.198   5.600 -0.4053 -0.0753  0.1804
14741SOL    HW255443   0.502   0.228   5.555 -0.3869 -0.6668 -0.2801
14742SOL     OW55444   7.105   2.284   2.194  0.0004  0.2931  0.2127
14742SOL    HW155445   7.086   2.273   2.096  1.7636  1.1375 -0.2388
14742SOL    HW255446   7.076   2.201   2.242 -0.7967 -0.1764 -1.0191
14743SOL     OW55447   3.276   6.939   0.895 -0.0066 -0.0840  0.0256
14743SOL    HW155448   3.351   6.964   0.834 -0.9296  0.4353 -0.9129
14743SOL    HW255449   3.313   6.904   0.981  1.3055 -0.2747 -0.6086
14744SOL     OW55450   9.185   2.931   6.500 -0.1389 -0.0822  0.1526
14744SOL    HW155451   9.220   3.015   6.460 -0.6814 -1.2390 -2.9111
14744SOL    HW255452   9.247   2.899   6.571  0.8630  2.0757  0.2691
14745SOL     OW55453   9.028   6.891   0.710 -0.7591  0.2059  0.5301
14745SOL    HW155454   9.000   6.922   0.619 -0.9265 -3.3644 -0.7067
14745SOL    HW255455   8.993   6.955   0.779 -3.8735  0.9590 -1.6320
14746SOL     OW55456   2.114   1.779   1.993 -0.2941 -0.7084 -0.4696
14746SOL    HW155457   2.017   1.775   1.970 -0.5337 -0.7835  0.5181
14746SOL    HW255458   2.124   1.788   2.092  0.7197 -1.4167 -0.5028
14747SOL     OW55459   4.010   3.093   5.986 -0.3219 -0.2672  0.3786
14747SOL    HW155460   4.036   3.102   5.890 -0.2729  1.3781  0.5298
14747SOL    HW255461   3.964   3.176   6.016  2.3010  0.4778  2.5856
14748SOL     OW55462   9.162   9.599   5.079 -0.0543  0.1782 -0.1483
14748SOL    HW155463   9.099   9.620   5.154 -0.4751  0.0109 -0.4544
14748SOL    HW255464   9.245   9.655   5.088 -1.6317  2.8835 -1.5986
14749SOL     OW55465   8.108   1.042   6.617  0.6596  1.0045  0.4466
14749SOL    HW155466   8.119   1.043   6.717  0.3166 -1.7012  0.5408
14749SOL    HW255467   8.015   1.013   6.594  1.1370  0.3666 -0.6858
14750SOL     OW55468   1.072   6.021   3.218  0.3101 -0.2031  0.2975
14750SOL    HW155469   1.141   6.013   3.290  1.2988 -0.3731 -0.6602
14750SOL    HW255470   1.016   5.939   3.217  0.5301 -0.3594  0.6350
14751SOL     OW55471   0.691   1.206   3.122  0.1994 -0.2012 -0.1586
14751SOL    HW155472   0.600   1.164   3.125  1.0163 -1.9016  2.6516
14751SOL    HW255473   0.686   1.298   3.159 -0.0960 -0.9209  1.6249
14752SOL     OW55474   1.989   2.948   4.520 -0.3055  0.0672 -0.5685
14752SOL    HW155475   1.975   2.857   4.481  0.6165  0.3733 -1.6428
14752SOL    HW255476   2.047   2.942   4.601  0.4537 -0.2049 -1.1327
14753SOL     OW55477   3.933   8.203   2.598 -0.6894  0.0104 -0.4206
14753SOL    HW155478   3.990   8.188   2.517 -2.6746 -1.1959 -1.6245
14753SOL    HW255479   3.940   8.123   2.658 -1.0883 -0.1266 -0.5562
14754SOL     OW55480   7.390   1.040   0.202  0.5926  0.0277 -0.4031
14754SOL    HW155481   7.326   1.086   0.264 -0.7764 -2.0094 -0.2604
14754SOL    HW255482   7.438   0.967   0.251  2.0417  0.6211 -0.8805
14755SOL     OW55483   5.070   9.026   5.145  0.2493 -0.6108 -0.8565
14755SOL    HW155484   5.164   8.993   5.157  0.2643 -0.7185 -1.2954
14755SOL    HW255485   5.048   9.090   5.219  1.1007  0.3939 -1.4602
14756SOL     OW55486   3.353   9.401   3.034  0.7495 -0.0239 -0.8831
14756SOL    HW155487   3.338   9.488   2.987 -1.1386  0.2729  0.2023
14756SOL    HW255488   3.451   9.387   3.047  1.1528  1.2293 -2.3696
14757SOL     OW55489   5.989   0.585   1.940 -0.6065 -0.5880 -0.0867
14757SOL    HW155490   5.936   0.506   1.973 -0.5013 -0.8273 -0.4931
14757SOL    HW255491   5.927   0.649   1.895 -0.2463 -1.9169 -2.5741
14758SOL     OW55492   2.188   0.301   6.548  0.0305  0.3764 -0.1240
14758SOL    HW155493   2.139   0.382   6.517 -0.8903 -0.4660 -0.9026
14758SOL    HW255494   2.160   0.278   6.641  0.2893  0.9379  0.0967
14759SOL     OW55495   9.914   8.449   6.759 -0.5614 -0.2776  0.1797
14759SOL    HW155496   9.950   8.396   6.835 -1.5071 -1.8284 -0.4144
14759SOL    HW255497   9.914   8.392   6.676 -2.0887  0.4649 -0.3478
14760SOL     OW55498   0.849   5.472   1.077  0.7815 -0.3942  0.8949
14760SOL    HW155499   0.772   5.429   1.031  1.3795 -0.2417 -0.2760
14760SOL    HW255500   0.890   5.540   1.016  1.4877 -0.0736  1.7201
14761SOL     OW55501   1.416   0.555   5.584 -0.1130 -0.0351  0.3219
14761SOL    HW155502   1.407   0.600   5.495 -0.2403  0.3209  0.5137
14761SOL    HW255503   1.328   0.516   5.611  0.3060 -1.5286 -0.4403
14762SOL     OW55504   1.992   4.866   5.383 -0.4279 -0.5079  0.0981
14762SOL    HW155505   1.934   4.849   5.462 -2.1821  1.0463 -0.8164
14762SOL    HW255506   2.077   4.815   5.393 -1.8034 -2.6148  1.6065
14763SOL     OW55507   3.480   9.368   6.521 -0.3721  0.0240  0.3517
14763SOL    HW155508   3.539   9.344   6.444  0.2946  1.1136  0.5121
14763SOL    HW255509   3.534   9.412   6.592 -0.7991 -1.7948  1.8671
14764SOL     OW55510   1.147   9.248   4.265 -0.1792  0.8881 -0.2770
14764SOL    HW155511   1.116   9.153   4.279 -0.6913  1.0951  0.0065
14764SOL    HW255512   1.068   9.309   4.264  0.2560  1.4995  1.0938
14765SOL     OW55513   4.207   9.609   2.082  0.3435 -0.3197 -0.0076
14765SOL    HW155514   4.190   9.674   2.155 -2.9246 -0.8497 -0.2581
14765SOL    HW255515   4.252   9.528   2.119  0.4792  0.2216  1.0310
14766SOL     OW55516   2.678   9.641   3.989 -0.5297 -0.0872  0.6199
14766SOL    HW155517   2.583   9.656   4.017 -0.7706 -1.8686  0.8368
14766SOL    HW255518   2.687   9.548   3.953  0.8863  0.4747 -0.4825
14767SOL     OW55519   7.905   0.375   6.133 -0.3080 -0.2304  0.3333
14767SOL    HW155520   7.913   0.306   6.061 -0.7414 -1.0067  1.0275
14767SOL    HW255521   7.894   0.466   6.091  1.3037 -0.4406 -0.5904
14768SOL     OW55522   7.202   0.284   4.530 -0.2958  0.0262 -0.4337
14768SOL    HW155523   7.196   0.263   4.432 -0.9887 -1.2899 -0.1230
14768SOL    HW255524   7.163   0.374   4.548  0.4712  0.5738 -1.4663
14769SOL     OW55525   4.640   5.612   2.342  0.1244 -0.5735  0.2372
14769SOL    HW155526   4.676   5.605   2.435  0.5010  1.5367  0.2762
14769SOL    HW255527   4.584   5.695   2.334  2.7924  1.0760 -2.2771
14770SOL     OW55528   4.163   3.760   2.128  0.7368  0.0101 -0.0323
14770SOL    HW155529   4.240   3.750   2.191  0.0605 -1.6719  0.5386
14770SOL    HW255530   4.197   3.757   2.033  1.6717  1.8837  0.2199
14771SOL     OW55531   1.480   5.665   5.174 -0.3648  0.4281 -0.0217
14771SOL    HW155532   1.450   5.645   5.081  1.7267 -0.7391 -0.4524
14771SOL    HW255533   1.399   5.680   5.232 -1.7036  0.1692 -1.7819
14772SOL     OW55534   3.338   7.682   3.492  0.4178  0.0942 -0.0984
14772SOL    HW155535   3.303   7.678   3.398  0.0598  2.4235 -0.1032
14772SOL    HW255536   3.361   7.590   3.523  0.7370 -0.6942 -2.5363
14773SOL     OW55537   2.474   2.138   3.101 -0.2625 -0.0628  0.3069
14773SOL    HW155538   2.383   2.142   3.141 -0.7464 -2.0110 -0.5507
14773SOL    HW255539   2.467   2.136   3.001  0.5908 -2.0083  0.2464
14774SOL     OW55540   3.045   2.201   3.131 -0.2713 -0.4099  0.5557
14774SOL    HW155541   2.983   2.277   3.153 -2.2260 -2.1659  1.1905
14774SOL    HW255542   3.070   2.153   3.214  0.5589 -0.7735  0.0998
14775SOL     OW55543   5.627   1.797   2.752  0.1500  0.3701  0.1525
14775SOL    HW155544   5.687   1.758   2.682  0.6833  1.1281  0.1797
14775SOL    HW255545   5.602   1.891   2.726 -1.7817 -0.2588 -0.3168
14776SOL     OW55546   4.222   3.500   3.535 -0.1907  0.1419  0.1725
14776SOL    HW155547   4.292   3.496   3.606  0.9437 -1.5828 -1.0009
14776SOL    HW255548   4.131   3.494   3.577  0.4101  0.4732  1.5564
14777SOL     OW55549   3.524   5.179   0.140  1.0810 -0.1582 -0.5738
14777SOL    HW155550   3.578   5.161   0.222  0.0807  1.6288  0.5076
14777SOL    HW255551   3.531   5.276   0.116 -1.0231 -0.0302 -0.8246
14778SOL     OW55552   2.719   7.444   6.507 -0.4227  0.1906  0.1780
14778SOL    HW155553   2.622   7.421   6.515 -0.3094  0.1385  1.5152
14778SOL    HW255554   2.729   7.538   6.474 -0.9664  0.9603  2.1124
14779SOL     OW55555   7.442   0.577   1.276  0.5683 -0.9602 -0.0824
14779SOL    HW155556   7.448   0.676   1.267 -0.8112 -0.8255  0.2643
14779SOL    HW255557   7.530   0.540   1.304  1.0482  0.1883 -0.0532
14780SOL     OW55558   2.639   4.654   2.480 -0.1553 -0.1642 -0.0609
14780SOL    HW155559   2.641   4.643   2.580 -0.7177  0.0792 -0.0190
14780SOL    HW255560   2.728   4.629   2.442 -0.4858 -2.0456  0.3140
14781SOL     OW55561   8.995   5.982   0.587 -0.4256 -0.2401 -1.0685
14781SOL    HW155562   8.923   6.038   0.628  0.7421  2.5527 -2.6438
14781SOL    HW255563   8.956   5.898   0.550 -2.3190 -0.2704  0.9390
14782SOL     OW55564   1.820   8.049   3.085  0.3168 -0.0835  0.2477
14782SOL    HW155565   1.814   8.134   3.139  2.6939  0.3354 -0.0925
14782SOL    HW255566   1.794   8.068   2.990 -1.1138 -0.2073  0.5942
14783SOL     OW55567   0.336   2.334   2.857 -0.5140  0.6576 -0.2727
14783SOL    HW155568   0.297   2.324   2.766 -1.3772 -0.3231  0.1841
14783SOL    HW255569   0.272   2.384   2.916 -1.6238 -1.8980  0.7763
14784SOL     OW55570   8.149   5.544   1.605  0.2575 -0.1859  0.0330
14784SOL    HW155571   8.204   5.624   1.629 -1.6610  0.6918  1.6474
14784SOL    HW255572   8.116   5.554   1.511  2.1053 -0.3123 -0.6511
14785SOL     OW55573   4.799   4.161   0.866 -0.2674  0.0932  0.0523
14785SOL    HW155574   4.875   4.216   0.901 -0.6986  0.9285 -0.2985
14785SOL    HW255575   4.781   4.188   0.771 -0.2405 -0.9223 -0.2420
14786SOL     OW55576   2.175   8.260   1.763  0.4280 -0.3520  0.0605
14786SOL    HW155577   2.120   8.339   1.790  0.4729 -0.7016  1.2126
14786SOL    HW255578   2.123   8.176   1.781 -0.2084 -0.5650 -2.5029
14787SOL     OW55579   6.151   2.219   3.057 -0.4791  0.3143 -0.2141
14787SOL    HW155580   6.154   2.249   3.152  2.3120 -1.2947  0.2475
14787SOL    HW255581   6.162   2.119   3.052  0.5034  0.4809 -2.2574
14788SOL     OW55582   1.968   3.487   3.003  0.6048  0.2134  0.3348
14788SOL    HW155583   1.965   3.587   3.002  0.8029  0.2166 -0.7110
14788SOL    HW255584   1.875   3.450   3.002  0.5175  0.3821  1.4670
14789SOL     OW55585   4.068   9.847   5.607 -0.2548  0.3232 -0.0055
14789SOL    HW155586   4.158   9.831   5.566 -0.1870 -1.0024  0.6152
14789SOL    HW255587   4.072   9.928   5.665  0.2061  0.9833 -0.9477
14790SOL     OW55588   1.771   9.706   1.975 -0.2700  0.1508  0.3260
14790SOL    HW155589   1.711   9.627   1.987 -1.1608  0.8147  0.3027
14790SOL    HW255590   1.719   9.790   1.991  0.6045  0.7405  0.1003
14791SOL     OW55591   1.328   7.356   4.596  0.1428 -0.9796 -0.2066
14791SOL    HW155592   1.360   7.436   4.546 -1.4549  0.6962  1.4093
14791SOL    HW255593   1.407   7.305   4.632  1.1317  0.6152 -0.0850
14792SOL     OW55594   6.277   2.141   5.158  0.1442  0.4611 -0.3260
14792SOL    HW155595   6.270   2.119   5.255 -0.1707  2.1110  0.0577
14792SOL    HW255596   6.348   2.085   5.115 -0.5340 -1.1212  0.5804
14793SOL     OW55597   2.869   8.809   2.246  0.5443 -0.1498  0.1333
14793SOL    HW155598   2.770   8.811   2.233  0.3550 -0.7160  1.4437
14793SOL    HW255599   2.910   8.746   2.180  0.1823  1.0152 -1.2384
14794SOL     OW55600   1.003   0.084   5.486 -0.1836  0.0708 -0.4100
14794SOL    HW155601   0.990   0.009   5.551 -1.9202  2.0152  1.5429
14794SOL    HW255602   0.947   0.068   5.405  0.4310 -1.3605 -0.5620
14795SOL     OW55603   2.001   1.965   0.431  0.1360  0.8931  0.1482
14795SOL    HW155604   2.076   2.030   0.422  1.5781 -0.8898 -0.7828
14795SOL    HW255605   2.033   1.882   0.476 -0.8627 -0.5513 -1.7627
14796SOL     OW55606   0.735   5.144   3.484 -0.1843  0.2031 -0.9943
14796SOL    HW155607   0.672   5.087   3.536  0.9232 -0.8993 -0.8447
14796SOL    HW255608   0.756   5.100   3.397  0.1525  0.7133 -1.1749
14797SOL     OW55609   1.106   9.783   2.999 -0.1378  0.2762  0.5143
14797SOL    HW155610   1.177   9.715   2.980  0.6143  0.6808  1.8013
14797SOL    HW255611   1.118   9.818   3.092 -2.7137 -0.4702  1.1668
14798SOL     OW55612   3.309   9.951   2.876  0.2903 -0.2155  0.3925
14798SOL    HW155613   3.349   9.919   2.790  0.7179  1.6632 -0.1230
14798SOL    HW255614   3.383   9.975   2.939 -0.0281  0.1173  0.6358
14799SOL     OW55615   3.702   7.458   1.457 -0.4651 -0.4297 -0.5386
14799SOL    HW155616   3.689   7.437   1.360 -0.6261  1.8590 -1.0540
14799SOL    HW255617   3.622   7.426   1.508 -2.3242  1.9078 -1.8014
14800SOL     OW55618   5.106   2.059   3.543  0.0435 -0.2819  0.2555
14800SOL    HW155619   5.151   2.145   3.568 -1.5498 -0.1337  2.7663
14800SOL    HW255620   5.123   1.991   3.615 -1.2156 -1.1417 -0.2457
14801SOL     OW55621   3.465   2.101   3.102 -0.1193  0.2468  0.0386
14801SOL    HW155622   3.514   2.037   3.044 -0.1064  0.7913 -0.5549
14801SOL    HW255623   3.402   2.051   3.161 -0.4324 -0.2787 -0.7345
14802SOL     OW55624   2.381   1.954   4.380 -0.3222  0.0326  0.9020
14802SOL    HW155625   2.400   1.860   4.409  2.4098 -0.0267 -0.9123
14802SOL    HW255626   2.374   1.957   4.280 -1.8855  1.5449  1.0197
14803SOL     OW55627   7.558   9.426   3.057  0.1660 -0.2160  0.0165
14803SOL    HW155628   7.624   9.408   3.129 -0.7316 -1.3295  0.5722
14803SOL    HW255629   7.522   9.340   3.022 -0.7869  0.3664 -0.4674
14804SOL     OW55630   4.858   8.164   2.064  0.0006  0.2407 -0.0504
14804SOL    HW155631   4.764   8.134   2.078 -0.5956  2.0887  0.0215
14804SOL    HW255632   4.899   8.186   2.153  0.5035 -0.5345 -0.0848
14805SOL     OW55633   8.161   5.843   1.416  0.2260 -0.1100 -0.1927
14805SOL    HW155634   8.157   5.891   1.504 -1.7166 -0.8634  0.1586
14805SOL    HW255635   8.243   5.871   1.366  0.3315  1.8021  1.0132
14806SOL     OW55636   3.720   8.699   3.860 -0.0063 -0.2061  0.1400
14806SOL    HW155637   3.707   8.769   3.930  1.7023  0.3831 -0.1205
14806SOL    HW255638   3.779   8.627   3.895 -0.2676 -0.5934 -0.2186
14807SOL     OW55639   0.700   5.742   1.779  0.0715  0.2467 -0.1783
14807SOL    HW155640   0.717   5.676   1.706  2.1582 -0.2544  0.7253
14807SOL    HW255641   0.658   5.824   1.740 -1.2000 -0.9995 -1.5344
14808SOL     OW55642   4.520   4.886   1.261  0.0115  0.2765  0.7521
14808SOL    HW155643   4.443   4.849   1.208  0.4529 -1.0756  1.0300
14808SOL    HW255644   4.521   4.845   1.352  0.7797  0.6493  0.9185
14809SOL     OW55645   1.351   7.804   2.767 -0.5962 -0.7239  0.2014
14809SOL    HW155646   1.297   7.780   2.686  1.9773 -0.6156 -1.5852
14809SOL    HW255647   1.325   7.895   2.799 -2.8344 -1.4608  0.5666
14810SOL     OW55648   2.317   3.227   2.993  0.3319 -0.8759 -0.0698
14810SOL    HW155649   2.256   3.307   3.001  0.2356 -0.9320 -0.2513
14810SOL    HW255650   2.274   3.158   2.935  0.1243 -1.3346  0.6218
14811SOL     OW55651   8.533   6.745   2.092  0.4273  0.0738  0.1187
14811SOL    HW155652   8.629   6.719   2.094 -0.1729 -2.6534 -2.8686
14811SOL    HW255653   8.518   6.815   2.022 -0.0302 -0.8211 -0.6924
14812SOL     OW55654   0.378   6.121   1.263  0.1177  0.0475 -0.1354
14812SOL    HW155655   0.314   6.064   1.212 -0.7147 -0.0893  1.0575
14812SOL    HW255656   0.335   6.208   1.286 -1.2098 -1.6577  4.3760
14813SOL     OW55657   8.501   9.023   6.418  0.1785 -0.1523 -0.1208
14813SOL    HW155658   8.480   8.943   6.361  1.0831  0.1980 -0.9696
14813SOL    HW255659   8.572   8.999   6.484  0.6857  0.0225 -0.5915
14814SOL     OW55660   6.106   9.461   1.708  0.0776  0.1219 -0.2299
14814SOL    HW155661   6.195   9.482   1.748  0.0710 -1.8611  0.9075
14814SOL    HW255662   6.088   9.363   1.716 -1.9122  0.3902 -1.0684
14815SOL     OW55663   9.971   4.717   4.535  0.1044 -0.1141  0.1514
14815SOL    HW155664   9.909   4.640   4.522 -1.4484  1.2671 -0.8776
14815SOL    HW255665  10.003   4.750   4.446  0.4806  0.6310  0.5544
14816SOL     OW55666   9.893   8.589   4.549 -0.7441 -0.2210 -0.1670
14816SOL    HW155667   9.977   8.642   4.555 -0.7115 -0.2825 -0.0757
14816SOL    HW255668   9.815   8.648   4.572 -0.6596 -0.3424  0.4360
14817SOL     OW55669   0.691   3.312   1.774 -0.0174  0.2664 -0.0250
14817SOL    HW155670   0.728   3.395   1.815 -0.8149  0.3513  0.5320
14817SOL    HW255671   0.746   3.233   1.803  1.9350  0.7801 -2.0797
14818SOL     OW55672   7.136   9.057   4.974  0.1571  0.0008 -0.4508
14818SOL    HW155673   7.171   9.002   5.050 -0.2940  0.4478  0.0834
14818SOL    HW255674   7.208   9.116   4.939  0.1560  0.3537  0.1358
14819SOL     OW55675   3.083   7.707   4.507 -0.2296 -0.3104 -0.2464
14819SOL    HW155676   3.156   7.639   4.516  0.0701  0.3050  2.4240
14819SOL    HW255677   3.000   7.674   4.552 -0.6910  0.2474 -0.6735
14820SOL     OW55678   0.893   4.626   2.165 -0.1623 -0.1611  0.3005
14820SOL    HW155679   0.883   4.623   2.264  3.1241  0.5557  0.7016
14820SOL    HW255680   0.893   4.721   2.134  1.3883 -0.2697 -0.0644
14821SOL     OW55681   7.155   9.258   1.744  0.1601 -0.0482 -0.4488
14821SOL    HW155682   7.244   9.219   1.722  0.8296 -0.2574  2.4963
14821SOL    HW255683   7.167   9.352   1.776 -0.4608 -0.6862  1.7363
14822SOL     OW55684   8.780   3.265   5.905  0.8974  0.0480  0.5862
14822SOL    HW155685   8.822   3.279   5.994  0.4454  0.0545  0.8014
14822SOL    HW255686   8.687   3.229   5.917  0.9262 -0.1887  0.1147
14823SOL     OW55687   0.485   1.499   6.422 -0.0331  0.4313  0.0349
14823SOL    HW155688   0.510   1.582   6.372 -0.7613  1.2641  1.0292
14823SOL    HW255689   0.431   1.524   6.502  1.1569 -0.8673  1.2650
14824SOL     OW55690   0.512   8.486   1.622  0.4423 -0.1136  0.0006
14824SOL    HW155691   0.452   8.541   1.679  0.3679  0.1182 -0.3019
14824SOL    HW255692   0.520   8.394   1.661 -0.3563 -0.2415 -0.1285
14825SOL     OW55693   1.661   1.113   4.755  0.0069 -0.4439 -0.1869
14825SOL    HW155694   1.701   1.187   4.702 -0.8753 -0.2366 -0.5769
14825SOL    HW255695   1.579   1.079   4.708 -2.4604  1.6364  2.3595
14826SOL     OW55696   7.181   7.362   5.607 -0.3760  0.2540  0.2205
14826SOL    HW155697   7.278   7.379   5.590 -0.0533 -0.2669  1.5080
14826SOL    HW255698   7.172   7.298   5.684 -1.7109 -0.3417 -0.4207
14827SOL     OW55699   5.469   8.694   2.611 -0.1508  0.9189 -0.0358
14827SOL    HW155700   5.509   8.611   2.650  0.6493  0.7789 -1.1196
14827SOL    HW255701   5.390   8.721   2.664 -0.4181 -0.5524  0.3372
14828SOL     OW55702   7.851   1.986   5.981 -0.3612 -0.0406  0.4016
14828SOL    HW155703   7.927   2.050   5.993  0.1126 -0.2694 -1.1844
14828SOL    HW255704   7.814   1.959   6.070  2.3057 -0.9712  1.2676
14829SOL     OW55705   9.000   9.350   1.937 -0.4607  0.1749 -0.0532
14829SOL    HW155706   8.968   9.336   2.031 -1.8693  0.2030 -0.5165
14829SOL    HW255707   9.077   9.290   1.919 -0.1705  0.1798  1.1313
14830SOL     OW55708   5.864   1.974   1.226  0.3747 -0.1662  0.2210
14830SOL    HW155709   5.891   1.958   1.321  3.1547  0.2250 -0.4515
14830SOL    HW255710   5.822   1.891   1.189 -1.1098 -0.1884  1.8967
14831SOL     OW55711   5.612   0.978   1.807  0.8623 -0.1124 -0.3238
14831SOL    HW155712   5.677   1.004   1.736  1.9391  0.8511  0.9939
14831SOL    HW255713   5.658   0.978   1.896 -1.1289  1.4554  0.7444
14832SOL     OW55714   8.307   0.601   4.769  0.0368 -0.2920 -0.2099
14832SOL    HW155715   8.312   0.634   4.863  0.2123 -0.6068 -0.1080
14832SOL    HW255716   8.361   0.660   4.709 -3.1328  2.2245 -0.7708
14833SOL     OW55717   7.286   3.622   0.195 -0.1794  0.1847 -0.1596
14833SOL    HW155718   7.377   3.645   0.232 -0.2476 -1.2123  0.9308
14833SOL    HW255719   7.220   3.691   0.225  0.2708  0.4575  0.2171
14834SOL     OW55720   1.206   0.637   2.065  0.3866 -0.1155 -0.3226
14834SOL    HW155721   1.155   0.617   2.148  0.7372  0.9481  0.1637
14834SOL    HW255722   1.145   0.678   1.997 -0.0238 -1.5140 -0.8043
14835SOL     OW55723   5.050   9.285   3.286 -0.1514  0.0199  0.2665
14835SOL    HW155724   5.088   9.331   3.366 -0.0522 -1.2945  0.9933
14835SOL    HW255725   5.011   9.352   3.224  1.1143  1.1844  0.7066
14836SOL     OW55726   2.067   8.004   5.959 -0.0002 -0.5354  0.1446
14836SOL    HW155727   2.151   7.956   5.986  1.4586  2.0245  0.3350
14836SOL    HW255728   2.091   8.087   5.909 -2.4423  0.1143 -0.0007
14837SOL     OW55729   9.887   6.528   3.847 -0.1407  0.2423 -0.7800
14837SOL    HW155730   9.926   6.458   3.906 -1.7500  0.1383  0.1750
14837SOL    HW255731   9.801   6.496   3.809 -1.9253  2.4171  1.2396
14838SOL     OW55732   8.658   8.483   6.759  0.1970 -0.1198 -0.0714
14838SOL    HW155733   8.585   8.418   6.777 -1.6077  1.6269 -0.9233
14838SOL    HW255734   8.654   8.513   6.664  2.5321 -0.5775 -0.3648
14839SOL     OW55735   2.213   4.797   5.995 -0.5392 -0.1433 -0.3574
14839SOL    HW155736   2.312   4.783   6.001 -0.5510 -0.0724  0.0092
14839SOL    HW255737   2.167   4.708   5.997 -0.5557 -0.1147  0.8660
14840SOL     OW55738   7.304   0.457   3.783  0.2527 -0.1340  0.3226
14840SOL    HW155739   7.214   0.483   3.819 -0.7582  0.3147 -2.3734
14840SOL    HW255740   7.345   0.536   3.737  0.3332 -1.2894 -1.6771
14841SOL     OW55741   7.423   2.039   0.614  0.1771  0.0111  0.2334
14841SOL    HW155742   7.494   2.064   0.549 -0.9471  2.7672 -0.0020
14841SOL    HW255743   7.423   1.939   0.627  2.9790 -0.1844 -0.9648
14842SOL     OW55744   2.298   8.415   1.160  0.0250  0.3808  0.3642
14842SOL    HW155745   2.341   8.472   1.230  1.8192  0.2223 -0.5705
14842SOL    HW255746   2.326   8.447   1.069 -3.2680  1.3827 -0.3520
14843SOL     OW55747   1.236   8.732   5.253 -0.6579 -0.0317  0.0463
14843SOL    HW155748   1.249   8.649   5.308  0.3150 -0.1872 -0.4000
14843SOL    HW255749   1.139   8.757   5.252 -0.6560  0.1382  2.0526
14844SOL     OW55750   8.641   8.953   3.937 -0.4437  0.2856 -0.2581
14844SOL    HW155751   8.729   8.973   3.893  0.2920 -3.0600 -0.4312
14844SOL    HW255752   8.590   9.038   3.950  1.6689  1.9795 -2.6042
14845SOL     OW55753   0.992   2.819   3.082 -0.3395  0.6360  0.0610
14845SOL    HW155754   0.899   2.796   3.111 -0.2378 -0.1544 -0.2442
14845SOL    HW255755   1.001   2.919   3.077 -1.2449  0.7127 -0.1607
14846SOL     OW55756   3.212   2.903   5.551 -0.2364  0.1301  0.2019
14846SOL    HW155757   3.289   2.954   5.591 -1.3492  1.3310  0.8653
14846SOL    HW255758   3.153   2.870   5.624 -0.2041 -1.0410 -0.2952
14847SOL     OW55759   5.101   0.905   4.888 -0.1637 -0.3312 -0.8328
14847SOL    HW155760   5.111   0.882   4.985  1.7379  1.1988 -0.6477
14847SOL    HW255761   5.181   0.873   4.837 -2.0054 -2.8570 -2.2793
14848SOL     OW55762   6.059   0.870   5.096  0.0349 -0.0664 -0.1821
14848SOL    HW155763   5.982   0.920   5.057 -0.9745 -1.8076 -0.4932
14848SOL    HW255764   6.110   0.929   5.159  0.5271  2.1895 -2.6023
14849SOL     OW55765   3.562   4.539   3.840 -0.1440 -0.0877  0.1789
14849SOL    HW155766   3.485   4.478   3.821 -0.2851  0.2585 -0.3795
14849SOL    HW255767   3.643   4.485   3.861 -0.4035 -0.4585  0.2366
14850SOL     OW55768   4.289   4.244   4.527  0.3688 -0.1947 -0.5586
14850SOL    HW155769   4.349   4.198   4.462  1.3545  2.0323 -1.2647
14850SOL    HW255770   4.268   4.336   4.494  0.0222  0.5913  1.7600
14851SOL     OW55771   0.477   6.428   4.158  0.1557 -0.0404 -0.1575
14851SOL    HW155772   0.481   6.411   4.256  1.6668 -1.7247 -0.4711
14851SOL    HW255773   0.566   6.409   4.117 -0.8304 -0.7459 -2.0531
14852SOL     OW55774   1.636   5.491   0.682 -0.2617  0.2025  0.1056
14852SOL    HW155775   1.712   5.435   0.715 -1.3592 -1.2800  0.1446
14852SOL    HW255776   1.558   5.481   0.743 -0.9536  0.6518 -0.6868
14853SOL     OW55777   7.669   1.946   6.709 -0.4903  0.2617  0.3332
14853SOL    HW155778   7.723   1.871   6.671 -0.5780  0.4168 -0.0997
14853SOL    HW255779   7.727   2.027   6.718 -0.0990 -0.1706  1.8551
14854SOL     OW55780   1.002   9.097   5.602  0.1893 -0.1593  0.1296
14854SOL    HW155781   0.998   9.120   5.700 -0.7101 -0.0881  0.0733
14854SOL    HW255782   0.951   9.013   5.585 -0.3163  0.2560 -0.4114
14855SOL     OW55783   8.131   2.282   4.321 -0.2410  0.0253  0.2884
14855SOL    HW155784   8.229   2.275   4.306 -0.4079 -3.2792  0.3371
14855SOL    HW255785   8.084   2.207   4.273 -2.6454  0.9641  1.0664
14856SOL     OW55786   1.883   3.997   2.493  0.3298  0.0562  0.4220
14856SOL    HW155787   1.956   4.005   2.425  0.1565 -0.2143  0.1981
14856SOL    HW255788   1.795   4.016   2.449  0.2846  0.5395  0.7284
14857SOL     OW55789   7.373   7.941   2.762 -0.1523  0.2098  0.0663
14857SOL    HW155790   7.317   7.954   2.681  1.7929  1.1783 -1.1611
14857SOL    HW255791   7.469   7.933   2.735  0.4751  0.1396  2.2453
14858SOL     OW55792   9.725   7.670   2.307  0.3430 -0.4984  0.2163
14858SOL    HW155793   9.782   7.745   2.274 -0.7453 -0.0344 -0.6076
14858SOL    HW255794   9.700   7.611   2.231 -2.2678  0.6349  0.1535
14859SOL     OW55795   6.648   1.950   1.630  0.0563  0.8001 -0.0990
14859SOL    HW155796   6.650   1.967   1.531 -0.6680 -0.3205 -0.3139
14859SOL    HW255797   6.732   1.902   1.656  0.5854  1.7429 -0.0399
14860SOL     OW55798   6.903   6.881   4.576  0.3749 -0.7867 -0.0287
14860SOL    HW155799   6.986   6.882   4.631 -0.6859 -2.5667  1.6490
14860SOL    HW255800   6.825   6.856   4.633 -1.5004  1.7185 -1.3807
14861SOL     OW55801   9.117   9.884   4.211 -0.3723  0.4712  0.7046
14861SOL    HW155802   9.027   9.849   4.236 -0.6111 -0.0014 -0.7944
14861SOL    HW255803   9.111   9.982   4.190 -0.4903  0.4770  0.7658
14862SOL     OW55804   2.358   0.366   5.404 -0.0228  0.5693 -0.4209
14862SOL    HW155805   2.265   0.332   5.418 -0.0489 -0.3146 -2.5793
14862SOL    HW255806   2.422   0.309   5.456 -0.5347  0.1850 -0.2056
14863SOL     OW55807   0.299   9.811   6.130  0.4033 -0.3716  0.0022
14863SOL    HW155808   0.288   9.818   6.031 -0.9445  0.7842  0.2157
14863SOL    HW255809   0.252   9.888   6.174 -0.1848 -1.6194  1.5957
14864SOL     OW55810   7.901   3.809   2.331  0.6938  0.0640 -0.7853
14864SOL    HW155811   7.921   3.860   2.247 -0.5756  2.1505  0.1302
14864SOL    HW255812   7.980   3.815   2.393  0.2571  1.6091 -0.3649
14865SOL     OW55813   6.225   0.927   6.758  0.3795 -0.4712 -0.3015
14865SOL    HW155814   6.308   0.957   6.711  1.4538  1.9868  2.9539
14865SOL    HW255815   6.159   1.003   6.759 -0.0044 -0.8132  1.2525
14866SOL     OW55816   4.620   6.828   2.643 -0.4561  0.5029  0.0004
14866SOL    HW155817   4.568   6.913   2.636  0.4537  1.1068  0.5141
14866SOL    HW255818   4.586   6.773   2.719 -2.4073 -0.5487 -1.6013
14867SOL     OW55819   4.942   3.976   0.315  0.4526  0.3853  0.6102
14867SOL    HW155820   4.942   3.882   0.280  0.1607  0.0654  1.4468
14867SOL    HW255821   5.032   4.017   0.299  0.0673  0.5366 -1.2387
14868SOL     OW55822   2.044   2.706   4.922 -0.2541 -0.2668  0.2092
14868SOL    HW155823   2.114   2.649   4.878  0.0770 -0.3439  0.8318
14868SOL    HW255824   2.081   2.798   4.936 -0.0525 -0.4886  1.1289
14869SOL     OW55825   7.190   4.548   1.561 -0.1819 -0.2746 -0.1673
14869SOL    HW155826   7.222   4.627   1.614 -0.2034 -0.4338  0.0832
14869SOL    HW255827   7.264   4.482   1.551 -0.7568 -1.1787  1.4107
14870SOL     OW55828   0.705   8.861   2.103 -0.6028 -0.2006 -0.0907
14870SOL    HW155829   0.762   8.779   2.101  0.3652  0.4512  0.3171
14870SOL    HW255830   0.640   8.858   2.027  1.0368 -0.1937 -1.5328
14871SOL     OW55831   4.444   2.182   3.800 -0.3661 -0.3027  0.3961
14871SOL    HW155832   4.353   2.222   3.789 -1.0831 -1.5840  1.4876
14871SOL    HW255833   4.435   2.083   3.812  1.2466 -0.5741 -0.5022
14872SOL     OW55834   5.224   9.756   1.941  0.2057  0.5439  0.2073
14872SOL    HW155835   5.306   9.703   1.964  0.1200 -0.0656 -0.8545
14872SOL    HW255836   5.151   9.693   1.913 -0.3120  1.1460  0.1970
14873SOL     OW55837   7.252   0.013   4.355 -0.0125  0.0675 -0.1344
14873SOL    HW155838   7.153   0.008   4.350 -0.1332  1.2048  0.8987
14873SOL    HW255839   7.288   0.047   4.268 -0.4302 -1.3492 -0.8851
14874SOL     OW55840   1.184   2.970   3.620  0.3675 -0.1606 -0.1267
14874SOL    HW155841   1.278   2.980   3.590 -0.0700 -0.2019 -1.5425
14874SOL    HW255842   1.143   2.889   3.579 -1.1056  1.3492 -1.7111
14875SOL     OW55843   7.879   9.320   4.548 -0.0580 -0.3323 -0.7897
14875SOL    HW155844   7.877   9.317   4.648  2.6002  0.8509 -0.6618
14875SOL    HW255845   7.859   9.229   4.512 -1.3125 -0.7131  0.7887
14876SOL     OW55846   1.741   1.123   0.855 -0.3811 -0.0245  0.2443
14876SOL    HW155847   1.800   1.202   0.868  1.1362 -0.9000 -1.0894
14876SOL    HW255848   1.700   1.097   0.943  0.4947  1.1517  1.0152
14877SOL     OW55849   2.211   4.530   1.051 -0.9774  0.2593  0.0996
14877SOL    HW155850   2.276   4.577   0.991 -0.5412  1.6493  1.6286
14877SOL    HW255851   2.118   4.565   1.034 -1.1581 -0.7790 -1.1455
14878SOL     OW55852   4.890   8.844   2.667  0.2040 -0.3099 -0.1053
14878SOL    HW155853   4.970   8.868   2.611  0.1182 -1.2601 -0.6405
14878SOL    HW255854   4.881   8.910   2.741  0.4271  0.8562 -1.1043
14879SOL     OW55855   4.147   7.456   1.833 -0.5479  0.2025  0.1300
14879SOL    HW155856   4.119   7.481   1.925  0.1880 -1.3112  0.7924
14879SOL    HW255857   4.070   7.414   1.785  0.1762 -2.9136  1.5581
14880SOL     OW55858   0.998   4.102   2.529 -0.1524 -0.5141  0.0050
14880SOL    HW155859   0.971   4.029   2.465  1.8277 -0.4823 -0.8921
14880SOL    HW255860   0.946   4.092   2.614 -1.4903 -1.6590 -0.9170
14881SOL     OW55861   2.144   9.527   3.244 -0.4648 -0.2192  0.3305
14881SOL    HW155862   2.126   9.597   3.176  0.3881 -0.3297 -0.0141
14881SOL    HW255863   2.119   9.561   3.335 -1.2827  0.0471  0.0103
14882SOL     OW55864   9.334   1.969   2.530 -0.1572 -0.0123  0.1974
14882SOL    HW155865   9.277   1.922   2.597  0.1328 -0.0064  0.4520
14882SOL    HW255866   9.277   2.029   2.473 -0.6433 -1.2779 -0.6626
14883SOL     OW55867   6.854   7.434   3.952 -0.3265 -0.0182 -0.3325
14883SOL    HW155868   6.774   7.494   3.943  0.3115  0.5752 -2.2250
14883SOL    HW255869   6.824   7.339   3.956 -1.2323  0.3032  0.8571
14884SOL     OW55870   7.066   6.395   5.512  0.2657  0.2272  0.3113
14884SOL    HW155871   7.062   6.480   5.459 -0.8488 -0.5532 -0.8927
14884SOL    HW255872   6.977   6.381   5.557  0.5103 -0.2172  0.6534
14885SOL     OW55873   1.545   1.149   4.406  0.4583  0.7628 -0.3426
14885SOL    HW155874   1.583   1.216   4.470 -0.9536 -0.7973  2.2258
14885SOL    HW255875   1.492   1.197   4.336 -1.2566  2.3137  1.9357
14886SOL     OW55876   8.574   5.440   6.130  0.2279  0.0089 -0.0317
14886SOL    HW155877   8.626   5.520   6.161 -1.4572  1.5975 -1.1742
14886SOL    HW255878   8.630   5.358   6.140  2.2100  1.3996  0.6404
14887SOL     OW55879   8.418   5.549   0.199  0.1558  0.0956  0.1944
14887SOL    HW155880   8.336   5.576   0.149 -0.0722  0.1386  0.5894
14887SOL    HW255881   8.474   5.630   0.217  0.8679 -0.0898 -1.0996
14888SOL     OW55882   7.594   6.594   1.851 -0.4701 -0.0867 -0.5113
14888SOL    HW155883   7.539   6.542   1.917  1.4418 -0.7222  0.6157
14888SOL    HW255884   7.602   6.689   1.881 -2.1757  0.3982 -1.4720
14889SOL     OW55885   3.674   8.121   5.258  0.3252 -0.1593  0.0902
14889SOL    HW155886   3.626   8.086   5.177  0.7492 -0.8272  0.1190
14889SOL    HW255887   3.764   8.154   5.231  0.0477  0.6268  0.1178
14890SOL     OW55888   3.182   1.777   6.464 -0.0763 -0.1129 -0.4541
14890SOL    HW155889   3.083   1.781   6.482 -0.0849 -0.2497 -0.4726
14890SOL    HW255890   3.207   1.852   6.403  0.1196  0.9505  0.9163
14891SOL     OW55891   4.083   8.160   4.268 -0.4410 -0.0798 -0.3205
14891SOL    HW155892   4.014   8.197   4.206 -1.3946 -1.2431  0.0533
14891SOL    HW255893   4.169   8.148   4.218 -0.4555  1.4728 -0.7548
14892SOL     OW55894   5.927   9.346   2.345 -0.3336  0.3123 -0.1677
14892SOL    HW155895   5.971   9.391   2.267 -0.7495  0.6654 -0.2007
14892SOL    HW255896   5.925   9.248   2.329  1.5626  0.1682  0.4045
14893SOL     OW55897   8.877   6.546   4.479 -0.2213  0.0479  0.2611
14893SOL    HW155898   8.891   6.589   4.390 -1.1204  0.9522  0.5597
14893SOL    HW255899   8.884   6.614   4.551 -3.8292  0.1278  0.5988
14894SOL     OW55900   2.939   3.515   2.111  0.6440  0.2062  0.2761
14894SOL    HW155901   2.860   3.461   2.081  1.2541 -0.7270  0.3344
14894SOL    HW255902   2.939   3.603   2.064 -0.1818  0.0298 -0.0631
14895SOL     OW55903   1.130   7.372   2.400 -0.4486 -0.3176  0.3497
14895SOL    HW155904   1.066   7.302   2.368 -0.6427 -0.3776  0.8536
14895SOL    HW255905   1.208   7.328   2.444 -0.2014 -0.2347 -0.0056
14896SOL     OW55906   1.792   6.557   5.237 -0.0309 -0.2323  0.3406
14896SOL    HW155907   1.798   6.458   5.250  2.3126 -0.2085 -0.3166
14896SOL    HW255908   1.872   6.600   5.278 -1.0337  1.4103  0.6101
14897SOL     OW55909   0.031   3.747   3.284 -0.4532  0.5724 -0.3753
14897SOL    HW155910  -0.031   3.778   3.212  1.0369  1.1760 -1.4239
14897SOL    HW255911   0.102   3.689   3.244  0.1492  0.5778  0.6661
14898SOL     OW55912   6.575   0.470   4.918  0.6457  0.2302 -0.3330
14898SOL    HW155913   6.660   0.518   4.897  0.6328 -0.0442 -1.0412
14898SOL    HW255914   6.556   0.476   5.016  1.7529 -0.1503 -0.0838
14899SOL     OW55915   6.357   1.722   2.535 -0.2217  0.1428 -0.1419
14899SOL    HW155916   6.278   1.779   2.512 -0.4655 -0.4833 -0.9259
14899SOL    HW255917   6.412   1.767   2.605 -0.4563  1.2895 -0.6797
14900SOL     OW55918   7.014   0.123   0.943 -0.0052  0.1032 -0.2780
14900SOL    HW155919   6.957   0.047   0.914  0.8394 -0.5755 -0.1985
14900SOL    HW255920   6.957   0.194   0.985 -0.6705 -0.9814  0.6830
14901SOL     OW55921   1.828   4.544   5.576  0.7309  0.0348 -0.2514
14901SOL    HW155922   1.865   4.635   5.596  0.2316  0.0072  0.8079
14901SOL    HW255923   1.824   4.490   5.660 -0.1867 -0.5207 -0.6454
14902SOL     OW55924   9.835   2.974   4.862 -0.1855  0.1775 -0.2587
14902SOL    HW155925   9.837   2.898   4.927 -1.0201 -0.4421 -0.9273
14902SOL    HW255926   9.855   2.939   4.770 -0.3772  0.7985 -0.5387
14903SOL     OW55927   3.857   4.862   1.766 -0.2730 -0.3602 -0.2526
14903SOL    HW155928   3.831   4.912   1.683  0.0664  0.1636 -0.0463
14903SOL    HW255929   3.934   4.908   1.810  1.4841 -2.3252 -1.2331
14904SOL     OW55930   6.918   1.296   0.921  0.0974  0.1823  0.5704
14904SOL    HW155931   6.820   1.312   0.914  0.3986  1.6250 -0.7542
14904SOL    HW255932   6.935   1.205   0.959 -1.7500 -1.1143 -1.5861
14905SOL     OW55933   8.286   3.447   6.097 -0.2366  0.2460  0.0573
14905SOL    HW155934   8.314   3.413   6.187 -1.5129  2.5738  1.3824
14905SOL    HW255935   8.302   3.545   6.092 -1.5332  0.3962 -1.7301
14906SOL     OW55936   3.084   5.554   3.543  0.4480 -0.1881 -0.1881
14906SOL    HW155937   3.095   5.493   3.464  0.6522 -0.3829 -0.0123
14906SOL    HW255938   3.089   5.499   3.627  1.8511  0.2294  0.0191
14907SOL     OW55939   9.195   6.791   3.497 -0.0635  0.3823  0.0756
14907SOL    HW155940   9.097   6.807   3.486 -0.1142  0.5220  0.6969
14907SOL    HW255941   9.215   6.694   3.485  0.0264  0.6563 -2.1548
14908SOL     OW55942   8.006   0.670   6.580  0.4486 -0.0872 -0.0871
14908SOL    HW155943   8.018   0.598   6.512 -1.0980  0.0046 -0.4883
14908SOL    HW255944   7.909   0.694   6.585  0.3495 -0.9702  3.0547
14909SOL     OW55945   1.512   5.834   5.676  0.6125  0.2379  0.1571
14909SOL    HW155946   1.413   5.828   5.690  0.7976 -0.5735  1.2476
14909SOL    HW255947   1.534   5.807   5.582 -0.1376 -0.2492  0.1138
14910SOL     OW55948   3.649   4.390   3.524  0.0262 -0.1274 -0.2140
14910SOL    HW155949   3.684   4.337   3.601 -0.7538 -0.3444  0.0055
14910SOL    HW255950   3.649   4.487   3.548 -1.5710 -0.3126  0.6387
14911SOL     OW55951   9.366   6.536   5.558 -0.2059  0.2883  0.3762
14911SOL    HW155952   9.275   6.497   5.547 -0.5291  0.5220  2.1098
14911SOL    HW255953   9.432   6.462   5.573 -0.6626  0.3152  2.6375
14912SOL     OW55954   8.771   2.859   5.588  0.3326  0.5201 -0.2986
14912SOL    HW155955   8.746   2.874   5.493  3.1546  4.1586 -0.5821
14912SOL    HW255956   8.858   2.810   5.592  0.7942  1.3786  0.3579
14913SOL     OW55957   1.231   1.901   3.001 -0.1360  0.6310  0.0276
14913SOL    HW155958   1.279   1.850   3.072 -0.0904  1.4370  0.5788
14913SOL    HW255959   1.182   1.837   2.941  2.1189 -0.2392 -0.9136
14914SOL     OW55960   7.700   9.741   2.464 -0.1963  0.3503 -0.1663
14914SOL    HW155961   7.702   9.642   2.447  0.9045  0.6129 -1.6128
14914SOL    HW255962   7.718   9.758   2.561 -0.0926 -0.8540  0.0328
14915SOL     OW55963   3.420   2.624   3.705 -0.1989 -0.1018 -0.7429
14915SOL    HW155964   3.460   2.575   3.783 -0.0247  0.3854 -0.5278
14915SOL    HW255965   3.375   2.558   3.644  1.0992 -0.7041 -1.0884
14916SOL     OW55966   2.281   8.250   3.975  0.1186  0.5797 -0.3876
14916SOL    HW155967   2.231   8.170   3.943  2.1205 -0.4152 -1.1273
14916SOL    HW255968   2.220   8.308   4.030 -0.9549 -2.2235  1.5077
14917SOL     OW55969   0.772   8.988   5.285 -0.2488  1.4239  0.8327
14917SOL    HW155970   0.722   9.072   5.264 -0.5809  0.6981 -1.5034
14917SOL    HW255971   0.721   8.910   5.249  1.0637  0.4094  1.1419
14918SOL     OW55972   0.472   8.017   2.632 -0.1115 -0.3488  0.2649
14918SOL    HW155973   0.446   7.922   2.649  0.4121 -0.8603 -1.6406
14918SOL    HW255974   0.569   8.021   2.608 -0.3135  0.5508 -0.4356
14919SOL     OW55975   2.777   2.207   0.397  0.4791 -0.0884  0.2287
14919SOL    HW155976   2.794   2.289   0.342 -1.5170 -0.1156 -0.4832
14919SOL    HW255977   2.700   2.223   0.459  0.8558 -1.0179  0.9502
14920SOL     OW55978   2.198   5.653   3.402 -0.3361 -0.3066 -0.5711
14920SOL    HW155979   2.161   5.601   3.325  3.3564 -1.0830 -1.9229
14920SOL    HW255980   2.216   5.591   3.478  3.0086 -0.9028 -1.7841
14921SOL     OW55981   0.266   8.189   0.567  0.1479 -0.4940  0.5987
14921SOL    HW155982   0.278   8.113   0.504 -3.5397 -0.9400  0.3555
14921SOL    HW255983   0.213   8.159   0.646 -0.5770  1.6180  0.9450
14922SOL     OW55984   5.190   3.008   3.986 -0.4647 -0.0248 -0.2561
14922SOL    HW155985   5.228   2.919   3.961  1.0395  0.8161 -1.0928
14922SOL    HW255986   5.142   3.047   3.908 -0.9730 -0.0263  0.0538
14923SOL     OW55987   3.037   2.303   1.364  0.7432 -0.1210 -0.1451
14923SOL    HW155988   3.093   2.377   1.326 -0.7398  0.9872 -0.2290
14923SOL    HW255989   2.943   2.312   1.330 -0.3929  0.2975  2.9224
14924SOL     OW55990   6.668   5.234   6.524 -0.4222 -0.5878 -0.0435
14924SOL    HW155991   6.653   5.252   6.621 -0.9513  1.1968 -0.4408
14924SOL    HW255992   6.581   5.241   6.475 -0.2532 -1.9941 -0.5857
14925SOL     OW55993   4.222   8.589   3.243  0.1441 -0.5400  0.3936
14925SOL    HW155994   4.228   8.689   3.233  1.1001 -0.5563  0.7270
14925SOL    HW255995   4.130   8.559   3.219  0.1937  0.2835 -0.9420
14926SOL     OW55996   7.377   6.724   0.410  0.1519 -0.3998  0.0339
14926SOL    HW155997   7.351   6.820   0.401 -0.9970 -0.6096  0.9456
14926SOL    HW255998   7.457   6.717   0.471  0.2912 -0.0175 -0.1042
14927SOL     OW55999   3.802   1.408   5.748  0.0949  0.6428  0.0234
14927SOL    HW156000   3.822   1.310   5.746 -0.4911  0.5195  0.2467
14927SOL    HW256001   3.860   1.455   5.681 -3.7433 -0.6323 -4.4284
14928SOL     OW56002   9.441   3.017   0.401 -0.6431 -0.6656 -0.9076
14928SOL    HW156003   9.412   3.097   0.454 -0.2773 -0.1729 -1.4445
14928SOL    HW256004   9.426   3.035   0.304  1.0126 -0.5926 -1.1530
14929SOL     OW56005   7.638   2.955   2.010 -0.1466  0.1729  0.3677
14929SOL    HW156006   7.644   2.860   1.981 -0.7230  0.3107 -0.2306
14929SOL    HW256007   7.542   2.977   2.030  0.2225  0.0843  2.3874
14930SOL     OW56008   7.143   4.113   6.273 -0.1203  0.2224 -0.5670
14930SOL    HW156009   7.052   4.116   6.315 -0.2261 -2.6715 -0.4827
14930SOL    HW256010   7.209   4.080   6.340  0.7326  0.9164 -1.0634
14931SOL     OW56011   9.561   5.925   3.928  1.4232 -0.0009  0.2420
14931SOL    HW156012   9.619   5.981   3.869  1.8605  1.0746  1.6758
14931SOL    HW256013   9.495   5.984   3.975 -0.1458 -1.0743 -0.5669
14932SOL     OW56014   1.017   0.488   6.277  0.6762  0.5701  0.1957
14932SOL    HW156015   1.096   0.522   6.227  1.6062 -0.2521  1.0830
14932SOL    HW256016   1.036   0.492   6.376  0.6303 -1.9935  0.3521
14933SOL     OW56017   6.509   8.635   4.165 -0.0743 -0.3007 -0.3059
14933SOL    HW156018   6.561   8.700   4.109 -1.4257  1.5741  0.5682
14933SOL    HW256019   6.538   8.644   4.260 -0.3754 -0.8896 -0.1588
14934SOL     OW56020   1.564   2.076   4.207  0.2362 -0.5867 -0.3274
14934SOL    HW156021   1.626   2.153   4.223 -0.3726 -0.1243 -0.1706
14934SOL    HW256022   1.484   2.108   4.157 -1.3999 -0.5116  2.2765
14935SOL     OW56023   0.431   2.246   5.048 -0.1699 -1.1484 -0.1928
14935SOL    HW156024   0.522   2.207   5.053  0.3633  0.1566  0.5600
14935SOL    HW256025   0.435   2.335   5.002 -1.3339 -1.8853 -1.7481
14936SOL     OW56026   3.037   3.178   0.707  0.2121  0.3082 -0.3408
14936SOL    HW156027   3.019   3.265   0.661  1.7719  0.2670 -1.0801
14936SOL    HW256028   3.097   3.194   0.786  2.1573 -0.3157 -1.6481
14937SOL     OW56029   8.482   0.317   4.734 -0.4558 -0.6487 -0.3794
14937SOL    HW156030   8.444   0.388   4.674 -1.6183 -0.7048  0.2844
14937SOL    HW256031   8.448   0.330   4.827 -0.1505 -1.6852 -0.1158
14938SOL     OW56032   2.177   6.341   5.308 -0.5265 -0.0837 -0.3901
14938SOL    HW156033   2.118   6.419   5.328 -1.7296 -0.6645 -1.6116
14938SOL    HW256034   2.220   6.309   5.392 -0.1960  1.7470  0.1540
14939SOL     OW56035   8.365   4.175   0.428  0.1771 -0.8318 -0.6171
14939SOL    HW156036   8.378   4.244   0.357 -3.2320  0.3388 -0.1635
14939SOL    HW256037   8.450   4.164   0.479  1.1017  2.2017 -1.4120
14940SOL     OW56038   9.419   9.951   1.874 -0.1785 -0.0532 -0.1113
14940SOL    HW156039   9.368   9.868   1.852 -0.8474  0.2068  0.4551
14940SOL    HW256040   9.508   9.926   1.911  0.0153 -0.5087 -0.8615
14941SOL     OW56041   0.587   3.617   0.982  0.0225  0.9770  0.6006
14941SOL    HW156042   0.676   3.662   0.972 -0.7946  2.4235 -0.3664
14941SOL    HW256043   0.591   3.526   0.941  0.6665  1.5604 -0.6683
14942SOL     OW56044   6.189   8.267   3.855  0.3275 -0.3009  0.4750
14942SOL    HW156045   6.207   8.314   3.942 -1.0362 -0.9309  1.1225
14942SOL    HW256046   6.167   8.171   3.873  0.7161 -0.6022 -0.6326
14943SOL     OW56047   2.299   7.827   0.659  0.0432 -0.4054 -0.4086
14943SOL    HW156048   2.225   7.841   0.724 -1.0715  0.3816 -1.8279
14943SOL    HW256049   2.262   7.803   0.569  1.5476 -1.3658 -0.8065
14944SOL     OW56050   0.707   8.763   0.229  0.0457  0.4180 -0.6563
14944SOL    HW156051   0.728   8.737   0.324  0.6352 -0.4762 -1.0295
14944SOL    HW256052   0.614   8.733   0.206  0.5542 -0.9879 -0.9370
14945SOL     OW56053   4.717   4.261   3.501  0.6623  0.1208 -0.1984
14945SOL    HW156054   4.803   4.309   3.521  1.1305 -0.0928 -1.6212
14945SOL    HW256055   4.733   4.194   3.428  0.1160 -2.5549  2.0703
14946SOL     OW56056   7.191   9.514   1.785  0.5340 -0.2745  0.2227
14946SOL    HW156057   7.143   9.537   1.700  0.6210 -1.2616 -0.1005
14946SOL    HW256058   7.272   9.571   1.794  0.6537 -0.3343 -0.4731
14947SOL     OW56059   9.661   6.070   3.241  0.8666  0.3065  0.2836
14947SOL    HW156060   9.754   6.107   3.242  0.3227  1.7034  0.6586
14947SOL    HW256061   9.645   6.016   3.323  1.2441  0.3238  0.3693
14948SOL     OW56062   7.767   3.498   4.541 -0.1395 -0.6090  0.5151
14948SOL    HW156063   7.713   3.550   4.608  0.8042 -0.0215  0.8294
14948SOL    HW256064   7.835   3.558   4.500  1.5848 -1.8082  1.5548
14949SOL     OW56065   0.099   8.100   3.242 -0.0974 -0.3718 -0.2033
14949SOL    HW156066   0.057   8.131   3.328 -0.3687  0.5270 -0.6576
14949SOL    HW256067   0.066   8.008   3.220 -1.7866  0.2825 -0.5165
14950SOL     OW56068   5.694   2.075   4.608  0.6431  0.4327  0.8073
14950SOL    HW156069   5.781   2.103   4.648  0.5686  0.8298  0.6947
14950SOL    HW256070   5.618   2.116   4.659  0.5221  0.0447  0.9379
14951SOL     OW56071   0.812   3.067   0.757  0.2700  0.1081  0.3305
14951SOL    HW156072   0.860   2.999   0.813  1.1918 -0.7321 -1.4516
14951SOL    HW256073   0.863   3.153   0.759  1.6455 -0.6443 -1.1830
14952SOL     OW56074   5.830   1.023   5.498 -0.0134  0.0903 -0.1808
14952SOL    HW156075   5.777   1.085   5.440 -0.6015 -0.0382  0.2259
14952SOL    HW256076   5.926   1.053   5.498 -0.0573  0.2556 -0.9924
14953SOL     OW56077   3.712   6.978   2.234  0.0261 -0.2740  0.0101
14953SOL    HW156078   3.799   7.016   2.265 -0.3312  0.3316  0.2910
14953SOL    HW256079   3.640   7.004   2.298 -0.5842  0.2931 -0.9007
14954SOL     OW56080   3.558   9.543   6.749 -0.9060  0.0965 -0.4343
14954SOL    HW156081   3.499   9.624   6.744  0.2044  0.9940  0.6842
14954SOL    HW256082   3.536   9.491   6.832 -1.6155 -0.7729 -1.1483
14955SOL     OW56083   9.434   9.230   4.241  0.1888  0.5725  0.5733
14955SOL    HW156084   9.495   9.206   4.165 -0.2522  1.6710 -0.1529
14955SOL    HW256085   9.374   9.153   4.261  1.3887 -0.2938  0.8763
14956SOL     OW56086   6.998   9.077   3.680  0.2381  0.4794  0.2739
14956SOL    HW156087   6.959   9.131   3.605 -0.0652  0.5997  0.5182
14956SOL    HW256088   7.085   9.036   3.650  1.0985  2.1202  0.4957
14957SOL     OW56089   1.269   3.543   1.464 -0.0836  0.5278 -0.4628
14957SOL    HW156090   1.358   3.521   1.425 -0.5132  0.0046 -1.1843
14957SOL    HW256091   1.256   3.493   1.550 -1.1523 -2.3722 -2.2119
14958SOL     OW56092   6.228   1.116   0.239 -0.2456 -0.3822 -0.3615
14958SOL    HW156093   6.313   1.158   0.269 -0.3635  0.0787 -0.6664
14958SOL    HW256094   6.247   1.038   0.179 -0.0667  1.2644 -2.4955
14959SOL     OW56095   0.472   7.767   0.337 -0.3989  1.1766  0.8500
14959SOL    HW156096   0.445   7.839   0.401  0.7847  2.1543  0.2751
14959SOL    HW256097   0.571   7.768   0.326 -0.5354  0.6859 -0.5958
14960SOL     OW56098   9.423   4.005   1.575 -0.1299  0.4789  0.6675
14960SOL    HW156099   9.360   4.025   1.649  0.1415 -0.4819  1.1645
14960SOL    HW256100   9.495   3.943   1.607  1.0319  1.4923  0.0891
14961SOL     OW56101   8.020   6.785   1.203  0.0799 -0.5514  0.7806
14961SOL    HW156102   8.028   6.689   1.178  0.5085 -0.4818  0.6518
14961SOL    HW256103   8.092   6.809   1.268 -0.1562 -0.3733  0.9762
14962SOL     OW56104   6.806   7.758   4.152  0.0217  0.2778  0.7532
14962SOL    HW156105   6.867   7.684   4.178  1.5069  1.3223  0.3160
14962SOL    HW256106   6.729   7.722   4.099  0.4369 -1.0094  1.0272
14963SOL     OW56107   0.455   0.363   1.928  0.1744  0.6299  0.3823
14963SOL    HW156108   0.534   0.399   1.978  1.3138 -2.0087  0.6192
14963SOL    HW256109   0.463   0.263   1.922 -2.0308  0.5277 -1.5453
14964SOL     OW56110   8.429   4.558   2.493 -0.0514 -0.0921 -0.4896
14964SOL    HW156111   8.449   4.466   2.526 -0.0117  0.1403  0.1471
14964SOL    HW256112   8.481   4.577   2.410 -0.3051 -0.7608 -0.8026
14965SOL     OW56113   2.459   9.300   6.528  0.3455 -0.0082  0.4588
14965SOL    HW156114   2.526   9.253   6.585  0.8044  0.6625  0.4748
14965SOL    HW256115   2.497   9.386   6.494  0.5134 -0.9224 -1.8019
14966SOL     OW56116   0.468   9.116   1.614 -0.1424  0.5109 -0.2154
14966SOL    HW156117   0.547   9.096   1.672 -1.3832  0.6037  1.5608
14966SOL    HW256118   0.463   9.049   1.540  2.2483  1.2117 -1.0425
14967SOL     OW56119   2.683   6.834   1.601 -0.3346  1.0263  0.0310
14967SOL    HW156120   2.761   6.778   1.627  0.1851  1.0628 -1.4189
14967SOL    HW256121   2.599   6.779   1.607  0.1885  0.0282 -1.5469
14968SOL     OW56122   1.052   3.083   5.011 -0.2919 -0.1232  0.2271
14968SOL    HW156123   1.022   2.988   5.013  1.8964 -0.8242  0.7768
14968SOL    HW256124   1.044   3.122   5.103 -2.3105  0.6129 -0.2326
14969SOL     OW56125   0.303   8.159   2.093  0.5112  0.5992  0.4182
14969SOL    HW156126   0.319   8.090   2.021  0.0863  1.1515 -0.2140
14969SOL    HW256127   0.260   8.115   2.172 -0.8165  0.3261 -0.4230
14970SOL     OW56128   0.146   5.128   3.989 -0.1677  0.0505  0.0426
14970SOL    HW156129   0.150   5.210   3.933  0.3028  0.8913  1.2799
14970SOL    HW256130   0.222   5.067   3.965 -0.7449 -0.1986 -1.1458
14971SOL     OW56131   8.877   4.329   5.942  0.6431 -0.2786  0.5224
14971SOL    HW156132   8.845   4.404   5.883 -0.3577 -1.1699 -0.0804
14971SOL    HW256133   8.884   4.362   6.036 -0.7952  0.3028  0.4457
14972SOL     OW56134   4.401   1.904   5.936 -0.4241  0.2647  0.2984
14972SOL    HW156135   4.384   1.870   6.029 -0.2176  0.4882  0.4156
14972SOL    HW256136   4.335   1.862   5.873 -0.6968  0.2735  0.5785
14973SOL     OW56137   1.632   7.417   6.361 -0.4328  0.9740  0.2277
14973SOL    HW156138   1.702   7.483   6.334 -0.1768 -0.6307 -3.1704
14973SOL    HW256139   1.668   7.358   6.433  1.1600  1.1585 -0.4008
14974SOL     OW56140   5.811   4.904   0.674  0.6405 -0.1029  0.1264
14974SOL    HW156141   5.870   4.846   0.618 -0.0594 -2.1211  1.4052
14974SOL    HW256142   5.861   4.935   0.755  0.8421  0.6202 -0.2737
14975SOL     OW56143   9.745   8.187   6.548 -0.2101  0.2280  0.5963
14975SOL    HW156144   9.775   8.136   6.468 -0.4516 -0.7078  1.1030
14975SOL    HW256145   9.659   8.233   6.528 -0.3123 -0.0708  0.3512
14976SOL     OW56146   0.220   2.291   4.536 -0.0986 -0.2494  0.0662
14976SOL    HW156147   0.152   2.266   4.605  0.1644 -0.0316  0.4062
14976SOL    HW256148   0.312   2.281   4.574  0.0121  1.1971  0.2021
14977SOL     OW56149   9.258   1.099   2.258 -0.2250  0.7888 -0.3360
14977SOL    HW156150   9.328   1.133   2.321 -0.9202  1.1795  0.2240
14977SOL    HW256151   9.247   1.163   2.182  0.2156  0.5904 -0.5723
14978SOL     OW56152   1.802   1.882   2.161  0.1176 -0.2248  0.3218
14978SOL    HW156153   1.848   1.908   2.076  0.1610 -0.6811  0.2067
14978SOL    HW256154   1.842   1.798   2.196 -0.8261 -0.7788  0.0764
14979SOL     OW56155   0.390   5.014   1.596  0.2405 -0.3027 -0.1848
14979SOL    HW156156   0.418   5.077   1.524 -1.9451  0.3581 -0.4756
14979SOL    HW256157   0.295   4.987   1.582  0.0984 -0.9739  1.8817
14980SOL     OW56158   6.552   1.238   5.888 -0.2227 -0.4886 -0.7163
14980SOL    HW156159   6.642   1.271   5.916 -1.0369 -0.2743  1.7335
14980SOL    HW256160   6.558   1.204   5.794  2.2955 -0.0471 -0.7726
14981SOL     OW56161   4.998   7.358   2.885  0.1300 -0.5201  0.1458
14981SOL    HW156162   5.015   7.426   2.813 -0.9495 -1.4212 -0.9724
14981SOL    HW256163   4.971   7.405   2.969 -2.5967  0.3842 -1.1795
14982SOL     OW56164   7.550   4.569   2.023  0.0613  0.3967  0.4376
14982SOL    HW156165   7.595   4.504   2.084  0.5657  0.7685  0.4645
14982SOL    HW256166   7.494   4.631   2.078  2.6501  2.4645  0.8232
14983SOL     OW56167   1.682   2.759   4.309  0.2559  0.3266  0.2706
14983SOL    HW156168   1.641   2.847   4.287  0.3490  0.2982 -0.0172
14983SOL    HW256169   1.627   2.712   4.378  0.2289  0.6277  0.4502
14984SOL     OW56170   3.323   8.094   4.685 -0.3014 -0.7399  0.4387
14984SOL    HW156171   3.351   8.169   4.745  0.2694  0.3402 -1.1209
14984SOL    HW256172   3.392   8.023   4.685 -0.0324 -0.4794  0.6272
14985SOL     OW56173   9.411   2.986   0.733  0.0479  0.1837 -0.0630
14985SOL    HW156174   9.420   3.072   0.684 -0.6093  0.1674 -0.2157
14985SOL    HW256175   9.365   3.003   0.821 -1.2712 -0.2100 -0.6699
14986SOL     OW56176   6.042   8.988   2.032 -0.4491  0.1368 -0.1260
14986SOL    HW156177   5.963   8.930   2.013  0.8192 -2.4812  2.1619
14986SOL    HW256178   6.039   9.020   2.127  1.5694 -0.6101  0.2314
14987SOL     OW56179   2.539   3.733   2.426 -0.0374 -0.0356 -0.7647
14987SOL    HW156180   2.632   3.734   2.389  0.6317  1.5562  0.8522
14987SOL    HW256181   2.513   3.639   2.448  1.6454 -0.4011 -0.1888
14988SOL     OW56182   8.187   1.715   3.834  0.3243  0.0632 -0.0492
14988SOL    HW156183   8.162   1.808   3.859 -0.4633  0.3384 -1.7584
14988SOL    HW256184   8.104   1.663   3.811  0.9157 -0.4803 -0.9740
14989SOL     OW56185   1.873   2.363   2.621  0.2612  0.5847  0.0087
14989SOL    HW156186   1.857   2.376   2.524 -1.0393  0.9273  0.2633
14989SOL    HW256187   1.873   2.452   2.667 -0.7677  0.3042  0.5618
14990SOL     OW56188   0.168   0.478   1.558  0.1903  0.6208 -0.1345
14990SOL    HW156189   0.149   0.459   1.461 -2.1591  0.0128  0.4018
14990SOL    HW256190   0.183   0.391   1.606 -0.5575  0.7825  0.3991
14991SOL     OW56191   8.746   5.513   1.243 -0.7032 -0.2887 -0.0947
14991SOL    HW156192   8.744   5.534   1.340  0.1311 -0.3219 -0.0680
14991SOL    HW256193   8.829   5.551   1.202 -1.4349  0.4167 -0.9521
14992SOL     OW56194   1.540   8.210   0.850 -0.1079  0.2875 -0.5669
14992SOL    HW156195   1.562   8.142   0.779  1.4195  2.1639 -1.9571
14992SOL    HW256196   1.563   8.301   0.817 -0.0201  1.2881  2.1152
14993SOL     OW56197   1.217   9.358   4.001  0.3587  0.2969  0.7113
14993SOL    HW156198   1.220   9.280   4.064  2.1661  0.8288  1.3058
14993SOL    HW256199   1.188   9.440   4.051  2.4917  0.8751  1.0546
14994SOL     OW56200   5.544   0.320   1.636 -0.2564 -0.0713  0.2695
14994SOL    HW156201   5.610   0.392   1.658  0.3734 -0.2666 -0.9511
14994SOL    HW256202   5.454   0.361   1.622 -0.1956  0.3120  1.0053
14995SOL     OW56203   6.791   2.765   3.844  0.4869 -0.2083  0.1132
14995SOL    HW156204   6.807   2.814   3.930 -0.9623 -0.1594  0.3822
14995SOL    HW256205   6.694   2.774   3.819  1.5736  2.6778 -3.3546
14996SOL     OW56206   0.556   4.928   4.876 -0.5909  0.3369  0.7568
14996SOL    HW156207   0.590   4.890   4.790 -0.6888 -1.8585  1.6386
14996SOL    HW256208   0.523   5.021   4.861  1.1691  0.6925 -1.1539
14997SOL     OW56209   0.831   6.724   0.795  0.2434  0.0437 -0.1065
14997SOL    HW156210   0.772   6.720   0.714 -0.5569  0.9611  0.4267
14997SOL    HW256211   0.822   6.639   0.848  1.6418 -1.0580 -1.5643
14998SOL     OW56212   9.980   7.275   2.745 -0.2531  0.0886  1.0347
14998SOL    HW156213   9.885   7.242   2.750 -0.0114 -0.4621  2.3701
14998SOL    HW256214   9.997   7.316   2.656 -1.4388 -0.7843  0.3969
14999SOL     OW56215   2.369   6.376   0.507 -0.9048 -0.0592  0.2453
14999SOL    HW156216   2.329   6.323   0.432  0.6164 -1.0009  0.0600
14999SOL    HW256217   2.378   6.472   0.479  0.3759 -0.5454 -1.1130
15000SOL     OW56218   4.376   1.291   6.353 -0.4363 -0.0584  0.1842
15000SOL    HW156219   4.405   1.210   6.302 -0.1911 -0.4632  0.9728
15000SOL    HW256220   4.421   1.293   6.442 -2.1754 -0.2459  1.0773
15001SOL     OW56221   8.356   0.729   1.374 -0.4883 -0.6031  0.4737
15001SOL    HW156222   8.259   0.721   1.352 -0.8902  0.3755  1.8496
15001SOL    HW256223   8.407   0.749   1.291 -1.3998 -1.6009 -0.3408
15002SOL     OW56224   9.061   8.849   3.495  0.0042 -0.9090 -0.1864
15002SOL    HW156225   8.964   8.850   3.518  0.0992 -1.4153  0.2319
15002SOL    HW256226   9.075   8.799   3.410 -0.3326  0.8817 -1.3404
15003SOL     OW56227   2.914   7.914   5.045  0.0257  0.8574 -0.4925
15003SOL    HW156228   2.930   7.905   4.946  0.4260  1.3910 -0.4814
15003SOL    HW256229   3.002   7.909   5.093 -0.1677  0.6142 -0.1613
15004SOL     OW56230   9.497   9.863   0.332  0.7703  0.5351  0.4164
15004SOL    HW156231   9.479   9.924   0.255  1.3901  1.6316  1.1272
15004SOL    HW256232   9.577   9.806   0.312 -0.1856 -0.4848 -0.5027
15005SOL     OW56233   2.974   7.510   0.701 -0.4314 -0.4632 -0.0880
15005SOL    HW156234   2.970   7.477   0.607 -1.1037 -1.4941  0.2898
15005SOL    HW256235   2.882   7.535   0.731 -0.2462 -0.2974  0.3483
15006SOL     OW56236   6.009   0.582   3.969 -1.0600  0.2336 -0.4404
15006SOL    HW156237   5.958   0.593   4.054  0.1647  0.8080  0.2201
15006SOL    HW256238   6.100   0.622   3.978 -0.3721 -1.0314 -1.5202
15007SOL     OW56239   9.224   6.393   0.835  0.5994 -0.0871  0.4466
15007SOL    HW156240   9.128   6.370   0.849 -0.1803  3.9075  2.4317
15007SOL    HW256241   9.274   6.383   0.921  0.8284  2.5721  0.6753
15008SOL     OW56242   3.751   2.013   5.267 -0.1831  0.1250  0.3318
15008SOL    HW156243   3.837   2.038   5.221 -1.1041  2.1589 -0.3248
15008SOL    HW256244   3.693   1.963   5.203  0.7488 -1.8718  0.9820
15009SOL     OW56245   4.004   0.242   4.240  0.1773  0.1495 -0.0286
15009SOL    HW156246   3.965   0.176   4.176  1.6086  0.5506 -1.3418
15009SOL    HW256247   4.022   0.196   4.327 -1.0957 -0.5811 -0.1369
15010SOL     OW56248   8.682   0.467   4.188 -0.1930  0.1440  0.0178
15010SOL    HW156249   8.706   0.547   4.242  0.9299 -0.7542  0.8949
15010SOL    HW256250   8.765   0.419   4.159 -0.8368 -0.6981 -0.5023
15011SOL     OW56251   3.354   2.420   1.004  0.3329  0.0345  0.0756
15011SOL    HW156252   3.375   2.350   0.937 -0.7707  0.1971 -0.4608
15011SOL    HW256253   3.390   2.508   0.974  0.6524 -0.0692  0.1543
15012SOL     OW56254   0.515   8.948   1.140 -0.4293  0.1479  0.2290
15012SOL    HW156255   0.595   8.897   1.106 -1.0750 -1.0323  0.4476
15012SOL    HW256256   0.522   9.043   1.111  0.7264 -0.0929 -0.3307
15013SOL     OW56257   1.557   4.555   4.909 -0.2650 -0.7755  0.0275
15013SOL    HW156258   1.510   4.638   4.938  0.5841 -1.2102  2.8760
15013SOL    HW256259   1.653   4.560   4.935  0.3013 -1.7369 -1.7747
15014SOL     OW56260   3.736   4.697   2.364 -0.1407 -0.1741  0.0307
15014SOL    HW156261   3.667   4.767   2.346  0.0521  0.0623  0.2124
15014SOL    HW256262   3.810   4.736   2.420 -0.5526 -0.7898  1.0295
15015SOL     OW56263   9.154   0.675   3.260 -0.0715 -0.5677 -0.2221
15015SOL    HW156264   9.171   0.743   3.189 -0.4482  1.1902  1.3073
15015SOL    HW256265   9.074   0.703   3.314  0.5377 -1.5531  1.2296
15016SOL     OW56266   8.141   4.793   6.588 -0.3130 -0.4449  0.2580
15016SOL    HW156267   8.233   4.827   6.569 -0.3219 -0.5277  0.0660
15016SOL    HW256268   8.147   4.711   6.645 -0.1280 -2.2389 -2.2872
15017SOL     OW56269   3.710   5.505   2.119 -0.2963 -0.0591  0.0391
15017SOL    HW156270   3.780   5.534   2.184 -2.4525  1.1338  1.8782
15017SOL    HW256271   3.732   5.414   2.085  2.1397  0.2933  0.5727
15018SOL     OW56272   4.371   8.783   1.477  0.2132 -0.6794  0.0460
15018SOL    HW156273   4.346   8.797   1.573 -1.8808 -1.0175 -0.4261
15018SOL    HW256274   4.324   8.702   1.442  2.0876 -1.3976 -0.8943
15019SOL     OW56275   0.059   7.339   3.505 -0.2981 -0.2016 -0.0468
15019SOL    HW156276   0.120   7.269   3.467 -0.2769 -0.8365  1.1181
15019SOL    HW256277  -0.036   7.309   3.496 -0.3254 -0.0591 -0.2091
15020SOL     OW56278   1.387   9.844   2.554 -0.0059  0.2309  0.4794
15020SOL    HW156279   1.456   9.914   2.572  0.1246 -0.4291  2.5987
15020SOL    HW256280   1.412   9.759   2.600 -1.5403 -0.4232  0.1467
15021SOL     OW56281   9.003   8.382   6.065 -0.7485 -0.8008  0.3429
15021SOL    HW156282   8.964   8.348   6.151 -1.2155 -0.7527  0.1516
15021SOL    HW256283   9.102   8.377   6.070 -0.7750 -0.9152  0.8402
15022SOL     OW56284   0.851   8.343   6.481  0.3271  0.4284 -0.1026
15022SOL    HW156285   0.797   8.427   6.484  0.8407  0.8174 -1.2381
15022SOL    HW256286   0.925   8.354   6.414  0.0968 -1.1024 -0.6258
15023SOL     OW56287   4.134   9.155   2.221  0.2377  0.5322  0.1398
15023SOL    HW156288   4.138   9.056   2.216  1.3201  0.1408  5.4449
15023SOL    HW256289   4.040   9.186   2.212 -0.1832 -1.0255 -0.8423
15024SOL     OW56290   0.727   8.731   2.958 -0.1198  0.2077 -0.2837
15024SOL    HW156291   0.775   8.684   2.884  2.2143  1.0023  0.6546
15024SOL    HW256292   0.772   8.819   2.976 -0.8157  0.1535  1.8883
15025SOL     OW56293   8.900   6.730   1.596 -0.2790  0.9230  0.1495
15025SOL    HW156294   8.831   6.703   1.664 -0.8870  0.7609 -0.5297
15025SOL    HW256295   8.988   6.690   1.620 -1.3599 -2.5945 -1.4106
15026SOL     OW56296   8.590   3.752   6.715 -0.1297 -0.8833 -0.0372
15026SOL    HW156297   8.580   3.843   6.756  0.6741 -0.4086 -0.8738
15026SOL    HW256298   8.499   3.715   6.696 -0.4937 -0.8768  1.6400
15027SOL     OW56299   0.703   7.554   0.996 -0.0148 -0.0735 -0.1631
15027SOL    HW156300   0.682   7.606   1.079 -0.6312  2.0376 -1.5828
15027SOL    HW256301   0.801   7.553   0.982  0.1552 -1.0886  0.9683
15028SOL     OW56302   2.150   2.011   0.812  0.1962 -0.2731  0.3967
15028SOL    HW156303   2.204   1.968   0.885  1.1613 -0.4256 -0.3914
15028SOL    HW256304   2.053   1.998   0.830  0.3149  1.9393  3.0392
15029SOL     OW56305   3.343   1.951   6.754  0.6103 -0.0639 -0.7942
15029SOL    HW156306   3.311   1.859   6.733  1.5754 -0.5826 -0.0003
15029SOL    HW256307   3.421   1.974   6.696  1.6927 -0.5519  0.4388
15030SOL     OW56308   3.713   1.532   1.615  0.7912  0.4269  0.4106
15030SOL    HW156309   3.791   1.484   1.576  0.7888  2.6233 -2.4325
15030SOL    HW256310   3.745   1.598   1.684  1.0626 -1.3520  2.0217
15031SOL     OW56311   3.425   6.839   1.084  0.0521  0.6657  0.1106
15031SOL    HW156312   3.444   6.747   1.120  0.8233  1.2583  1.2815
15031SOL    HW256313   3.500   6.900   1.110  0.2677  1.2958 -1.9216
15032SOL     OW56314   6.097   9.218   3.705 -0.0741 -0.8962 -0.0673
15032SOL    HW156315   6.019   9.161   3.679 -0.0950 -0.9424  0.0978
15032SOL    HW256316   6.092   9.305   3.657 -1.0268 -0.3115  1.0662
15033SOL     OW56317   9.934   2.259   3.071  0.0814 -0.0728  0.5155
15033SOL    HW156318   9.912   2.196   2.997 -1.1522 -0.2867  1.0623
15033SOL    HW256319   9.869   2.335   3.071  0.6128  0.3861  0.8324
15034SOL     OW56320   4.381   1.331   2.184  0.3202 -0.3809  0.0941
15034SOL    HW156321   4.426   1.331   2.095  0.3221  0.7545  0.0835
15034SOL    HW256322   4.447   1.357   2.254 -0.0575  0.2586  0.2167
15035SOL     OW56323   0.240   9.517   6.077 -0.3224 -0.4141 -0.7570
15035SOL    HW156324   0.259   9.606   6.118 -0.4297 -0.2856 -0.9866
15035SOL    HW256325   0.257   9.445   6.144  0.1312 -0.2454 -0.6891
15036SOL     OW56326   7.915   7.193   1.220 -0.3083  0.0996 -0.4523
15036SOL    HW156327   7.993   7.131   1.214  0.2752  0.8102 -0.3822
15036SOL    HW256328   7.894   7.229   1.129 -1.9849 -1.8056 -0.8374
15037SOL     OW56329   8.086   5.388   1.002  0.0527  0.4919  0.7828
15037SOL    HW156330   8.109   5.318   0.934 -1.2620 -1.5939  2.4143
15037SOL    HW256331   8.050   5.469   0.955  2.2062  0.3965 -1.1799
15038SOL     OW56332   9.498   3.246   0.587  0.2897 -0.5635  0.1765
15038SOL    HW156333   9.478   3.325   0.644  0.3871 -1.5640  1.6418
15038SOL    HW256334   9.543   3.275   0.503 -0.1920  0.9792  0.4509
15039SOL     OW56335   0.821   7.946   1.708 -0.4115 -0.0077  0.2957
15039SOL    HW156336   0.913   7.929   1.672 -1.8563 -3.9565 -1.8935
15039SOL    HW256337   0.827   7.967   1.805  2.7976 -0.0932  0.1989
15040SOL     OW56338   0.871   6.282   5.801 -0.2849 -0.1451 -0.2598
15040SOL    HW156339   0.860   6.350   5.729  1.1107 -0.6327 -0.9464
15040SOL    HW256340   0.891   6.329   5.888  1.3462  0.2980 -0.8637
15041SOL     OW56341   0.069   9.477   3.585 -0.5047 -0.1068  0.4326
15041SOL    HW156342   0.118   9.486   3.671  1.2740 -0.6670 -0.4981
15041SOL    HW256343  -0.026   9.451   3.603  0.2395 -1.7125  2.1644
15042SOL     OW56344   7.699   1.646   5.091  0.1582  0.2834  0.0237
15042SOL    HW156345   7.700   1.560   5.143 -0.9520  0.3617  0.1913
15042SOL    HW256346   7.787   1.692   5.101 -0.0826  0.3737  1.9924
15043SOL     OW56347   3.224   4.223   3.199  0.9793  0.1610 -0.0282
15043SOL    HW156348   3.259   4.250   3.289 -1.3660  0.7259  0.7461
15043SOL    HW256349   3.300   4.212   3.135  2.5581  1.1758  1.6499
15044SOL     OW56350   2.550   0.992   1.141  0.6125 -0.2182 -0.0805
15044SOL    HW156351   2.594   1.036   1.219  0.3501 -1.0455  0.5426
15044SOL    HW256352   2.587   0.900   1.130 -0.4304 -0.6522  0.0065
15045SOL     OW56353   8.536   3.274   6.023  0.1166  0.1490  0.4963
15045SOL    HW156354   8.456   3.219   6.000  0.7741 -0.3676 -0.5909
15045SOL    HW256355   8.547   3.348   5.957  0.3761  0.3885  0.8010
15046SOL     OW56356   4.256   4.077   3.920 -0.5878  0.6661 -0.0089
15046SOL    HW156357   4.279   3.990   3.877  0.0796  1.3811 -1.1082
15046SOL    HW256358   4.339   4.118   3.958 -0.3931  2.1846 -2.0175
15047SOL     OW56359   8.161   7.999   6.738 -0.4435  0.2247  0.8739
15047SOL    HW156360   8.128   8.089   6.710  1.3100  0.7445  0.4119
15047SOL    HW256361   8.123   7.929   6.677  1.6399  1.1362 -1.5621
15048SOL     OW56362   7.818   2.929   2.219  0.6232  0.5556 -0.9289
15048SOL    HW156363   7.776   2.904   2.307  1.3248  1.1287 -0.4282
15048SOL    HW256364   7.747   2.959   2.156  0.2044  0.9025 -0.2990
15049SOL     OW56365   7.739   5.970   0.278 -0.2072 -0.3288 -0.0325
15049SOL    HW156366   7.731   5.914   0.195 -0.2612 -0.6684  0.1976
15049SOL    HW256367   7.797   5.922   0.345 -0.0625 -0.0008  0.0768
15050SOL     OW56368   6.816   0.637   4.851  0.4330  0.1916  0.4973
15050SOL    HW156369   6.856   0.708   4.793 -1.7662  0.4870 -0.7203
15050SOL    HW256370   6.859   0.549   4.833  0.3663  0.4539 -0.9709
15051SOL     OW56371   6.503   0.526   5.170 -0.2622  0.1065  0.8589
15051SOL    HW156372   6.586   0.533   5.226  0.5858  1.6741 -0.5337
15051SOL    HW256373   6.443   0.604   5.189 -0.3948  0.1537  0.2676
15052SOL     OW56374   9.005   2.003   4.273 -0.4739  0.2552  0.0658
15052SOL    HW156375   9.063   1.964   4.344 -1.6442  1.0387  1.4969
15052SOL    HW256376   8.910   1.974   4.289 -0.6920  0.1199 -1.4198
15053SOL     OW56377   5.702   1.481   5.249 -0.1102  0.0162 -0.6054
15053SOL    HW156378   5.767   1.411   5.277  1.6879  0.6082 -3.0956
15053SOL    HW256379   5.736   1.571   5.275  0.9876  0.4704 -3.3854
15054SOL     OW56380   3.604   5.595   3.215  0.3915 -0.5174  0.1866
15054SOL    HW156381   3.697   5.628   3.230  0.1315 -1.0046  3.2709
15054SOL    HW256382   3.601   5.537   3.133  2.3518  1.1155 -1.0636
15055SOL     OW56383   2.921   5.251   6.522  0.5543 -0.3438 -0.7885
15055SOL    HW156384   2.861   5.298   6.587 -0.4907 -1.5014 -0.9044
15055SOL    HW256385   3.013   5.244   6.562  0.6297  1.4127 -0.6020
15056SOL     OW56386   3.754   1.853   1.479 -0.2635  0.2755 -0.6269
15056SOL    HW156387   3.717   1.788   1.413 -0.1860  1.3893 -1.7799
15056SOL    HW256388   3.680   1.889   1.536 -0.6749  0.9453 -1.5606
15057SOL     OW56389   5.542   8.425   3.024 -0.1866 -0.0880  0.6078
15057SOL    HW156390   5.586   8.373   3.097 -1.2742  0.9866  2.0577
15057SOL    HW256391   5.452   8.386   3.005 -0.1953  0.0650  0.3330
15058SOL     OW56392   3.784   9.186   1.989 -0.4790  0.2187 -0.4324
15058SOL    HW156393   3.814   9.280   1.970 -0.2644  0.0314 -1.0160
15058SOL    HW256394   3.806   9.163   2.084 -1.2378  1.0351 -0.0462
15059SOL     OW56395   9.360   4.338   4.881  0.0955 -0.1733  0.5362
15059SOL    HW156396   9.390   4.340   4.976  0.0198  1.6945  0.5266
15059SOL    HW256397   9.299   4.415   4.863 -0.7195 -1.1014 -0.7581
15060SOL     OW56398   6.808   2.169   3.788  0.1854 -0.1567 -0.2777
15060SOL    HW156399   6.847   2.078   3.775  1.0540  0.1692 -0.0035
15060SOL    HW256400   6.792   2.185   3.886  0.7679  0.2716 -0.2438
15061SOL     OW56401   3.582   5.250   3.300  0.7317  0.1956  0.0623
15061SOL    HW156402   3.637   5.276   3.220  0.4020  1.6907  0.3066
15061SOL    HW256403   3.517   5.324   3.321 -1.9240 -1.8452 -0.6981
15062SOL     OW56404   2.574   5.263   1.979 -0.2266 -0.4440 -0.2339
15062SOL    HW156405   2.541   5.326   2.049 -0.8361  0.7109 -1.5400
15062SOL    HW256406   2.555   5.301   1.888 -0.7446 -2.5909 -1.0469
15063SOL     OW56407   3.902   6.757   1.164  0.2388 -0.2545 -0.2601
15063SOL    HW156408   3.999   6.737   1.147  0.5933 -1.0920  2.4457
15063SOL    HW256409   3.891   6.854   1.183  0.4055 -0.0041 -1.4018
15064SOL     OW56410   3.561   0.897   2.471  0.2260  0.0903 -0.2617
15064SOL    HW156411   3.478   0.952   2.459  0.8373  0.8509 -1.0928
15064SOL    HW256412   3.640   0.951   2.443  0.9957 -0.6677  0.4403
15065SOL     OW56413   0.778   0.205   3.849 -0.2508  0.2850 -0.2233
15065SOL    HW156414   0.800   0.107   3.847 -3.1750 -0.4239  0.3805
15065SOL    HW256415   0.764   0.234   3.943 -1.1220  0.8771 -0.5292
15066SOL     OW56416   1.001   1.571   4.768  0.0283 -0.1046 -0.0889
15066SOL    HW156417   0.968   1.567   4.674 -0.6420  0.8679  0.0985
15066SOL    HW256418   1.056   1.490   4.788  1.5861  0.5147 -1.8232
15067SOL     OW56419   2.512   7.421   4.527 -0.5583 -0.2089  0.0194
15067SOL    HW156420   2.471   7.351   4.585  0.6163 -1.0130 -0.1190
15067SOL    HW256421   2.505   7.510   4.573 -2.5775 -0.2856 -0.0623
15068SOL     OW56422   7.087   1.391   5.868  0.4477 -0.2118 -0.2483
15068SOL    HW156423   7.069   1.330   5.791  0.7421  1.2853 -1.5122
15068SOL    HW256424   7.095   1.336   5.952 -0.8947 -1.7514 -1.0946
15069SOL     OW56425   9.417   5.462   3.972  0.0000  0.7855 -0.3845
15069SOL    HW156426   9.353   5.408   3.919 -0.8097  0.9975  0.3685
15069SOL    HW256427   9.434   5.549   3.925  0.5784  0.2771 -1.1219
15070SOL     OW56428   8.301   9.311   5.886 -0.3837 -0.8866  0.4914
15070SOL    HW156429   8.376   9.289   5.824 -0.0297  0.0319  0.5908
15070SOL    HW256430   8.237   9.374   5.842  1.0376  1.5578  1.7975
15071SOL     OW56431   2.786   3.300   2.730 -0.2264 -0.0802  0.9587
15071SOL    HW156432   2.708   3.279   2.789 -1.6904 -0.8264 -1.1946
15071SOL    HW256433   2.767   3.384   2.678  1.8312  1.6262  2.8774
15072SOL     OW56434   3.261   9.813   6.378  0.1406 -0.2829  0.3693
15072SOL    HW156435   3.351   9.854   6.392  1.5771 -3.4279  0.7482
15072SOL    HW256436   3.247   9.798   6.280  0.9648 -1.7398  0.4599
15073SOL     OW56437   0.475   6.660   4.594  0.1801  0.1986  0.1528
15073SOL    HW156438   0.383   6.698   4.582 -0.0026  0.3908  1.9062
15073SOL    HW256439   0.518   6.704   4.673  2.1472  0.7857 -1.2281
15074SOL     OW56440   9.858   9.626   6.678  0.3463 -0.2037  0.4874
15074SOL    HW156441   9.922   9.662   6.745 -0.2214  0.2741  0.7839
15074SOL    HW256442   9.812   9.546   6.716  0.7310 -0.5136  0.2958
15075SOL     OW56443   9.343   2.320   4.684  0.0780  0.0328 -0.0079
15075SOL    HW156444   9.327   2.394   4.749 -0.1281  0.5214 -0.6160
15075SOL    HW256445   9.405   2.252   4.725 -2.6605 -1.3622  2.0167
15076SOL     OW56446   6.857   2.315   1.412 -0.3473  0.1544  0.6949
15076SOL    HW156447   6.867   2.391   1.347  0.9419 -0.5661  0.0449
15076SOL    HW256448   6.857   2.351   1.505 -0.3628  1.0135  0.3709
15077SOL     OW56449   7.892   4.176   1.295  0.0167  0.4215  0.3854
15077SOL    HW156450   7.822   4.109   1.321 -0.1153  0.3068 -0.2441
15077SOL    HW256451   7.916   4.232   1.374 -1.2471  0.8758  0.4600
15078SOL     OW56452   8.521   5.752   0.389  0.0211 -0.2742 -0.2808
15078SOL    HW156453   8.568   5.768   0.475 -1.0427  0.9119  0.1047
15078SOL    HW256454   8.453   5.679   0.401 -0.2188 -0.0180 -0.0743
15079SOL     OW56455   7.356   5.253   0.501  0.0262 -0.2867  0.6977
15079SOL    HW156456   7.452   5.243   0.476 -0.6010 -0.7024 -1.6607
15079SOL    HW256457   7.315   5.163   0.513 -0.3535 -0.1431  0.5011
15080SOL     OW56458   1.756   6.376   2.727  0.2507 -0.2400  0.3415
15080SOL    HW156459   1.796   6.426   2.650  0.6615  0.4559  0.9929
15080SOL    HW256460   1.758   6.434   2.808  0.8517 -1.3731  1.1454
15081SOL     OW56461   2.735   6.870   2.804  0.2561  0.0945 -0.0366
15081SOL    HW156462   2.824   6.915   2.799  1.0996 -1.5357 -0.0205
15081SOL    HW256463   2.676   6.921   2.866  0.7134  1.9558 -1.0975
15082SOL     OW56464   6.443   1.324   3.495  0.4517 -0.0796 -0.2981
15082SOL    HW156465   6.357   1.275   3.507  0.9897 -1.6120 -2.5467
15082SOL    HW256466   6.510   1.290   3.561 -0.0785 -0.2224  0.1729
15083SOL     OW56467   7.798   1.177   3.160 -0.0109  0.0778 -0.2404
15083SOL    HW156468   7.730   1.167   3.087 -0.2271  0.1382 -0.0494
15083SOL    HW256469   7.804   1.272   3.188 -0.4585 -0.0554  0.3209
15084SOL     OW56470   1.406   5.587   6.692 -0.3052 -0.2734  0.0231
15084SOL    HW156471   1.433   5.621   6.782  0.5493 -1.1360  0.1003
15084SOL    HW256472   1.323   5.634   6.662  0.5529  1.4678  0.3544
15085SOL     OW56473   4.325   9.526   4.889  0.4986  0.1193  0.3119
15085SOL    HW156474   4.362   9.570   4.808 -2.9611 -0.4341 -1.6807
15085SOL    HW256475   4.279   9.594   4.947 -0.2466 -0.0444 -0.0834
15086SOL     OW56476   2.001   5.455   3.577 -0.0776  0.3625 -0.0093
15086SOL    HW156477   1.982   5.550   3.599  1.7263  0.9964 -1.1275
15086SOL    HW256478   1.988   5.441   3.478 -1.3404 -0.8107  0.3007
15087SOL     OW56479   1.724   0.637   3.644 -0.2482 -0.2059  0.4555
15087SOL    HW156480   1.732   0.678   3.734 -0.1489 -0.7630  0.7001
15087SOL    HW256481   1.773   0.550   3.642  1.8247  0.9646 -0.8516
15088SOL     OW56482   4.544   8.316   3.463 -0.6211 -0.0491 -0.6557
15088SOL    HW156483   4.532   8.365   3.377  0.4391 -1.0164 -1.3741
15088SOL    HW256484   4.524   8.219   3.449  1.3782 -0.5425 -0.2906
15089SOL     OW56485   2.633   1.422   6.619 -0.3166  0.0515  0.2687
15089SOL    HW156486   2.717   1.474   6.602 -0.6285  0.5771  0.3572
15089SOL    HW256487   2.640   1.375   6.707  0.7404 -1.5838 -0.6428
15090SOL     OW56488   0.804   3.247   6.475  0.0004 -0.0543  0.5216
15090SOL    HW156489   0.726   3.308   6.491  0.4843  0.6602  0.2187
15090SOL    HW256490   0.772   3.163   6.431 -0.6264  0.1493  0.5763
15091SOL     OW56491   8.719   5.754   2.452 -0.2836  0.0961  0.1912
15091SOL    HW156492   8.651   5.811   2.497 -0.0011 -1.0213  2.0987
15091SOL    HW256493   8.792   5.811   2.414  0.1982  1.0079  2.4105
15092SOL     OW56494   3.366   3.579   6.736 -0.4403 -0.0726 -0.1067
15092SOL    HW156495   3.282   3.609   6.689  0.3836  0.8010 -1.0478
15092SOL    HW256496   3.393   3.489   6.702 -2.2952 -1.4444  1.9064
15093SOL     OW56497   1.540   2.946   1.843 -0.2789 -0.1357  0.0387
15093SOL    HW156498   1.532   2.880   1.769  1.4761  0.7270 -0.9636
15093SOL    HW256499   1.626   2.931   1.893 -0.0744  1.0806  0.0855
15094SOL     OW56500   0.110   1.129   4.492 -0.0386  0.4719  0.8602
15094SOL    HW156501   0.200   1.101   4.460 -0.5745 -1.1500  0.7224
15094SOL    HW256502   0.119   1.205   4.557  1.6389 -1.3788  2.8429
15095SOL     OW56503   7.521   7.275   4.076 -0.1850  0.3513 -0.3554
15095SOL    HW156504   7.555   7.229   4.158 -3.0447  0.5522  0.9938
15095SOL    HW256505   7.477   7.208   4.015  0.7116  0.4168 -1.0841
15096SOL     OW56506   0.966   5.170   3.810 -0.0526  0.0435  0.1713
15096SOL    HW156507   0.969   5.073   3.786 -1.5630  0.2955 -1.1305
15096SOL    HW256508   1.059   5.207   3.814  0.3848 -0.6289 -2.8533
15097SOL     OW56509   8.890   8.826   5.100 -0.1824 -0.0327 -0.0357
15097SOL    HW156510   8.925   8.743   5.056 -0.3842 -1.0291  1.6176
15097SOL    HW256511   8.965   8.875   5.145 -0.0371  0.7803 -1.1548
15098SOL     OW56512   8.394   5.020   3.876  0.3862  0.4678 -0.3504
15098SOL    HW156513   8.478   4.968   3.856 -0.2658 -0.5431 -0.5304
15098SOL    HW256514   8.332   4.962   3.928 -0.4937  0.9771 -0.8367
15099SOL     OW56515   3.404   2.012   5.584  0.1041 -0.4377  0.4863
15099SOL    HW156516   3.415   2.061   5.670 -2.2724 -0.8880  1.0929
15099SOL    HW256517   3.312   2.029   5.548  1.1718  0.0222 -2.1577
15100SOL     OW56518   3.686   5.116   0.604  0.0595  0.2565  0.3491
15100SOL    HW156519   3.600   5.161   0.627 -0.1838 -0.1778  0.2926
15100SOL    HW256520   3.708   5.048   0.674  0.4060  0.4348  0.4151
15101SOL     OW56521   8.935   2.523   5.057 -0.2276 -0.1829 -0.0580
15101SOL    HW156522   8.929   2.487   5.151 -1.2500  0.3397  0.0835
15101SOL    HW256523   8.868   2.476   4.999 -0.7787  0.6955 -0.1323
15102SOL     OW56524   5.419   0.407   4.314 -0.4190 -0.4696 -0.2999
15102SOL    HW156525   5.435   0.309   4.303 -1.5243 -0.6237 -0.5081
15102SOL    HW256526   5.322   0.424   4.327 -0.1509  0.5329  0.4548
15103SOL     OW56527   9.022   1.413   0.984  0.2093  0.2065 -0.2784
15103SOL    HW156528   9.003   1.496   1.036  1.4896  0.5936 -0.4089
15103SOL    HW256529   9.121   1.401   0.975  0.0314  0.5245 -3.1909
15104SOL     OW56530   8.963   2.431   2.075 -0.7251 -0.1268  0.3442
15104SOL    HW156531   8.960   2.373   1.993 -0.7840  1.0908 -0.5418
15104SOL    HW256532   8.986   2.525   2.048 -2.2161  0.6075  1.5466
15105SOL     OW56533   4.431   5.165   0.202 -0.1368 -0.4015 -0.3744
15105SOL    HW156534   4.333   5.184   0.210  0.2987  1.3206  1.1529
15105SOL    HW256535   4.474   5.171   0.293  1.3508 -1.3342 -0.9937
15106SOL     OW56536   4.323   6.753   1.901  0.1284 -0.5285 -0.3513
15106SOL    HW156537   4.392   6.685   1.926 -0.3392 -0.1217  2.1062
15106SOL    HW256538   4.285   6.794   1.983 -3.1172 -0.7841 -1.6512
15107SOL     OW56539   0.168   5.416   6.352 -0.0337  0.0799  0.0958
15107SOL    HW156540   0.107   5.414   6.272  0.0336  0.2251  0.0394
15107SOL    HW256541   0.129   5.361   6.425 -0.7459  1.0092  0.4292
15108SOL     OW56542   9.545   1.421   1.624  0.0969 -0.1927  0.0485
15108SOL    HW156543   9.525   1.511   1.584 -0.4954 -0.4979 -0.3544
15108SOL    HW256544   9.525   1.350   1.557 -0.0351 -0.6597  0.5825
15109SOL     OW56545   0.492   3.914   3.206 -0.1423 -0.1021 -0.6010
15109SOL    HW156546   0.502   3.954   3.297 -0.0320 -0.5586 -0.4125
15109SOL    HW256547   0.398   3.929   3.174 -0.1601  0.1270 -0.4437
15110SOL     OW56548   8.830   1.077   1.564  0.0506 -0.0872  0.0253
15110SOL    HW156549   8.925   1.069   1.532  0.1158  0.1219  0.1625
15110SOL    HW256550   8.816   1.168   1.603 -0.9088  0.7707 -2.2893
15111SOL     OW56551   2.027   5.232   4.254 -0.1779 -0.3198  0.1919
15111SOL    HW156552   1.936   5.196   4.277  0.9357 -4.3201 -1.3611
15111SOL    HW256553   2.038   5.235   4.155  0.7269  2.0319  0.3259
15112SOL     OW56554   9.041   2.678   2.009  0.0652  0.7101 -0.0704
15112SOL    HW156555   9.119   2.707   1.953  0.8696 -1.3517 -0.0771
15112SOL    HW256556   9.026   2.744   2.082  0.1348  2.5072 -1.6379
15113SOL     OW56557   3.157   1.148   0.446  0.1855 -0.0982 -0.1378
15113SOL    HW156558   3.170   1.195   0.358  0.3608  0.3335  0.1194
15113SOL    HW256559   3.246   1.126   0.485  0.1062 -0.1216  0.0277
15114SOL     OW56560   3.136   2.625   2.257  0.4043  0.0860 -0.6603
15114SOL    HW156561   3.087   2.632   2.170  0.4535 -2.0261 -0.8938
15114SOL    HW256562   3.114   2.704   2.314 -0.5226  0.9199 -2.1397
15115SOL     OW56563   6.686   0.502   2.010 -0.1586 -0.4791  0.0501
15115SOL    HW156564   6.648   0.414   1.984  1.7508 -1.0263 -0.9496
15115SOL    HW256565   6.786   0.498   2.006 -0.0516  1.7778 -0.2103
15116SOL     OW56566   4.544   0.592   4.266 -0.3112  0.0673 -0.9887
15116SOL    HW156567   4.479   0.662   4.297  0.0083  0.7719 -1.8678
15116SOL    HW256568   4.548   0.594   4.166  0.0249 -0.9292 -0.9968
15117SOL     OW56569   1.048   1.775   3.667 -0.1409  0.2411 -0.2286
15117SOL    HW156570   1.052   1.770   3.567 -3.7384 -1.7748 -0.3563
15117SOL    HW256571   1.068   1.685   3.705  0.7414  0.8931  0.8646
15118SOL     OW56572   1.373   1.747   3.220 -0.4630  0.2152  0.4693
15118SOL    HW156573   1.374   1.676   3.290  0.7485 -0.6569 -0.4071
15118SOL    HW256574   1.419   1.829   3.255  1.0956 -0.5796  0.3500
15119SOL     OW56575   0.575   5.115   4.477  0.5577 -0.4092 -0.6375
15119SOL    HW156576   0.572   5.206   4.436 -1.2750  0.0124  0.3655
15119SOL    HW256577   0.557   5.046   4.406 -1.3547  0.2348 -0.8107
15120SOL     OW56578   3.707   4.195   6.193  0.1599  0.2332 -0.5772
15120SOL    HW156579   3.753   4.226   6.110  1.3033 -0.8590 -0.3688
15120SOL    HW256580   3.610   4.220   6.189  0.0358 -0.5140 -2.5882
15121SOL     OW56581   9.008   5.428   5.375  0.0127 -0.1749 -0.0609
15121SOL    HW156582   8.931   5.471   5.329 -0.1908  0.0062  0.4414
15121SOL    HW256583   8.975   5.374   5.453  0.5283  1.3117  1.2186
15122SOL     OW56584   3.263   1.214   5.018  0.3861 -0.2865  0.2281
15122SOL    HW156585   3.204   1.169   5.086  0.9831  0.3847  1.2101
15122SOL    HW256586   3.214   1.222   4.931 -1.4499  1.3650  1.3653
15123SOL     OW56587   6.647   0.370   0.550  0.6593  0.0650 -0.1287
15123SOL    HW156588   6.611   0.285   0.589 -0.2409 -0.1374 -1.3549
15123SOL    HW256589   6.746   0.371   0.559  0.6830 -1.1364 -0.1031
15124SOL     OW56590   0.311   8.271   1.024  0.2155  0.2103  0.2317
15124SOL    HW156591   0.333   8.256   1.120  2.1114  1.4666  0.0231
15124SOL    HW256592   0.293   8.368   1.008 -1.4693 -0.1991 -0.4200
15125SOL     OW56593   7.198   3.071   4.613  0.1393 -0.6316 -0.0663
15125SOL    HW156594   7.169   3.023   4.530 -0.0050 -0.0542 -0.3579
15125SOL    HW256595   7.188   3.170   4.599 -1.0353 -0.5788  1.0739
15126SOL     OW56596   0.314   5.663   5.658  0.3670 -0.2336  0.6813
15126SOL    HW156597   0.392   5.629   5.710  2.8280  0.6309 -2.3396
15126SOL    HW256598   0.318   5.763   5.653 -0.0486 -0.2740 -0.7797
15127SOL     OW56599   0.097   7.652   4.061  0.2233 -0.2686 -0.5538
15127SOL    HW156600   0.121   7.665   3.965  0.6571 -0.1439 -0.4309
15127SOL    HW256601   0.069   7.557   4.076 -1.0752  0.0308 -1.0614
15128SOL     OW56602   8.636   8.287   0.510 -0.0417 -0.0097  0.1735
15128SOL    HW156603   8.683   8.200   0.520 -1.5039 -1.0431 -1.6093
15128SOL    HW256604   8.544   8.280   0.550 -0.0547  0.8029  0.2983
15129SOL     OW56605   3.074   1.910   6.067 -0.1686 -0.2805  0.2724
15129SOL    HW156606   3.054   1.962   5.984 -1.4132 -0.7094  0.2917
15129SOL    HW256607   2.997   1.918   6.131 -0.0592 -1.5205  0.5812
15130SOL     OW56608   7.641   2.748   6.296  0.0211  0.1148  0.9169
15130SOL    HW156609   7.646   2.736   6.395 -0.4243  0.4140  0.9759
15130SOL    HW256610   7.732   2.737   6.256  0.0690 -0.8047  1.2660
15131SOL     OW56611   7.154   9.901   3.553 -0.7468 -0.0124  0.1007
15131SOL    HW156612   7.103   9.919   3.469  3.4687  0.0968 -2.5496
15131SOL    HW256613   7.197   9.985   3.585 -0.8957 -0.4205  1.4219
15132SOL     OW56614   1.290   6.601   4.686 -0.0052  0.2211 -0.3202
15132SOL    HW156615   1.255   6.527   4.628  1.6012 -0.8453  0.0286
15132SOL    HW256616   1.243   6.686   4.663 -1.6124 -0.8204 -1.0020
15133SOL     OW56617   3.803   4.961   5.694 -0.1409  0.2013 -0.3620
15133SOL    HW156618   3.708   4.937   5.715 -0.0469 -0.7736 -1.0276
15133SOL    HW256619   3.825   5.048   5.737 -1.6465  0.9342 -1.0472
15134SOL     OW56620   9.869   9.711   4.403 -0.4501  0.0585  0.0133
15134SOL    HW156621   9.883   9.646   4.477 -0.0241 -0.7107 -0.7276
15134SOL    HW256622   9.823   9.665   4.326  1.0444  0.2757 -1.0295
15135SOL     OW56623   8.381   7.358   5.316 -0.2437  0.3231 -0.1872
15135SOL    HW156624   8.290   7.392   5.339 -0.7212 -0.9484 -0.1466
15135SOL    HW256625   8.391   7.264   5.349  1.0834  0.4491 -0.1927
15136SOL     OW56626   3.240   6.518   4.149  0.1192  0.1906  0.0418
15136SOL    HW156627   3.189   6.569   4.080 -3.4263  0.2298  2.5426
15136SOL    HW256628   3.282   6.582   4.214 -1.6844  0.0799  1.3636
15137SOL     OW56629   1.521   6.320   5.148  0.5493  0.1792  0.1590
15137SOL    HW156630   1.462   6.359   5.078 -0.1232 -1.5109 -0.2453
15137SOL    HW256631   1.575   6.245   5.108  1.3647  0.2894  1.0425
15138SOL     OW56632   4.751   4.946   1.582  0.5219  0.0288 -0.3913
15138SOL    HW156633   4.688   5.010   1.625  0.2808  1.0149 -2.1656
15138SOL    HW256634   4.712   4.854   1.585  1.0341 -0.1313  2.4885
15139SOL     OW56635   6.150   1.454   1.302 -0.1773  0.4061 -0.1594
15139SOL    HW156636   6.090   1.486   1.229 -0.2389 -0.4366 -0.4856
15139SOL    HW256637   6.228   1.406   1.262 -1.5993 -2.4516  0.3914
15140SOL     OW56638   5.154   2.458   2.555  0.0420 -0.1353  0.1250
15140SOL    HW156639   5.205   2.428   2.475 -0.2051 -0.4231  0.0762
15140SOL    HW256640   5.124   2.379   2.607  0.1899  0.0521  0.4956
15141SOL     OW56641   7.904   9.292   5.817 -0.2870 -0.1907 -0.4108
15141SOL    HW156642   7.857   9.274   5.904  0.2474 -0.6685 -0.2195
15141SOL    HW256643   7.837   9.322   5.749 -0.8146 -0.5013 -0.0346
15142SOL     OW56644   0.469   2.762   2.516 -1.0401  0.4736 -0.0488
15142SOL    HW156645   0.375   2.778   2.545 -1.5086  0.0861 -1.2933
15142SOL    HW256646   0.516   2.704   2.583 -0.8273  2.9120  1.9642
15143SOL     OW56647   1.052   2.834   3.869 -0.0884 -0.0058 -0.0388
15143SOL    HW156648   1.119   2.829   3.795  0.2643 -0.9903  0.3517
15143SOL    HW256649   1.091   2.885   3.946  0.1040 -0.3326  0.0786
15144SOL     OW56650   4.433   0.774   0.264  0.5125 -0.1459 -0.3102
15144SOL    HW156651   4.436   0.693   0.206  2.6194  0.4450 -1.0805
15144SOL    HW256652   4.365   0.761   0.336  0.1626 -2.1991 -0.9716
15145SOL     OW56653   0.382   8.568   0.709  0.5047 -0.6415  0.6014
15145SOL    HW156654   0.309   8.512   0.750 -0.4767  0.7300  0.7425
15145SOL    HW256655   0.468   8.549   0.756 -0.6983  1.3346  3.8038
15146SOL     OW56656   2.280   6.105   3.742  0.2126  0.0480  0.2339
15146SOL    HW156657   2.180   6.106   3.747  0.2126  1.0541  0.0474
15146SOL    HW256658   2.309   6.036   3.675 -0.3657  0.0261  0.0019
15147SOL     OW56659   1.948   1.621   0.796  0.2911 -0.2765  0.0168
15147SOL    HW156660   1.972   1.674   0.714 -0.9587 -0.1246 -0.2656
15147SOL    HW256661   1.950   1.681   0.876  2.0447 -0.5479  0.1796
15148SOL     OW56662   4.704   5.622   1.072  0.4388  0.1927 -0.2250
15148SOL    HW156663   4.749   5.551   1.016 -1.9749 -0.8425 -0.9522
15148SOL    HW256664   4.692   5.704   1.017 -0.5492 -0.3009 -0.7672
15149SOL     OW56665   7.728   3.549   2.338  0.0054  0.2033  0.2155
15149SOL    HW156666   7.708   3.541   2.436 -0.9979  0.9063  0.0771
15149SOL    HW256667   7.804   3.612   2.324 -0.6488  1.0569  0.4692
15150SOL     OW56668   0.194   7.610   1.873  0.5269 -0.5360 -0.1237
15150SOL    HW156669   0.292   7.602   1.854  0.9038  3.7039 -0.4564
15150SOL    HW256670   0.180   7.623   1.971  0.4726  0.6762 -0.2853
15151SOL     OW56671   1.420   6.457   6.116 -0.0395  0.5299 -0.2373
15151SOL    HW156672   1.424   6.369   6.070  0.8502  0.1024  0.6420
15151SOL    HW256673   1.512   6.483   6.147 -0.6414  0.6581  1.5406
15152SOL     OW56674   9.250   4.744   1.814 -0.7454  0.1121  0.2636
15152SOL    HW156675   9.344   4.739   1.783 -0.3603  1.2267  1.2270
15152SOL    HW256676   9.204   4.657   1.796  0.3710 -0.3187 -0.5007
15153SOL     OW56677   6.392   9.413   4.876 -0.6594  0.5003  0.4588
15153SOL    HW156678   6.378   9.314   4.866 -1.4628  0.6114  0.4469
15153SOL    HW256679   6.477   9.439   4.831 -0.5387 -0.1592  0.2959
15154SOL     OW56680   6.940   0.098   1.357 -0.6761 -0.0425 -0.1624
15154SOL    HW156681   6.857   0.138   1.317 -0.8568 -0.6638 -0.4024
15154SOL    HW256682   7.018   0.113   1.296 -1.0567 -1.4910 -1.0341
15155SOL     OW56683   4.773   0.550   3.350 -0.0918  0.5638  0.2695
15155SOL    HW156684   4.822   0.537   3.437 -0.3236  0.5404  0.3985
15155SOL    HW256685   4.682   0.588   3.369  0.3763  1.9002 -0.0540
15156SOL     OW56686   2.819   3.357   6.446  0.0138 -0.1095  0.0067
15156SOL    HW156687   2.881   3.428   6.412 -0.4172  0.5059  0.4823
15156SOL    HW256688   2.741   3.400   6.492 -1.3620 -0.8364 -1.5772
15157SOL     OW56689   3.545   0.498   2.774 -0.4391  0.1988  0.2948
15157SOL    HW156690   3.472   0.559   2.744  0.3573 -0.1277 -2.4100
15157SOL    HW256691   3.616   0.551   2.820  0.1343  1.3015 -1.8169
15158SOL     OW56692   8.726   8.017   3.409 -0.4474  0.4567  0.5243
15158SOL    HW156693   8.647   7.967   3.443 -1.2347  0.1533 -1.6600
15158SOL    HW256694   8.721   8.025   3.309  2.9453 -0.7617  0.1714
15159SOL     OW56695   8.381   2.502   0.674  0.1212 -0.4650  0.7996
15159SOL    HW156696   8.283   2.523   0.663 -0.1954 -1.2671  2.0471
15159SOL    HW256697   8.420   2.482   0.584 -0.7635  0.2827  0.2357
15160SOL     OW56698   0.805   2.429   6.580  0.0772  0.5771  0.0970
15160SOL    HW156699   0.761   2.473   6.658  1.5531 -0.1462  1.3693
15160SOL    HW256700   0.867   2.493   6.536  0.2817  0.5703  0.3730
15161SOL     OW56701   5.018   1.374   1.721  0.8884  0.1477  0.0566
15161SOL    HW156702   4.930   1.372   1.674  1.1795 -0.5133 -0.4700
15161SOL    HW256703   5.008   1.421   1.809 -0.2905 -1.0281  0.5795
15162SOL     OW56704   0.465   3.927   4.049 -0.4813 -0.5583  0.1145
15162SOL    HW156705   0.437   4.019   4.078  2.1996  0.0980  0.8460
15162SOL    HW256706   0.504   3.931   3.957 -2.3601 -1.3729 -0.7343
15163SOL     OW56707   1.777   8.623   4.477  0.1281 -0.0442  0.2217
15163SOL    HW156708   1.721   8.705   4.487 -0.2552 -0.3108  0.2466
15163SOL    HW256709   1.726   8.543   4.510  0.4398 -0.3157  0.0466
15164SOL     OW56710   1.958   8.426   6.527 -0.5992  0.0792  0.2580
15164SOL    HW156711   2.020   8.373   6.584  0.4168  0.8142 -0.1441
15164SOL    HW256712   2.011   8.485   6.465 -1.6912  1.3212  0.4678
15165SOL     OW56713   1.267   0.603   0.195  0.0180 -0.0719 -0.2977
15165SOL    HW156714   1.262   0.504   0.202 -1.4694 -0.2171 -2.6995
15165SOL    HW256715   1.182   0.643   0.230  0.0851  0.2720 -0.5263
15166SOL     OW56716   0.039   0.238   0.759  0.0060  0.2143  0.2782
15166SOL    HW156717  -0.017   0.293   0.697 -0.3108 -0.5943 -0.1678
15166SOL    HW256718   0.094   0.174   0.705 -1.5791 -1.7277  0.8864
15167SOL     OW56719   8.109   6.724   2.877  0.6988 -0.0566 -0.1664
15167SOL    HW156720   8.030   6.770   2.835  1.1359  1.4528  0.6280
15167SOL    HW256721   8.078   6.644   2.928 -0.5123  1.3298  1.3131
15168SOL     OW56722   1.127   3.927   1.548 -0.1200  0.2547 -0.2567
15168SOL    HW156723   1.062   3.996   1.516 -0.4738  0.6466  1.2616
15168SOL    HW256724   1.208   3.972   1.584 -1.0950  0.0163  2.4099
15169SOL     OW56725   0.791   9.225   4.513  0.2838  0.9856 -0.0475
15169SOL    HW156726   0.842   9.245   4.597 -1.9949  1.8995  1.1540
15169SOL    HW256727   0.832   9.274   4.436  1.4030  1.4401  0.8207
15170SOL     OW56728   3.187   1.284   4.025 -0.4345  0.3794  0.1166
15170SOL    HW156729   3.152   1.201   3.981 -0.3938  0.4672 -0.0838
15170SOL    HW256730   3.115   1.327   4.079 -0.0903 -0.5019  1.2827
15171SOL     OW56731   1.086   6.739   3.421 -0.0177 -0.0009  0.2218
15171SOL    HW156732   1.106   6.653   3.373 -0.8243  0.6875 -1.3737
15171SOL    HW256733   1.007   6.727   3.480 -0.6419 -0.1303 -0.6388
15172SOL     OW56734   0.364   3.700   0.861  0.8363  0.5498 -0.4286
15172SOL    HW156735   0.293   3.631   0.871 -0.4324  1.9050  0.0772
15172SOL    HW256736   0.446   3.672   0.912  0.7581 -1.1064 -1.1705
15173SOL     OW56737   1.871   9.062   5.737 -0.1106 -0.1720  0.4132
15173SOL    HW156738   1.933   9.133   5.770 -0.9417 -0.3265  2.4076
15173SOL    HW256739   1.795   9.105   5.688 -0.0384  0.2340  0.6548
15174SOL     OW56740   5.412   9.070   3.788 -0.1677 -0.4906 -0.1972
15174SOL    HW156741   5.393   9.013   3.868 -1.1690 -0.5583 -0.4670
15174SOL    HW256742   5.326   9.107   3.754  0.3694  0.3317 -0.6536
15175SOL     OW56743   7.268   7.656   3.175  0.0298 -0.0024 -0.5675
15175SOL    HW156744   7.215   7.577   3.206 -0.3226  0.3594 -0.2342
15175SOL    HW256745   7.271   7.658   3.076 -1.4201  0.5260 -0.6016
15176SOL     OW56746   8.437   3.388   3.986 -0.2392  0.6092  0.5525
15176SOL    HW156747   8.432   3.304   4.040 -1.2962  0.7782  0.7203
15176SOL    HW256748   8.529   3.396   3.946  0.6762  0.6716  2.6193
15177SOL     OW56749   0.727   2.036   2.532  0.0529 -0.1005 -0.0813
15177SOL    HW156750   0.702   2.025   2.628 -0.6234  0.5510 -0.1731
15177SOL    HW256751   0.794   2.109   2.523  0.5558 -0.5561 -0.0426
15178SOL     OW56752   1.950   2.126   3.678  0.1340  0.2110 -0.5840
15178SOL    HW156753   2.029   2.183   3.656  0.8448 -0.0124  1.2825
15178SOL    HW256754   1.942   2.053   3.610  2.2470 -0.4766 -0.1220
15179SOL     OW56755   8.456   6.533   4.622  0.4956  0.0348  0.2454
15179SOL    HW156756   8.483   6.628   4.606 -2.4034  0.7585 -0.6041
15179SOL    HW256757   8.405   6.526   4.708 -1.8101 -0.1988 -1.1018
15180SOL     OW56758   8.921   5.576   4.742 -0.1103 -0.1915  0.5569
15180SOL    HW156759   8.966   5.521   4.671 -1.6568  0.6824 -1.1429
15180SOL    HW256760   8.830   5.539   4.759 -0.2769  0.4628  1.0819
15181SOL     OW56761   8.571   8.149   5.037  0.3224  0.0522 -0.0440
15181SOL    HW156762   8.542   8.065   5.082  2.0954 -0.2539  0.5656
15181SOL    HW256763   8.539   8.228   5.090 -0.0610 -0.2554  0.1864
15182SOL     OW56764   2.680   4.631   1.147  0.0361  0.0221 -0.0134
15182SOL    HW156765   2.663   4.550   1.204 -1.3894  0.5993  0.3924
15182SOL    HW256766   2.651   4.612   1.053  0.6904 -0.2996 -0.1528
15183SOL     OW56767   0.021   9.325   4.126 -0.4859  0.8390  0.1893
15183SOL    HW156768  -0.032   9.385   4.066  0.2713  0.2205 -1.1253
15183SOL    HW256769   0.108   9.369   4.148 -0.1533  0.4555 -0.3503
15184SOL     OW56770   9.031   7.712   5.661 -0.3425 -0.1695 -0.0818
15184SOL    HW156771   9.005   7.744   5.752 -0.1163 -1.1729  0.3443
15184SOL    HW256772   9.130   7.700   5.657 -0.5153 -1.7076  0.0676
15185SOL     OW56773   2.711   6.150   6.480  0.0489 -0.5781  0.0914
15185SOL    HW156774   2.794   6.165   6.427  1.1090  0.8764  2.0565
15185SOL    HW256775   2.646   6.225   6.464 -0.0027 -0.6146  0.1266
15186SOL     OW56776   1.348   8.885   5.717 -0.0268 -0.1145  0.5336
15186SOL    HW156777   1.312   8.792   5.722  0.5819 -0.4333 -0.9304
15186SOL    HW256778   1.343   8.927   5.808 -2.6044 -0.6830  0.6778
15187SOL     OW56779   2.930   5.844   2.155  0.8013 -0.2033  0.4442
15187SOL    HW156780   2.945   5.886   2.066 -0.7836 -0.3466  0.0959
15187SOL    HW256781   2.947   5.912   2.227  0.3887  0.4256 -0.0378
15188SOL     OW56782   9.804   6.090   6.093 -0.1877 -0.3930 -0.2105
15188SOL    HW156783   9.873   6.071   6.164 -0.1006 -1.0949 -0.4799
15188SOL    HW256784   9.732   6.021   6.098 -0.5528 -0.0187 -0.3359
15189SOL     OW56785   5.626   7.114   1.902 -0.1574 -0.0754  0.8963
15189SOL    HW156786   5.687   7.162   1.965  0.1361  0.0946  0.4867
15189SOL    HW256787   5.539   7.165   1.896 -1.1206 -1.3869  3.0150
15190SOL     OW56788   3.329   2.748   4.381 -0.2247  0.1102 -0.0911
15190SOL    HW156789   3.328   2.845   4.361 -0.8766  0.0942 -0.1278
15190SOL    HW256790   3.235   2.712   4.383 -0.0196 -0.4177  0.3825
15191SOL     OW56791   2.897   5.711   4.550 -0.1398  0.3536 -0.2208
15191SOL    HW156792   2.972   5.742   4.491 -0.8803  2.7736  0.0203
15191SOL    HW256793   2.817   5.689   4.493  0.4938 -1.4274 -0.4193
15192SOL     OW56794   6.299   0.795   3.855  0.3520 -0.0271 -0.3743
15192SOL    HW156795   6.289   0.750   3.766  0.4030  0.3264 -0.5605
15192SOL    HW256796   6.320   0.727   3.925 -0.5300 -0.4084 -0.4820
15193SOL     OW56797   9.439   2.908   4.413  0.5263 -0.1825 -0.3464
15193SOL    HW156798   9.377   2.856   4.470  1.0087  0.0503  0.3958
15193SOL    HW256799   9.530   2.910   4.455  1.1920 -1.0463 -1.7304
15194SOL     OW56800   7.821   4.434   0.383 -0.7439  0.0132 -1.2251
15194SOL    HW156801   7.724   4.412   0.371 -0.6224 -1.2699 -0.0918
15194SOL    HW256802   7.844   4.429   0.480  0.2775  1.1464 -1.3959
15195SOL     OW56803   9.493   5.813   4.279 -0.1132 -0.6106  0.5529
15195SOL    HW156804   9.524   5.836   4.187 -1.9696  0.2141  0.1130
15195SOL    HW256805   9.403   5.770   4.275 -0.2821 -0.4250  1.9840
15196SOL     OW56806   9.482   2.408   0.111  0.0237  0.8969  0.1216
15196SOL    HW156807   9.540   2.437   0.035  0.8257  0.7456  0.6710
15196SOL    HW256808   9.489   2.309   0.122  1.0660  1.0833  1.3172
15197SOL     OW56809   1.240   1.119   5.904 -0.2414 -0.2898 -0.3248
15197SOL    HW156810   1.192   1.058   5.967  0.3989  0.4654  0.9119
15197SOL    HW256811   1.339   1.113   5.919 -0.1927  1.5067  0.2797
15198SOL     OW56812   9.046   5.802   5.251  0.2008 -0.3854  0.1454
15198SOL    HW156813   9.108   5.756   5.315 -0.1848 -1.7111 -0.4120
15198SOL    HW256814   9.047   5.753   5.163 -0.4392  0.5094 -0.3654
15199SOL     OW56815   5.578   1.866   3.183  0.5892 -0.0824 -0.1888
15199SOL    HW156816   5.502   1.803   3.165 -0.1534  0.6955  0.1950
15199SOL    HW256817   5.594   1.872   3.282  0.4038  0.6151 -0.1955
15200SOL     OW56818   9.539   8.381   6.726 -0.4916  0.3164 -0.4117
15200SOL    HW156819   9.451   8.395   6.773  0.0176  2.6463 -0.1042
15200SOL    HW256820   9.525   8.388   6.628 -0.8673 -0.5858 -0.4263
15201SOL     OW56821   1.712   9.064   1.824 -0.7331 -0.1543 -0.2682
15201SOL    HW156822   1.778   9.031   1.891  0.0212 -1.5911 -1.6847
15201SOL    HW256823   1.759   9.120   1.756 -0.7665 -1.9297 -1.8016
15202SOL     OW56824   2.259   8.463   5.089  0.0701  0.1319  0.3128
15202SOL    HW156825   2.184   8.413   5.134 -1.3679  2.4579  0.5619
15202SOL    HW256826   2.227   8.498   5.002  1.4233 -0.2965 -0.3673
15203SOL     OW56827   1.729   2.049   2.791  1.1800 -0.1710 -0.0139
15203SOL    HW156828   1.662   2.049   2.866  2.1609 -2.3053  0.8894
15203SOL    HW256829   1.805   2.110   2.814 -0.4768  2.4326 -1.1357
15204SOL     OW56830   0.762   1.069   2.065  0.1518  0.1763  0.0372
15204SOL    HW156831   0.751   1.120   1.979 -0.5812  0.5811  0.3629
15204SOL    HW256832   0.770   1.134   2.141 -0.5837 -0.1926  0.4312
15205SOL     OW56833   3.247   7.246   2.381  0.0328 -0.0171  0.0460
15205SOL    HW156834   3.250   7.306   2.461  1.3350 -0.8015  0.6005
15205SOL    HW256835   3.152   7.221   2.362 -0.1227 -1.4192  2.5608
15206SOL     OW56836   2.608   8.164   0.175  0.1238 -0.3631 -0.0008
15206SOL    HW156837   2.579   8.260   0.168  0.0402 -0.4302 -0.6514
15206SOL    HW256838   2.552   8.109   0.114  1.0474 -0.6331 -0.6081
15207SOL     OW56839   0.907   0.808   4.854  0.6284 -0.0675  0.0648
15207SOL    HW156840   0.957   0.891   4.878 -0.4666  0.5972  0.0945
15207SOL    HW256841   0.966   0.728   4.867  1.6251  0.6866  0.2270
15208SOL     OW56842   0.482   5.884   1.362 -0.5880  0.1494 -0.7131
15208SOL    HW156843   0.442   5.971   1.332  0.9890  0.6516 -1.4050
15208SOL    HW256844   0.548   5.852   1.294 -1.5065 -1.8612 -0.7067
15209SOL     OW56845   8.201   7.120   1.310 -0.0782  0.8044  0.0448
15209SOL    HW156846   8.233   7.112   1.404 -2.0352  1.0454  0.7556
15209SOL    HW256847   8.262   7.069   1.249  1.0062  0.3659  1.4853
15210SOL     OW56848   3.996   1.610   2.487 -0.4829 -0.0973 -0.1565
15210SOL    HW156849   4.073   1.592   2.548 -2.0365  0.7053  2.1028
15210SOL    HW256850   4.028   1.611   2.392  2.3139  0.4224  0.7533
15211SOL     OW56851   5.136   8.854   2.531 -0.1211 -0.0112  0.2194
15211SOL    HW156852   5.185   8.922   2.585  1.3049  0.0398 -1.1066
15211SOL    HW256853   5.182   8.766   2.539 -0.7646 -0.3493  0.2592
15212SOL     OW56854   4.067   1.629   4.223 -0.3750 -0.9545  0.1783
15212SOL    HW156855   4.074   1.538   4.182 -0.2786 -1.8155  2.0229
15212SOL    HW256856   3.971   1.658   4.225 -0.1155  0.3705 -3.2245
15213SOL     OW56857   4.743   4.352   1.409  0.0150 -0.5279  0.2875
15213SOL    HW156858   4.787   4.345   1.499 -1.7856  0.9432  1.3080
15213SOL    HW256859   4.655   4.306   1.411 -2.0008  3.1715  0.6028
15214SOL     OW56860   3.435   2.257   6.717 -0.1352 -0.8967 -0.0623
15214SOL    HW156861   3.477   2.259   6.808  0.4115 -1.4012 -0.2947
15214SOL    HW256862   3.475   2.182   6.664  0.4223  0.1359 -1.1287
15215SOL     OW56863   2.271   9.990   5.726 -0.1760  0.6388  0.4223
15215SOL    HW156864   2.196  10.021   5.669 -0.4823  0.2159  0.5968
15215SOL    HW256865   2.238   9.972   5.819 -0.2880 -1.5178 -0.0117
15216SOL     OW56866   4.439   7.080   1.291 -0.0186  0.3752 -0.1560
15216SOL    HW156867   4.346   7.108   1.265 -0.1110  0.6957  0.5246
15216SOL    HW256868   4.446   6.981   1.288 -0.4396  0.3421 -0.0125
15217SOL     OW56869   7.200   0.551   3.437  0.2670 -0.3115 -0.7069
15217SOL    HW156870   7.260   0.575   3.513 -0.8776  0.6530 -0.0870
15217SOL    HW256871   7.208   0.620   3.365 -0.9340  0.4432 -0.1322
15218SOL     OW56872   9.630   3.922   0.275 -0.0121  0.2994 -0.4739
15218SOL    HW156873   9.593   3.837   0.238 -0.0046  0.7211 -1.4642
15218SOL    HW256874   9.564   3.996   0.263  1.2454  1.1336 -2.5575
15219SOL     OW56875   0.190   0.400   0.102 -0.4818 -0.0168 -0.0015
15219SOL    HW156876   0.237   0.374   0.017 -0.7311 -0.8681  0.1191
15219SOL    HW256877   0.120   0.469   0.081 -0.8603 -0.5675 -0.5613
15220SOL     OW56878   8.633   7.221   4.774  0.1428  0.5403  0.0718
15220SOL    HW156879   8.678   7.287   4.714  3.3779 -3.5818 -2.2590
15220SOL    HW256880   8.693   7.198   4.850 -1.2941  0.8276  1.3198
15221SOL     OW56881   3.932   1.423   4.479  0.3062  0.2026  0.4277
15221SOL    HW156882   3.876   1.435   4.561 -0.9626 -4.2374  0.3137
15221SOL    HW256883   3.874   1.433   4.398  1.0476  1.9369  0.0728
15222SOL     OW56884   6.336   1.386   6.098  0.4002 -0.2569  0.6653
15222SOL    HW156885   6.248   1.390   6.051  0.4137 -0.6360  0.6068
15222SOL    HW256886   6.324   1.415   6.193  0.6899  2.1871 -0.0069
15223SOL     OW56887   1.507   3.525   5.471 -0.2595 -0.4188 -0.9270
15223SOL    HW156888   1.582   3.533   5.537  0.4066 -1.4894 -1.5215
15223SOL    HW256889   1.451   3.607   5.473  0.1649 -0.1523  0.4699
15224SOL     OW56890   7.695   2.055   6.419  0.2314 -0.4686  0.8212
15224SOL    HW156891   7.610   2.092   6.382  2.0039  1.0056 -1.9142
15224SOL    HW256892   7.734   2.120   6.484  0.6661  0.0824  0.0066
15225SOL     OW56893   1.168   5.136   5.680 -0.3090 -0.0728  0.2636
15225SOL    HW156894   1.245   5.184   5.722 -1.3889  2.2880 -0.3593
15225SOL    HW256895   1.184   5.128   5.582 -0.4221 -0.4073  0.2741
15226SOL     OW56896   2.557   1.684   6.515 -0.6152  0.4166 -0.3891
15226SOL    HW156897   2.540   1.759   6.579 -1.2463 -0.1309  0.1038
15226SOL    HW256898   2.552   1.597   6.565  0.8935  0.0922 -0.8000
15227SOL     OW56899   2.329   0.072   4.666  0.3747 -0.0562  0.2720
15227SOL    HW156900   2.230   0.069   4.681  0.3135  0.7496  0.0384
15227SOL    HW256901   2.358  -0.012   4.620 -0.1648 -0.3923  0.5381
15228SOL     OW56902   7.946   9.679   4.223  0.0543  0.0669  0.3280
15228SOL    HW156903   8.020   9.687   4.291 -1.4845  0.5723  2.0001
15228SOL    HW256904   7.877   9.616   4.257 -1.2804  1.1874 -0.2682
15229SOL     OW56905   4.205   1.196   4.851 -0.1568  0.3449  0.3178
15229SOL    HW156906   4.113   1.194   4.813  0.6426  0.3862 -1.7062
15229SOL    HW256907   4.236   1.103   4.868  0.4960  0.1386 -1.7876
15230SOL     OW56908   0.588   0.784   3.054  0.0005 -0.0728  0.2552
15230SOL    HW156909   0.592   0.818   2.960 -0.8213 -0.4769  0.0684
15230SOL    HW256910   0.624   0.691   3.058  1.5301  0.5198  0.6312
15231SOL     OW56911   2.972   8.241   6.437 -0.3306 -0.2878 -0.1513
15231SOL    HW156912   3.022   8.292   6.507 -1.7958  0.8218  0.1006
15231SOL    HW256913   2.980   8.288   6.349 -0.8236 -0.1675 -0.1340
15232SOL     OW56914   1.157   4.332   5.426  0.4097  0.0599  0.3539
15232SOL    HW156915   1.194   4.245   5.457  0.7144 -0.0460 -0.3048
15232SOL    HW256916   1.059   4.336   5.447 -0.0551 -1.3015 -1.4744
15233SOL     OW56917   7.519   7.393   5.849  0.7377  0.0625  0.1611
15233SOL    HW156918   7.570   7.373   5.933  1.0171 -3.4073 -0.7581
15233SOL    HW256919   7.568   7.355   5.771 -0.2807  1.9469 -1.4281
15234SOL     OW56920   0.229   7.138   5.730  0.8085  0.5155 -0.0695
15234SOL    HW156921   0.151   7.201   5.730  1.1546  0.9592  1.6062
15234SOL    HW256922   0.267   7.132   5.822  0.6462 -2.3134 -0.1350
15235SOL     OW56923   5.708   0.655   2.143 -0.1608 -0.0873  0.3577
15235SOL    HW156924   5.615   0.625   2.163  0.1008 -0.0944  1.6177
15235SOL    HW256925   5.717   0.675   2.046 -1.1086 -1.3875  0.0027
15236SOL     OW56926   0.474   2.982   2.339  0.3754  0.4943  0.1372
15236SOL    HW156927   0.435   2.978   2.247  1.9229  1.5949 -0.5924
15236SOL    HW256928   0.501   2.890   2.368  1.6998  0.4005 -1.3276
15237SOL     OW56929   1.179   2.662   1.054 -0.1014  0.2213  0.2694
15237SOL    HW156930   1.230   2.650   0.969  0.4081 -2.0759  0.8755
15237SOL    HW256931   1.230   2.622   1.130 -0.9215  1.5463  1.5410
15238SOL     OW56932   8.446   7.825   1.103 -0.0776 -0.1126 -0.0669
15238SOL    HW156933   8.422   7.876   1.185 -2.3197  1.2731 -1.5220
15238SOL    HW256934   8.366   7.820   1.042  1.2665 -1.8884 -1.7611
15239SOL     OW56935   2.729   6.716   0.044  0.5586 -0.3491 -0.1639
15239SOL    HW156936   2.678   6.744  -0.038 -2.3404 -2.3268  0.8838
15239SOL    HW256937   2.696   6.626   0.075  2.6539 -0.3222  2.3162
15240SOL     OW56938   9.409   1.568   6.369  0.0592 -0.1504  0.0963
15240SOL    HW156939   9.475   1.566   6.294 -0.3005 -1.6348 -0.1854
15240SOL    HW256940   9.399   1.662   6.401 -0.0572  0.5731 -1.9658
15241SOL     OW56941   2.422   6.683   5.004 -0.1105  0.0877  0.5208
15241SOL    HW156942   2.371   6.627   5.070 -3.0255 -1.4372 -2.8376
15241SOL    HW256943   2.501   6.631   4.971 -0.5797 -0.4976  0.3105
15242SOL     OW56944   4.335   1.053   0.135 -0.2955  0.3327  0.6512
15242SOL    HW156945   4.405   1.112   0.174 -1.7456  1.4136  1.6810
15242SOL    HW256946   4.326   0.970   0.191  0.9059 -0.3255 -0.1117
15243SOL     OW56947   0.663   5.719   6.290  0.4569  0.2493 -0.2136
15243SOL    HW156948   0.762   5.714   6.299  0.3797 -0.0284  0.4806
15243SOL    HW256949   0.623   5.755   6.374 -0.0633 -0.0075 -0.3475
15244SOL     OW56950   9.456   5.386   5.879  0.0573 -0.0112 -0.3105
15244SOL    HW156951   9.553   5.409   5.879  0.0155  0.1677  0.5878
15244SOL    HW256952   9.411   5.431   5.801  0.6116  0.2382 -0.4865
15245SOL     OW56953   2.250   7.035   6.537 -0.1249 -0.0331 -0.3972
15245SOL    HW156954   2.199   7.101   6.481  0.1233 -0.7683 -1.5154
15245SOL    HW256955   2.188   6.965   6.572 -0.0201 -0.4793 -1.0965
15246SOL     OW56956   0.125   1.326   5.047 -0.6799  0.0062  0.4947
15246SOL    HW156957   0.087   1.335   5.139 -0.0020  0.5453  0.7188
15246SOL    HW256958   0.088   1.398   4.988  1.4445  1.7102  1.1991
15247SOL     OW56959   1.012   7.637   6.099 -0.0597 -0.0478 -0.2959
15247SOL    HW156960   1.043   7.564   6.038 -2.3592 -1.7086  0.4540
15247SOL    HW256961   1.018   7.725   6.051  0.4633 -1.0115 -2.0478
15248SOL     OW56962   8.501   9.811   4.909 -0.5919 -0.5310  0.1242
15248SOL    HW156963   8.401   9.809   4.908 -0.6865  1.9883  1.0474
15248SOL    HW256964   8.533   9.888   4.964  1.8556 -0.2184 -1.6167
15249SOL     OW56965   6.464   8.854   2.742 -0.4420 -0.3394 -0.4072
15249SOL    HW156966   6.434   8.946   2.768  1.5540  0.3400 -0.4475
15249SOL    HW256967   6.488   8.853   2.645  0.7310 -0.5749 -0.1185
15250SOL     OW56968   4.786   3.599   0.585 -0.3030  0.1490 -0.2353
15250SOL    HW156969   4.738   3.515   0.611 -1.8705  1.6575  1.9528
15250SOL    HW256970   4.864   3.613   0.646  0.7107 -0.3604 -1.4051
15251SOL     OW56971   7.493   9.121   4.147 -0.4052  0.0733 -0.5067
15251SOL    HW156972   7.511   9.217   4.126 -1.8633  0.8761  1.7034
15251SOL    HW256973   7.547   9.062   4.086  1.2117  2.2911 -1.2632
15252SOL     OW56974   5.299   1.845   1.684  0.2695  0.1288 -0.0021
15252SOL    HW156975   5.349   1.841   1.597  1.4019  0.3257  0.6330
15252SOL    HW256976   5.332   1.773   1.745 -0.9053 -0.3637  0.0781
15253SOL     OW56977   8.456   2.923   6.628 -0.0607  0.4650  0.0052
15253SOL    HW156978   8.532   2.864   6.602 -0.1972 -0.1186  0.9064
15253SOL    HW256979   8.372   2.890   6.583 -0.1882 -0.1966  0.7241
15254SOL     OW56980   1.192   5.976   1.787  0.0295 -0.1255 -0.3890
15254SOL    HW156981   1.147   6.013   1.706 -0.8208 -0.1909  0.0496
15254SOL    HW256982   1.127   5.921   1.840  0.3087  0.6919  0.8285
15255SOL     OW56983   4.603   2.670   2.800  0.4257 -0.5986 -0.2687
15255SOL    HW156984   4.618   2.572   2.792  0.9908 -0.6329  1.0049
15255SOL    HW256985   4.514   2.687   2.843  0.3071 -0.5487 -0.5314
15256SOL     OW56986   4.673   1.875   1.764 -0.7557  0.4732 -0.5661
15256SOL    HW156987   4.624   1.962   1.757 -0.2322  0.7810 -0.5209
15256SOL    HW256988   4.725   1.859   1.681 -2.1225 -0.6017 -1.2318
15257SOL     OW56989   9.210   2.073   5.024 -0.0787 -0.3215  0.6515
15257SOL    HW156990   9.225   2.080   5.123  1.7772  0.6117  0.3273
15257SOL    HW256991   9.162   2.154   4.991  2.2611  0.9677  0.2946
15258SOL     OW56992   3.098   5.425   4.541 -0.0869  0.3163 -0.4596
15258SOL    HW156993   3.126   5.409   4.446 -3.5225 -1.7221 -1.2052
15258SOL    HW256994   3.126   5.347   4.597 -0.1864  0.4067 -0.2840
15259SOL     OW56995   8.114   1.792   3.393  0.2744 -0.2346  0.2129
15259SOL    HW156996   8.199   1.845   3.385  0.7305 -1.0753 -0.6722
15259SOL    HW256997   8.060   1.802   3.309 -0.5711  0.3911  0.8212
15260SOL     OW56998   8.202   2.726   1.757  0.2642 -0.7357  0.0819
15260SOL    HW156999   8.134   2.719   1.830 -0.2692 -1.5830 -0.4843
15260SOL    HW257000   8.235   2.820   1.752 -1.2537 -0.1834  0.0200
15261SOL     OW57001   8.248   7.359   1.181  0.0791  0.3188 -0.1085
15261SOL    HW157002   8.216   7.280   1.233  1.0084  0.9437  1.4689
15261SOL    HW257003   8.267   7.331   1.087  2.5349 -1.8970  0.9635
15262SOL     OW57004   9.205   5.413   2.138 -0.0407 -0.2363  0.3372
15262SOL    HW157005   9.137   5.379   2.203  0.0102  1.4223  1.3003
15262SOL    HW257006   9.240   5.337   2.084 -0.3903 -1.6008  1.9645
15263SOL     OW57007   9.475   8.596   3.496  0.6400 -0.0948 -0.4947
15263SOL    HW157008   9.388   8.550   3.483  0.4488  0.3645 -0.8432
15263SOL    HW257009   9.538   8.569   3.423  0.8156 -0.4779 -0.2062
15264SOL     OW57010   8.237   7.538   1.812  0.1128  0.2196 -0.2507
15264SOL    HW157011   8.228   7.455   1.756  1.3928 -0.1227  0.0347
15264SOL    HW257012   8.158   7.546   1.873 -0.2982 -0.4849 -0.6814
15265SOL     OW57013   1.977   8.739   2.406  0.2048  0.4175  1.0730
15265SOL    HW157014   1.955   8.665   2.342  0.2342  0.3223  1.1734
15265SOL    HW257015   2.075   8.740   2.424  0.0207 -0.3611  2.1132
15266SOL     OW57016   3.451   6.211   3.037  0.6250  0.4438  0.4441
15266SOL    HW157017   3.456   6.119   3.074 -2.8309  0.3738  0.8799
15266SOL    HW257018   3.357   6.232   3.011  1.6194  3.2771 -1.1705
15267SOL     OW57019   4.561   5.337   2.456  0.0619  0.1852  0.1726
15267SOL    HW157020   4.581   5.434   2.475  1.7973 -0.4555  1.7725
15267SOL    HW257021   4.497   5.331   2.380 -0.6178  2.6294  0.4973
15268SOL     OW57022   9.036   7.894   0.170 -0.1341  0.0434 -0.4462
15268SOL    HW157023   8.985   7.858   0.248 -0.1986 -0.8353 -0.8942
15268SOL    HW257024   9.119   7.939   0.203 -1.0146  1.1805  0.2590
15269SOL     OW57025   2.223   9.644   6.505 -0.0706 -0.0123 -0.4147
15269SOL    HW157026   2.155   9.645   6.578  0.3130  1.6286 -0.0523
15269SOL    HW257027   2.272   9.557   6.506 -0.3455 -0.1608  1.0323
15270SOL     OW57028   7.549   9.939   3.356  0.0979 -0.5431 -0.0717
15270SOL    HW157029   7.466   9.993   3.345 -1.2566 -2.5656 -0.0241
15270SOL    HW257030   7.626   9.987   3.313 -0.8914  1.7512  0.6197
15271SOL     OW57031   2.829   6.259   0.925 -0.3845 -0.3491  0.6805
15271SOL    HW157032   2.802   6.338   0.871  1.2244 -0.3624 -0.1692
15271SOL    HW257033   2.806   6.175   0.877  0.2793 -0.3687  0.3912
15272SOL     OW57034   3.490   3.082   1.550 -0.0578 -0.1312  0.0970
15272SOL    HW157035   3.531   2.992   1.560  2.0467  1.0639  3.1094
15272SOL    HW257036   3.397   3.081   1.588  0.4263 -0.7219  1.2759
15273SOL     OW57037   5.149   2.469   4.815  0.3125 -0.5293  0.5903
15273SOL    HW157038   5.080   2.522   4.767  0.1316 -2.0889 -0.9305
15273SOL    HW257039   5.105   2.408   4.881  0.3598 -0.4005  0.7427
15274SOL     OW57040   7.212   0.253   1.889 -0.1713 -0.0998  0.2544
15274SOL    HW157041   7.311   0.240   1.897 -0.3262 -2.2665 -1.1123
15274SOL    HW257042   7.165   0.193   1.953 -0.6212  1.8537  1.8391
15275SOL     OW57043   7.413   7.291   3.216 -0.1174  0.0074 -0.0128
15275SOL    HW157044   7.433   7.294   3.118  2.5698 -2.9663  0.3498
15275SOL    HW257045   7.316   7.272   3.229 -0.5661  0.7383 -2.1030
15276SOL     OW57046   9.220   9.297   1.488  0.0232 -0.2019 -0.4093
15276SOL    HW157047   9.300   9.348   1.459  0.7275 -0.7222  0.5845
15276SOL    HW257048   9.149   9.361   1.519 -1.1758  0.4285 -4.2144
15277SOL     OW57049   2.980   9.928   3.856  0.3507 -0.8257 -0.4343
15277SOL    HW157050   2.979   9.847   3.915  0.3758 -1.0916 -0.7952
15277SOL    HW257051   2.985   9.900   3.761  2.0912 -0.3627 -0.4891
15278SOL     OW57052   0.624   7.463   4.458 -0.2721 -0.2333  0.1273
15278SOL    HW157053   0.567   7.381   4.450 -0.9051  0.1611  0.5269
15278SOL    HW257054   0.679   7.458   4.542 -0.0145 -0.4280 -0.0520
15279SOL     OW57055   3.772   1.451   4.708  0.0813  0.3511 -0.6857
15279SOL    HW157056   3.678   1.469   4.740  1.0384  2.1629  1.2328
15279SOL    HW257057   3.836   1.472   4.782  1.9878 -1.2992 -1.8488
15280SOL     OW57058   2.618   4.693   4.588  0.1844 -0.6112  0.1723
15280SOL    HW157059   2.713   4.719   4.601 -0.0607  0.2049  0.3762
15280SOL    HW257060   2.607   4.648   4.499  0.3845  1.1753 -0.7706
15281SOL     OW57061   1.976   6.787   2.001  0.3110 -0.4405 -0.4312
15281SOL    HW157062   2.010   6.693   2.007 -0.7234 -0.8761 -1.2965
15281SOL    HW257063   1.880   6.789   2.027  0.7456  0.6629  1.2421
15282SOL     OW57064   8.057   3.714   5.660 -0.3907  0.7289 -0.4788
15282SOL    HW157065   8.111   3.638   5.695 -0.1589  0.7993 -0.6833
15282SOL    HW257066   7.967   3.680   5.631 -0.5724  0.6700  0.1607
15283SOL     OW57067   7.589   3.279   0.268  0.3451  0.2155 -0.7196
15283SOL    HW157068   7.604   3.374   0.294 -0.1451 -0.0937  0.7451
15283SOL    HW257069   7.495   3.267   0.237  0.6761  0.3973 -1.8163
15284SOL     OW57070   4.165   5.228   0.173  0.0631 -0.0515 -0.7514
15284SOL    HW157071   4.089   5.278   0.132  0.4981 -0.6770 -2.3745
15284SOL    HW257072   4.134   5.138   0.204  0.3848 -0.8710 -2.6770
15285SOL     OW57073   2.384   7.824   5.857  0.1227 -0.0916  0.0331
15285SOL    HW157074   2.382   7.898   5.789 -0.0980  0.6165  0.7994
15285SOL    HW257075   2.404   7.737   5.811 -0.5509  0.2890 -1.0166
15286SOL     OW57076   2.808   4.340   2.996  0.4248  0.5358  0.2667
15286SOL    HW157077   2.767   4.431   3.004 -1.1413  0.0430 -1.6230
15286SOL    HW257078   2.898   4.340   3.038 -0.4396  2.3748  2.2006
15287SOL     OW57079   8.168   9.760   1.473 -0.3053 -0.0397 -0.1153
15287SOL    HW157080   8.268   9.756   1.470 -0.2651  1.2895 -1.5100
15287SOL    HW257081   8.138   9.847   1.433 -2.0271 -0.5075  0.1448
15288SOL     OW57082   5.857   1.931   4.197 -0.1951 -0.0849  0.1594
15288SOL    HW157083   5.801   2.004   4.237  0.6518 -0.1862  1.6011
15288SOL    HW257084   5.886   1.958   4.105 -2.5366 -0.0231 -0.5751
15289SOL     OW57085   8.307   6.964   1.678  0.2737 -0.4019 -0.0808
15289SOL    HW157086   8.273   6.895   1.613  1.6841 -0.6860 -0.5191
15289SOL    HW257087   8.379   7.018   1.635  1.1444 -0.5173  1.2020
15290SOL     OW57088   3.297   8.032   2.669  0.5657  0.3694  0.2762
15290SOL    HW157089   3.323   8.016   2.573  1.5937  0.3558  0.5483
15290SOL    HW257090   3.241   8.114   2.675 -0.7582 -0.4526 -0.5316
15291SOL     OW57091   4.997   2.208   1.400  0.2100  0.0927 -0.1663
15291SOL    HW157092   4.952   2.228   1.313 -1.5234  1.0988  0.9303
15291SOL    HW257093   5.087   2.251   1.401 -0.3698  1.3777 -0.8824
15292SOL     OW57094   4.985   5.625   0.715  0.2749  0.3832  0.1714
15292SOL    HW157095   5.065   5.568   0.697 -0.8254 -0.3608 -2.4678
15292SOL    HW257096   5.016   5.716   0.743  2.0229 -0.5847  1.5229
15293SOL     OW57097   2.773   7.088   5.862  0.4149  0.0504 -0.0933
15293SOL    HW157098   2.726   7.084   5.950  1.0602  0.6950  0.2876
15293SOL    HW257099   2.861   7.040   5.870  0.7615  0.6615 -0.1943
15294SOL     OW57100   7.961   9.510   1.008 -0.4192 -0.5142 -1.0966
15294SOL    HW157101   7.993   9.416   1.015  0.9168  0.0497  0.8192
15294SOL    HW257102   7.912   9.523   0.922  0.7147 -2.5548 -2.0706
15295SOL     OW57103   8.843   2.959   1.261 -0.2954 -0.2531  0.0991
15295SOL    HW157104   8.812   3.023   1.332  0.8838 -0.7279  1.0762
15295SOL    HW257105   8.931   2.921   1.289  0.9955  0.7893 -2.4106
15296SOL     OW57106   3.509   2.140   1.201 -0.4798 -0.3023  0.5876
15296SOL    HW157107   3.578   2.115   1.268 -0.9682 -2.2939  0.3857
15296SOL    HW257108   3.422   2.096   1.224 -1.3563  1.1541  0.1392
15297SOL     OW57109   2.261   8.780   3.758  0.6668 -0.3610 -0.0016
15297SOL    HW157110   2.344   8.760   3.707  0.4393  1.2782 -1.0720
15297SOL    HW257111   2.284   8.832   3.841  0.6546  0.7028 -0.6602
15298SOL     OW57112   9.969   2.384   3.527 -0.0211  0.3297 -0.2219
15298SOL    HW157113   9.873   2.402   3.549  0.1681  2.1950 -0.8109
15298SOL    HW257114   9.974   2.328   3.444 -0.5962 -0.6962  0.4142
15299SOL     OW57115   0.961   2.676   1.245 -0.2323  0.3634  0.0881
15299SOL    HW157116   1.030   2.711   1.181  0.8120 -0.5899  0.6807
15299SOL    HW257117   0.889   2.630   1.193  0.2879  0.1427 -0.4440
15300SOL     OW57118   0.932   4.816   4.698  0.0776 -0.0799  0.0434
15300SOL    HW157119   0.837   4.846   4.696 -0.2233 -1.0655 -0.8844
15300SOL    HW257120   0.970   4.817   4.605  0.5904 -0.8715  0.2337
15301SOL     OW57121   4.067   7.575   4.047  0.0022 -0.7133 -0.6130
15301SOL    HW157122   4.031   7.632   3.973  0.9313 -0.6527 -1.0329
15301SOL    HW257123   4.009   7.494   4.058 -0.9294 -0.0379 -0.4741
15302SOL     OW57124   4.100   3.832   2.598  0.3995 -0.3431  0.7538
15302SOL    HW157125   4.024   3.877   2.646  0.8154  0.3967  0.7108
15302SOL    HW257126   4.073   3.738   2.577 -1.0463  0.3292 -0.4978
15303SOL     OW57127   9.200   7.480   2.975  0.0188 -0.7274  0.2227
15303SOL    HW157128   9.193   7.565   3.027  1.3908 -1.4967  1.7290
15303SOL    HW257129   9.277   7.485   2.912 -0.8992 -0.2534 -0.8759
15304SOL     OW57130   8.446   9.212   0.570 -0.0256  0.7359  0.3550
15304SOL    HW157131   8.513   9.214   0.645  0.2910 -2.7347  0.2413
15304SOL    HW257132   8.357   9.243   0.604  0.3203  0.0304  1.9513
15305SOL     OW57133   0.847   3.143   5.873 -0.4296 -0.5132  0.2151
15305SOL    HW157134   0.859   3.236   5.909 -0.9806 -1.6815  3.5223
15305SOL    HW257135   0.899   3.078   5.928 -1.7783 -2.4611 -0.7340
15306SOL     OW57136   0.309   6.879   4.169 -0.3836 -0.3698 -0.1068
15306SOL    HW157137   0.387   6.818   4.155  0.2180  0.7541 -1.8292
15306SOL    HW257138   0.250   6.878   4.088 -1.4693 -0.2086  0.6628
15307SOL     OW57139   8.145   2.188   3.095  0.5229  0.5589 -0.4642
15307SOL    HW157140   8.165   2.280   3.127  0.9859  0.6935 -1.1270
15307SOL    HW257141   8.225   2.129   3.111 -0.1603 -0.0039  0.9701
15308SOL     OW57142   0.660   6.229   1.405  0.1803 -0.2386  0.5445
15308SOL    HW157143   0.662   6.318   1.452  0.0375 -0.4695  0.9905
15308SOL    HW257144   0.566   6.195   1.403  0.3591 -0.7543  1.0746
15309SOL     OW57145   2.210   0.532   0.255  0.1993 -0.2784 -0.1142
15309SOL    HW157146   2.201   0.592   0.175  0.7048  0.7888  0.6154
15309SOL    HW257147   2.125   0.482   0.269 -0.5274  0.9084 -0.2283
15310SOL     OW57148   2.261   4.641   4.307 -0.2232 -0.2601 -0.2041
15310SOL    HW157149   2.353   4.620   4.341 -0.5555 -1.0554  0.2323
15310SOL    HW257150   2.251   4.739   4.294  0.8188 -0.2008 -0.6290
15311SOL     OW57151   2.561   9.583   6.041 -0.8085 -0.3935 -0.0680
15311SOL    HW157152   2.481   9.591   5.982 -2.0113 -2.9273  1.1641
15311SOL    HW257153   2.551   9.504   6.102  2.8727 -1.1448 -0.2773
15312SOL     OW57154   1.918   6.741   2.769 -0.7237  0.0561 -0.4116
15312SOL    HW157155   1.947   6.825   2.725 -2.7947  0.3978 -1.1901
15312SOL    HW257156   1.892   6.674   2.700 -1.5535 -0.2996  0.2233
15313SOL     OW57157   7.422   2.447   3.827  0.2838  0.0464 -0.2825
15313SOL    HW157158   7.480   2.454   3.746 -0.3099  1.6587 -0.5823
15313SOL    HW257159   7.460   2.502   3.901 -0.0313 -0.1418  0.0246
15314SOL     OW57160   3.216   3.431   5.654 -0.1898 -0.5657 -0.7155
15314SOL    HW157161   3.301   3.381   5.666  1.8599  2.8730 -0.2087
15314SOL    HW257162   3.224   3.492   5.575 -2.5471 -0.8777 -1.2333
15315SOL     OW57163   7.608   1.392   0.029 -0.2151 -0.5316  0.2788
15315SOL    HW157164   7.575   1.484   0.007  0.4122  0.4799  3.2677
15315SOL    HW257165   7.705   1.386   0.010 -0.4391 -0.8750 -0.7699
15316SOL     OW57166   9.595   3.897   2.193  0.2663  0.6020 -0.7224
15316SOL    HW157167   9.645   3.890   2.106 -0.8730 -0.8605 -1.2853
15316SOL    HW257168   9.557   3.807   2.217  0.4532  1.0220  1.2277
15317SOL     OW57169   7.513   0.042   0.186  0.0847 -0.1175 -0.3992
15317SOL    HW157170   7.447  -0.008   0.130  0.0964 -0.8825  0.2609
15317SOL    HW257171   7.601  -0.004   0.182 -0.2611 -0.9883  1.3524
15318SOL     OW57172   9.937   0.335   1.003 -0.8745 -0.1954 -0.3349
15318SOL    HW157173   9.960   0.300   0.912 -2.3801  0.0857 -0.8451
15318SOL    HW257174   9.975   0.274   1.072  2.1485  0.7587 -1.0908
15319SOL     OW57175   4.302   4.905   0.135 -0.0275 -0.1257 -0.5118
15319SOL    HW157176   4.262   4.938   0.220 -1.6560  1.6301 -1.9237
15319SOL    HW257177   4.384   4.958   0.114  1.3399 -1.6683  0.7834
15320SOL     OW57178   1.989   1.577   0.302 -0.0579 -0.1651 -0.4366
15320SOL    HW157179   2.042   1.647   0.255 -1.3275 -0.5065 -2.4394
15320SOL    HW257180   2.043   1.493   0.310  0.0525 -0.2094 -1.5936
15321SOL     OW57181   0.070   5.455   2.909  0.3452 -0.6513  0.1177
15321SOL    HW157182  -0.028   5.478   2.904  0.6316  0.2647 -1.7647
15321SOL    HW257183   0.107   5.449   2.816  2.6283  1.4156  0.8359
15322SOL     OW57184   7.934   1.847   0.108 -0.0613 -0.5744  0.4316
15322SOL    HW157185   7.942   1.938   0.149 -1.3674 -0.0541 -0.4516
15322SOL    HW257186   7.938   1.778   0.180  0.9871  0.1732  1.1037
15323SOL     OW57187   9.454   8.731   2.285 -0.4168 -0.3045 -0.1840
15323SOL    HW157188   9.447   8.680   2.200 -0.1843 -1.7631  0.6466
15323SOL    HW257189   9.545   8.717   2.324 -0.7561 -0.2173  0.6516
15324SOL     OW57190   1.279   5.063   4.364  0.0948  0.1726 -0.2256
15324SOL    HW157191   1.232   5.019   4.440 -0.0690  0.7387  0.0046
15324SOL    HW257192   1.216   5.126   4.318  0.8280  1.4428  0.5019
15325SOL     OW57193   1.778   3.114   0.189  0.0303 -0.0406 -0.4756
15325SOL    HW157194   1.811   3.208   0.183  0.4912  0.0821  3.1196
15325SOL    HW257195   1.709   3.107   0.261  1.5845 -2.8365  0.8303
15326SOL     OW57196   7.483   2.706   6.069  0.3647  0.0672  0.1456
15326SOL    HW157197   7.429   2.625   6.091 -1.5336  0.9707 -1.0305
15326SOL    HW257198   7.513   2.750   6.153 -1.4373 -0.0335  0.8728
15327SOL     OW57199   3.647   8.747   5.014  0.0924  0.0155  0.1647
15327SOL    HW157200   3.650   8.793   4.925  0.0101 -1.1286 -0.4389
15327SOL    HW257201   3.735   8.703   5.031 -0.3653 -0.9691  0.0027
15328SOL     OW57202   2.530   5.134   4.157  0.0831  0.5578  1.0363
15328SOL    HW157203   2.475   5.132   4.073  0.0644 -2.1873  1.0707
15328SOL    HW257204   2.478   5.179   4.229 -1.3220 -0.1281  0.4795
15329SOL     OW57205   8.892   7.641   4.456  0.1000  0.2859 -0.4911
15329SOL    HW157206   8.981   7.596   4.455 -0.0039  0.0827 -1.0010
15329SOL    HW257207   8.899   7.731   4.500  0.6012  0.3760 -0.7633
15330SOL     OW57208   7.302   2.494   4.135 -0.1296  0.1346 -0.1784
15330SOL    HW157209   7.283   2.398   4.115  0.7038  0.1054 -0.8345
15330SOL    HW257210   7.388   2.521   4.092  0.8002  0.5520  1.9191
15331SOL     OW57211   6.737   2.163   1.784  0.3830  0.1442  0.3395
15331SOL    HW157212   6.743   2.118   1.873 -0.4401 -0.1347  0.2569
15331SOL    HW257213   6.690   2.103   1.720  0.8488  0.4043 -0.2473
15332SOL     OW57214   9.639   6.685   3.093 -0.0269  0.2121  0.2613
15332SOL    HW157215   9.596   6.670   3.004  0.2021 -0.4492  0.2614
15332SOL    HW257216   9.732   6.648   3.091  0.4622  1.4072  0.3343
15333SOL     OW57217   9.564   2.658   5.984  0.0001 -0.5145  0.1279
15333SOL    HW157218   9.572   2.757   5.970  0.1967 -0.4973  0.3577
15333SOL    HW257219   9.474   2.627   5.951  0.4641 -0.4860 -1.1932
15334SOL     OW57220   7.511   8.497   2.423  0.4680 -0.5958  0.6695
15334SOL    HW157221   7.548   8.584   2.389  2.1066 -1.4601  0.1891
15334SOL    HW257222   7.531   8.488   2.520 -0.6219  0.0232  0.9612
15335SOL     OW57223   6.774   5.500   6.106  0.2338 -0.4739  0.1409
15335SOL    HW157224   6.873   5.508   6.110  0.1570  0.2510  0.6259
15335SOL    HW257225   6.741   5.543   6.021  0.4214 -1.6691 -0.5546
15336SOL     OW57226   9.537   9.821   4.532  0.1975  0.1678 -0.3243
15336SOL    HW157227   9.575   9.753   4.469 -0.8249  0.9598 -1.8358
15336SOL    HW257228   9.444   9.843   4.505  1.1063  3.5660 -1.0643
15337SOL     OW57229   0.542   8.676   3.745 -0.2482  0.2830 -0.3304
15337SOL    HW157230   0.540   8.762   3.694 -0.5442 -0.9012 -2.3416
15337SOL    HW257231   0.609   8.614   3.705 -1.0209 -0.9551  0.2555
15338SOL     OW57232   1.881   4.430   2.828  0.3113  0.5022  0.3689
15338SOL    HW157233   1.854   4.393   2.739  0.4897 -0.4401  0.7106
15338SOL    HW257234   1.809   4.411   2.895  0.7557  0.0779  0.7265
15339SOL     OW57235   7.799   1.615   2.306  0.1608  0.0269 -0.3287
15339SOL    HW157236   7.773   1.525   2.271 -1.7382  0.8996 -1.2132
15339SOL    HW257237   7.770   1.623   2.401  1.3330 -0.6917  0.1017
15340SOL     OW57238   4.710   7.548   1.945  0.3941  0.0188  0.4788
15340SOL    HW157239   4.680   7.530   2.039  1.0631 -0.3517  0.6176
15340SOL    HW257240   4.696   7.466   1.889 -1.3179  0.6640 -0.0859
15341SOL     OW57241   5.527   9.847   1.531 -0.3225 -0.1229  0.3501
15341SOL    HW157242   5.525   9.910   1.609 -1.7815 -0.3050  0.4721
15341SOL    HW257243   5.545   9.898   1.447 -1.4958  0.4686  0.4503
15342SOL     OW57244   0.171   3.091   4.042  0.4494  0.3941  0.5125
15342SOL    HW157245   0.202   3.185   4.032 -1.6099  1.4154  3.0883
15342SOL    HW257246   0.080   3.081   4.000  0.5019 -0.3420  0.5649
15343SOL     OW57247   8.876   9.026   0.355  0.0436  0.1513  0.9296
15343SOL    HW157248   8.786   9.016   0.314  0.7637  1.7795 -1.1263
15343SOL    HW257249   8.899   8.943   0.406 -2.1800 -0.6590  0.6689
15344SOL     OW57250   0.882   0.447   0.032 -0.4874 -0.8583  0.0770
15344SOL    HW157251   0.878   0.543   0.059 -0.4914 -1.5913  2.7742
15344SOL    HW257252   0.833   0.391   0.099 -0.4521 -2.7601 -1.4369
15345SOL     OW57253   4.558   1.159   0.324  0.0506  0.1990  0.1483
15345SOL    HW157254   4.650   1.123   0.342 -0.8692 -2.2545  0.1570
15345SOL    HW257255   4.551   1.253   0.359  2.8255  0.7668 -0.6863
15346SOL     OW57256   4.443   2.837   5.499 -0.1499 -0.3455 -0.6366
15346SOL    HW157257   4.499   2.891   5.562 -0.3925 -1.5622  0.6582
15346SOL    HW257258   4.480   2.744   5.493  0.0405 -0.1583 -2.5318
15347SOL     OW57259   7.306   0.972   1.239 -0.0710 -0.4724 -0.0091
15347SOL    HW157260   7.224   0.956   1.294 -0.2040  0.9442  0.2304
15347SOL    HW257261   7.384   0.990   1.299 -0.0626  0.3476 -0.2557
15348SOL     OW57262   1.678   6.621   0.497  0.3306 -0.1750 -0.2703
15348SOL    HW157263   1.589   6.602   0.455  0.2371 -2.2157  0.8017
15348SOL    HW257264   1.683   6.718   0.521 -2.0536 -0.2591  0.7016
15349SOL     OW57265   1.555   8.860   1.800  0.2239  0.3511 -0.4169
15349SOL    HW157266   1.618   8.935   1.781  0.9527 -0.1302  0.0584
15349SOL    HW257267   1.475   8.867   1.740 -0.5378  2.4649  0.7887
15350SOL     OW57268   0.663   4.628   2.644 -0.3255  0.7426  0.4226
15350SOL    HW157269   0.677   4.724   2.668  2.5663  0.4223  0.2251
15350SOL    HW257270   0.621   4.621   2.554  0.2382  1.8219  0.0796
15351SOL     OW57271   5.476   9.694   4.687 -0.5093  0.1064 -0.2347
15351SOL    HW157272   5.434   9.772   4.640 -0.2969  0.3301 -0.0584
15351SOL    HW257273   5.552   9.726   4.743 -0.3672 -0.2425 -0.2266
15352SOL     OW57274   3.339   3.184   4.670 -0.2654 -0.1743  0.3515
15352SOL    HW157275   3.354   3.170   4.572  3.3626  0.9244  0.6927
15352SOL    HW257276   3.271   3.257   4.682  0.7282  1.0774 -1.3598
15353SOL     OW57277   6.821   5.410   1.012 -0.2402  0.0419  0.6541
15353SOL    HW157278   6.747   5.412   1.080 -1.2915  1.7603 -0.4936
15353SOL    HW257279   6.901   5.457   1.050 -0.7310  0.7586  0.8356
15354SOL     OW57280   6.143   9.780   1.891  0.4225 -0.1435  0.3787
15354SOL    HW157281   6.241   9.785   1.872  0.6024 -2.0719  0.7410
15354SOL    HW257282   6.126   9.711   1.961 -1.2358  0.0002  0.1363
15355SOL     OW57283   9.843   2.978   3.134  0.1267 -0.1089  0.3734
15355SOL    HW157284   9.756   3.024   3.121  0.6147  0.2522 -1.8373
15355SOL    HW257285   9.882   3.005   3.222 -0.1857  2.7485 -0.3214
15356SOL     OW57286   5.173   8.286   3.516 -0.0768 -0.0877  0.1204
15356SOL    HW157287   5.169   8.197   3.471  0.5840 -0.4624  0.7825
15356SOL    HW257288   5.186   8.357   3.447  0.0820 -0.5703 -0.3540
15357SOL     OW57289   9.993   0.265   2.622  0.2253 -0.0438  0.6826
15357SOL    HW157290  10.086   0.262   2.658  0.9214  0.4919 -1.0366
15357SOL    HW257291   9.974   0.181   2.571 -0.2907 -0.2271  1.1738
15358SOL     OW57292   7.521   3.064   6.038  0.3175  0.2109  0.4440
15358SOL    HW157293   7.612   3.022   6.034 -0.4799 -1.3376 -1.8827
15358SOL    HW257294   7.451   2.993   6.036 -1.0084  1.5208 -1.0925
15359SOL     OW57295   6.891   2.500   2.360  0.7531  0.1471  0.5102
15359SOL    HW157296   6.935   2.588   2.341 -2.5128  1.5952 -0.5434
15359SOL    HW257297   6.844   2.504   2.448  1.8108 -1.0700  1.1595
15360SOL     OW57298   9.585   3.190   5.434 -0.2262  0.4023 -0.1306
15360SOL    HW157299   9.563   3.244   5.515  0.7407 -1.3356  1.3341
15360SOL    HW257300   9.579   3.092   5.456  0.5878 -0.0954 -1.9931
15361SOL     OW57301   9.871   4.369   5.543  0.3342 -0.2309 -0.1463
15361SOL    HW157302   9.821   4.284   5.526 -0.1036 -0.2618  1.1959
15361SOL    HW257303   9.946   4.377   5.478 -0.1863 -1.1880 -0.8830
15362SOL     OW57304   0.781   0.435   2.791 -0.0279  0.0711 -0.6710
15362SOL    HW157305   0.877   0.429   2.762  0.1882 -1.2771  0.2575
15362SOL    HW257306   0.725   0.465   2.715  1.2212  1.4806 -1.0547
15363SOL     OW57307   3.309   6.232   5.747  0.5546 -0.0285 -0.2385
15363SOL    HW157308   3.345   6.170   5.817 -2.7405 -2.1445 -0.3405
15363SOL    HW257309   3.355   6.212   5.660  0.7137 -1.1995  0.0956
15364SOL     OW57310   0.237   6.009   6.407  0.6681  0.4526  0.3834
15364SOL    HW157311   0.262   6.017   6.504 -3.2442  2.1306  1.3711
15364SOL    HW257312   0.230   5.912   6.383 -1.5271 -0.0514  2.7696
15365SOL     OW57313   3.614   2.820   5.984  0.1072 -0.2203 -0.0317
15365SOL    HW157314   3.697   2.799   5.932  0.3622 -1.7528  0.9717
15365SOL    HW257315   3.604   2.755   6.059 -2.2897 -0.3674 -0.4381
15366SOL     OW57316   2.899   7.224   1.234  0.2471  0.4150  0.0462
15366SOL    HW157317   2.874   7.310   1.189 -1.2060  0.2776  0.5872
15366SOL    HW257318   2.967   7.176   1.178 -0.8713  0.6695 -1.5583
15367SOL     OW57319   0.169   9.006   5.610 -0.1251  0.5259 -0.5099
15367SOL    HW157320   0.220   9.089   5.631  2.1519 -0.8350 -0.4762
15367SOL    HW257321   0.079   9.011   5.652  1.4933  1.2123  3.0643
15368SOL     OW57322   2.296   1.560   6.723 -0.2826  0.2443  0.2554
15368SOL    HW157323   2.303   1.526   6.629  0.2349 -0.6540  0.6147
15368SOL    HW257324   2.234   1.501   6.775 -0.8950  0.9833  0.3696
15369SOL     OW57325   0.547   5.357   6.654 -0.3973  0.3333 -0.0881
15369SOL    HW157326   0.566   5.434   6.715  0.6157  0.6774 -0.8281
15369SOL    HW257327   0.508   5.392   6.568 -0.7162 -0.0523 -0.1040
15370SOL     OW57328   7.491   1.814   5.380  0.7199 -0.0552 -0.0605
15370SOL    HW157329   7.506   1.911   5.358 -1.8155  0.5516  0.6836
15370SOL    HW257330   7.501   1.800   5.478  0.5664 -0.4500 -0.1013
15371SOL     OW57331   4.199   9.225   1.435 -1.0093  0.0527 -0.7275
15371SOL    HW157332   4.256   9.225   1.353 -0.7873 -1.2682 -0.5806
15371SOL    HW257333   4.112   9.179   1.416  0.1178 -2.6704  0.4848
15372SOL     OW57334   9.973   5.099   0.383 -0.5013  0.1312 -0.8747
15372SOL    HW157335  10.048   5.146   0.337  0.5116 -1.1207 -0.5182
15372SOL    HW257336   9.999   5.004   0.401 -1.3805  0.2490  1.1050
15373SOL     OW57337   8.118   8.178   0.238  0.0473  0.1593 -0.3919
15373SOL    HW157338   8.097   8.106   0.172 -1.2356  1.0457 -0.9611
15373SOL    HW257339   8.208   8.160   0.279 -0.6834 -2.2813  0.2102
15374SOL     OW57340   8.045   7.736   4.994 -0.2802  0.1537  0.4383
15374SOL    HW157341   8.011   7.831   4.998 -2.0226 -0.4084 -0.3689
15374SOL    HW257342   8.091   7.713   5.080  1.7601  2.2986 -0.0239
15375SOL     OW57343   9.115   7.807   5.953 -0.0164 -0.0175  0.2477
15375SOL    HW157344   9.141   7.711   5.968  0.1219 -0.3193 -1.8066
15375SOL    HW257345   9.070   7.842   6.035 -0.0340 -1.8378  1.0460
15376SOL     OW57346   2.573   8.438   0.722  0.1522 -0.1644 -0.3308
15376SOL    HW157347   2.635   8.383   0.666  0.9115 -0.0495  0.4028
15376SOL    HW257348   2.623   8.512   0.766 -0.8230  0.9852 -1.1179
15377SOL     OW57349   0.302   8.434   0.478 -0.3501 -0.2487  0.3411
15377SOL    HW157350   0.317   8.349   0.528 -3.9473 -0.3360  1.3627
15377SOL    HW257351   0.325   8.512   0.537  0.0334 -0.4329  0.4386
15378SOL     OW57352   1.439   6.258   4.800  0.4649  0.1420  0.2295
15378SOL    HW157353   1.474   6.289   4.711 -0.2378 -2.0961 -0.8872
15378SOL    HW257354   1.432   6.335   4.862 -2.6477  2.5457 -2.8749
15379SOL     OW57355   7.235   0.795   0.761 -0.1988 -0.5876  0.7028
15379SOL    HW157356   7.209   0.798   0.858 -1.7569 -1.0894  0.3114
15379SOL    HW257357   7.166   0.843   0.707  2.0399  2.1089  0.0934
15380SOL     OW57358   9.864   0.391   3.300  0.1333 -0.1463  0.5558
15380SOL    HW157359   9.909   0.476   3.274  1.0089 -1.0502 -0.9305
15380SOL    HW257360   9.792   0.410   3.367  0.5207  1.7111  0.4513
15381SOL     OW57361   4.006   4.552   0.239 -0.1944 -0.3880 -0.1550
15381SOL    HW157362   3.937   4.485   0.213  0.3150 -1.2517  0.6428
15381SOL    HW257363   4.074   4.507   0.299 -1.5058  1.5647  2.8970
15382SOL     OW57364   9.448   4.126   1.905 -0.4533 -0.3314 -0.0352
15382SOL    HW157365   9.373   4.062   1.888 -0.9033 -0.3787  2.0122
15382SOL    HW257366   9.416   4.201   1.962  1.2492 -0.7744  1.5482
15383SOL     OW57367   9.174   4.146   0.016 -0.0369 -0.3850  0.1270
15383SOL    HW157368   9.114   4.068   0.001 -1.3763  0.2126  2.1207
15383SOL    HW257369   9.269   4.115   0.025 -0.0056 -1.3408 -3.0135
15384SOL     OW57370   4.922   9.506   1.673 -0.2635  0.0921  0.7582
15384SOL    HW157371   4.868   9.449   1.611 -0.7734 -1.1138  2.2871
15384SOL    HW257372   5.019   9.494   1.652 -0.4945  1.5890 -1.4037
15385SOL     OW57373   3.055   2.455   6.404 -0.5518 -0.3557 -0.1190
15385SOL    HW157374   3.119   2.517   6.359 -0.4554  1.2829  2.2101
15385SOL    HW257375   3.089   2.361   6.395  1.3713  0.3234 -0.2439
15386SOL     OW57376   3.853   6.918   1.741 -0.8318  0.0465  0.4190
15386SOL    HW157377   3.868   6.926   1.642  1.5863  1.7188  0.8850
15386SOL    HW257378   3.894   6.833   1.774  0.9776  0.9058  0.4340
15387SOL     OW57379   1.937   4.186   0.870  0.3127 -0.1308  0.6712
15387SOL    HW157380   1.936   4.269   0.815  2.0305 -0.9406 -0.6018
15387SOL    HW257381   1.858   4.187   0.932 -1.5209  0.9121 -1.5953
15388SOL     OW57382   8.062   3.072   0.222  0.1943  0.2128 -0.5549
15388SOL    HW157383   8.000   3.073   0.143  0.5268  2.7323 -0.8344
15388SOL    HW257384   8.025   3.130   0.294  1.9441  1.3520 -0.5416
15389SOL     OW57385   4.523   4.570   0.684 -0.1864  0.3308 -0.3156
15389SOL    HW157386   4.453   4.500   0.700  0.3759 -0.1757 -0.0182
15389SOL    HW257387   4.534   4.626   0.766 -0.9697  1.0671 -0.7176
15390SOL     OW57388   2.509   3.434   1.134 -0.2054 -0.4360 -0.2383
15390SOL    HW157389   2.423   3.464   1.093  0.0066  0.8024  0.1867
15390SOL    HW257390   2.513   3.334   1.135 -0.8761 -0.4915 -1.8151
15391SOL     OW57391   4.910   0.779   5.287  0.0460 -0.4239  0.4098
15391SOL    HW157392   4.933   0.873   5.310  0.3351 -0.6736  1.1467
15391SOL    HW257393   4.952   0.717   5.353 -0.7083 -1.0273  0.3322
15392SOL     OW57394   2.935   1.140   5.932  0.8264 -0.4644 -0.1118
15392SOL    HW157395   2.964   1.225   5.889  1.0809 -0.5206 -0.0539
15392SOL    HW257396   3.014   1.078   5.940  1.0762  0.0309  1.5698
15393SOL     OW57397   9.861   8.533   5.665  0.3395  0.0893  0.1755
15393SOL    HW157398   9.921   8.571   5.595 -0.6901  0.9816 -0.2320
15393SOL    HW257399   9.859   8.594   5.744  0.9590 -0.5721  0.7060
15394SOL     OW57400   1.202   5.922   5.558  0.8670 -0.0363 -0.7416
15394SOL    HW157401   1.214   5.881   5.648 -0.0113  0.7376 -0.2752
15394SOL    HW257402   1.200   6.022   5.566  2.9721  0.1369 -1.8700
15395SOL     OW57403   3.960   3.088   0.501 -0.3676 -0.1035  0.2568
15395SOL    HW157404   3.927   3.012   0.557 -0.8325 -0.1136 -0.0246
15395SOL    HW257405   3.944   3.174   0.550  1.9339 -0.2989  1.4286
15396SOL     OW57406   0.308   1.069   1.817  0.4116  0.2523  0.3807
15396SOL    HW157407   0.376   1.142   1.823 -0.7425  1.4288 -0.6397
15396SOL    HW257408   0.338   1.001   1.749  1.3465 -0.1112  1.1323
15397SOL     OW57409   1.312   9.393   2.579  0.5391  0.3880  0.8919
15397SOL    HW157410   1.379   9.464   2.598  1.2636  0.3390 -1.3628
15397SOL    HW257411   1.234   9.432   2.531  0.8202 -0.2845 -0.1206
15398SOL     OW57412   9.425   0.096   4.669 -0.3357  0.3649  0.0213
15398SOL    HW157413   9.402   0.139   4.582  1.3415  1.0748 -0.0958
15398SOL    HW257414   9.513   0.049   4.660 -0.3740  0.0665  1.2050
15399SOL     OW57415   1.336   0.551   2.635  0.2689 -0.5259  0.6641
15399SOL    HW157416   1.381   0.638   2.658  0.1627 -0.5719  1.0654
15399SOL    HW257417   1.340   0.491   2.715 -2.0101  0.1099  1.3077
15400SOL     OW57418   2.166   8.672   6.735 -0.5066  0.5533 -0.3883
15400SOL    HW157419   2.176   8.602   6.805  1.8734  0.3507 -0.9028
15400SOL    HW257420   2.089   8.732   6.759 -0.0563  0.1947  2.1415
15401SOL     OW57421   2.528   9.922   5.049  0.7618  0.3164 -0.0071
15401SOL    HW157422   2.505   9.920   5.146 -0.7868  1.1065 -0.3408
15401SOL    HW257423   2.541   9.829   5.016  1.0293  0.0311  0.8820
15402SOL     OW57424   0.711   3.316   4.855 -0.3316 -0.2392 -0.1009
15402SOL    HW157425   0.619   3.279   4.848 -0.9033  1.2165 -0.4642
15402SOL    HW257426   0.706   3.413   4.880  0.9260  0.9050 -3.8543
15403SOL     OW57427   4.567   3.423   4.751 -0.0062  0.0324  0.1337
15403SOL    HW157428   4.569   3.409   4.850  1.1178  0.2507  0.1506
15403SOL    HW257429   4.631   3.361   4.707 -1.0667 -0.5955 -0.5354
15404SOL     OW57430   8.119   3.310   1.473  0.1342  0.0575  0.1059
15404SOL    HW157431   8.204   3.260   1.489 -0.5829 -2.2808 -2.9307
15404SOL    HW257432   8.050   3.282   1.540  0.6387 -0.8282  0.2561
15405SOL     OW57433   7.164   6.669   5.406 -0.6058  0.1510  0.4274
15405SOL    HW157434   7.178   6.763   5.375 -0.6056  0.0441  0.1047
15405SOL    HW257435   7.069   6.641   5.388 -0.0045 -0.6860 -1.5474
15406SOL     OW57436   9.117   8.957   5.172  0.4137  0.2389  0.2737
15406SOL    HW157437   9.184   8.960   5.097 -0.1963 -0.7480 -0.3220
15406SOL    HW257438   9.159   8.917   5.253  1.0632  1.2678  0.4580
15407SOL     OW57439   6.312   0.193   5.485  0.1744  0.4829  0.0288
15407SOL    HW157440   6.293   0.095   5.479  0.0294  0.5375 -0.4383
15407SOL    HW257441   6.226   0.244   5.488  0.2434  0.5290  1.5630
15408SOL     OW57442   8.366   3.000   2.944 -0.1137  0.7253 -0.1959
15408SOL    HW157443   8.382   2.993   2.845 -1.6176  0.2642 -0.4094
15408SOL    HW257444   8.454   3.001   2.991  0.5778 -1.7965 -1.3477
15409SOL     OW57445   0.308   4.228   2.173 -0.3834  0.2138  0.4730
15409SOL    HW157446   0.299   4.163   2.248 -2.6339 -1.3602 -1.0799
15409SOL    HW257447   0.229   4.219   2.112  1.6668  1.0421 -2.3883
15410SOL     OW57448   1.130   4.487   2.072 -0.9053 -0.2590 -0.3204
15410SOL    HW157449   1.038   4.510   2.105 -1.1353 -3.2178  1.2892
15410SOL    HW257450   1.198   4.536   2.127 -1.4263 -1.6917  1.6549
15411SOL     OW57451   0.076   4.041   3.972  0.0508 -0.4975  0.1591
15411SOL    HW157452   0.041   3.952   3.942 -0.6702 -0.3613  0.5970
15411SOL    HW257453   0.119   4.032   4.062 -0.3992 -0.3128  0.3900
15412SOL     OW57454   3.715   0.613   2.961 -0.1123 -0.5553 -0.8881
15412SOL    HW157455   3.772   0.569   3.030  1.0415  0.0019 -1.4587
15412SOL    HW257456   3.715   0.712   2.976 -2.0522 -0.6643 -0.0774
15413SOL     OW57457   7.874   0.561   3.479 -0.3107 -0.0889  0.3072
15413SOL    HW157458   7.788   0.523   3.514 -1.0304  0.2282 -1.0696
15413SOL    HW257459   7.883   0.656   3.510 -1.2706  0.4075 -0.8599
15414SOL     OW57460   7.170   9.534   3.971 -0.0581  0.1279 -0.2180
15414SOL    HW157461   7.248   9.579   3.927  2.2929 -2.2664  1.3927
15414SOL    HW257462   7.146   9.451   3.920 -0.6815  0.1140  0.0837
15415SOL     OW57463   9.959   7.410   0.179 -0.2309 -0.6162  0.4752
15415SOL    HW157464   9.904   7.386   0.259 -1.4290  0.4352 -0.0158
15415SOL    HW257465  10.040   7.460   0.209 -0.3756 -0.7419  1.0887
15416SOL     OW57466   9.172   0.095   0.320  0.2802  0.0717 -0.3350
15416SOL    HW157467   9.141   0.005   0.291  0.8109 -0.1166 -0.3323
15416SOL    HW257468   9.094   0.155   0.334 -0.0102 -0.0305 -1.5092
15417SOL     OW57469   8.200   7.654   5.684 -0.1162 -0.2690  0.4597
15417SOL    HW157470   8.198   7.753   5.669 -0.5085 -0.2794  0.4389
15417SOL    HW257471   8.139   7.609   5.618  0.0651 -0.5260  0.4653
15418SOL     OW57472   6.939   2.918   3.565 -0.1741 -0.4974 -0.6778
15418SOL    HW157473   6.958   2.895   3.660 -0.8192  0.6489 -0.2556
15418SOL    HW257474   6.970   3.011   3.546 -0.4096 -0.5759 -1.4778
15419SOL     OW57475   9.412   6.429   6.145 -0.0199 -0.1714 -0.3762
15419SOL    HW157476   9.313   6.425   6.158  0.0156 -1.4941 -0.3958
15419SOL    HW257477   9.434   6.398   6.052  0.4247 -0.1490 -0.2771
15420SOL     OW57478   1.672   6.598   4.903  0.1186  0.4238 -0.2544
15420SOL    HW157479   1.697   6.656   4.981  0.9973 -0.9671  0.5151
15420SOL    HW257480   1.574   6.578   4.907 -0.1815  1.7671 -0.4810
15421SOL     OW57481   6.911   8.203   3.098 -0.5354  0.0109  1.0537
15421SOL    HW157482   6.878   8.286   3.054  2.4955 -0.0885 -1.6503
15421SOL    HW257483   6.861   8.124   3.062 -0.7016  0.2974  0.6527
15422SOL     OW57484   8.671   5.623   0.005  0.3082 -0.6831  0.4751
15422SOL    HW157485   8.678   5.713  -0.040 -1.1794 -0.9183 -0.2396
15422SOL    HW257486   8.697   5.632   0.101 -0.3830  0.6292  0.5493
15423SOL     OW57487   1.635   8.593   1.824  0.1854  0.0553 -0.1701
15423SOL    HW157488   1.609   8.688   1.813 -0.6989 -0.3065 -1.2422
15423SOL    HW257489   1.730   8.581   1.794  0.2826  0.5779 -0.0745
15424SOL     OW57490   7.682   2.049   5.761 -0.1435  0.0351 -0.0323
15424SOL    HW157491   7.739   2.012   5.835 -2.0280 -0.0392  1.4080
15424SOL    HW257492   7.660   2.144   5.779  0.0261  0.2434 -0.8927
15425SOL     OW57493   2.805   7.410   5.775 -0.2452 -0.5327 -0.2907
15425SOL    HW157494   2.837   7.479   5.840  3.5106  1.0567 -3.6159
15425SOL    HW257495   2.847   7.322   5.797 -0.9740 -0.5763  0.9265
15426SOL     OW57496   9.544   1.359   3.308 -0.4824  0.1771 -0.1848
15426SOL    HW157497   9.515   1.389   3.217  1.0086  0.5070 -0.5720
15426SOL    HW257498   9.490   1.407   3.377 -1.2014  0.3862 -0.8759
15427SOL     OW57499   5.305   1.532   2.972  0.0052  0.7902  0.1979
15427SOL    HW157500   5.209   1.540   2.946 -0.1905 -0.5896  0.4767
15427SOL    HW257501   5.329   1.606   3.035 -1.0425  0.7756  0.6232
15428SOL     OW57502   2.047   8.395   1.313 -0.5540  0.0780  0.2219
15428SOL    HW157503   2.106   8.422   1.390  0.6257 -2.8886  0.4222
15428SOL    HW257504   2.104   8.383   1.232 -0.8677 -2.6249  0.3670
15429SOL     OW57505   2.368   8.739   0.328  0.0093  0.5249 -0.3024
15429SOL    HW157506   2.304   8.701   0.260  1.9393  0.1676 -1.9654
15429SOL    HW257507   2.376   8.675   0.405 -2.2160  0.9466  0.3185
15430SOL     OW57508   4.149   2.399   2.884  0.0057  0.6085  0.1320
15430SOL    HW157509   4.198   2.444   2.810  1.6067 -0.6927  0.3613
15430SOL    HW257510   4.123   2.306   2.857 -2.9791  1.4838 -0.2209
15431SOL     OW57511   1.187   1.602   2.596  0.3982 -0.2941  0.2939
15431SOL    HW157512   1.276   1.604   2.644  0.2369 -0.7141  0.6215
15431SOL    HW257513   1.187   1.670   2.523  0.6910  0.2837  0.8265
15432SOL     OW57514   1.137   0.742   5.656  0.0147 -0.3650  0.1830
15432SOL    HW157515   1.230   0.777   5.665 -0.3268  0.7014 -0.3309
15432SOL    HW257516   1.080   0.809   5.607 -1.4357 -0.2859  1.9187
15433SOL     OW57517   1.847   2.327   5.073  0.2383 -0.4728 -0.0563
15433SOL    HW157518   1.781   2.394   5.040  2.0111  0.8971 -0.9006
15433SOL    HW257519   1.798   2.250   5.114 -1.8886  0.1037 -1.4157
15434SOL     OW57520   4.084   4.259   4.189  0.3829  0.4300 -0.0061
15434SOL    HW157521   4.167   4.316   4.186  1.8233 -1.5248  1.3156
15434SOL    HW257522   4.109   4.163   4.178 -1.6292 -0.2625  1.1607
15435SOL     OW57523   8.738   1.571   1.006 -0.4714 -0.1485 -0.3808
15435SOL    HW157524   8.749   1.634   0.930 -0.3604 -0.8386 -0.9396
15435SOL    HW257525   8.703   1.621   1.086 -0.1546  0.6611 -0.7394
15436SOL     OW57526   2.956   1.498   0.317 -0.1635  0.5215 -0.1218
15436SOL    HW157527   2.894   1.503   0.395  3.5456  0.0138  2.9604
15436SOL    HW257528   3.004   1.410   0.317 -0.3242  0.3594 -3.2158
15437SOL     OW57529   8.707   4.549   3.112  0.0218 -0.0401  0.1965
15437SOL    HW157530   8.706   4.621   3.042 -0.0565 -0.2552 -0.0229
15437SOL    HW257531   8.684   4.590   3.201 -0.8029  0.0724 -0.0630
15438SOL     OW57532   4.429   9.445   6.583  0.3024  0.1559  0.1859
15438SOL    HW157533   4.418   9.506   6.504  1.7327  0.0733 -0.0851
15438SOL    HW257534   4.503   9.480   6.641  0.2384 -0.5970  0.7180
15439SOL     OW57535   1.145   8.403   6.114 -0.4418  0.2844 -0.1875
15439SOL    HW157536   1.167   8.422   6.018 -2.6428  0.8749 -0.6096
15439SOL    HW257537   1.099   8.314   6.121 -2.7876  1.4449 -0.0996
15440SOL     OW57538   4.992   5.623   1.728  0.1976  0.2620  0.1426
15440SOL    HW157539   5.075   5.581   1.764  0.6853 -0.1840 -1.4624
15440SOL    HW257540   4.988   5.719   1.756  0.8515  0.0844  0.8773
15441SOL     OW57541   7.467   2.688   0.512 -0.2620  0.7021  0.8438
15441SOL    HW157542   7.463   2.661   0.416  0.4766  1.9848  0.4488
15441SOL    HW257543   7.436   2.612   0.569 -1.9271  0.3499 -0.4703
15442SOL     OW57544   4.883   0.762   5.925  0.4522  0.2343 -0.3007
15442SOL    HW157545   4.938   0.683   5.951 -0.8333 -0.7448 -0.4877
15442SOL    HW257546   4.886   0.774   5.825 -0.1665 -0.1953 -0.3719
15443SOL     OW57547   0.590   7.024   4.920 -0.0542 -0.2975 -0.1402
15443SOL    HW157548   0.523   7.098   4.925  0.4320  0.2236 -1.3037
15443SOL    HW257549   0.545   6.942   4.885 -0.0946  0.0410 -0.8803
15444SOL     OW57550   2.474   3.465   3.276  0.7825 -0.1657  0.0803
15444SOL    HW157551   2.562   3.469   3.229  1.4559 -2.0404  1.0873
15444SOL    HW257552   2.461   3.372   3.313 -2.0729 -0.2105 -0.9237
15445SOL     OW57553   2.670   2.667   0.941  0.1576 -0.3663 -0.0713
15445SOL    HW157554   2.623   2.629   1.021  1.9937  0.5868  1.5107
15445SOL    HW257555   2.666   2.601   0.865 -0.2750 -1.9640  1.3021
15446SOL     OW57556   8.124   6.360   2.111 -0.3350  0.2319  0.6637
15446SOL    HW157557   8.110   6.411   2.196 -1.6877 -0.7000  1.0188
15446SOL    HW257558   8.180   6.414   2.048 -0.3683  1.4473  1.6625
15447SOL     OW57559   2.995   8.697   1.747 -0.2229  0.3536 -0.4029
15447SOL    HW157560   3.068   8.631   1.763 -3.0312 -2.6146  0.6466
15447SOL    HW257561   2.968   8.693   1.650 -1.1206 -0.8999 -0.1201
15448SOL     OW57562   4.718   9.495   2.755  0.0900 -0.1886 -0.4531
15448SOL    HW157563   4.671   9.410   2.776 -0.1050 -0.5532 -2.2951
15448SOL    HW257564   4.695   9.525   2.662  0.1769  1.8634  0.1492
15449SOL     OW57565   0.866   8.695   3.507  0.2277  0.0709 -0.1136
15449SOL    HW157566   0.852   8.705   3.409 -0.2107  0.9599  0.0291
15449SOL    HW257567   0.817   8.614   3.540  0.1357 -0.0612 -0.5742
15450SOL     OW57568   3.806   1.871   4.401 -0.5437  0.4787  0.4653
15450SOL    HW157569   3.787   1.793   4.342  0.7563  0.6994 -0.2602
15450SOL    HW257570   3.764   1.953   4.363  1.6885  0.9514 -1.0955
15451SOL     OW57571   5.373   0.618   3.544  0.0190  0.1758  0.0858
15451SOL    HW157572   5.355   0.538   3.486  0.0445  0.8786 -0.9093
15451SOL    HW257573   5.470   0.620   3.567  0.1266  0.2245 -0.3568
15452SOL     OW57574   8.411   0.218   6.741  0.0321 -0.3064  0.3853
15452SOL    HW157575   8.413   0.146   6.811 -0.3019 -0.6493  0.0426
15452SOL    HW257576   8.403   0.176   6.650  1.1801  0.1060  0.0815
15453SOL     OW57577   1.275   9.262   4.598  0.5142 -0.0468  0.1219
15453SOL    HW157578   1.253   9.281   4.503  3.1828 -0.7510 -0.6808
15453SOL    HW257579   1.240   9.172   4.623 -0.3138  0.1974 -0.1625
15454SOL     OW57580   8.590   3.060   5.630  0.5899  0.1671 -0.2701
15454SOL    HW157581   8.641   3.135   5.588  1.0340 -0.5655 -1.0686
15454SOL    HW257582   8.650   2.980   5.639 -0.1385 -0.3859 -0.2850
15455SOL     OW57583   9.323   8.479   1.435  0.0010 -0.2261 -0.1941
15455SOL    HW157584   9.225   8.479   1.456 -0.2340  2.9144 -1.0807
15455SOL    HW257585   9.346   8.396   1.385 -2.5059 -0.3069 -1.2794
15456SOL     OW57586   8.354   5.872   2.565 -0.2144 -0.3594 -0.5486
15456SOL    HW157587   8.361   5.789   2.509 -1.3697 -1.5733  1.0811
15456SOL    HW257588   8.270   5.869   2.619  0.4747  1.1836  0.6285
15457SOL     OW57589   7.082   2.406   3.046 -0.4761  0.2024  0.1105
15457SOL    HW157590   6.993   2.442   3.021 -1.5601 -0.4067  2.8834
15457SOL    HW257591   7.142   2.480   3.074 -1.4552  0.2892  2.0960
15458SOL     OW57592   4.288   8.460   0.874 -0.4871  0.0254  0.0785
15458SOL    HW157593   4.222   8.385   0.879  0.3551 -0.7688 -0.4502
15458SOL    HW257594   4.303   8.485   0.778  0.8241 -0.5725  0.1164
15459SOL     OW57595   4.398   5.312   2.240 -0.1842  0.2766  0.3189
15459SOL    HW157596   4.314   5.361   2.216 -1.6954 -2.3858 -0.0299
15459SOL    HW257597   4.449   5.292   2.156  0.3747  1.1598  0.4496
15460SOL     OW57598   1.495   4.818   1.560  0.2264  0.0288  0.0661
15460SOL    HW157599   1.545   4.905   1.555  1.5226 -0.7838 -1.5765
15460SOL    HW257600   1.558   4.745   1.585 -0.3278 -0.8656 -1.1060
15461SOL     OW57601   1.736   1.611   0.372 -0.3141  0.8287 -0.4689
15461SOL    HW157602   1.656   1.644   0.321  0.4590  1.8078 -1.0769
15461SOL    HW257603   1.819   1.641   0.325  0.4113  0.0995  0.3420
15462SOL     OW57604   1.026   6.969   6.549 -0.7652  0.4264  0.1994
15462SOL    HW157605   1.001   6.873   6.542  0.6496  0.1298 -1.2361
15462SOL    HW257606   1.116   6.978   6.590  0.1232  0.9677 -1.7849
15463SOL     OW57607   8.051   5.143   6.698 -0.3148 -0.7640  0.0966
15463SOL    HW157608   8.119   5.092   6.750 -0.0802  1.0371  1.5854
15463SOL    HW257609   8.015   5.085   6.625  2.1579 -2.0344 -0.1594
15464SOL     OW57610   1.428   9.250   2.369 -0.1069 -0.1587  0.0009
15464SOL    HW157611   1.418   9.291   2.460  0.5041 -1.2357  0.5605
15464SOL    HW257612   1.516   9.276   2.330 -0.1094 -0.1909 -0.0269
15465SOL     OW57613   4.227   7.614   2.415  0.1958 -0.4567 -0.0624
15465SOL    HW157614   4.282   7.586   2.337 -0.5752 -2.2301  0.0072
15465SOL    HW257615   4.181   7.534   2.454 -0.4025  0.5947  1.4471
15466SOL     OW57616   0.306   2.768   5.406  0.4010  0.5403 -0.0102
15466SOL    HW157617   0.347   2.791   5.494  0.7808  3.1409 -0.8438
15466SOL    HW257618   0.375   2.726   5.347  0.4418 -0.1286  0.5034
15467SOL     OW57619   3.349   5.880   5.882  0.3169 -0.2144 -0.2337
15467SOL    HW157620   3.284   5.923   5.945  1.6742  0.1309  0.9694
15467SOL    HW257621   3.310   5.796   5.846 -2.2353  1.7405 -2.2875
15468SOL     OW57622   3.543   8.986   5.481  0.8670  0.4356 -0.5196
15468SOL    HW157623   3.465   9.036   5.519 -0.4553 -3.5415  2.4048
15468SOL    HW257624   3.540   8.991   5.381 -1.5091  2.7176 -0.4011
15469SOL     OW57625   7.847   4.345   3.908  0.3190  0.8230  0.0036
15469SOL    HW157626   7.908   4.272   3.937 -0.1913  0.5370  0.3706
15469SOL    HW257627   7.774   4.357   3.975 -0.7395  0.3055 -1.0134
15470SOL     OW57628   1.734   9.481   0.789  0.3074  0.6964  0.4826
15470SOL    HW157629   1.665   9.435   0.846  0.3177  1.1872  0.8932
15470SOL    HW257630   1.753   9.424   0.709 -1.6905  1.2697 -0.4295
15471SOL     OW57631   6.377   1.685   4.695  0.4170 -0.7433 -0.2168
15471SOL    HW157632   6.412   1.628   4.620  0.0638 -0.2149 -0.7889
15471SOL    HW257633   6.294   1.732   4.665 -0.0012 -0.9153  0.6766
15472SOL     OW57634   8.158   9.392   3.094  0.5300  0.0601  0.2113
15472SOL    HW157635   8.150   9.451   3.014  2.0505 -0.8629 -0.6351
15472SOL    HW257636   8.253   9.363   3.106 -0.1010 -1.8690  0.8681
15473SOL     OW57637   1.257   9.997   1.602 -0.1779 -0.1638 -0.0828
15473SOL    HW157638   1.286   9.909   1.565 -1.9905 -1.1316  0.7601
15473SOL    HW257639   1.236  10.060   1.527 -1.7194 -1.4080 -0.7163
15474SOL     OW57640   1.966   6.931   0.656 -0.2691 -0.0250  0.3223
15474SOL    HW157641   1.992   7.017   0.697  0.6656  0.0355 -0.3761
15474SOL    HW257642   2.038   6.863   0.671  0.0062 -0.0537 -1.0149
15475SOL     OW57643   0.228   5.464   0.023  0.2190  0.5165  0.1958
15475SOL    HW157644   0.150   5.437  -0.033  0.4363 -1.5264  0.8353
15475SOL    HW257645   0.199   5.534   0.089 -1.3743 -1.0184  1.1858
15476SOL     OW57646   0.789   6.495   0.933  0.3192 -0.6511 -0.2331
15476SOL    HW157647   0.758   6.512   1.026  0.8116 -2.8410  0.3434
15476SOL    HW257648   0.856   6.421   0.932 -0.2990 -1.2302 -2.4135
15477SOL     OW57649   3.258   7.646   3.228 -0.3334 -0.0690 -0.1180
15477SOL    HW157650   3.207   7.561   3.228 -1.0060  0.3326  0.2190
15477SOL    HW257651   3.252   7.690   3.139 -1.7399  0.6690  0.3319
15478SOL     OW57652   8.452   3.415   4.728 -0.1036  0.4057  0.2815
15478SOL    HW157653   8.353   3.407   4.719  0.0435 -0.9691 -0.2672
15478SOL    HW257654   8.482   3.502   4.690 -0.9553  0.2281 -0.8269
15479SOL     OW57655   6.177   9.621   4.249  0.1620  0.0056 -0.3813
15479SOL    HW157656   6.143   9.656   4.336 -0.4109 -0.8182 -0.2642
15479SOL    HW257657   6.100   9.590   4.194  0.4240  1.6800 -1.7051
15480SOL     OW57658   0.496   0.059   2.034 -0.0399  0.3844 -0.5925
15480SOL    HW157659   0.592   0.085   2.031 -0.5621  2.4607 -0.1468
15480SOL    HW257660   0.487  -0.039   2.018  2.2339 -0.0411  0.6161
15481SOL     OW57661   7.809   7.699   5.676  0.2108 -0.1381 -0.2842
15481SOL    HW157662   7.797   7.796   5.697  0.5924 -0.0471 -0.4909
15481SOL    HW257663   7.719   7.657   5.661 -0.0096 -0.0133  0.6653
15482SOL     OW57664   8.172   4.608   0.050 -0.2578  0.3563 -0.0484
15482SOL    HW157665   8.249   4.670   0.057  1.0408 -1.3103  0.7233
15482SOL    HW257666   8.133   4.592   0.141  0.1149 -0.8057 -0.0803
15483SOL     OW57667   1.051   0.404   2.732  0.9072 -0.1499 -0.4094
15483SOL    HW157668   1.084   0.469   2.802  0.5014 -1.8518  1.3973
15483SOL    HW257669   1.066   0.311   2.764 -1.1331 -0.9580 -1.7512
15484SOL     OW57670   1.909   9.736   2.259 -0.4051 -0.3644 -0.1473
15484SOL    HW157671   1.953   9.825   2.267  1.9027 -1.5141  0.4955
15484SOL    HW257672   1.903   9.710   2.162 -0.0064 -0.0523 -0.2554
15485SOL     OW57673   0.873   2.738   3.380  0.2404 -0.0500  0.1150
15485SOL    HW157674   0.800   2.790   3.337 -0.7373 -0.6039  1.0975
15485SOL    HW257675   0.869   2.643   3.348 -0.0994 -0.3147  0.9384
15486SOL     OW57676   1.224   0.952   1.307 -0.2235  0.2417  0.1471
15486SOL    HW157677   1.321   0.933   1.317 -0.2543  1.0902  2.3132
15486SOL    HW257678   1.181   0.880   1.252  1.1869 -1.4167  1.1709
15487SOL     OW57679   5.293   7.622   3.286  0.4751  0.0744 -0.0417
15487SOL    HW157680   5.258   7.673   3.207 -1.8705 -1.2149  0.1124
15487SOL    HW257681   5.354   7.681   3.339  1.0823  1.3624 -2.1180
15488SOL     OW57682   7.543   9.872   4.459 -0.6098  0.2688  0.0250
15488SOL    HW157683   7.494   9.805   4.515 -0.4801  1.3815  1.4868
15488SOL    HW257684   7.526   9.964   4.494  0.3174  0.9019 -1.1354
15489SOL     OW57685   0.479   2.438   4.278 -0.1614 -0.4527 -0.2426
15489SOL    HW157686   0.379   2.440   4.283 -0.1654 -1.2788  0.1603
15489SOL    HW257687   0.517   2.502   4.345 -0.4179 -0.9251  0.3666
15490SOL     OW57688   8.813   1.613   1.622 -0.2363  0.4336  0.5194
15490SOL    HW157689   8.740   1.674   1.654 -0.0610 -0.1950  2.1624
15490SOL    HW257690   8.896   1.628   1.676  0.3377 -0.0394 -0.2155
15491SOL     OW57691   2.128   8.546   4.830  0.0594 -0.0710  0.2166
15491SOL    HW157692   2.043   8.512   4.789  0.5936  2.0627 -2.8064
15491SOL    HW257693   2.118   8.642   4.853  1.3318 -0.0581  0.7333
15492SOL     OW57694   3.221   5.462   2.855  0.3721 -0.2797 -0.0711
15492SOL    HW157695   3.254   5.412   2.935  0.0274  0.5356  0.5879
15492SOL    HW257696   3.275   5.435   2.774  2.7573  1.0952  0.9871
15493SOL     OW57697   1.846   7.347   0.993 -0.2293  0.5838  0.2008
15493SOL    HW157698   1.854   7.446   0.979  2.0592  0.4188  0.0791
15493SOL    HW257699   1.811   7.329   1.085  0.9126  1.5128  0.8399
15494SOL     OW57700   9.626   6.155   2.035  0.4850  0.5275  0.0026
15494SOL    HW157701   9.712   6.140   2.082 -0.6087  2.8354  2.8775
15494SOL    HW257702   9.575   6.069   2.028  1.1564 -0.0409  2.0345
15495SOL     OW57703   0.325   4.117   5.170  0.6138 -0.3398  0.2514
15495SOL    HW157704   0.346   4.061   5.251  1.1735  0.3628  0.6079
15495SOL    HW257705   0.405   4.119   5.110  0.7003  0.3059  0.3821
15496SOL     OW57706   0.152   9.134   1.090  0.6105  0.0754  0.3209
15496SOL    HW157707   0.140   9.228   1.121 -0.7335 -0.2078  0.7114
15496SOL    HW257708   0.091   9.116   1.013  2.4588  0.1636 -1.1740
15497SOL     OW57709   7.298   3.322   2.446 -1.0419 -0.4179 -0.1237
15497SOL    HW157710   7.232   3.269   2.393  0.4517  0.8727 -3.4001
15497SOL    HW257711   7.391   3.291   2.425 -0.3333  1.2608  0.4038
15498SOL     OW57712   7.019   1.727   4.330  0.2795  0.3562 -0.6834
15498SOL    HW157713   7.002   1.735   4.232  1.1981 -0.0843 -0.8746
15498SOL    HW257714   7.009   1.818   4.372 -0.0050  0.5668 -1.1906
15499SOL     OW57715   1.634   0.657   0.970  0.0419  0.5738  0.3762
15499SOL    HW157716   1.677   0.567   0.976 -1.2667 -0.0156  1.4050
15499SOL    HW257717   1.704   0.727   0.959  1.1032 -0.5399 -0.0752
15500SOL     OW57718   8.317   4.875   1.732  0.1911 -0.1788 -0.4593
15500SOL    HW157719   8.275   4.918   1.812 -0.0295 -0.8398 -0.2209
15500SOL    HW257720   8.305   4.935   1.652  1.2730  0.9476  0.1939
15501SOL     OW57721   1.745   6.033   0.178 -0.6054 -0.3749 -0.1440
15501SOL    HW157722   1.731   6.094   0.100  0.2481 -1.5857 -1.2719
15501SOL    HW257723   1.838   6.045   0.213 -0.4607 -0.9481 -0.3220
15502SOL     OW57724   0.068   1.271   3.099 -0.0675 -0.2980 -0.2815
15502SOL    HW157725  -0.028   1.289   3.122  0.4791  1.5335  0.6331
15502SOL    HW257726   0.101   1.195   3.155 -0.7201 -0.3062  0.1070
15503SOL     OW57727   8.187   4.767   3.606  0.3142  0.0687 -0.1356
15503SOL    HW157728   8.286   4.766   3.599  0.4395 -1.8318  1.4858
15503SOL    HW257729   8.159   4.823   3.684  0.1707  0.0385 -0.1647
15504SOL     OW57730   1.502   3.177   0.057 -0.8437 -0.3060  0.3180
15504SOL    HW157731   1.574   3.237   0.021 -1.0958  0.3867  0.9431
15504SOL    HW257732   1.513   3.169   0.157 -0.8301 -1.2860  0.2481
15505SOL     OW57733   4.519   4.842   4.513  0.6465  0.1151  0.4359
15505SOL    HW157734   4.473   4.764   4.556  1.0847 -1.4900 -1.9295
15505SOL    HW257735   4.617   4.839   4.535  0.7129 -0.1628  0.0980
15506SOL     OW57736   8.508   8.661   1.425  0.1008 -0.3895  0.0478
15506SOL    HW157737   8.511   8.696   1.518  0.1551 -0.4389  0.0645
15506SOL    HW257738   8.425   8.694   1.379  0.9676  1.1280 -0.4661
15507SOL     OW57739   8.137   7.577   6.759 -0.5542  0.3080  0.4331
15507SOL    HW157740   8.140   7.650   6.690  1.1432  1.3983  1.6283
15507SOL    HW257741   8.172   7.492   6.719 -2.6383  0.0792 -0.9997
15508SOL     OW57742   3.768   1.498   0.214 -0.3734  0.5245  0.0727
15508SOL    HW157743   3.793   1.405   0.242 -1.3372 -0.0771 -1.0599
15508SOL    HW257744   3.709   1.538   0.284  1.2573  0.8491  1.2945
15509SOL     OW57745   1.614   4.753   3.798  0.2157  0.0686 -0.6890
15509SOL    HW157746   1.542   4.723   3.860 -0.1732  2.3469  0.0195
15509SOL    HW257747   1.658   4.835   3.835  1.5318  0.1144 -2.2962
15510SOL     OW57748   4.789   5.509   1.930  0.4916  0.1683 -0.5535
15510SOL    HW157749   4.844   5.478   1.853 -0.9525 -1.2544 -1.0516
15510SOL    HW257750   4.758   5.603   1.915 -0.0255 -0.2086 -1.8539
15511SOL     OW57751   0.198   6.160   2.011  0.0173  0.1033  0.0024
15511SOL    HW157752   0.288   6.197   1.985  0.2146 -0.2735  0.1431
15511SOL    HW257753   0.156   6.117   1.931  0.3858 -0.5728  0.1697
15512SOL     OW57754   3.921   5.623   2.251 -0.0125 -0.0266  0.3108
15512SOL    HW157755   3.909   5.691   2.323 -2.6098  0.5760 -0.6341
15512SOL    HW257756   3.985   5.658   2.183  1.0576  0.1512  1.3800
15513SOL     OW57757   9.473   2.978   2.190 -0.3128  0.1664 -0.0592
15513SOL    HW157758   9.443   3.072   2.200 -2.3169 -0.5720  1.2488
15513SOL    HW257759   9.411   2.917   2.240  2.1799 -1.6413  1.0013
15514SOL     OW57760   3.335   3.464   0.887  0.4500 -0.2653 -0.5214
15514SOL    HW157761   3.354   3.418   0.800  0.8098  0.7857 -1.0097
15514SOL    HW257762   3.398   3.540   0.898 -0.6453  0.5947 -0.0953
15515SOL     OW57763   4.129   0.557   3.418 -1.0728  0.2752  0.3071
15515SOL    HW157764   4.119   0.642   3.366  1.6831  1.5640  1.7403
15515SOL    HW257765   4.150   0.482   3.355 -0.1515  1.3332 -0.6785
15516SOL     OW57766   4.211   8.057   2.361 -0.0851  0.4477 -0.4563
15516SOL    HW157767   4.232   8.131   2.425  0.4875  0.8331 -1.0755
15516SOL    HW257768   4.216   7.969   2.409 -1.9180  0.8763  0.5594
15517SOL     OW57769   7.415   0.101   5.105  0.0213 -0.5841  0.2469
15517SOL    HW157770   7.456   0.058   5.185  1.6935 -1.2607 -0.9469
15517SOL    HW257771   7.478   0.168   5.066 -0.2776 -1.1000 -1.1791
15518SOL     OW57772   1.754   7.808   3.997  0.3586 -0.0873 -0.0606
15518SOL    HW157773   1.758   7.709   4.005  1.7528 -0.0055  0.3405
15518SOL    HW257774   1.661   7.839   4.018  0.1129 -1.2351  0.6213
15519SOL     OW57775   4.678   3.502   2.422  0.1516  0.4110  0.4960
15519SOL    HW157776   4.701   3.588   2.468  0.4583 -0.1920  1.4784
15519SOL    HW257777   4.682   3.516   2.323 -0.8382  1.8031  0.6394
15520SOL     OW57778   5.026   9.478   4.599  0.1122  0.0234 -0.5933
15520SOL    HW157779   4.940   9.448   4.640  0.7683 -0.5916  0.3380
15520SOL    HW257780   5.019   9.574   4.573 -1.2490 -0.3276 -1.5715
15521SOL     OW57781   4.498   8.189   2.328  0.6093  0.0288  0.6315
15521SOL    HW157782   4.464   8.242   2.404  2.9845  0.0335  1.7466
15521SOL    HW257783   4.441   8.204   2.247 -0.2513  2.2366  1.6369
15522SOL     OW57784   3.133   9.645   4.336 -0.1472 -0.0411  0.2187
15522SOL    HW157785   3.041   9.628   4.370 -1.0105 -0.6040 -2.2785
15522SOL    HW257786   3.183   9.559   4.328  0.1341  0.1117  0.2954
15523SOL     OW57787   4.766   0.308   1.735 -0.3080 -0.1238  0.1821
15523SOL    HW157788   4.695   0.254   1.782  1.1701 -1.7751  0.5657
15523SOL    HW257789   4.854   0.262   1.744  0.2253  0.0584 -3.2826
15524SOL     OW57790   3.440   5.200   0.654 -0.7479  0.4483  0.1542
15524SOL    HW157791   3.440   5.219   0.752  0.3911  1.0911  0.0351
15524SOL    HW257792   3.392   5.274   0.606  0.0325  0.9153  0.0863
15525SOL     OW57793   5.168   9.987   4.634 -0.0145  0.6803  0.2026
15525SOL    HW157794   5.256   9.948   4.606 -1.5730 -1.7906 -1.5528
15525SOL    HW257795   5.146  10.064   4.575  0.3483  0.4476 -0.2436
15526SOL     OW57796   4.135   9.868   1.676 -0.4932 -0.8086 -0.0506
15526SOL    HW157797   4.073   9.896   1.749  1.2358  4.0964 -0.2822
15526SOL    HW257798   4.226   9.853   1.713 -0.4519 -2.1981 -0.6579
15527SOL     OW57799   4.043   1.658   5.731  0.7625  0.2466  0.0573
15527SOL    HW157800   3.995   1.724   5.672 -0.0115 -1.2516 -1.0244
15527SOL    HW257801   4.120   1.619   5.681  1.9198  1.1492  1.1013
15528SOL     OW57802   8.232   7.667   2.727  0.1926  0.3296  0.0008
15528SOL    HW157803   8.221   7.717   2.813  1.5932  1.7606 -0.6113
15528SOL    HW257804   8.168   7.590   2.724 -1.2962  1.4833  1.4147
15529SOL     OW57805   1.636   5.840   3.909 -0.1840  0.1366  0.4924
15529SOL    HW157806   1.602   5.900   3.837 -0.1504 -1.5323 -0.9586
15529SOL    HW257807   1.611   5.877   3.998  0.7774  2.8539 -0.3156
15530SOL     OW57808   3.080   3.064   4.047 -0.4327  0.4165  0.0798
15530SOL    HW157809   3.135   3.017   3.978 -0.3049 -1.6673  1.5601
15530SOL    HW257810   3.002   3.007   4.072  0.0593  0.6769  2.3549
15531SOL     OW57811   8.996   3.937   2.959 -0.2374  0.1334  0.0957
15531SOL    HW157812   8.904   3.941   2.998 -0.7808 -0.7386 -1.0654
15531SOL    HW257813   9.010   3.848   2.915  1.2670  0.1525  0.5083
15532SOL     OW57814   2.336   2.864   5.078 -0.3859  0.0869  0.4505
15532SOL    HW157815   2.398   2.837   5.005  0.7839 -0.3916  1.6052
15532SOL    HW257816   2.334   2.793   5.149  1.5536  2.2776  2.7846
15533SOL     OW57817   2.519   5.908   3.577 -0.7423  0.2820  0.0323
15533SOL    HW157818   2.422   5.886   3.582 -0.3322 -1.5114  0.5937
15533SOL    HW257819   2.570   5.848   3.640  0.7259  1.1293 -0.3245
15534SOL     OW57820   8.512   8.544   6.020  0.2018 -0.0396 -0.4662
15534SOL    HW157821   8.541   8.539   6.115 -1.0263  1.6739  0.0199
15534SOL    HW257822   8.590   8.567   5.962  0.6382  0.4380  0.3056
15535SOL     OW57823   3.203   4.219   0.931  0.1550  0.3376  0.2140
15535SOL    HW157824   3.110   4.231   0.966  0.1819 -0.0708  0.4270
15535SOL    HW257825   3.238   4.307   0.899 -1.3489  0.0094 -2.4778
15536SOL     OW57826   3.305   2.436   3.510  0.0991 -0.6793 -0.8977
15536SOL    HW157827   3.310   2.471   3.416 -0.2138 -0.2096 -0.7433
15536SOL    HW257828   3.240   2.361   3.515  1.3192 -1.7986 -1.3861
15537SOL     OW57829   1.456   1.515   4.635 -0.0198 -0.0214  0.3884
15537SOL    HW157830   1.520   1.456   4.586 -0.3278  0.1646 -0.2326
15537SOL    HW257831   1.409   1.576   4.571 -0.3840  0.2594  0.9132
15538SOL     OW57832   0.268   4.700   6.561 -0.0179  0.1259  0.0109
15538SOL    HW157833   0.223   4.708   6.471 -3.1721  0.5886  1.5535
15538SOL    HW257834   0.248   4.611   6.600 -0.5662  0.7731  1.2239
15539SOL     OW57835   8.475   5.000   6.322  0.2782 -0.9185  0.3640
15539SOL    HW157836   8.400   5.052   6.282  0.7462 -2.1392 -2.1858
15539SOL    HW257837   8.439   4.932   6.385 -0.6169 -0.4032  0.4170
15540SOL     OW57838   3.921   2.163   5.700  0.6403  0.5088  0.2866
15540SOL    HW157839   3.880   2.183   5.611  0.0844 -1.1906  0.1541
15540SOL    HW257840   4.020   2.168   5.693  0.5429  3.1708  0.2617
15541SOL     OW57841   6.615   1.069   6.698  0.1360 -0.3271 -0.4842
15541SOL    HW157842   6.643   1.136   6.629 -0.2521 -0.6530 -0.9603
15541SOL    HW257843   6.525   1.033   6.675  0.4500 -1.1949 -0.3626
15542SOL     OW57844   2.363   9.926   4.382 -0.1090 -0.9405 -0.2065
15542SOL    HW157845   2.283   9.937   4.322 -0.4392  0.2528  0.4485
15542SOL    HW257846   2.440   9.975   4.344  0.0799 -1.3659 -0.3802
15543SOL     OW57847   1.322   4.429   0.653 -0.2766  0.2158 -0.6297
15543SOL    HW157848   1.327   4.352   0.589 -0.5387  1.1696 -1.8140
15543SOL    HW257849   1.388   4.499   0.625  0.7808 -0.0655  1.1110
15544SOL     OW57850   9.840   9.881   5.051  0.5334 -0.4683 -0.0779
15544SOL    HW157851   9.835   9.921   5.143 -0.6532  1.6652 -1.0249
15544SOL    HW257852   9.924   9.911   5.007 -0.2315  0.8102 -0.6926
15545SOL     OW57853   0.726   1.071   4.076  0.4817  0.5168 -0.0513
15545SOL    HW157854   0.677   0.993   4.037  0.2108  0.2501  0.8304
15545SOL    HW257855   0.789   1.108   4.007  1.1240 -0.9073 -0.2455
15546SOL     OW57856   2.652   5.913   6.596 -0.2063  0.1165 -0.0048
15546SOL    HW157857   2.692   5.992   6.550 -0.2542 -0.9253 -1.9359
15546SOL    HW257858   2.684   5.829   6.550 -3.0395 -0.8141 -0.3740
15547SOL     OW57859   3.944   1.974   3.202  0.1703  0.7777 -0.8437
15547SOL    HW157860   3.923   2.050   3.264  1.0231  1.1718 -1.0370
15547SOL    HW257861   3.876   1.901   3.215  2.6363 -0.9571  3.5630
15548SOL     OW57862   2.271   7.428   4.354  0.8017  0.5640 -0.0208
15548SOL    HW157863   2.287   7.408   4.257 -0.5778 -0.5276 -0.0455
15548SOL    HW257864   2.355   7.411   4.406  1.4332  0.7612 -0.9635
15549SOL     OW57865   4.238   5.047   5.806  0.5151  0.3967  0.3138
15549SOL    HW157866   4.225   4.994   5.722 -0.6490  1.6015 -0.2829
15549SOL    HW257867   4.257   4.984   5.882 -0.7300 -0.8783 -0.3911
15550SOL     OW57868   9.332   1.894   4.869  0.3657 -0.1060 -0.2398
15550SOL    HW157869   9.269   1.956   4.917 -0.2901 -1.6430  0.9238
15550SOL    HW257870   9.279   1.829   4.815  1.0545  0.3600 -1.4806
15551SOL     OW57871   4.800   7.636   2.859 -0.2256 -0.4306 -0.0101
15551SOL    HW157872   4.852   7.615   2.941 -2.0014 -0.7137  1.0695
15551SOL    HW257873   4.833   7.579   2.783  1.9759  0.4325  0.2555
15552SOL     OW57874   9.026   2.620   0.234  0.3309 -0.4412  0.3018
15552SOL    HW157875   9.072   2.591   0.318  0.6287  0.1991  0.3703
15552SOL    HW257876   8.934   2.652   0.255  0.5581  0.1256  0.4527
15553SOL     OW57877   2.057   0.660   4.976  0.6623 -0.1362  0.0695
15553SOL    HW157878   2.057   0.643   5.075 -0.2384 -0.6715 -0.0190
15553SOL    HW257879   2.038   0.575   4.928 -0.0827  0.3676 -0.5228
15554SOL     OW57880   3.317   3.215   0.113 -0.4342  0.6139  0.4628
15554SOL    HW157881   3.276   3.269   0.040  0.2277  0.4318 -0.0528
15554SOL    HW257882   3.400   3.261   0.146 -0.7907  0.7497  1.1713
15555SOL     OW57883   3.759   9.097   2.570 -0.0306 -0.0514  0.0183
15555SOL    HW157884   3.846   9.049   2.568  0.1148  0.2194 -0.1462
15555SOL    HW257885   3.699   9.060   2.499 -0.2958 -0.6945  0.5664
15556SOL     OW57886   3.126   6.813   0.707 -0.1952 -0.5774  0.3027
15556SOL    HW157887   3.163   6.889   0.760 -1.7977  0.7391 -0.4280
15556SOL    HW257888   3.190   6.790   0.633 -0.1904  0.7634 -0.1217
15557SOL     OW57889   9.175   6.713   2.288 -0.0172  0.2331  0.3144
15557SOL    HW157890   9.097   6.769   2.314 -0.7792 -0.3687 -0.6768
15557SOL    HW257891   9.203   6.735   2.195  1.1620  0.6251  0.7466
15558SOL     OW57892   1.477   7.229   3.243 -0.1498  0.2184  0.3969
15558SOL    HW157893   1.484   7.212   3.342 -2.3140  0.3899  0.5853
15558SOL    HW257894   1.539   7.303   3.218  2.2003 -1.4066  1.1980
15559SOL     OW57895   9.139   8.168   1.347  0.3090 -0.3379  0.0056
15559SOL    HW157896   9.225   8.203   1.383 -0.1217  0.1117  0.5978
15559SOL    HW257897   9.083   8.131   1.421 -0.5975  0.6338 -0.1831
15560SOL     OW57898   0.844   8.087   5.895 -0.3070  0.0326  0.7959
15560SOL    HW157899   0.876   8.177   5.865  0.5802 -0.6051 -0.1996
15560SOL    HW257900   0.749   8.074   5.866 -0.0044  0.1196 -0.2351
15561SOL     OW57901   0.679   0.045   1.081  0.3568 -0.1098  0.6828
15561SOL    HW157902   0.643   0.126   1.126 -0.5435  0.0792 -0.3641
15561SOL    HW257903   0.677  -0.032   1.145 -0.5615  0.2488  1.0978
15562SOL     OW57904   5.343   1.695   3.217  0.5378  0.7591 -0.7346
15562SOL    HW157905   5.318   1.774   3.274 -0.7891  0.1003 -0.3938
15562SOL    HW257906   5.379   1.623   3.276 -1.9396 -0.3766 -0.5366
15563SOL     OW57907   8.196   7.316   1.643 -0.1888  0.2120  0.1689
15563SOL    HW157908   8.110   7.310   1.593 -1.1059 -0.7604  1.7895
15563SOL    HW257909   8.263   7.254   1.604 -0.6610 -0.0051 -0.2858
15564SOL     OW57910   0.835   4.420   3.740  0.1557 -0.1658  0.5451
15564SOL    HW157911   0.890   4.376   3.668  1.8362  0.3150  1.4921
15564SOL    HW257912   0.835   4.519   3.726 -1.3349 -0.2453 -0.0256
15565SOL     OW57913   2.999   2.854   4.999  0.4313 -0.3268 -0.2028
15565SOL    HW157914   3.083   2.803   4.980  1.7134  2.5431 -2.5421
15565SOL    HW257915   3.016   2.921   5.071 -0.1063 -0.2922 -0.1055
15566SOL     OW57916   3.111   4.967   5.088 -0.4479 -0.8534 -0.6366
15566SOL    HW157917   3.160   4.949   5.173 -2.7443  0.0406  0.9155
15566SOL    HW257918   3.103   5.065   5.074 -2.7043 -0.9537 -0.2780
15567SOL     OW57919   3.912   7.668   2.743  0.7959 -0.0972  0.4286
15567SOL    HW157920   3.825   7.716   2.730 -0.6357 -2.5339  0.6721
15567SOL    HW257921   3.987   7.728   2.717 -1.0502  1.4294 -1.5781
15568SOL     OW57922   8.281   7.368   0.242  0.0245 -0.3511 -0.9333
15568SOL    HW157923   8.191   7.376   0.201  0.1890 -1.5761 -1.5328
15568SOL    HW257924   8.288   7.283   0.294 -0.2752  1.2868  1.9167
15569SOL     OW57925   7.675   6.548   4.883  0.3453 -0.2394  0.4229
15569SOL    HW157926   7.639   6.455   4.880  1.8196 -0.8189  0.1975
15569SOL    HW257927   7.742   6.555   4.957  1.2347  0.2752 -0.4270
15570SOL     OW57928   8.819   8.001   6.327  0.2838 -0.5677  0.0343
15570SOL    HW157929   8.744   7.982   6.264  0.4794  1.1173 -0.7369
15570SOL    HW257930   8.788   7.988   6.421 -0.6010 -1.1080 -0.3291
15571SOL     OW57931   5.759   0.553   0.799 -0.1782  0.0856 -0.0759
15571SOL    HW157932   5.770   0.641   0.753 -1.6799  0.5819  0.4958
15571SOL    HW257933   5.816   0.484   0.754 -1.2814  0.6603 -2.4075
15572SOL     OW57934   0.508   8.882   5.831 -0.3962  0.2075  0.0210
15572SOL    HW157935   0.463   8.857   5.746  0.7521 -0.7986 -0.3068
15572SOL    HW257936   0.536   8.800   5.880  0.7196  0.7934  0.4020
15573SOL     OW57937   8.003   6.518   4.819 -0.3681 -0.0561  0.9109
15573SOL    HW157938   8.029   6.538   4.725  0.1544  0.4978  1.1687
15573SOL    HW257939   7.952   6.432   4.822  1.0381 -0.9401  0.3382
15574SOL     OW57940   9.910   7.160   4.151 -0.6355 -0.0306  0.4848
15574SOL    HW157941   9.965   7.096   4.098 -0.3005  0.5371  0.1440
15574SOL    HW257942   9.816   7.126   4.156 -0.7278  0.0352 -0.6802
15575SOL     OW57943   9.040   3.834   5.244  0.1016 -0.2317 -0.1107
15575SOL    HW157944   8.961   3.782   5.279 -1.2745  2.7625  1.3904
15575SOL    HW257945   9.104   3.852   5.318  1.0618 -0.5863 -0.8409
15576SOL     OW57946   9.722   1.057   0.366 -0.1636  0.0756 -0.1072
15576SOL    HW157947   9.765   1.100   0.445 -2.3892  0.1086  1.1343
15576SOL    HW257948   9.774   1.079   0.284  0.9630  1.8620  1.0521
15577SOL     OW57949   8.468   7.358   1.357  0.2447 -0.4765  0.4566
15577SOL    HW157950   8.475   7.453   1.390 -0.5468 -0.0660 -0.5493
15577SOL    HW257951   8.396   7.352   1.288  0.1222 -1.8692  0.6935
15578SOL     OW57952   3.551   1.639   1.420 -0.2368 -0.3197 -0.1074
15578SOL    HW157953   3.601   1.610   1.502 -0.8715  1.3253  0.8929
15578SOL    HW257954   3.457   1.664   1.446 -1.0590 -1.6897 -1.6762
15579SOL     OW57955   8.626   9.379   5.466  0.3806  0.0441  0.2391
15579SOL    HW157956   8.571   9.401   5.385  0.1102 -1.6282 -0.0538
15579SOL    HW257957   8.565   9.347   5.539  0.4713  2.8042  1.5951
15580SOL     OW57958   9.221   6.352   2.448  0.1667  0.2221 -0.0475
15580SOL    HW157959   9.210   6.390   2.356  1.1288  0.6566  0.0155
15580SOL    HW257960   9.132   6.351   2.494 -0.2120  0.5609 -0.7630
15581SOL     OW57961   0.156   4.128   4.854 -0.2699  0.0104 -0.4215
15581SOL    HW157962   0.073   4.110   4.905  0.7396 -1.6724  0.6833
15581SOL    HW257963   0.190   4.220   4.874 -0.9514  0.0802  0.3918
15582SOL     OW57964   5.340   0.481   1.097 -0.0767 -0.2019  0.3073
15582SOL    HW157965   5.317   0.518   1.007 -1.5943  1.5275  1.3724
15582SOL    HW257966   5.288   0.396   1.113  0.8932 -1.0112 -0.8008
15583SOL     OW57967   7.870   6.824   5.255  0.2019 -0.0363 -0.1614
15583SOL    HW157968   7.861   6.912   5.209 -0.6243  0.2473  0.5186
15583SOL    HW257969   7.823   6.828   5.343  1.2319 -0.7703  0.4253
15584SOL     OW57970   7.400   3.213   2.948  0.5807 -0.0394  0.1562
15584SOL    HW157971   7.302   3.206   2.931  0.5180 -1.3982  1.0114
15584SOL    HW257972   7.438   3.122   2.964  2.1840  0.3778 -1.2072
15585SOL     OW57973   9.988   9.778   0.130 -0.4417  0.4165  0.0468
15585SOL    HW157974  10.056   9.767   0.203 -0.1713 -0.1200 -0.2818
15585SOL    HW257975  10.002   9.865   0.084  1.3430 -0.5735 -1.3604
15586SOL     OW57976   8.023   3.716   5.040  0.2760  0.7525 -0.0544
15586SOL    HW157977   7.949   3.782   5.032 -0.6323 -0.2112  0.2201
15586SOL    HW257978   8.067   3.726   5.130 -0.5368  0.2982  0.4033
15587SOL     OW57979   3.858   4.150   5.511  0.0161 -0.1645 -0.1265
15587SOL    HW157980   3.849   4.103   5.423  0.3506  1.4473 -1.0335
15587SOL    HW257981   3.882   4.083   5.582 -0.6572 -1.5364 -1.1734
15588SOL     OW57982   8.434   7.217   4.377  0.0400  0.0450 -0.4769
15588SOL    HW157983   8.346   7.255   4.406  0.3229  0.8049 -0.6213
15588SOL    HW257984   8.486   7.189   4.458 -0.9232 -1.7490 -0.4467
15589SOL     OW57985   8.859   2.306   5.260  0.0082  0.4238 -0.0732
15589SOL    HW157986   8.830   2.265   5.346  1.2309 -1.7827 -0.6721
15589SOL    HW257987   8.827   2.251   5.183 -0.8966  2.2581 -1.0640
15590SOL     OW57988   2.455   0.499   1.041 -0.0358 -0.3250  0.2049
15590SOL    HW157989   2.505   0.583   1.061 -0.0186 -0.6157  1.4035
15590SOL    HW257990   2.470   0.474   0.945 -0.6088  1.3974 -0.3459
15591SOL     OW57991   5.572   2.460   4.754  0.0040  0.0854  0.1518
15591SOL    HW157992   5.516   2.496   4.829 -2.1452  3.0751 -2.7305
15591SOL    HW257993   5.533   2.373   4.722 -0.7476  0.2399  0.6386
15592SOL     OW57994   8.173   7.793   1.935 -0.3127  0.2446 -0.1251
15592SOL    HW157995   8.215   7.724   1.877 -0.4594  0.0948 -0.0527
15592SOL    HW257996   8.085   7.760   1.969 -0.8403  0.8501 -0.8805
15593SOL     OW57997   8.386   2.488   3.499 -0.5059  0.6082 -0.2794
15593SOL    HW157998   8.394   2.511   3.596  1.2017 -1.1327  0.0349
15593SOL    HW257999   8.316   2.419   3.486  0.5655 -0.5484 -0.0086
15594SOL     OW58000   0.152   3.979   4.246  0.0836  0.0711  0.3463
15594SOL    HW158001   0.193   3.906   4.190 -2.4929 -0.9299 -0.3031
15594SOL    HW258002   0.095   3.939   4.317 -0.5606  1.4365  0.6199
15595SOL     OW58003   9.961   1.571   3.357  0.4256  0.1596  0.8045
15595SOL    HW158004  10.044   1.611   3.318  1.4963 -0.8186  2.0564
15595SOL    HW258005   9.883   1.631   3.336  0.8107 -0.6248 -3.3766
15596SOL     OW58006   5.641   6.299   1.145 -0.6976  0.2087  0.2919
15596SOL    HW158007   5.678   6.211   1.175  1.8182  0.5805 -1.4853
15596SOL    HW258008   5.677   6.372   1.204  0.1091  0.3915 -0.4078
15597SOL     OW58009   9.844   4.321   4.824 -0.2825 -0.7355  0.3921
15597SOL    HW158010   9.867   4.263   4.901 -3.1530 -0.3399  1.6113
15597SOL    HW258011   9.896   4.407   4.829  0.6073 -1.3165  1.0654
15598SOL     OW58012   0.721   0.353   2.502  0.0714 -0.4232 -0.2646
15598SOL    HW158013   0.758   0.309   2.583  1.4541  0.7139 -0.2597
15598SOL    HW258014   0.682   0.284   2.441  1.3940 -1.5468  0.1503
15599SOL     OW58015   2.134   0.386   4.773  0.0366 -0.2948  0.5206
15599SOL    HW158016   2.162   0.293   4.750 -2.5738 -0.7027 -1.2932
15599SOL    HW258017   2.099   0.388   4.867 -0.2444 -1.2462  0.4422
15600SOL     OW58018   2.500   8.493   5.205  0.0862  0.0899 -0.8230
15600SOL    HW158019   2.515   8.429   5.281  0.8045  1.4481  0.1973
15600SOL    HW258020   2.406   8.484   5.173 -1.0274  1.3187  1.9612
15601SOL     OW58021   0.905   2.512   3.261 -0.0161  0.5934  0.0651
15601SOL    HW158022   0.997   2.496   3.299 -0.4532  1.6904  1.6640
15601SOL    HW258023   0.872   2.429   3.217  1.7844  0.2104 -0.6104
15602SOL     OW58024   9.916   6.889   1.308  0.2142 -0.0742  0.1737
15602SOL    HW158025   9.894   6.912   1.403  1.7949 -1.5414  0.9251
15602SOL    HW258026   9.842   6.920   1.248 -0.3384  1.7543  1.7580
15603SOL     OW58027   9.955   4.968   3.405 -0.5891  0.6489  0.3023
15603SOL    HW158028   9.889   5.023   3.457  0.2848  2.6186 -0.6559
15603SOL    HW258029   9.972   5.010   3.317 -0.8447 -1.8517 -0.9965
15604SOL     OW58030   3.003   0.279   5.365  0.2305  0.5491 -0.2021
15604SOL    HW158031   2.930   0.337   5.401 -0.9555 -0.0117 -1.6552
15604SOL    HW258032   3.018   0.301   5.268  1.9828  0.6499  0.0732
15605SOL     OW58033   9.583   3.305   1.597 -0.0165  0.4955 -0.3446
15605SOL    HW158034   9.581   3.377   1.528  2.5059  0.9904  0.0422
15605SOL    HW258035   9.643   3.231   1.565 -0.6078 -0.2867  0.3489
15606SOL     OW58036   2.489   7.965   1.631 -0.1000 -0.2257  0.2745
15606SOL    HW158037   2.571   7.932   1.584 -0.4300 -2.5650  1.2761
15606SOL    HW258038   2.495   7.943   1.728 -1.2278  0.9894  0.6375
15607SOL     OW58039   3.536   3.359   6.677  0.1225 -0.3921  0.2044
15607SOL    HW158040   3.540   3.355   6.777 -0.4871  1.5448  0.3271
15607SOL    HW258041   3.622   3.394   6.642  0.1779 -0.6578  0.0740
15608SOL     OW58042   7.795   5.133   4.703 -0.7459 -0.0528 -0.3910
15608SOL    HW158043   7.720   5.067   4.701 -2.8646  2.3654 -2.3891
15608SOL    HW258044   7.797   5.179   4.792 -1.5728 -0.1703 -0.3088
15609SOL     OW58045   9.372   0.714   6.589 -0.0969 -0.0507 -0.3140
15609SOL    HW158046   9.390   0.809   6.564  0.3089 -0.4192 -1.4480
15609SOL    HW258047   9.455   0.672   6.627 -0.0523 -0.1912 -0.5681
15610SOL     OW58048   1.061   2.734   3.567 -0.2111 -0.5776  0.2969
15610SOL    HW158049   1.005   2.756   3.488 -0.4897  1.8152  1.1314
15610SOL    HW258050   1.002   2.710   3.644  0.0300 -1.8242  0.1038
15611SOL     OW58051   2.181   7.512   5.377  0.4083  0.0160  0.4051
15611SOL    HW158052   2.182   7.551   5.285 -0.5044  0.6839  0.6737
15611SOL    HW258053   2.086   7.493   5.404  0.6738 -0.1980  1.2049
15612SOL     OW58054   5.171   8.728   4.297 -0.4345 -0.0744 -0.2487
15612SOL    HW158055   5.230   8.695   4.223 -1.3038 -0.5420 -0.7417
15612SOL    HW258056   5.109   8.798   4.262  0.6836  1.3285  0.5601
15613SOL     OW58057   3.336   3.389   3.544  0.1524 -0.9149 -0.1965
15613SOL    HW158058   3.406   3.459   3.558 -0.0125 -0.9575  0.9466
15613SOL    HW258059   3.258   3.407   3.604 -1.2159 -0.3641 -2.1328
15614SOL     OW58060   3.803   4.201   3.702 -0.0785  0.4763  0.4104
15614SOL    HW158061   3.902   4.192   3.712 -0.3810 -2.3520  1.0385
15614SOL    HW258062   3.758   4.179   3.788 -1.4828 -2.7073 -1.0802
15615SOL     OW58063   3.425   5.400   1.262 -0.1302 -0.2921 -0.7815
15615SOL    HW158064   3.426   5.395   1.361 -0.0529 -0.0358 -0.7685
15615SOL    HW258065   3.351   5.460   1.232 -0.3476 -0.6180 -0.8884
15616SOL     OW58066   1.781   2.769   0.922 -0.0496  0.5111  0.1796
15616SOL    HW158067   1.707   2.774   0.855 -0.7453  0.8450  0.9643
15616SOL    HW258068   1.869   2.781   0.876 -0.4949  0.3002 -0.7291
15617SOL     OW58069   2.072   1.530   3.884  0.3541  0.0493  0.2821
15617SOL    HW158070   2.162   1.489   3.890  0.3995  0.4533  3.5539
15617SOL    HW258071   2.079   1.629   3.896 -0.2170  0.5537 -2.9766
15618SOL     OW58072   1.906   6.276   5.104  0.1669 -0.3057 -0.1420
15618SOL    HW158073   1.991   6.229   5.078  1.3708  1.2663  0.8810
15618SOL    HW258074   1.902   6.283   5.204 -2.0790 -2.0122 -0.0793
15619SOL     OW58075   8.158   1.499   2.336  0.1877  0.3346  0.1121
15619SOL    HW158076   8.108   1.567   2.283 -0.2495 -0.8514 -1.0411
15619SOL    HW258077   8.255   1.524   2.339  0.2293  0.4330 -1.2927
15620SOL     OW58078   2.615   9.104   1.488 -0.5598 -0.2060  0.3018
15620SOL    HW158079   2.648   9.165   1.416 -3.0829  1.9851  0.9517
15620SOL    HW258080   2.525   9.069   1.463  0.4044 -2.9291  0.4228
15621SOL     OW58081   5.999   9.731   3.634 -0.3197  0.1083 -0.5395
15621SOL    HW158082   6.035   9.764   3.546 -0.4469  0.5381 -0.4348
15621SOL    HW258083   6.027   9.795   3.707 -3.4782  1.9090 -0.8239
15622SOL     OW58084   7.515   8.467   5.400  0.1751 -0.3138  0.1423
15622SOL    HW158085   7.507   8.522   5.316  0.5474 -1.9888 -1.0203
15622SOL    HW258086   7.425   8.439   5.431 -0.1136  1.8465  1.3857
15623SOL     OW58087   8.444   7.759   0.258 -0.0933 -0.4571 -0.4794
15623SOL    HW158088   8.466   7.775   0.355  1.3013  1.2572 -1.0523
15623SOL    HW258089   8.347   7.739   0.249 -0.2932 -0.3671  1.2661
15624SOL     OW58090   9.514   0.869   4.637 -0.4950  0.3518  0.0181
15624SOL    HW158091   9.494   0.813   4.556 -2.2172  1.2876 -0.2306
15624SOL    HW258092   9.612   0.874   4.650 -0.2212 -0.4574 -1.5676
15625SOL     OW58093   0.670   2.017   3.071  0.2372 -0.0319  0.0873
15625SOL    HW158094   0.639   1.999   2.978 -2.2903  0.4346  0.7958
15625SOL    HW258095   0.759   2.062   3.069  0.4541 -0.5170 -2.0722
15626SOL     OW58096   3.917   2.794   3.212 -0.0398 -0.5933  0.1422
15626SOL    HW158097   3.876   2.839   3.133  0.7875  0.3525  0.2426
15626SOL    HW258098   3.844   2.756   3.270 -0.8994  2.3674  1.0900
15627SOL     OW58099   1.461   1.873   2.683  0.3797  0.5586  0.0988
15627SOL    HW158100   1.460   1.773   2.691 -0.5163  0.6890  1.7625
15627SOL    HW258101   1.500   1.913   2.765 -0.0485  1.6078 -0.1987
15628SOL     OW58102   3.791   9.022   6.259 -0.4574 -0.4428  0.7328
15628SOL    HW158103   3.796   9.116   6.225 -1.3660  0.1403  2.1445
15628SOL    HW258104   3.761   8.961   6.185  0.4883  0.3024 -0.2892
15629SOL     OW58105   3.802   3.437   6.588  0.1172 -0.3966  0.0723
15629SOL    HW158106   3.901   3.454   6.585  0.5993 -2.6311  1.8112
15629SOL    HW258107   3.770   3.416   6.495  2.2042 -4.2230  0.1162
15630SOL     OW58108   5.012   0.666   4.120  0.9314  0.1096 -0.0356
15630SOL    HW158109   5.110   0.648   4.113  0.4320 -2.8779  0.1047
15630SOL    HW258110   4.969   0.653   4.031  0.5009  0.4000  0.1252
15631SOL     OW58111   2.665   6.688   3.715 -0.3017  1.1314 -0.1739
15631SOL    HW158112   2.647   6.597   3.752  1.9344  1.8392  2.9455
15631SOL    HW258113   2.579   6.738   3.704 -1.4367 -0.9488 -0.8105
15632SOL     OW58114   1.416   6.559   3.161 -0.3884 -0.4396 -0.4794
15632SOL    HW158115   1.484   6.486   3.156 -1.6101 -1.5522 -1.0663
15632SOL    HW258116   1.462   6.648   3.155  0.9974 -1.1819 -1.0248
15633SOL     OW58117   0.971   0.350   1.356 -0.0511  0.2966 -0.5164
15633SOL    HW158118   0.890   0.392   1.398 -0.7599 -0.6443 -0.9243
15633SOL    HW258119   1.039   0.421   1.338 -0.6932  1.0674  0.0400
15634SOL     OW58120   3.170   7.295   1.703 -0.8111  0.1941 -0.0526
15634SOL    HW158121   3.103   7.296   1.629 -1.0587 -0.2442  0.1677
15634SOL    HW258122   3.165   7.381   1.754 -0.1609  0.7888 -0.9738
15635SOL     OW58123   9.446   6.298   5.897 -0.2072 -0.5703 -0.5337
15635SOL    HW158124   9.535   6.264   5.865  0.6491  0.6109  0.5422
15635SOL    HW258125   9.419   6.377   5.841 -0.1487 -0.3860 -0.3051
15636SOL     OW58126   3.442   1.649   1.957  0.0852 -0.3673 -0.2111
15636SOL    HW158127   3.426   1.736   1.909 -2.2499 -1.0488 -0.7205
15636SOL    HW258128   3.444   1.574   1.891 -0.4235 -1.0006  0.4899
15637SOL     OW58129   8.622   4.751   5.861  0.1994  0.3963 -0.0547
15637SOL    HW158130   8.567   4.790   5.787  0.9597  0.4995 -0.5780
15637SOL    HW258131   8.714   4.790   5.857  0.3931  0.0086  0.6294
15638SOL     OW58132   9.943   1.842   5.415  0.3468 -0.8505 -0.1215
15638SOL    HW158133   9.976   1.936   5.425 -1.8027 -0.1479  0.8859
15638SOL    HW258134   9.849   1.844   5.382  0.7697 -2.7131 -1.4800
15639SOL     OW58135   5.638   3.161   3.640 -0.0112 -0.0632  0.0640
15639SOL    HW158136   5.639   3.160   3.740  1.9404  0.6202  0.0922
15639SOL    HW258137   5.665   3.071   3.605  1.2448  0.2368  0.2085
15640SOL     OW58138   9.053   5.313   1.788 -0.6713  0.0893 -0.1657
15640SOL    HW158139   9.085   5.225   1.753 -1.9238 -0.7765  0.8376
15640SOL    HW258140   9.013   5.300   1.879 -1.8991  1.5007 -0.4862
15641SOL     OW58141   9.095   9.859   4.874  0.0085  0.5495  0.0671
15641SOL    HW158142   9.125   9.841   4.968  0.7685  0.7011 -0.1500
15641SOL    HW258143   8.996   9.876   4.874 -0.0789  0.0675  0.7745
15642SOL     OW58144   9.753   4.761   1.602  0.0681  0.2665  0.0498
15642SOL    HW158145   9.845   4.755   1.640 -0.2314  0.8591  0.8604
15642SOL    HW258146   9.738   4.852   1.563 -1.0915  1.0589  2.2905
15643SOL     OW58147   5.870   7.454   4.611 -0.6237  0.6158  0.6102
15643SOL    HW158148   5.773   7.440   4.594 -0.3555 -0.0389 -0.4085
15643SOL    HW258149   5.917   7.366   4.610  0.3296  1.1204 -1.1170
15644SOL     OW58150   3.602   1.931   0.887 -0.6003 -0.4814 -0.0061
15644SOL    HW158151   3.606   2.030   0.896 -0.8835 -0.4720  0.0128
15644SOL    HW258152   3.533   1.894   0.949  1.1384 -0.9148  1.6986
15645SOL     OW58153   0.754   9.383   1.769  0.8681 -0.7123  0.5491
15645SOL    HW158154   0.822   9.419   1.832  2.9115 -1.4621 -1.1786
15645SOL    HW258155   0.731   9.289   1.794 -2.1893  0.6203  3.2055
15646SOL     OW58156   0.942   4.103   4.620  0.3996 -0.1257  0.2845
15646SOL    HW158157   1.012   4.050   4.573  0.5552  0.7079 -0.4410
15646SOL    HW258158   0.902   4.169   4.556 -0.6114 -0.1775  0.8608
15647SOL     OW58159   1.884   1.900   1.911  0.0843 -0.1534  0.2248
15647SOL    HW158160   1.928   1.982   1.875 -1.5448  0.5551 -0.1923
15647SOL    HW258161   1.876   1.832   1.838  0.7185 -0.3986  0.3745
15648SOL     OW58162   9.550   8.348   6.450 -0.3889 -0.8459  0.4669
15648SOL    HW158163   9.506   8.299   6.375 -1.6782  0.1586  0.5573
15648SOL    HW258164   9.557   8.445   6.427  1.0888 -0.8554  0.7904
15649SOL     OW58165   4.068   4.811   4.779  0.3711  0.2231  0.0284
15649SOL    HW158166   4.107   4.879   4.717 -0.3052  0.7774  0.2071
15649SOL    HW258167   4.057   4.724   4.732 -0.1025  0.6317 -0.6193
15650SOL     OW58168   9.845   6.112   6.562 -0.2913  0.1433 -0.5743
15650SOL    HW158169   9.789   6.152   6.635 -1.3051  0.3111 -1.4272
15650SOL    HW258170   9.788   6.049   6.508  0.4210  0.0903 -1.2671
15651SOL     OW58171   9.253   0.118   2.253 -0.1261  0.1546  0.2622
15651SOL    HW158172   9.169   0.069   2.276  0.1676 -0.1236  0.7789
15651SOL    HW258173   9.328   0.082   2.309  0.6834 -0.7366 -1.3605
15652SOL     OW58174   0.411   3.735   4.758  0.5078  0.2409 -0.3035
15652SOL    HW158175   0.405   3.729   4.658 -0.3796 -1.4648 -0.1699
15652SOL    HW258176   0.320   3.751   4.795  0.7243  0.0987  0.2874
15653SOL     OW58177   3.565   4.943   1.693 -0.2524  0.6744 -0.2415
15653SOL    HW158178   3.531   4.972   1.603 -0.8032  0.6819 -0.0304
15653SOL    HW258179   3.660   4.913   1.684 -0.2915  0.7135 -0.8215
15654SOL     OW58180   9.003   7.514   0.621 -0.4602  0.1791 -0.3622
15654SOL    HW158181   9.063   7.593   0.609  0.3205 -0.0672  1.6472
15654SOL    HW258182   9.043   7.434   0.576  0.5843  0.0841  0.7160
15655SOL     OW58183   9.646   7.976   4.170 -0.2681  0.4163 -0.2415
15655SOL    HW158184   9.714   7.921   4.122  0.4865 -0.6074  1.9117
15655SOL    HW258185   9.693   8.041   4.231 -1.1912  1.4934 -0.6587
15656SOL     OW58186   3.796   4.359   6.710  0.6671 -0.0309  0.1473
15656SOL    HW158187   3.768   4.365   6.805  1.7701 -0.9320  0.5449
15656SOL    HW258188   3.743   4.423   6.655  0.4533  0.9331  1.4645
15657SOL     OW58189   1.220   6.349   0.081 -0.4379  0.1244  0.7311
15657SOL    HW158190   1.162   6.351  -0.001 -0.3439  0.9613  0.6806
15657SOL    HW258191   1.167   6.379   0.160 -0.3053  0.0856  0.8340
15658SOL     OW58192   9.218   7.367   1.400 -0.3000  0.1112  0.4662
15658SOL    HW158193   9.188   7.426   1.325  1.3124  1.1069  0.5894
15658SOL    HW258194   9.231   7.274   1.365 -0.6026  0.3246 -0.2367
15659SOL     OW58195   6.692   2.025   2.002  0.1224  0.4048  0.7247
15659SOL    HW158196   6.620   1.956   2.009  0.1213  0.2675 -0.6099
15659SOL    HW258197   6.721   2.052   2.094 -0.4292 -0.7859  1.2530
15660SOL     OW58198   1.003   5.115   4.492 -0.1347 -0.1102  0.1225
15660SOL    HW158199   1.010   5.018   4.471 -1.0021 -0.3438  0.8725
15660SOL    HW258200   1.044   5.169   4.418  2.6059 -1.1315  0.8550
15661SOL     OW58201   7.613   9.444   1.177 -0.2920  0.1431 -0.1563
15661SOL    HW158202   7.533   9.440   1.236  0.0158 -0.6139  0.2140
15661SOL    HW258203   7.626   9.538   1.145 -0.2967  0.6146  1.1929
15662SOL     OW58204   0.901   5.236   0.373  0.2355 -0.2472 -0.2889
15662SOL    HW158205   0.956   5.158   0.342  0.5603 -0.4112  0.6821
15662SOL    HW258206   0.947   5.281   0.450 -1.7627 -1.3947  1.6371
15663SOL     OW58207   4.578   1.223   2.572 -0.1979  0.0657  0.0104
15663SOL    HW158208   4.594   1.146   2.634  1.1891  0.0293 -0.3744
15663SOL    HW258209   4.491   1.267   2.595 -0.3407 -0.7644  1.1078
15664SOL     OW58210   8.568   9.821   4.654 -0.4004 -0.3034 -0.3707
15664SOL    HW158211   8.536   9.765   4.731  0.7127  1.4008  1.3669
15664SOL    HW258212   8.524   9.911   4.657  0.4948  0.1672 -1.0960
15665SOL     OW58213   9.670   5.261   0.101  0.6698 -0.0582  0.1808
15665SOL    HW158214   9.687   5.356   0.129  2.3572  0.1492 -1.5178
15665SOL    HW258215   9.605   5.260   0.025 -0.4914 -0.3850  1.1456
15666SOL     OW58216   3.101   6.910   4.778  0.8293  0.2900  0.3014
15666SOL    HW158217   3.185   6.948   4.741 -0.0107  0.6529 -1.2429
15666SOL    HW258218   3.025   6.971   4.758  0.1884 -0.0116  1.7341
15667SOL     OW58219   1.446   9.617   2.727 -0.0626  0.0558  0.2220
15667SOL    HW158220   1.406   9.598   2.817  0.6062  1.5119  0.8582
15667SOL    HW258221   1.546   9.622   2.736  0.1469 -1.7987 -0.9987
15668SOL     OW58222   1.534   2.632   0.398 -0.1021  0.6447  0.1327
15668SOL    HW158223   1.621   2.681   0.407 -0.8601  1.8196  1.1199
15668SOL    HW258224   1.516   2.579   0.481 -0.7278  1.0524  0.2579
15669SOL     OW58225   1.520   8.777   3.702  0.0446  0.4475 -0.4574
15669SOL    HW158226   1.584   8.845   3.739  1.5903  0.2635 -2.6822
15669SOL    HW258227   1.439   8.823   3.667 -0.0444  0.8959  0.3175
15670SOL     OW58228   7.213   2.682   3.739  0.1295  0.3042  0.3114
15670SOL    HW158229   7.261   2.596   3.757 -1.1561 -0.3032  0.9004
15670SOL    HW258230   7.268   2.738   3.676  0.8366 -1.0648 -0.3212
15671SOL     OW58231   1.957   2.735   4.331  0.5189 -0.0228  0.4671
15671SOL    HW158232   2.015   2.732   4.249  1.0200  1.4249  0.7445
15671SOL    HW258233   1.863   2.755   4.304  0.0234 -2.8014 -0.0225
15672SOL     OW58234   9.515   8.353   4.810 -0.4209  0.1245 -0.1085
15672SOL    HW158235   9.437   8.382   4.754 -0.6338  2.5628  1.3858
15672SOL    HW258236   9.489   8.353   4.906  0.4906 -2.2502  0.1686
15673SOL     OW58237   1.223   7.613   4.702 -0.1493  0.1399 -0.1176
15673SOL    HW158238   1.175   7.627   4.615 -1.4856 -1.1672  0.3761
15673SOL    HW258239   1.251   7.517   4.710  1.9921  0.7357 -0.0884
15674SOL     OW58240   9.885   9.051   4.697 -0.4177 -0.0996  0.3155
15674SOL    HW158241   9.828   9.009   4.767 -0.3558  0.2541  0.5802
15674SOL    HW258242   9.904   8.985   4.625 -1.8445  0.0336 -0.1873
15675SOL     OW58243   6.432   1.510   1.991 -0.2418 -0.0948 -0.1415
15675SOL    HW158244   6.517   1.543   1.951 -0.5156  0.4315 -0.3045
15675SOL    HW258245   6.430   1.410   1.989  0.7220 -0.1362  0.6019
15676SOL     OW58246   8.080   6.154   3.586 -0.3579 -0.5248  0.3983
15676SOL    HW158247   8.026   6.070   3.588 -1.3771  0.1399  1.4519
15676SOL    HW258248   8.066   6.205   3.671  2.7727 -0.8359  1.1655
15677SOL     OW58249   3.716   1.032   6.720  0.0209 -0.3304  0.3904
15677SOL    HW158250   3.659   1.038   6.802 -0.1512 -0.3964  0.2771
15677SOL    HW258251   3.724   0.936   6.692 -1.6627 -0.1121 -0.8846
15678SOL     OW58252   4.801   1.615   1.437 -0.0198 -0.0140  0.0120
15678SOL    HW158253   4.813   1.525   1.478  0.5094 -0.0614 -0.2400
15678SOL    HW258254   4.738   1.610   1.360  1.4831 -0.5287 -1.2014
15679SOL     OW58255   2.630   1.378   1.926 -0.2894  0.4054  0.1962
15679SOL    HW158256   2.669   1.396   2.016  1.4976 -1.1965 -0.2004
15679SOL    HW258257   2.532   1.396   1.927 -0.1797  0.9934  2.2841
15680SOL     OW58258   7.623   4.593   0.663 -0.4901 -0.1964 -0.3049
15680SOL    HW158259   7.652   4.570   0.570 -0.0102  1.0041 -0.4716
15680SOL    HW258260   7.701   4.587   0.725 -0.4444  0.5713 -0.2821
15681SOL     OW58261   0.515   8.183   3.755 -0.1649 -0.1834  0.4410
15681SOL    HW158262   0.458   8.149   3.829  1.6147 -0.2022  1.8196
15681SOL    HW258263   0.601   8.217   3.791  0.5491  0.2406 -1.5667
15682SOL     OW58264   3.850   7.918   1.936 -0.5097 -0.0511 -0.1416
15682SOL    HW158265   3.754   7.939   1.956 -0.6004 -1.3013  0.8306
15682SOL    HW258266   3.904   8.002   1.943 -1.2853  0.3791  0.9110
15683SOL     OW58267   3.554   5.835   0.043 -0.3006 -0.2497  0.5919
15683SOL    HW158268   3.522   5.770  -0.027 -1.1947  0.7071  0.1051
15683SOL    HW258269   3.589   5.784   0.121 -0.3797 -1.3338 -0.0672
15684SOL     OW58270   4.092   8.706   0.894  0.0325  0.6075  0.1335
15684SOL    HW158271   4.012   8.736   0.843  0.6667  0.3757 -1.0066
15684SOL    HW258272   4.156   8.660   0.832 -0.3154 -1.9202  1.5709
15685SOL     OW58273   4.379   9.017   4.799 -0.8623 -0.2834 -0.1741
15685SOL    HW158274   4.427   8.965   4.729  0.5984 -0.2986  0.8078
15685SOL    HW258275   4.423   9.106   4.812 -1.6104  0.0482  0.1673
15686SOL     OW58276   0.080   5.365   5.247 -0.1846  0.0230 -0.0788
15686SOL    HW158277   0.157   5.313   5.209  0.7095  0.3516  1.2126
15686SOL    HW258278   0.051   5.323   5.333 -0.4246  0.8009  0.2214
15687SOL     OW58279   9.742   6.365   1.894  0.3362  0.4522 -0.2492
15687SOL    HW158280   9.692   6.284   1.923  0.8421  0.6564  1.2564
15687SOL    HW258281   9.826   6.338   1.847 -0.1445  0.1096 -0.9139
15688SOL     OW58282   1.651   7.969   1.364  0.5126  0.1338 -0.2483
15688SOL    HW158283   1.732   8.025   1.380  1.1036 -0.4348 -1.2758
15688SOL    HW258284   1.576   8.028   1.334  0.3755  0.7332  1.2000
15689SOL     OW58285   4.530   2.119   4.965  0.2868 -0.9202  0.1983
15689SOL    HW158286   4.590   2.065   4.907  0.7451 -0.6433  0.4069
15689SOL    HW258287   4.582   2.193   5.008 -0.9926  1.8817 -2.8141
15690SOL     OW58288   5.534   0.841   1.031  0.3041 -0.1772 -0.2197
15690SOL    HW158289   5.519   0.814   0.936  0.1740  1.5006 -0.6946
15690SOL    HW258290   5.460   0.805   1.088 -0.8656  0.7186 -1.1376
15691SOL     OW58291   8.847   7.507   1.874  0.6710  0.5700  0.2782
15691SOL    HW158292   8.874   7.472   1.785  0.8464 -1.3809  1.0797
15691SOL    HW258293   8.754   7.544   1.869  1.5249  2.5798 -1.2441
15692SOL     OW58294   3.252   9.615   4.800  0.2142  0.4259  0.4372
15692SOL    HW158295   3.246   9.599   4.899 -0.6242 -1.0174  0.1721
15692SOL    HW258296   3.263   9.712   4.782  1.5347  0.5815  2.0053
15693SOL     OW58297   8.339   5.747   1.643 -0.1835  0.2759 -0.3306
15693SOL    HW158298   8.372   5.688   1.570 -0.1836  1.9423 -1.7061
15693SOL    HW258299   8.383   5.837   1.636  0.6643  0.1218  2.3922
15694SOL     OW58300   7.050   7.856   4.577 -0.3455  0.5468  0.0485
15694SOL    HW158301   7.102   7.935   4.544 -2.0690  1.1615 -1.2384
15694SOL    HW258302   7.044   7.860   4.677  1.8931  0.5582  0.2053
15695SOL     OW58303   8.619   7.587   1.214 -0.4154 -0.6289  0.2617
15695SOL    HW158304   8.585   7.493   1.209 -1.2503 -0.2915 -0.6008
15695SOL    HW258305   8.564   7.646   1.154  0.5526  0.2747  0.2356
15696SOL     OW58306   3.224   3.319   6.045 -0.5145 -0.0555 -0.3530
15696SOL    HW158307   3.304   3.375   6.063  0.3437 -1.7917  1.4441
15696SOL    HW258308   3.143   3.377   6.039  0.4422  1.4312  0.7997
15697SOL     OW58309   7.022   2.258   4.172 -1.2444 -0.0962  0.9260
15697SOL    HW158310   6.965   2.252   4.254  0.6145 -2.1012  2.1543
15697SOL    HW258311   7.113   2.220   4.192 -0.6859 -0.4539 -2.0105
15698SOL     OW58312   6.305   0.990   2.031 -0.4702 -0.7791  0.0574
15698SOL    HW158313   6.274   1.010   2.124  1.4577 -0.9875  0.7875
15698SOL    HW258314   6.312   0.891   2.019  0.2582 -0.7332  0.0489
15699SOL     OW58315   9.749   4.348   6.170  0.6689 -0.0162  0.3796
15699SOL    HW158316   9.806   4.367   6.090  0.5479 -0.4292  0.1978
15699SOL    HW258317   9.750   4.428   6.230  1.0288  0.1706  0.1302
15700SOL     OW58318   1.429   8.388   6.495  1.0927 -0.1748  0.4597
15700SOL    HW158319   1.478   8.456   6.549  1.3906 -0.0213 -0.0031
15700SOL    HW258320   1.428   8.301   6.544 -1.5573  0.8042  2.2703
15701SOL     OW58321   2.138   0.319   2.047 -0.4819  0.2817 -0.1629
15701SOL    HW158322   2.074   0.246   2.026 -2.3013  1.5683  0.7694
15701SOL    HW258323   2.144   0.382   1.969  0.8076 -0.6422 -0.8250
15702SOL     OW58324   1.151   2.454   4.076 -0.7339  0.0967 -0.0439
15702SOL    HW158325   1.223   2.492   4.017  0.7560 -0.1355  1.5681
15702SOL    HW258326   1.100   2.385   4.026  1.8351 -1.5620 -0.4614
15703SOL     OW58327   2.829   4.046   3.694  0.1563 -0.1215 -0.4103
15703SOL    HW158328   2.755   4.110   3.674  0.4164  0.4554  0.4692
15703SOL    HW258329   2.903   4.059   3.628 -0.2044 -0.1872 -0.8282
15704SOL     OW58330   1.904   7.936   0.947  0.2254  0.6004  0.3534
15704SOL    HW158331   1.857   7.872   0.887  1.2002 -0.0009  0.2240
15704SOL    HW258332   1.969   7.886   1.005  2.7384  1.7326 -1.4040
15705SOL     OW58333   2.665   2.022   4.743  0.3240 -0.3827  0.1148
15705SOL    HW158334   2.715   2.090   4.796  0.4719 -0.6327  0.2967
15705SOL    HW258335   2.722   1.941   4.730 -0.4397 -1.1233  1.2832
15706SOL     OW58336   9.402   6.045   0.119  0.0823 -0.0681 -0.0769
15706SOL    HW158337   9.330   6.038   0.188  1.0191 -3.2325  0.6708
15706SOL    HW258338   9.361   6.050   0.028 -1.0841  0.6185  0.4666
15707SOL     OW58339   3.326   2.233   5.088 -0.2851 -0.2113 -0.1670
15707SOL    HW158340   3.371   2.147   5.113 -1.3113 -0.9784 -0.9057
15707SOL    HW258341   3.385   2.285   5.026  0.7751  0.1039  1.0700
15708SOL     OW58342   5.466   8.932   1.489  0.7533  0.1098  0.1274
15708SOL    HW158343   5.518   8.958   1.570  0.7035 -0.0679  0.2157
15708SOL    HW258344   5.466   8.833   1.479 -0.0082  0.0755  0.4155
15709SOL     OW58345   4.155   8.184   3.797  0.2465  0.2226  0.2119
15709SOL    HW158346   4.244   8.194   3.753 -0.4308  1.4608 -0.8710
15709SOL    HW258347   4.119   8.274   3.821 -1.4957 -0.1776 -0.8886
15710SOL     OW58348   1.143   4.322   1.841 -0.2773  0.7446 -0.6248
15710SOL    HW158349   1.049   4.321   1.806  0.1235 -0.3569 -1.6970
15710SOL    HW258350   1.148   4.384   1.919 -2.0440  0.3377 -0.1509
15711SOL     OW58351   2.746   9.959   6.536 -0.2968  0.7543 -0.0390
15711SOL    HW158352   2.685   9.904   6.480 -0.5188  2.5543 -1.6218
15711SOL    HW258353   2.841   9.928   6.524 -0.4224  0.6952 -0.9076
15712SOL     OW58354   7.111   1.264   6.122  0.2740 -0.4463  0.2404
15712SOL    HW158355   7.077   1.285   6.214  0.7302 -0.2162  0.3605
15712SOL    HW258356   7.207   1.291   6.116 -0.2397  1.1953 -0.8826
15713SOL     OW58357   2.600   5.837   4.893 -0.2852  0.0805 -0.2187
15713SOL    HW158358   2.691   5.808   4.924  0.2871  0.3167 -1.6437
15713SOL    HW258359   2.574   5.784   4.812 -1.2810  0.2593 -0.0294
15714SOL     OW58360   7.849   6.464   3.292  0.2693  0.1615  0.0331
15714SOL    HW158361   7.803   6.525   3.357 -0.2707  1.3682 -1.4535
15714SOL    HW258362   7.793   6.456   3.209  0.8253 -1.5610 -0.1939
15715SOL     OW58363   8.471   7.787   3.290  0.8498 -0.4118 -0.4665
15715SOL    HW158364   8.434   7.720   3.354 -0.2254  0.0561 -0.5874
15715SOL    HW258365   8.544   7.745   3.236  1.8229 -0.7884  1.1057
15716SOL     OW58366   4.565   9.271   2.043 -0.3052 -0.4224 -0.0106
15716SOL    HW158367   4.622   9.206   2.094  0.2343 -1.9052 -2.4078
15716SOL    HW258368   4.624   9.339   1.999 -0.6283 -0.1573 -0.0373
15717SOL     OW58369   0.676   3.151   2.373  0.0770  0.7594 -0.0032
15717SOL    HW158370   0.604   3.099   2.327  0.0354 -0.3001  1.2631
15717SOL    HW258371   0.710   3.222   2.310 -3.0110  2.2094 -0.1656
15718SOL     OW58372   7.611   1.180   0.188  0.5706 -0.0302  0.7772
15718SOL    HW158373   7.589   1.244   0.115 -1.0102 -2.4284 -0.9620
15718SOL    HW258374   7.528   1.128   0.212  1.6243 -0.8989  2.6340
15719SOL     OW58375   3.663   2.026   4.717  0.2348  0.1378 -0.1880
15719SOL    HW158376   3.689   1.940   4.763 -0.3973 -0.4865 -0.9800
15719SOL    HW258377   3.698   2.025   4.623 -0.7375  0.2492 -0.5571
15720SOL     OW58378   6.022   9.199   4.491 -0.0495 -0.3187  0.1132
15720SOL    HW158379   5.983   9.140   4.562  0.8912 -2.6534 -1.2332
15720SOL    HW258380   6.118   9.218   4.512 -0.4819  1.1942  0.8007
15721SOL     OW58381   9.866   8.145   0.893 -0.6564  0.8945 -0.1972
15721SOL    HW158382   9.952   8.122   0.847 -1.1079  1.0930 -1.1472
15721SOL    HW258383   9.791   8.095   0.851 -0.7403 -0.9342  2.0291
15722SOL     OW58384   7.263   0.951   2.388 -0.0428  0.6453 -0.1252
15722SOL    HW158385   7.217   0.863   2.400 -1.2597  1.4038  0.8527
15722SOL    HW258386   7.351   0.949   2.435 -0.4274  0.2305  0.5808
15723SOL     OW58387   1.337   1.107   3.040 -0.1476  0.8771  0.2462
15723SOL    HW158388   1.305   1.025   2.993  2.6360 -0.1302  0.0425
15723SOL    HW258389   1.339   1.091   3.138  1.0710  0.4345  0.1574
15724SOL     OW58390   6.915   4.419   0.202  0.1439  0.3302  0.3676
15724SOL    HW158391   6.990   4.459   0.254  1.2661 -1.8306  0.4622
15724SOL    HW258392   6.943   4.331   0.164 -1.4460  0.7398 -1.8898
15725SOL     OW58393   2.699   6.845   2.488 -0.4802  0.0819  0.6720
15725SOL    HW158394   2.668   6.881   2.576  1.6869 -0.3507  1.6365
15725SOL    HW258395   2.794   6.815   2.495 -0.4888 -0.6208 -1.6346
15726SOL     OW58396   2.301   5.610   0.267  0.4312 -0.1867  0.1160
15726SOL    HW158397   2.305   5.511   0.256  0.3062 -0.0822 -0.9334
15726SOL    HW258398   2.381   5.652   0.224  0.8365  0.1183  1.1722
15727SOL     OW58399   8.859   7.464   1.598 -0.5721 -0.6647 -0.5477
15727SOL    HW158400   8.806   7.521   1.536 -1.7258 -1.9559 -0.7781
15727SOL    HW258401   8.949   7.445   1.558 -0.2279  0.8452 -0.5257
15728SOL     OW58402   2.613   2.529   3.736  0.6075  0.5339  0.4979
15728SOL    HW158403   2.658   2.449   3.775  1.4910  1.6959  1.8906
15728SOL    HW258404   2.657   2.554   3.650  0.8025 -0.0240  0.4342
15729SOL     OW58405   8.959   0.541   5.393  0.1700 -0.1759  0.0511
15729SOL    HW158406   8.980   0.538   5.295  0.2245  0.7733  0.0249
15729SOL    HW258407   8.957   0.636   5.423  0.7248 -0.4843  1.0975
15730SOL     OW58408   8.795   1.989   6.420 -0.4086  0.0406  0.0674
15730SOL    HW158409   8.758   1.899   6.394  0.6640 -0.7957  1.3108
15730SOL    HW258410   8.881   1.975   6.471 -0.1046  1.7930  0.0356
15731SOL     OW58411   9.069   3.254   3.898 -0.1013  0.1605 -0.3471
15731SOL    HW158412   9.081   3.342   3.944  2.0251  0.3999 -1.3164
15731SOL    HW258413   9.096   3.180   3.960  4.1680  0.5595 -1.6303
15732SOL     OW58414   3.130   7.767   2.271 -0.3514 -0.4797  0.0907
15732SOL    HW158415   3.111   7.800   2.363 -1.2332 -2.4585  0.6395
15732SOL    HW258416   3.219   7.802   2.241 -0.8266  1.5593  1.0162
15733SOL     OW58417   2.323   0.207   1.777 -0.2695 -0.5036 -0.0063
15733SOL    HW158418   2.330   0.261   1.861  1.6299  0.5939 -0.8256
15733SOL    HW258419   2.414   0.199   1.736 -1.2874 -0.3837 -2.3396
15734SOL     OW58420   3.199   8.156   0.779  0.1015 -0.3158  0.1127
15734SOL    HW158421   3.220   8.114   0.867 -2.6800  0.3931  1.1523
15734SOL    HW258422   3.186   8.254   0.790 -0.1379 -0.1968 -1.0972
15735SOL     OW58423   8.806   9.094   5.486  0.5861 -0.0451  0.3796
15735SOL    HW158424   8.853   9.166   5.436 -1.1735 -0.4390 -1.8924
15735SOL    HW258425   8.778   9.129   5.575 -2.1547  2.8134 -1.5256
15736SOL     OW58426   0.265   6.333   3.545  0.1818 -0.3237  0.4059
15736SOL    HW158427   0.263   6.349   3.644 -0.1799 -0.3848  0.4091
15736SOL    HW258428   0.360   6.331   3.514  0.2666  3.7437  0.1209
15737SOL     OW58429   1.433   7.900   5.321  0.1845  0.1082  0.1378
15737SOL    HW158430   1.430   7.811   5.276  2.0660 -0.1417  0.4751
15737SOL    HW258431   1.500   7.958   5.274 -1.5651  1.6191 -0.5471
15738SOL     OW58432   0.596   5.377   0.929  0.3352 -0.3332  0.3841
15738SOL    HW158433   0.543   5.388   1.013 -0.9702 -1.6276 -0.2205
15738SOL    HW258434   0.535   5.390   0.850  1.0676 -1.2134 -0.3376
15739SOL     OW58435   7.699   3.511   2.632 -0.0314  0.1518 -0.5730
15739SOL    HW158436   7.616   3.489   2.683  0.5013 -1.5602 -0.4163
15739SOL    HW258437   7.738   3.596   2.668 -0.9421  0.2216  0.2875
15740SOL     OW58438   7.701   2.827   2.494  0.2178 -0.5318  0.1335
15740SOL    HW158439   7.638   2.867   2.561  1.1126 -1.1611  1.3732
15740SOL    HW258440   7.688   2.728   2.492  0.1357 -0.5066 -0.6994
15741SOL     OW58441   7.617   5.184   0.571  0.0351 -0.1843  0.7008
15741SOL    HW158442   7.682   5.166   0.497 -0.2515 -1.6310  0.7909
15741SOL    HW258443   7.617   5.108   0.636 -1.7952 -0.2400  0.6754
15742SOL     OW58444   1.513   3.898   0.493  1.0341  0.1892 -0.0174
15742SOL    HW158445   1.494   3.902   0.591  2.0014  0.2507  0.1694
15742SOL    HW258446   1.427   3.902   0.442  0.5448  0.4116  0.8220
15743SOL     OW58447   1.679   5.208   4.571  0.7740  0.2883 -0.3737
15743SOL    HW158448   1.643   5.189   4.663 -0.3578 -0.7402 -1.0095
15743SOL    HW258449   1.722   5.298   4.570  2.9033 -0.6677  1.7778
15744SOL     OW58450   1.789   7.191   6.016  0.3069  0.2497 -0.3252
15744SOL    HW158451   1.878   7.228   6.042  1.2845 -2.0156 -0.3332
15744SOL    HW258452   1.802   7.103   5.972 -1.9981 -0.3381  0.1301
15745SOL     OW58453   7.251   4.063   2.275 -0.8452 -0.0050 -0.1864
15745SOL    HW158454   7.281   4.133   2.211 -0.0936 -0.7670 -0.6685
15745SOL    HW258455   7.260   4.097   2.369 -2.3249  1.2638 -0.4759
15746SOL     OW58456   9.171   4.031   6.389 -0.6059  0.3357 -0.2477
15746SOL    HW158457   9.115   4.029   6.472  0.2255  0.0522  0.3145
15746SOL    HW258458   9.215   3.942   6.376  1.0600  1.0520  0.2625
15747SOL     OW58459   7.636   9.560   5.850 -0.0114  0.0740  0.0222
15747SOL    HW158460   7.608   9.465   5.862 -2.0362  0.4463 -1.5165
15747SOL    HW258461   7.641   9.605   5.939  0.8523 -1.4146  0.7563
15748SOL     OW58462   9.266   9.527   3.313 -0.5801  0.0629  0.0349
15748SOL    HW158463   9.294   9.491   3.224 -2.0992  0.7078 -0.7412
15748SOL    HW258464   9.278   9.626   3.314  1.0303 -0.1277  1.1794
15749SOL     OW58465   7.526   9.191   2.901  0.0261 -0.2481 -0.1341
15749SOL    HW158466   7.535   9.096   2.930 -0.0856 -0.3274 -0.3645
15749SOL    HW258467   7.434   9.206   2.865  0.3710 -0.3121 -1.0601
15750SOL     OW58468   9.384   8.351   0.615  0.4490  0.3146 -0.2577
15750SOL    HW158469   9.399   8.438   0.662  2.4681  0.0135 -0.3251
15750SOL    HW258470   9.401   8.362   0.517  0.7013 -0.1474 -0.2695
15751SOL     OW58471   9.313   5.063   0.202 -0.4946 -0.3683  0.0735
15751SOL    HW158472   9.353   5.039   0.291  3.3219  2.7988 -0.6725
15751SOL    HW258473   9.366   5.020   0.129  0.7932  2.6990 -0.8806
15752SOL     OW58474   3.826   0.862   0.866 -0.1581 -0.1773 -0.1098
15752SOL    HW158475   3.809   0.763   0.862  1.1038 -0.4629  0.9990
15752SOL    HW258476   3.813   0.893   0.960  0.8026  0.4598 -0.1892
15753SOL     OW58477   2.087   6.815   6.675 -0.3793  0.0369 -0.1261
15753SOL    HW158478   2.100   6.733   6.620  3.3052  0.7433 -0.3976
15753SOL    HW258479   2.093   6.791   6.772 -0.2163 -0.1301 -0.1781
15754SOL     OW58480   4.891   6.787   1.257 -0.5285  0.2103  0.6023
15754SOL    HW158481   4.911   6.733   1.340  1.5334 -0.5744 -0.3673
15754SOL    HW258482   4.977   6.810   1.212 -1.6206  1.0869 -1.0497
15755SOL     OW58483   2.173   9.491   0.393 -0.1754 -0.1515  0.2573
15755SOL    HW158484   2.194   9.421   0.461  1.5893 -0.2113 -0.3265
15755SOL    HW258485   2.257   9.516   0.344 -0.8705  2.0058  0.1201
15756SOL     OW58486   1.785   2.620   4.848  0.0783 -0.4240 -0.5227
15756SOL    HW158487   1.733   2.588   4.927  0.1051 -0.7150 -0.6228
15756SOL    HW258488   1.877   2.647   4.877 -0.6721  1.6955 -0.0557
15757SOL     OW58489   5.013   9.859   5.085 -0.1422  0.1489 -0.1936
15757SOL    HW158490   4.970   9.820   5.004 -0.5664  1.3595 -0.5677
15757SOL    HW258491   4.957   9.839   5.166  1.5258 -3.1507  0.2007
15758SOL     OW58492   1.163   8.255   3.013 -0.4310 -0.0871 -0.0613
15758SOL    HW158493   1.136   8.164   3.043  0.6510 -0.5801 -0.5723
15758SOL    HW258494   1.124   8.272   2.922  1.9569 -1.2835 -1.3383
15759SOL     OW58495   9.650   8.241   2.781  0.6811  0.5853 -0.4083
15759SOL    HW158496   9.656   8.341   2.783 -1.8026  0.8251 -2.4457
15759SOL    HW258497   9.565   8.212   2.825  1.6579 -0.7019  0.6879
15760SOL     OW58498   0.501   5.372   3.954 -0.5623  0.4389  0.0374
15760SOL    HW158499   0.561   5.384   3.875 -0.4317 -0.8634 -0.0722
15760SOL    HW258500   0.528   5.289   4.004  0.2031  1.9543  2.1951
15761SOL     OW58501   9.972   7.766   3.550 -0.0262 -0.0641 -0.2726
15761SOL    HW158502   9.898   7.719   3.501  2.3306 -0.6560 -3.4781
15761SOL    HW258503   9.972   7.863   3.525 -1.6616  0.6184  2.2532
15762SOL     OW58504   3.818   5.185   5.854 -0.4440  0.4742  0.4713
15762SOL    HW158505   3.761   5.117   5.900 -0.4656 -0.0198 -0.2694
15762SOL    HW258506   3.770   5.273   5.854 -1.0578  0.1478  0.1703
15763SOL     OW58507   0.280   9.426   2.129  0.6835  0.0295  0.1616
15763SOL    HW158508   0.191   9.413   2.086  0.9544  1.2333 -0.7940
15763SOL    HW258509   0.269   9.422   2.229 -0.1460 -1.5214  0.0267
15764SOL     OW58510   1.572   4.071   5.622  0.3199 -0.7053 -0.0659
15764SOL    HW158511   1.551   4.062   5.719  3.6840  0.3221  0.8355
15764SOL    HW258512   1.544   4.162   5.590 -1.9948 -1.5193 -0.4242
15765SOL     OW58513   8.742   7.412   1.007  0.4121 -0.1403  0.1517
15765SOL    HW158514   8.775   7.447   1.094 -0.1057 -1.4921  0.9025
15765SOL    HW258515   8.697   7.324   1.021 -3.3646  1.5380 -0.8434
15766SOL     OW58516   8.345   8.171   5.428 -0.1665  0.3217 -0.1756
15766SOL    HW158517   8.306   8.255   5.467 -1.5867 -0.6954  0.6805
15766SOL    HW258518   8.444   8.178   5.425 -0.1273  1.1277  2.0718
15767SOL     OW58519   2.395   2.659   0.658  0.5774  0.1859 -0.1792
15767SOL    HW158520   2.431   2.685   0.569  2.6106 -0.3923  0.4436
15767SOL    HW258521   2.300   2.630   0.648  0.5401  0.8553 -2.0206
15768SOL     OW58522   3.978   9.348   5.582  0.1409 -0.0982 -0.0735
15768SOL    HW158523   3.948   9.387   5.495 -1.5354 -0.3620  0.3564
15768SOL    HW258524   4.019   9.419   5.638  2.3544 -0.1651 -1.5287
15769SOL     OW58525   7.645   7.330   4.335  0.1338  0.4899 -0.4382
15769SOL    HW158526   7.638   7.334   4.435 -0.3686 -1.0933 -0.3839
15769SOL    HW258527   7.614   7.416   4.296  0.9423  1.3584  0.8032
15770SOL     OW58528   3.622   1.953   2.856 -0.3673  0.3133 -0.0688
15770SOL    HW158529   3.630   2.028   2.791  0.2209  1.2566  1.0633
15770SOL    HW258530   3.712   1.920   2.881 -0.5999 -0.2566  0.0240
15771SOL     OW58531   8.179   1.274   6.375 -0.1415 -0.6128 -0.1703
15771SOL    HW158532   8.122   1.232   6.445  1.4987 -0.1065  1.5106
15771SOL    HW258533   8.179   1.216   6.293  1.3164 -3.4538  1.7408
15772SOL     OW58534   2.767   9.425   0.798  0.2364 -0.3720 -0.0864
15772SOL    HW158535   2.740   9.347   0.854  0.3931  0.4025  1.0755
15772SOL    HW258536   2.686   9.463   0.752 -0.6630  1.6583  3.0371
15773SOL     OW58537   2.121   4.998   5.832 -0.0311  0.1683  0.1146
15773SOL    HW158538   2.198   5.047   5.791  0.4771  0.2410  1.1440
15773SOL    HW258539   2.155   4.934   5.901 -0.9316  0.7461  1.1092
15774SOL     OW58540   3.819   3.577   0.262  0.1600 -0.3103  0.1576
15774SOL    HW158541   3.820   3.503   0.195  1.6412 -0.2643  0.1092
15774SOL    HW258542   3.806   3.664   0.214  0.0460 -0.3882  0.0469
15775SOL     OW58543   8.131   0.409   4.790 -0.3605  0.4555 -0.0827
15775SOL    HW158544   8.106   0.402   4.886 -0.5514  0.4964 -0.1281
15775SOL    HW258545   8.203   0.477   4.778 -0.6032  0.7206 -0.0177
15776SOL     OW58546   2.625   1.930   3.486 -0.1518  0.3336  0.2614
15776SOL    HW158547   2.536   1.898   3.452 -0.1840  1.5478 -0.8091
15776SOL    HW258548   2.617   2.026   3.514  0.3027 -0.1597  2.1256
15777SOL     OW58549   1.880   6.486   3.773 -0.3034 -0.0049 -0.1353
15777SOL    HW158550   1.950   6.557   3.776 -1.2628  0.9298  0.9103
15777SOL    HW258551   1.802   6.519   3.720  0.3840 -1.3883 -2.0792
15778SOL     OW58552   2.136   8.515   3.105  0.9673 -0.4456  0.5317
15778SOL    HW158553   2.153   8.419   3.130  2.1215 -0.1704  0.8307
15778SOL    HW258554   2.086   8.560   3.179  0.9551 -0.6596  0.6545
15779SOL     OW58555   2.796   0.562   0.409 -0.4791  0.0845 -0.0139
15779SOL    HW158556   2.856   0.627   0.361 -0.7864 -0.1271 -0.6766
15779SOL    HW258557   2.772   0.487   0.348  0.0027 -0.7454  0.8034
15780SOL     OW58558   0.400   4.705   0.409  0.3166 -0.2745  0.0684
15780SOL    HW158559   0.386   4.628   0.347 -2.4930  0.3963 -0.1975
15780SOL    HW258560   0.431   4.784   0.356 -2.7358  0.4943 -0.6738
15781SOL     OW58561   3.231   3.071   2.184  0.1313  0.0691  0.6517
15781SOL    HW158562   3.237   3.143   2.254  0.7138 -1.7606  2.5461
15781SOL    HW258563   3.324   3.040   2.160 -0.1109  0.0099 -0.2094
15782SOL     OW58564   2.893   1.908   1.327 -0.3006  0.6611 -0.0008
15782SOL    HW158565   2.912   1.935   1.233  0.7796 -0.8739 -0.2531
15782SOL    HW258566   2.959   1.952   1.388 -1.0174  1.6764  0.0634
15783SOL     OW58567   1.725   5.211   3.469  0.1372  0.2279 -0.2316
15783SOL    HW158568   1.767   5.130   3.509  0.1947  0.1239 -0.4995
15783SOL    HW258569   1.672   5.185   3.388 -2.1131  0.0676  1.2575
15784SOL     OW58570   7.509   3.061   4.545 -0.0924  0.1211  0.6861
15784SOL    HW158571   7.553   3.073   4.634 -1.1142 -0.4503  1.2822
15784SOL    HW258572   7.445   2.984   4.550 -1.8813  1.5395  0.1301
15785SOL     OW58573   3.645   9.515   0.665 -0.8187 -0.1155  0.1200
15785SOL    HW158574   3.554   9.477   0.681 -0.1254 -1.8096  0.0751
15785SOL    HW258575   3.677   9.559   0.748 -1.8379  0.8604  0.0183
15786SOL     OW58576   3.534   3.546   5.391  0.2418  0.1237 -0.0713
15786SOL    HW158577   3.531   3.616   5.463 -3.1049  0.9932 -0.9776
15786SOL    HW258578   3.567   3.587   5.306  2.7299 -0.5598  0.4948
15787SOL     OW58579   8.543   4.554   4.475  0.8307 -0.6931 -0.2502
15787SOL    HW158580   8.508   4.461   4.480 -2.1804  0.5003  2.5913
15787SOL    HW258581   8.568   4.585   4.567  2.0003  1.2392 -1.1864
15788SOL     OW58582   2.466   9.212   0.486 -0.5026 -0.2075  0.1731
15788SOL    HW158583   2.398   9.271   0.529  1.1530  0.0752  2.5221
15788SOL    HW258584   2.538   9.268   0.445  0.5542 -0.5386  1.5329
15789SOL     OW58585   7.249   1.461   3.488  0.3838 -0.1905 -0.4211
15789SOL    HW158586   7.299   1.400   3.426  0.0781 -0.8698 -0.0016
15789SOL    HW258587   7.165   1.493   3.443  0.8544  0.4209 -0.8752
15790SOL     OW58588   6.628   9.524   5.271  0.4162  0.1326 -0.4860
15790SOL    HW158589   6.593   9.613   5.239 -3.0319 -1.0821 -0.3535
15790SOL    HW258590   6.588   9.504   5.361  1.3721 -1.4556 -0.4050
15791SOL     OW58591   0.326   8.020   0.919  0.1611  0.0221 -0.0271
15791SOL    HW158592   0.337   8.114   0.951 -2.1441  0.2565  0.1732
15791SOL    HW258593   0.386   7.959   0.971 -1.5157  0.7773  2.9336
15792SOL     OW58594   8.641   1.796   3.494 -0.6904 -0.3573  0.5027
15792SOL    HW158595   8.718   1.818   3.433 -1.0992 -0.2617  0.0252
15792SOL    HW258596   8.677   1.777   3.586 -0.2464  1.3589  0.7007
15793SOL     OW58597   5.743   2.073   1.017  0.0352  0.4646  0.2407
15793SOL    HW158598   5.778   2.015   1.090  0.8191 -1.6851 -1.8139
15793SOL    HW258599   5.647   2.096   1.036  0.2810  0.0871  2.0080
15794SOL     OW58600   3.343   0.559   4.837 -0.3726  0.2126  0.4192
15794SOL    HW158601   3.346   0.642   4.893  1.2297  2.6336 -3.1150
15794SOL    HW258602   3.430   0.510   4.845  0.2021  1.0474 -0.6370
15795SOL     OW58603   2.787   3.317   0.222 -0.5045  0.2471  0.1749
15795SOL    HW158604   2.864   3.257   0.199 -1.0647 -0.9182  1.2985
15795SOL    HW258605   2.799   3.406   0.176  2.4084  0.7219  1.7156
15796SOL     OW58606   2.502   3.706   0.913  0.0801 -0.2048 -0.7230
15796SOL    HW158607   2.579   3.697   0.977 -2.0782  2.0730  2.3029
15796SOL    HW258608   2.528   3.767   0.838  1.2699  0.4154  0.1760
15797SOL     OW58609   6.739   9.961   1.761 -0.3945 -0.1791 -0.3717
15797SOL    HW158610   6.678   9.993   1.689  1.0626 -0.7754 -1.9123
15797SOL    HW258611   6.822  10.016   1.762 -0.3382 -0.2636  0.7713
15798SOL     OW58612   7.976   1.297   2.344 -0.0006  0.1866  0.2244
15798SOL    HW158613   7.894   1.311   2.289  0.8530 -0.7533 -1.3379
15798SOL    HW258614   8.038   1.375   2.332  0.8768 -0.7360 -1.4443
15799SOL     OW58615   0.927   5.821   1.461  0.7429  0.1641  0.3916
15799SOL    HW158616   0.900   5.861   1.549  1.5830 -0.0345  0.7416
15799SOL    HW258617   0.845   5.797   1.409  0.1077  4.4560 -0.8026
15800SOL     OW58618   3.061   9.778   2.181 -0.1589  0.2463  0.2518
15800SOL    HW158619   3.091   9.839   2.108  0.8781 -1.7475 -1.0461
15800SOL    HW258620   3.105   9.803   2.267  0.6063  1.0345 -0.3735
15801SOL     OW58621   3.715   9.470   1.611  0.0810 -0.5653 -0.0419
15801SOL    HW158622   3.623   9.464   1.649 -0.3645  2.4724 -0.5400
15801SOL    HW258623   3.711   9.460   1.511  0.1839  0.3616 -0.1436
15802SOL     OW58624   1.875   3.252   1.170  0.4395  0.2442  0.0896
15802SOL    HW158625   1.860   3.268   1.268  1.7396  0.6485  0.2377
15802SOL    HW258626   1.856   3.335   1.119 -0.2348  0.0345 -0.0048
15803SOL     OW58627   1.837   5.845   2.626 -0.0601 -0.9113  0.6044
15803SOL    HW158628   1.815   5.857   2.529  1.8067 -1.2916  0.1056
15803SOL    HW258629   1.771   5.894   2.682 -1.0902 -0.5870 -0.8718
15804SOL     OW58630   5.722   1.682   1.406  0.3388  0.1805 -0.0404
15804SOL    HW158631   5.683   1.604   1.357 -0.3950 -0.2837  1.2513
15804SOL    HW258632   5.821   1.682   1.394  0.1561  0.2301 -1.7293
15805SOL     OW58633   7.555   3.675   6.515  0.0488  0.4047  0.7280
15805SOL    HW158634   7.608   3.598   6.549 -0.2936  0.3612  1.1761
15805SOL    HW258635   7.603   3.719   6.439 -0.3934 -1.0947 -0.4542
15806SOL     OW58636   1.861   7.857   4.251 -0.3053  0.1342  0.0136
15806SOL    HW158637   1.807   7.831   4.171  0.6409  0.5961 -0.7859
15806SOL    HW258638   1.857   7.784   4.320 -1.0856 -0.2828 -0.4746
15807SOL     OW58639   8.994   5.732   4.200 -1.0432 -0.3173  0.0362
15807SOL    HW158640   8.901   5.694   4.192 -1.4881  0.1701  2.3372
15807SOL    HW258641   8.989   5.824   4.238  0.3540  0.0328 -0.5969
15808SOL     OW58642   1.784   7.712   0.853 -0.1275  0.0193 -0.0816
15808SOL    HW158643   1.760   7.669   0.940 -2.6311  2.1670  0.3663
15808SOL    HW258644   1.708   7.701   0.789  0.9262  0.1054 -1.3635
15809SOL     OW58645   9.028   4.773   3.052  0.5498  0.0096 -0.2233
15809SOL    HW158646   9.099   4.735   2.993  0.5417  1.7894 -1.4322
15809SOL    HW258647   8.960   4.819   2.995 -0.8782 -0.5412  1.0151
15810SOL     OW58648   5.921   1.021   1.143  0.1378  0.1677  0.0884
15810SOL    HW158649   5.838   0.978   1.180  0.7719  0.2187  1.6134
15810SOL    HW258650   5.969   1.068   1.217  1.1233  0.7923 -0.9507
15811SOL     OW58651   9.289   0.188   1.977  0.0498  0.8508  0.2970
15811SOL    HW158652   9.289   0.177   2.076  3.6693  1.4074  0.4420
15811SOL    HW258653   9.322   0.104   1.934  1.7054  1.7485 -0.2205
15812SOL     OW58654   2.570   7.437   0.025 -0.3980 -0.1086  0.0822
15812SOL    HW158655   2.531   7.527   0.003 -1.3858 -0.4243  0.5407
15812SOL    HW258656   2.510   7.365  -0.009  0.4532 -0.5989 -0.3855
15813SOL     OW58657   4.493   0.997   5.374  0.5285 -0.7284 -0.6338
15813SOL    HW158658   4.401   1.011   5.412 -0.1584 -2.4749 -1.5726
15813SOL    HW258659   4.559   1.052   5.425 -1.0456  0.6500 -0.0065
15814SOL     OW58660   3.136   8.565   0.108 -0.3788 -0.6760 -0.3087
15814SOL    HW158661   3.161   8.503   0.182 -0.2041  0.6763  0.7890
15814SOL    HW258662   3.194   8.647   0.112 -0.1476 -0.7223 -2.1372
15815SOL     OW58663   1.543   6.922   2.597 -0.9646  0.4073 -0.4580
15815SOL    HW158664   1.501   6.952   2.683 -2.0319 -0.3217 -0.7088
15815SOL    HW258665   1.585   7.001   2.551  2.7738  0.2082  2.4281
15816SOL     OW58666   3.395   5.707   5.064  0.3523 -0.1474  0.0004
15816SOL    HW158667   3.327   5.639   5.035  2.5201 -3.1073  1.5475
15816SOL    HW258668   3.348   5.789   5.097 -2.4542 -2.0225  0.8552
15817SOL     OW58669   1.847   2.495   0.470  0.2312 -0.0988 -0.3851
15817SOL    HW158670   1.819   2.463   0.379  1.9312  0.9254 -1.3089
15817SOL    HW258671   1.852   2.595   0.469 -1.4975  0.0121  1.3795
15818SOL     OW58672   3.637   4.741   2.743  0.1121 -0.3335 -0.4258
15818SOL    HW158673   3.634   4.818   2.806 -0.3027 -1.6717  1.2323
15818SOL    HW258674   3.731   4.709   2.734  0.2594  0.2445 -0.9774
15819SOL     OW58675   9.388   6.086   4.779 -0.1557  0.0457 -0.4243
15819SOL    HW158676   9.454   6.021   4.818  1.0583 -0.1560 -2.7456
15819SOL    HW258677   9.392   6.082   4.679 -1.8684  1.8878 -0.5926
15820SOL     OW58678   1.523   0.476   0.568 -0.2921  0.2106 -0.0436
15820SOL    HW158679   1.583   0.418   0.623 -0.2145 -1.0305 -1.3845
15820SOL    HW258680   1.573   0.556   0.537  0.5490 -0.5501 -0.7049
15821SOL     OW58681   9.221   2.003   6.481  0.1788  0.5166  0.0515
15821SOL    HW158682   9.252   2.093   6.512  2.3570  0.0408 -0.6790
15821SOL    HW258683   9.205   2.006   6.382 -1.0529  0.4374  0.2322
15822SOL     OW58684   3.895   3.877   5.630  0.4506 -0.4351 -0.1296
15822SOL    HW158685   3.813   3.829   5.660  0.8411 -1.7559 -1.1598
15822SOL    HW258686   3.928   3.838   5.544  0.5901  1.8949 -1.1739
15823SOL     OW58687   6.525   1.132   3.135  0.4636 -0.0883 -0.4082
15823SOL    HW158688   6.437   1.099   3.102 -1.3015  1.5766  2.3824
15823SOL    HW258689   6.574   1.058   3.181 -1.4678 -0.0007  1.8742
15824SOL     OW58690   9.819   3.255   4.910 -0.0264  0.1012 -0.0600
15824SOL    HW158691   9.829   3.157   4.896 -1.3710 -0.0262 -0.2085
15824SOL    HW258692   9.755   3.271   4.986 -0.9605  0.8568 -0.9858
15825SOL     OW58693   1.491   9.429   3.139 -0.4933 -0.8589  0.1919
15825SOL    HW158694   1.419   9.361   3.121  0.8476 -1.5907 -2.6248
15825SOL    HW258695   1.562   9.387   3.196 -0.6052 -1.2024  0.0843
15826SOL     OW58696   4.530   4.891   4.801 -0.1199 -0.1441 -0.1768
15826SOL    HW158697   4.510   4.989   4.798 -1.8581 -0.4402  0.8080
15826SOL    HW258698   4.573   4.863   4.715 -0.8794  1.2329 -1.0303
15827SOL     OW58699   9.265   8.838   1.989  0.8215 -0.0523 -0.7031
15827SOL    HW158700   9.357   8.843   1.950  0.4209  3.7201 -1.3039
15827SOL    HW258701   9.270   8.838   2.089  1.4948 -0.3144 -0.7378
15828SOL     OW58702   0.462   2.407   3.161 -0.0309 -0.1261 -0.6710
15828SOL    HW158703   0.505   2.329   3.115  0.8680 -0.7816  1.2633
15828SOL    HW258704   0.531   2.461   3.208 -0.9466  0.4851 -0.0028
15829SOL     OW58705   8.972   1.558   6.357 -0.2084  0.0263 -0.2228
15829SOL    HW158706   8.907   1.535   6.429 -1.1135  0.8101 -0.7846
15829SOL    HW258707   8.952   1.504   6.275 -0.9590  1.1912 -0.8162
15830SOL     OW58708   0.327   9.581   6.630 -0.3047 -0.4913 -1.0423
15830SOL    HW158709   0.288   9.619   6.546 -0.9179 -2.0579 -1.4910
15830SOL    HW258710   0.392   9.646   6.670 -0.8095  0.7060 -2.1548
15831SOL     OW58711   9.481   1.671   5.826  0.2568  0.2841 -0.2594
15831SOL    HW158712   9.534   1.724   5.892  1.2517  0.1935 -0.9667
15831SOL    HW258713   9.434   1.596   5.873  1.7385 -0.3738  0.2161
15832SOL     OW58714   4.076   7.478   2.790  0.5083  0.1828  0.4096
15832SOL    HW158715   4.015   7.557   2.780  2.1869  1.2745 -1.4942
15832SOL    HW258716   4.044   7.422   2.866 -1.7642  1.7282  0.6676
15833SOL     OW58717   1.164   7.012   2.916  0.2999 -0.2840 -0.3630
15833SOL    HW158718   1.169   7.029   3.015 -0.2578 -0.3889 -0.3109
15833SOL    HW258719   1.208   6.925   2.896 -0.1301 -0.5658 -0.1142
15834SOL     OW58720   8.849   8.459   0.776  0.0162  0.5936 -0.4069
15834SOL    HW158721   8.756   8.486   0.750 -0.1829 -1.2503 -1.6510
15834SOL    HW258722   8.910   8.473   0.699  0.6859  1.2735  0.2370
15835SOL     OW58723   1.660   1.245   1.704 -0.0871  0.5197  0.3449
15835SOL    HW158724   1.750   1.245   1.660  0.5218  0.6446  1.5348
15835SOL    HW258725   1.611   1.162   1.681  1.0700 -0.3906  1.0969
15836SOL     OW58726   8.442   8.692   3.644  0.1385  0.4379  0.0568
15836SOL    HW158727   8.430   8.644   3.732  1.0792  1.4017  0.7231
15836SOL    HW258728   8.470   8.626   3.574 -1.1362 -0.4353  0.3400
15837SOL     OW58729   1.635   2.651   4.067 -0.1460  0.2540 -0.2026
15837SOL    HW158730   1.580   2.568   4.072  0.0116  0.1927  0.6253
15837SOL    HW258731   1.662   2.679   4.160  2.3069 -0.4348 -0.6735
15838SOL     OW58732   2.916   8.098   3.825 -0.1106 -0.1337  0.3165
15838SOL    HW158733   2.958   8.164   3.762  0.0698  0.2335  0.8139
15838SOL    HW258734   2.912   8.008   3.781  0.2077  0.0699 -0.1385
15839SOL     OW58735   8.024   6.982   4.000  0.1917  0.6546  0.0089
15839SOL    HW158736   7.938   7.023   4.031 -0.8995 -1.6343  0.0939
15839SOL    HW258737   8.061   7.037   3.925 -2.7379  0.2442 -1.8467
15840SOL     OW58738   5.322   5.811   1.626  0.1231  0.6071 -0.1784
15840SOL    HW158739   5.299   5.720   1.659  0.9152  0.0761 -1.0571
15840SOL    HW258740   5.311   5.877   1.700 -0.4806 -0.1894  0.4592
15841SOL     OW58741   4.626   6.062   1.373 -0.3924  0.0790  0.0200
15841SOL    HW158742   4.697   6.092   1.310 -1.0901  0.1830 -0.7348
15841SOL    HW258743   4.650   5.972   1.410  0.1745  0.1581 -0.1558
15842SOL     OW58744   3.968   1.087   2.064 -0.1763  0.4857  0.5538
15842SOL    HW158745   3.912   1.155   2.111  0.6036  1.7651 -0.3397
15842SOL    HW258746   3.914   1.040   1.995 -0.5748  0.5688  0.8097
15843SOL     OW58747   8.120   7.273   4.416 -0.3004  0.2957 -0.2972
15843SOL    HW158748   8.107   7.373   4.415  2.2197  0.6387 -0.7824
15843SOL    HW258749   8.050   7.230   4.360 -0.2046  1.9596 -1.7415
15844SOL     OW58750   2.611   2.502   0.704  0.4019  0.7313  0.3263
15844SOL    HW158751   2.695   2.539   0.665  0.3295 -0.4512 -0.9967
15844SOL    HW258752   2.538   2.569   0.696  0.6118  0.8355 -0.7741
15845SOL     OW58753   6.575   1.231   3.744 -0.2119  0.3696  0.6416
15845SOL    HW158754   6.558   1.141   3.784  1.1798 -0.0293  0.3356
15845SOL    HW258755   6.514   1.298   3.787 -0.6595 -0.5572  1.4679
15846SOL     OW58756   9.318   0.891   3.584  0.7935 -0.0125  0.2266
15846SOL    HW158757   9.358   0.801   3.567  0.5295 -0.0358 -0.2757
15846SOL    HW258758   9.221   0.890   3.559  1.4419  1.2110 -2.5040
15847SOL     OW58759   7.169   2.761   4.758 -0.6825 -0.1470  0.2128
15847SOL    HW158760   7.225   2.783   4.838 -1.4647  1.4475  0.3517
15847SOL    HW258761   7.158   2.662   4.750  0.9588 -0.4022  0.9957
15848SOL     OW58762   9.984   9.484   0.976 -0.4938 -0.5012 -0.3778
15848SOL    HW158763   9.974   9.581   0.955 -1.8514 -0.6071 -0.2572
15848SOL    HW258764   9.944   9.429   0.902  1.3816 -1.0090 -1.0580
15849SOL     OW58765   7.946   1.452   5.139 -0.2269 -0.1793 -0.7151
15849SOL    HW158766   7.987   1.466   5.048  0.4634 -0.8975 -0.5222
15849SOL    HW258767   7.869   1.389   5.132  0.3114 -0.8417 -0.6844
15850SOL     OW58768   7.159   3.222   5.090  0.1690  0.4060  0.9054
15850SOL    HW158769   7.202   3.177   5.012  0.9033  1.0756  0.9104
15850SOL    HW258770   7.156   3.159   5.168 -0.7793 -0.3349  0.2685
15851SOL     OW58771   1.853   3.495   5.400 -0.3004  0.2022  0.2770
15851SOL    HW158772   1.895   3.406   5.416 -2.3505 -0.7879  0.3613
15851SOL    HW258773   1.826   3.535   5.488  0.8229  1.0296  0.2582
15852SOL     OW58774   4.355   9.702   6.143 -0.2228 -0.8832  0.4109
15852SOL    HW158775   4.277   9.763   6.140 -0.4527 -1.1094  1.4784
15852SOL    HW258776   4.353   9.640   6.065 -0.7489 -0.4488  0.0832
15853SOL     OW58777   3.341   0.269   2.139  0.1082 -1.0392  0.0496
15853SOL    HW158778   3.438   0.248   2.129  0.4116  1.1558 -1.8475
15853SOL    HW258779   3.288   0.213   2.076  0.2855 -0.9836 -0.1467
15854SOL     OW58780   9.677   6.354   2.288  0.4652  0.3196 -0.1138
15854SOL    HW158781   9.738   6.416   2.238  0.4776  1.1807  0.9373
15854SOL    HW258782   9.636   6.289   2.225  1.8432  0.2576 -0.9666
15855SOL     OW58783   9.965   8.424   4.136 -0.1761  0.3959  0.1332
15855SOL    HW158784   9.965   8.402   4.234  3.2373 -0.2176  0.0666
15855SOL    HW258785  10.029   8.499   4.119 -0.3618  0.1649 -1.6836
15856SOL     OW58786   1.393   3.362   6.168  0.1253 -0.1146 -0.0299
15856SOL    HW158787   1.400   3.375   6.069 -1.5367 -2.3511 -0.4714
15856SOL    HW258788   1.476   3.317   6.201  0.7871  0.8491 -0.3461
15857SOL     OW58789   7.848   2.190   6.650  0.1098 -0.1552 -0.0372
15857SOL    HW158790   7.903   2.141   6.583  0.5325  0.6733 -0.3034
15857SOL    HW258791   7.907   2.238   6.715 -0.2898  0.0726  0.1664
15858SOL     OW58792   7.896   8.180   2.931  0.5973 -0.4880  0.5719
15858SOL    HW158793   7.825   8.246   2.955  0.8491  0.0795 -0.2092
15858SOL    HW258794   7.939   8.145   3.015 -0.2664 -0.4679  1.0249
15859SOL     OW58795   1.179   3.504   0.190  0.0803 -0.4543 -0.0179
15859SOL    HW158796   1.160   3.425   0.249  1.5576 -0.3913  0.5627
15859SOL    HW258797   1.219   3.474   0.104 -0.0647 -0.3969 -0.1054
15860SOL     OW58798   1.541   1.478   1.656 -0.4468 -0.7043  0.8248
15860SOL    HW158799   1.590   1.393   1.673  0.9396 -0.2271 -0.7099
15860SOL    HW258800   1.444   1.457   1.642 -0.0203 -2.1282 -0.2077
15861SOL     OW58801   4.425   9.611   4.323  0.1675  0.3918 -0.5535
15861SOL    HW158802   4.502   9.670   4.344  0.4392  0.6587 -2.1937
15861SOL    HW258803   4.384   9.640   4.236 -0.5587 -0.9529 -0.6734
15862SOL     OW58804   7.531   9.940   5.591 -0.3342 -0.5745 -0.0177
15862SOL    HW158805   7.496  10.021   5.639  0.0633  0.0406 -0.7666
15862SOL    HW258806   7.488   9.858   5.629  0.3296 -0.1354  1.7221
15863SOL     OW58807   9.129   5.198   3.057  0.3352  0.5276  0.5001
15863SOL    HW158808   9.092   5.224   3.146 -1.1282 -2.0279  0.7058
15863SOL    HW258809   9.178   5.110   3.066 -0.9491 -0.4175 -1.4313
15864SOL     OW58810   9.538   8.399   1.977  0.1364 -0.6598 -0.0623
15864SOL    HW158811   9.625   8.447   1.972 -1.0123  1.2507 -3.0891
15864SOL    HW258812   9.522   8.367   2.070  1.9248  3.0284  1.5727
15865SOL     OW58813   1.713   9.160   0.275 -0.4102  0.7673  0.3385
15865SOL    HW158814   1.662   9.233   0.320 -1.2104 -0.5928  1.7014
15865SOL    HW258815   1.656   9.116   0.207 -1.1612 -0.8588  1.9746
15866SOL     OW58816   9.028   7.923   6.671  0.3792 -0.1159 -0.2982
15866SOL    HW158817   9.025   7.922   6.771 -1.1935 -0.7098 -0.3361
15866SOL    HW258818   8.939   7.954   6.636  0.5015 -1.1305 -1.5309
15867SOL     OW58819   8.049   6.339   2.725 -0.0053  0.6298  0.4870
15867SOL    HW158820   8.064   6.262   2.787  2.0626  0.1203 -0.5714
15867SOL    HW258821   8.007   6.306   2.641  1.0594  0.6035 -0.0449
15868SOL     OW58822   3.497   0.268   2.389 -0.1173 -0.7256 -0.0755
15868SOL    HW158823   3.442   0.343   2.427 -0.2735 -1.2332  0.6943
15868SOL    HW258824   3.503   0.279   2.289  2.1074  1.8338  0.2965
15869SOL     OW58825   2.573   1.039   4.454 -0.0920  0.1263 -0.2781
15869SOL    HW158826   2.529   0.974   4.392  0.1282  0.7761 -1.1326
15869SOL    HW258827   2.551   1.015   4.548 -0.2502 -1.0072 -0.5942
15870SOL     OW58828   8.837   4.861   4.647 -0.3600 -0.3993 -0.1255
15870SOL    HW158829   8.812   4.796   4.575 -1.2577 -1.4234  1.0763
15870SOL    HW258830   8.808   4.824   4.736  0.0367  1.1923  0.6742
15871SOL     OW58831   3.484   3.730   0.192  0.2024  0.3728 -0.1099
15871SOL    HW158832   3.511   3.826   0.200 -0.9317  0.7161 -0.3764
15871SOL    HW258833   3.486   3.703   0.096  0.8012  0.0380 -0.0086
15872SOL     OW58834   2.837   0.826   3.987  0.2170  0.4954  0.3589
15872SOL    HW158835   2.883   0.827   3.899  0.8296  1.2124  0.6757
15872SOL    HW258836   2.739   0.813   3.974  0.2994  0.6648 -0.4314
15873SOL     OW58837   7.820   3.781   4.185  0.6452  0.0028 -0.0749
15873SOL    HW158838   7.831   3.844   4.108 -2.1496  2.9154  1.8164
15873SOL    HW258839   7.738   3.726   4.173 -0.3354  1.1486  1.2620
15874SOL     OW58840   8.732   3.755   0.190 -0.2228 -0.7654 -0.2622
15874SOL    HW158841   8.721   3.681   0.257  2.8424 -2.5146 -1.6004
15874SOL    HW258842   8.683   3.731   0.106  0.8610 -1.3414 -0.7346
15875SOL     OW58843   7.085   7.164   5.198  0.0496 -0.1894  0.7126
15875SOL    HW158844   7.096   7.248   5.251  3.2864  0.3689 -0.7546
15875SOL    HW258845   7.101   7.184   5.101 -1.4603 -2.0717  0.0439
15876SOL     OW58846   6.086   1.771   0.705  0.3748 -0.3904  0.5613
15876SOL    HW158847   5.986   1.767   0.715  0.2721  1.8919  0.8939
15876SOL    HW258848   6.126   1.683   0.730 -1.6755 -1.9083 -1.2740
15877SOL     OW58849   0.982   6.168   4.209 -0.1044  0.5042  0.2313
15877SOL    HW158850   0.915   6.239   4.189  0.5312  0.6770 -1.3849
15877SOL    HW258851   1.074   6.206   4.201  0.2168 -0.1333  0.8407
15878SOL     OW58852   3.538   8.417   3.576  0.0136 -0.3459  0.0623
15878SOL    HW158853   3.604   8.371   3.517  0.4619 -0.6219  0.7778
15878SOL    HW258854   3.458   8.359   3.589 -0.0367 -0.3316 -0.1776
15879SOL     OW58855   2.844   6.125   1.989  0.4549  0.1903 -0.2324
15879SOL    HW158856   2.941   6.147   1.981  0.0698  1.9891 -0.1939
15879SOL    HW258857   2.798   6.195   2.045 -0.7863 -0.8714  0.1168
15880SOL     OW58858   0.343   3.217   2.316  0.4501  0.1744 -0.0451
15880SOL    HW158859   0.386   3.135   2.353  1.6451  1.2975  1.1223
15880SOL    HW258860   0.256   3.233   2.364  0.1707 -0.4392 -0.3351
15881SOL     OW58861   7.593   4.945   6.213  0.1834 -0.0401  0.4105
15881SOL    HW158862   7.611   4.890   6.295  0.1526 -1.2125 -0.3472
15881SOL    HW258863   7.513   5.002   6.229 -0.5423 -1.1365  0.8027
15882SOL     OW58864   4.926   8.232   3.908 -0.0669 -0.1759 -0.8440
15882SOL    HW158865   5.020   8.204   3.887  1.0695  2.4481  0.5612
15882SOL    HW258866   4.911   8.325   3.874 -1.5748  0.1043  0.5606
15883SOL     OW58867   7.135   2.593   0.743  0.2871 -0.1191 -0.2747
15883SOL    HW158868   7.107   2.537   0.820  0.5303  2.0912  1.4892
15883SOL    HW258869   7.216   2.646   0.767 -0.1934  1.3348 -1.6954
15884SOL     OW58870   8.274   8.515   0.896 -0.0984  0.1462  0.9308
15884SOL    HW158871   8.348   8.449   0.906 -0.5418  0.1083  4.5466
15884SOL    HW258872   8.298   8.600   0.942 -0.8371  1.4447 -0.9977
15885SOL     OW58873   9.742   8.397   2.432  0.0992  0.1756  0.3296
15885SOL    HW158874   9.684   8.350   2.365 -1.1463  2.6163 -0.3723
15885SOL    HW258875   9.821   8.340   2.453 -0.8768 -1.8162 -1.1731
15886SOL     OW58876   0.112   6.750   0.030 -0.0596 -0.4840  0.1631
15886SOL    HW158877   0.146   6.783  -0.058 -0.7367 -1.1426 -0.3617
15886SOL    HW258878   0.171   6.782   0.103  1.7227 -1.6887 -0.7288
15887SOL     OW58879   6.105   9.676   3.362  0.4603 -0.2412 -0.8187
15887SOL    HW158880   6.114   9.717   3.271  0.7548 -0.2663 -0.8011
15887SOL    HW258881   6.030   9.610   3.361 -0.4140  0.7340 -0.6866
15888SOL     OW58882   2.502   4.165   3.317 -0.6299  0.2374  0.0344
15888SOL    HW158883   2.446   4.140   3.396  0.9824  1.6518  1.6718
15888SOL    HW258884   2.599   4.165   3.344  0.0354 -0.3923 -2.2557
15889SOL     OW58885   7.866   3.617   0.826  0.7461  0.3233 -0.8037
15889SOL    HW158886   7.930   3.573   0.764  0.8457 -0.4325 -0.1799
15889SOL    HW258887   7.911   3.634   0.914  0.3641  0.6011 -0.6598
15890SOL     OW58888   9.178   0.544   3.877 -0.7812  0.1863  0.2354
15890SOL    HW158889   9.122   0.572   3.955 -0.6262 -0.2985  0.5235
15890SOL    HW258890   9.233   0.622   3.846 -3.8771  1.5980 -2.0318
15891SOL     OW58891   3.281   8.600   4.768 -0.7807 -0.5866  0.0931
15891SOL    HW158892   3.233   8.515   4.745 -1.7193 -0.0591  0.0483
15891SOL    HW258893   3.359   8.612   4.708 -1.4131 -0.7624 -0.7750
15892SOL     OW58894   8.478   3.116   3.710  0.1532  0.2764 -0.0840
15892SOL    HW158895   8.512   3.026   3.684 -0.7326  0.8552 -3.4243
15892SOL    HW258896   8.410   3.106   3.783  0.8710 -1.6325  0.3391
15893SOL     OW58897   8.858   4.216   4.501  0.0551 -0.1680  0.3018
15893SOL    HW158898   8.924   4.161   4.553  0.1176  0.4381  0.8651
15893SOL    HW258899   8.805   4.273   4.564 -0.2258  0.1911 -0.2560
15894SOL     OW58900   7.641   2.339   0.116 -0.0433  0.1023 -0.3600
15894SOL    HW158901   7.587   2.264   0.154 -0.9838  1.3797  0.8788
15894SOL    HW258902   7.732   2.338   0.158  0.1998 -0.7818 -0.8938
15895SOL     OW58903   9.391   3.940   2.553  0.7587 -0.1853 -0.1572
15895SOL    HW158904   9.486   3.954   2.523  0.7680  0.4314  0.1555
15895SOL    HW258905   9.388   3.935   2.653  0.0086  3.5465  0.0816
15896SOL     OW58906   8.048   9.495   6.512  0.3875 -0.3841 -0.0681
15896SOL    HW158907   8.046   9.403   6.474 -2.5143 -0.4107  0.0347
15896SOL    HW258908   8.067   9.490   6.610  1.2541 -0.7702 -0.2465
15897SOL     OW58909   8.110   2.034   5.227  0.1560  0.0434  0.3287
15897SOL    HW158910   8.206   2.010   5.214 -0.3016 -2.1147  0.6912
15897SOL    HW258911   8.103   2.123   5.271  1.9615  0.7784 -0.8300
15898SOL     OW58912   2.131   7.247   3.759  0.7547  0.0360  0.4185
15898SOL    HW158913   2.078   7.164   3.773  0.4175  0.2148  0.1996
15898SOL    HW258914   2.179   7.241   3.671 -0.5331  0.7521 -0.3510
15899SOL     OW58915   6.170   0.505   1.445  0.2199 -0.4443 -0.1194
15899SOL    HW158916   6.107   0.429   1.432 -0.0238 -0.1370 -0.7515
15899SOL    HW258917   6.199   0.541   1.356 -1.2379  1.5095  0.1507
15900SOL     OW58918   8.286   6.597   4.871 -0.3895  0.7488 -0.2661
15900SOL    HW158919   8.188   6.610   4.855 -0.5514  1.3795  1.1291
15900SOL    HW258920   8.319   6.670   4.932  0.5585 -0.5138  0.7436
15901SOL     OW58921   7.294   7.708   2.908 -0.6838 -0.4181 -0.7404
15901SOL    HW158922   7.299   7.800   2.869 -0.6924 -0.2215 -0.2798
15901SOL    HW258923   7.358   7.648   2.860 -0.7211 -0.1833 -1.0799
15902SOL     OW58924   7.705   7.086   0.287  0.5873  0.1566 -0.1375
15902SOL    HW158925   7.768   7.009   0.278  0.2754 -0.0812 -0.3132
15902SOL    HW258926   7.714   7.126   0.378 -0.6545 -1.3372  0.6757
15903SOL     OW58927   1.187   8.150   3.985 -0.3398 -0.2700  0.5590
15903SOL    HW158928   1.247   8.070   3.975  1.0000  0.6079  1.4379
15903SOL    HW258929   1.152   8.154   4.079  0.8386  1.0352  0.9498
15904SOL     OW58930   1.326   1.971   5.929 -0.1896 -0.0636 -0.2385
15904SOL    HW158931   1.250   1.936   5.874 -1.3442  1.3775  0.4132
15904SOL    HW258932   1.341   1.912   6.008 -0.9277 -0.0960 -0.1246
15905SOL     OW58933   0.088   3.361   1.584 -0.0333 -0.4177  0.0040
15905SOL    HW158934   0.091   3.317   1.495  1.5312 -0.4119  0.0523
15905SOL    HW258935   0.035   3.304   1.647 -0.0780 -1.0305 -0.5837
15906SOL     OW58936   2.241   0.752   3.079  0.2312  0.0905 -0.0169
15906SOL    HW158937   2.179   0.674   3.079  0.4992 -0.1278  0.2372
15906SOL    HW258938   2.231   0.803   2.994  1.3700 -1.2790 -0.9923
15907SOL     OW58939   8.448   8.087   1.903  0.0506 -0.2843  0.0876
15907SOL    HW158940   8.370   8.055   1.957  0.0945  1.5256  1.2695
15907SOL    HW258941   8.529   8.035   1.926 -0.4037 -0.9539  0.1893
15908SOL     OW58942   8.157   8.339   5.195 -0.0883 -0.9731 -0.0997
15908SOL    HW158943   8.090   8.401   5.152  1.5929 -0.5506 -2.1712
15908SOL    HW258944   8.150   8.348   5.294 -0.7219  1.6671 -0.3263
15909SOL     OW58945   0.017   6.521   4.509 -0.2579  0.0041 -0.9386
15909SOL    HW158946   0.117   6.522   4.511 -0.2683 -0.3516  0.8147
15909SOL    HW258947  -0.014   6.492   4.419  1.2327 -0.5440 -1.2955
15910SOL     OW58948   1.468   3.738   0.922  0.3797 -0.3717 -0.3359
15910SOL    HW158949   1.447   3.658   0.977  0.8764  0.5530  1.2397
15910SOL    HW258950   1.563   3.766   0.938  0.1109  0.7323 -0.6235
15911SOL     OW58951   3.729   4.609   6.432 -0.1287  0.7443 -0.6840
15911SOL    HW158952   3.805   4.635   6.491  0.9705 -0.8249 -1.3596
15911SOL    HW258953   3.759   4.610   6.337 -1.7178  2.6977 -1.2024
15912SOL     OW58954   0.183   0.104   0.111  0.1477  0.0636  0.3451
15912SOL    HW158955   0.100   0.105   0.056  1.1465 -1.3451 -1.2228
15912SOL    HW258956   0.195   0.193   0.154 -1.2810  0.8098 -0.7545
15913SOL     OW58957   0.226   1.975   6.062  0.3368  0.5244  0.0415
15913SOL    HW158958   0.149   1.978   5.998 -0.0326  1.1671  0.5064
15913SOL    HW258959   0.235   1.883   6.099 -1.2667  0.8354  1.2471
15914SOL     OW58960   8.650   5.728   4.828 -0.4087 -0.3524 -0.7038
15914SOL    HW158961   8.740   5.691   4.853  0.0028 -0.9767 -2.9935
15914SOL    HW258962   8.578   5.674   4.870  0.2733 -0.6098  0.1328
15915SOL     OW58963   3.923   3.281   4.379  0.3862  0.7107  0.5189
15915SOL    HW158964   3.908   3.380   4.379  0.0009  0.6519  0.4518
15915SOL    HW258965   3.840   3.234   4.350 -0.9915  0.1339  5.0032
15916SOL     OW58966   7.194   0.542   1.190  0.1719 -0.3222 -0.1619
15916SOL    HW158967   7.273   0.575   1.243  1.7151 -0.0738 -2.5587
15916SOL    HW258968   7.121   0.514   1.253  1.9360  0.0063  2.0862
15917SOL     OW58969   5.065   9.456   1.276  0.4812 -0.3576 -0.1605
15917SOL    HW158970   5.149   9.403   1.272  0.4022 -0.6685  1.8895
15917SOL    HW258971   4.986   9.394   1.277  0.3976 -0.2333  2.4970
15918SOL     OW58972   8.085   4.114   4.509 -0.2855 -0.0090 -0.3528
15918SOL    HW158973   8.122   4.106   4.602  0.7872  0.3940 -0.7322
15918SOL    HW258974   8.108   4.032   4.457 -0.0999  0.1605 -0.5369
15919SOL     OW58975   2.378   6.562   6.694  0.2227 -0.0684 -0.1364
15919SOL    HW158976   2.303   6.510   6.737  0.6145 -1.6021 -1.2554
15919SOL    HW258977   2.341   6.616   6.618 -0.1181  0.9656  0.7603
15920SOL     OW58978   9.111   3.836   3.995  0.1211  0.5931 -0.7649
15920SOL    HW158979   9.050   3.900   4.042  0.3481  1.1492 -1.2241
15920SOL    HW258980   9.203   3.876   3.991  0.3080  0.1480 -0.8730
15921SOL     OW58981   7.012   9.482   2.011 -0.3129  0.2553  0.5816
15921SOL    HW158982   7.091   9.485   1.949 -1.6307  1.5559 -1.0544
15921SOL    HW258983   7.008   9.567   2.064 -0.2365 -0.0898  1.1439
15922SOL     OW58984   8.530   5.978   3.289  0.6931 -0.2129 -0.2578
15922SOL    HW158985   8.432   5.960   3.289  0.6199  0.1746 -1.1354
15922SOL    HW258986   8.580   5.892   3.281  0.4233 -0.3985  0.0502
15923SOL     OW58987   4.622   0.452   1.561  0.0115 -0.3372  0.0522
15923SOL    HW158988   4.613   0.414   1.469  0.1202  0.4899 -0.3089
15923SOL    HW258989   4.675   0.389   1.618  0.5865 -0.5202 -0.6653
15924SOL     OW58990   0.575   1.270   4.189  0.7549 -0.7778  0.1664
15924SOL    HW158991   0.588   1.364   4.156  1.0558 -0.2875  1.6583
15924SOL    HW258992   0.634   1.208   4.137  2.4113  0.1993  0.8639
15925SOL     OW58993   6.409   8.319   1.960  0.0690  0.4086 -0.1992
15925SOL    HW158994   6.476   8.380   1.917 -0.2461  1.3306  0.6016
15925SOL    HW258995   6.320   8.331   1.917  0.1107  0.1428 -0.3669
15926SOL     OW58996   2.544   4.001   6.468  0.0654 -0.0133  0.0264
15926SOL    HW158997   2.524   4.060   6.546  0.7550 -1.6543  1.4873
15926SOL    HW258998   2.481   3.924   6.469  1.5744 -1.2652  0.3352
15927SOL     OW58999   9.031   4.634   4.134 -0.7379  0.2906 -0.7299
15927SOL    HW159000   9.006   4.549   4.179 -0.2186  0.1486 -0.7050
15927SOL    HW259001   8.949   4.680   4.100 -1.1396  0.4299  0.4185
15928SOL     OW59002   1.397   2.365   5.535 -0.3010 -0.2225 -0.5639
15928SOL    HW159003   1.365   2.368   5.629 -0.2634 -1.9617 -0.4733
15928SOL    HW259004   1.408   2.269   5.506  1.6206  0.2938 -1.6637
15929SOL     OW59005   3.732   0.964   5.519  0.4677 -0.4311  0.9206
15929SOL    HW159006   3.741   0.866   5.505  0.1037 -0.4639  0.8984
15929SOL    HW259007   3.648   0.983   5.571  0.0041 -0.0714  0.0671
15930SOL     OW59008   7.547   4.530   5.278 -0.4306 -0.1952  0.1507
15930SOL    HW159009   7.490   4.600   5.236  0.9397  1.1187  0.4214
15930SOL    HW259010   7.489   4.457   5.315 -1.7662 -0.1858 -1.8755
15931SOL     OW59011   8.611   1.776   3.154 -0.0710  0.0229 -0.3204
15931SOL    HW159012   8.591   1.871   3.179 -0.6783 -0.3948  0.7945
15931SOL    HW259013   8.686   1.775   3.088  0.2740  1.2530  0.0306
15932SOL     OW59014   8.783   2.486   4.066 -0.0223 -0.2157 -0.4549
15932SOL    HW159015   8.766   2.411   4.002  0.8357  0.3158 -1.3108
15932SOL    HW259016   8.877   2.517   4.058 -0.3392  0.8948 -0.0410
15933SOL     OW59017   4.729   8.935   3.445  0.5145 -0.3478  0.1957
15933SOL    HW159018   4.827   8.955   3.456  0.6987 -1.4763  0.8147
15933SOL    HW259019   4.679   8.971   3.524  0.8076 -1.9845  1.1723
15934SOL     OW59020   2.355   5.761   6.256  0.0395  0.2230 -1.0005
15934SOL    HW159021   2.274   5.704   6.270 -0.0433  0.7657  0.8842
15934SOL    HW259022   2.328   5.857   6.258  0.7968  0.4139  0.0397
15935SOL     OW59023   3.819   2.388   1.332  0.5813  0.3181 -0.1422
15935SOL    HW159024   3.792   2.461   1.271  0.8312  0.7725  0.2799
15935SOL    HW259025   3.802   2.416   1.427 -1.0308 -0.8948 -0.0595
15936SOL     OW59026   7.952   8.495   1.032  0.7875 -0.0176  0.1035
15936SOL    HW159027   7.971   8.515   0.936 -0.2005 -2.5735 -0.6886
15936SOL    HW259028   7.868   8.440   1.038  1.3015 -0.6007  2.3554
15937SOL     OW59029   6.171   1.609   5.517 -0.0781 -0.0798 -0.2970
15937SOL    HW159030   6.169   1.677   5.444 -1.3696 -0.3266 -0.5152
15937SOL    HW259031   6.077   1.591   5.548  0.2237 -1.7783 -0.2863
15938SOL     OW59032   8.981   9.792   4.584 -0.3089  0.1350 -0.1906
15938SOL    HW159033   9.003   9.698   4.609  0.7650  0.3741 -0.2423
15938SOL    HW259034   8.933   9.836   4.660  2.4642  0.6905  1.2994
15939SOL     OW59035   9.154   4.769   0.135 -0.4577  0.2325  0.0981
15939SOL    HW159036   9.212   4.744   0.057  0.0594 -2.7249  1.3707
15939SOL    HW259037   9.092   4.843   0.108  1.3098  0.8487 -2.4027
15940SOL     OW59038   3.729   5.289   3.061 -0.6257 -0.1441  0.0085
15940SOL    HW159039   3.777   5.374   3.039 -0.6431  0.0573  0.7370
15940SOL    HW259040   3.754   5.219   2.995  0.6050 -0.0097  0.3165
15941SOL     OW59041   0.870   5.993   3.455 -0.4024 -0.0199  0.5014
15941SOL    HW159042   0.863   5.926   3.528  1.1511 -0.4232  0.2883
15941SOL    HW259043   0.830   5.956   3.371 -1.2292  0.0502  0.8505
15942SOL     OW59044   3.516   5.077   4.391  0.4265 -0.6004 -0.2306
15942SOL    HW159045   3.554   5.051   4.480  1.1095 -1.9353 -0.9076
15942SOL    HW259046   3.428   5.031   4.379  1.5505 -2.5058 -1.3509
15943SOL     OW59047   3.977   0.734   4.292  0.1069 -0.1153 -0.2426
15943SOL    HW159048   3.961   0.657   4.353  1.3193  0.1310  0.3806
15943SOL    HW259049   3.898   0.796   4.295 -0.1098 -0.4322  0.5700
15944SOL     OW59050   9.058   8.772   2.872 -0.1178 -0.0128  0.0462
15944SOL    HW159051   9.002   8.690   2.860  2.3988 -1.8857  0.5705
15944SOL    HW259052   9.147   8.759   2.827  0.5362  2.2215  0.6063
15945SOL     OW59053   8.185   9.412   5.185 -1.1291  0.0408 -0.1436
15945SOL    HW159054   8.153   9.488   5.242  1.1199 -0.4228  1.8153
15945SOL    HW259055   8.218   9.338   5.243  0.7210 -0.6859 -2.0297
15946SOL     OW59056   3.155   5.312   5.888  0.3123  0.1363 -0.6700
15946SOL    HW159057   3.146   5.218   5.920  1.6570  1.1371  2.9263
15946SOL    HW259058   3.075   5.365   5.916  0.3473  0.4860 -1.2082
15947SOL     OW59059   8.772   2.150   2.879 -0.4138 -0.4406  0.3309
15947SOL    HW159060   8.678   2.138   2.912 -0.1868 -0.7332  0.8848
15947SOL    HW259061   8.814   2.227   2.925 -0.3684 -0.3330  0.1105
15948SOL     OW59062   6.562   0.536   3.863  0.6266  0.3892 -0.1418
15948SOL    HW159063   6.509   0.470   3.916 -0.3159  2.5447  1.6923
15948SOL    HW259064   6.567   0.506   3.768  0.2199 -2.2956  0.6408
15949SOL     OW59065   9.190   9.713   6.027  0.1249 -0.8261  0.3452
15949SOL    HW159066   9.117   9.679   5.969 -0.4036  1.1901 -0.2191
15949SOL    HW259067   9.275   9.716   5.974 -0.4591  1.4714 -0.5146
15950SOL     OW59068   0.898   3.541   0.467 -0.0270 -0.0402  0.0572
15950SOL    HW159069   0.888   3.445   0.494 -1.1752  0.7898  2.7535
15950SOL    HW259070   0.860   3.553   0.375  0.7671 -2.2851 -0.6106
15951SOL     OW59071   8.796   1.594   2.560  0.1515 -0.1372  0.1560
15951SOL    HW159072   8.758   1.653   2.631 -0.7342 -3.2456  2.3419
15951SOL    HW259073   8.760   1.622   2.471 -4.1841 -0.4679  1.7029
15952SOL     OW59074   8.231   4.987   1.456  0.1112  0.3651 -0.0080
15952SOL    HW159075   8.140   4.963   1.424  0.1894  0.1998 -0.1039
15952SOL    HW259076   8.274   5.050   1.391 -1.3446  3.3719  1.8385
15953SOL     OW59077   2.004   0.151   5.832 -0.0601 -0.0188 -0.3935
15953SOL    HW159078   1.974   0.077   5.892 -0.1524  0.3961  0.0733
15953SOL    HW259079   2.014   0.235   5.885  0.0547  0.3015 -0.9194
15954SOL     OW59080   5.975   1.554   2.876 -0.5868  0.1408 -0.8430
15954SOL    HW159081   6.050   1.554   2.942 -0.0845 -0.9235 -1.4107
15954SOL    HW259082   5.935   1.646   2.871 -1.5083 -0.0693  1.9453
15955SOL     OW59083   2.612   6.868   3.965  0.1554  0.8111 -0.0869
15955SOL    HW159084   2.577   6.905   3.879 -0.3072 -0.0156 -0.2660
15955SOL    HW259085   2.582   6.773   3.974  0.2800  0.8706  0.9482
15956SOL     OW59086   4.713   0.050   4.778  0.1506 -0.8470 -0.0479
15956SOL    HW159087   4.726   0.107   4.859  0.6052  1.0530 -1.4342
15956SOL    HW259088   4.762   0.089   4.701  3.2721 -4.8934 -0.2914
15957SOL     OW59089   9.738   6.132   0.841  0.4597 -0.6108  0.1557
15957SOL    HW159090   9.646   6.163   0.817  0.5037  0.5988  1.4499
15957SOL    HW259091   9.790   6.113   0.758 -0.6095 -0.2527 -0.6032
15958SOL     OW59092   0.755   6.994   2.453  0.0194 -0.0803 -0.3112
15958SOL    HW159093   0.687   7.063   2.431 -1.4438 -1.2843  0.3455
15958SOL    HW259094   0.709   6.909   2.479  1.7492 -0.6533  0.9815
15959SOL     OW59095   1.094   0.962   0.310 -0.2972 -0.4117  0.5669
15959SOL    HW159096   1.137   0.872   0.304 -0.2237 -0.2501 -1.9399
15959SOL    HW259097   1.156   1.032   0.274 -0.4440  0.6262  2.2708
15960SOL     OW59098   3.072   3.210   1.981 -0.7097  0.3266 -0.1028
15960SOL    HW159099   3.115   3.300   1.990 -1.8927  0.8780  0.0254
15960SOL    HW259100   3.127   3.142   2.030 -0.3473  1.1472  0.6282
15961SOL     OW59101   7.146   9.512   1.273  0.7816  0.1394 -0.2275
15961SOL    HW159102   7.156   9.612   1.269 -0.3648  0.4001  2.2434
15961SOL    HW259103   7.071   9.484   1.213  0.3933  0.8857 -0.0963
15962SOL     OW59104   2.066   5.067   2.878 -0.2444 -0.0817 -0.7426
15962SOL    HW159105   1.999   4.998   2.851 -1.2186  0.3602  0.4986
15962SOL    HW259106   2.067   5.074   2.978  1.3584  0.2148 -0.7697
15963SOL     OW59107   8.469   8.854   4.243  0.0435 -0.0399 -0.0916
15963SOL    HW159108   8.533   8.899   4.181  0.7493 -0.3097  0.4322
15963SOL    HW259109   8.479   8.892   4.335 -0.3081 -0.3195  0.0654
15964SOL     OW59110   5.793   1.051   3.277  0.2544 -0.3382 -0.4766
15964SOL    HW159111   5.842   0.988   3.217  0.8130 -1.3411  0.9937
15964SOL    HW259112   5.829   1.042   3.370 -1.1953  0.5474  0.1791
15965SOL     OW59113   3.677   6.627   2.811  0.1736  0.1656 -0.1451
15965SOL    HW159114   3.720   6.674   2.735  1.6111 -0.6207  0.1773
15965SOL    HW259115   3.650   6.535   2.783  1.1468 -0.2994  0.4314
15966SOL     OW59116   9.933   1.616   6.205  0.6896  0.3125 -0.6291
15966SOL    HW159117   9.833   1.621   6.212  0.4786 -2.2620 -1.0708
15966SOL    HW259118   9.972   1.608   6.297  0.3475 -0.2889 -0.5264
15967SOL     OW59119   8.764   3.801   4.845  0.3674 -0.1727 -0.2723
15967SOL    HW159120   8.710   3.771   4.923  0.9606 -0.3447  0.0825
15967SOL    HW259121   8.861   3.807   4.872  0.5957 -0.3668 -1.0243
15968SOL     OW59122   0.399   2.895   1.528  0.3250  0.3312 -0.2304
15968SOL    HW159123   0.346   2.833   1.586  1.3816  0.8902  1.3594
15968SOL    HW259124   0.382   2.989   1.556  1.7619  0.5363 -0.0177
15969SOL     OW59125   8.612   5.582   2.824 -0.2305 -0.8969  0.3903
15969SOL    HW159126   8.513   5.596   2.831  0.2707  3.4594 -0.1304
15969SOL    HW259127   8.634   5.547   2.733 -1.1956 -1.1474  0.2444
15970SOL     OW59128   5.117   9.276   4.295 -1.0170  0.1886  0.3773
15970SOL    HW159129   5.073   9.342   4.233 -1.2771 -1.4207 -1.2134
15970SOL    HW259130   5.047   9.215   4.333 -0.5292 -0.5622  0.0881
15971SOL     OW59131   8.899   5.502   0.901 -0.0144  0.3236  0.0274
15971SOL    HW159132   8.854   5.417   0.929 -0.2150  0.4772  0.1687
15971SOL    HW259133   8.923   5.555   0.982 -1.7097  1.3466 -0.1264
15972SOL     OW59134   2.701   8.272   6.482 -0.3629 -0.1682  0.3413
15972SOL    HW159135   2.781   8.212   6.474 -0.8373 -0.7575 -0.0347
15972SOL    HW259136   2.710   8.328   6.564  0.0424 -0.8315  0.7602
15973SOL     OW59137   2.085   4.831   2.403 -0.3383 -0.2526 -0.1940
15973SOL    HW159138   2.128   4.746   2.372  1.2942  0.9479 -1.3329
15973SOL    HW259139   2.101   4.842   2.501 -2.7508 -2.4775  0.5122
15974SOL     OW59140   8.671   4.724   0.763 -0.8147 -0.2587  0.3658
15974SOL    HW159141   8.596   4.693   0.822 -0.3978  1.3920  1.8292
15974SOL    HW259142   8.757   4.684   0.795 -0.7372 -0.2016  0.2286
15975SOL     OW59143   2.446   7.101   5.924 -0.2160 -0.4650  0.3982
15975SOL    HW159144   2.360   7.139   5.960  0.1757  0.2251  0.6074
15975SOL    HW259145   2.463   7.138   5.833  0.8915  0.9909  1.1693
15976SOL     OW59146   1.862   0.957   5.811  0.6339 -0.8464 -0.5837
15976SOL    HW159147   1.823   1.049   5.816  1.4840 -0.3946 -2.0909
15976SOL    HW259148   1.859   0.924   5.717  0.1609 -2.4477 -0.0205
15977SOL     OW59149   8.680   5.730   5.127 -0.4378 -0.2978  0.0879
15977SOL    HW159150   8.625   5.790   5.069 -0.4667  0.9548  1.3991
15977SOL    HW259151   8.692   5.771   5.217  2.5226 -0.6347 -0.1032
15978SOL     OW59152   4.920   9.532   2.295  0.9132 -0.6379  0.3899
15978SOL    HW159153   4.942   9.454   2.237 -1.9302 -0.0541 -1.5811
15978SOL    HW259154   4.895   9.610   2.237 -2.6325 -0.2324  2.3174
15979SOL     OW59155   8.201   4.514   4.648 -0.2207 -0.1133 -0.0719
15979SOL    HW159156   8.267   4.450   4.688 -1.1432 -0.9351  0.1660
15979SOL    HW259157   8.246   4.568   4.577  0.5209 -1.1907 -0.4354
15980SOL     OW59158   0.729   3.384   2.636  0.2037 -1.2033 -0.4858
15980SOL    HW159159   0.684   3.295   2.633 -0.9942 -0.6145 -0.7875
15980SOL    HW259160   0.760   3.403   2.729 -2.1513 -0.7101  0.2438
15981SOL     OW59161   0.510   7.258   0.697  0.6620  0.1478  0.1279
15981SOL    HW159162   0.556   7.304   0.621 -0.1904  2.0189  0.7317
15981SOL    HW259163   0.411   7.267   0.686  0.5239 -0.1432  1.1154
15982SOL     OW59164   0.867   3.600   1.263  0.2693  0.3051 -0.2461
15982SOL    HW159165   0.911   3.637   1.345 -0.5585  1.6205 -0.3791
15982SOL    HW259166   0.934   3.588   1.191  1.0289 -0.9611  0.6480
15983SOL     OW59167   2.508   5.463   4.157 -0.2697 -0.4531 -0.4309
15983SOL    HW159168   2.412   5.489   4.168 -0.2323 -0.5338  0.0981
15983SOL    HW259169   2.549   5.448   4.247  0.8908  1.9154 -0.5392
15984SOL     OW59170   3.319   8.042   5.338  0.1988  0.1310  0.1474
15984SOL    HW159171   3.399   8.071   5.390 -0.6442  1.3546  0.7726
15984SOL    HW259172   3.272   8.122   5.301 -0.4348 -0.6063 -0.6718
15985SOL     OW59173   1.080   8.243   3.413  0.3578  0.5962  0.6140
15985SOL    HW159174   0.984   8.235   3.440  0.4764  1.1395  1.2162
15985SOL    HW259175   1.089   8.316   3.345  0.0241 -0.9301 -1.1112
15986SOL     OW59176   8.292   5.434   1.172  0.4350 -0.0055  0.1487
15986SOL    HW159177   8.212   5.417   1.113  0.2781  0.7385  0.1426
15986SOL    HW259178   8.373   5.445   1.116  0.2817  0.7252  0.0629
15987SOL     OW59179   1.784   7.613   3.050 -0.1063  0.1298  0.4673
15987SOL    HW159180   1.800   7.692   2.990  2.0906  0.6327  1.6942
15987SOL    HW259181   1.871   7.580   3.086 -1.2597 -1.1578  2.1372
15988SOL     OW59182   0.270   4.344   3.951 -0.2518  0.4731  0.1293
15988SOL    HW159183   0.297   4.300   4.037 -0.6597 -0.2525 -0.1082
15988SOL    HW259184   0.301   4.289   3.874  0.2888  1.2286 -0.2008
15989SOL     OW59185   5.799   5.046   1.102  0.4067 -0.4614 -0.0091
15989SOL    HW159186   5.748   5.076   1.183 -1.1752 -2.1932 -0.3300
15989SOL    HW259187   5.852   4.965   1.125 -0.0228 -0.9386 -0.6803
15990SOL     OW59188   8.360   2.006   5.306 -0.2473  0.2083 -0.3862
15990SOL    HW159189   8.425   2.075   5.275  0.4555 -0.6762 -0.8882
15990SOL    HW259190   8.380   1.981   5.401  0.8882 -0.8985 -0.8954
15991SOL     OW59191   1.323   4.268   2.952  0.1928 -0.5743 -0.3994
15991SOL    HW159192   1.270   4.321   2.886  1.3833  0.5182 -0.4925
15991SOL    HW259193   1.360   4.186   2.907  0.8374  0.0659 -1.0384
15992SOL     OW59194   5.031   8.993   3.272 -0.3870  0.3337  0.3976
15992SOL    HW159195   5.072   8.974   3.361  2.0642 -0.6989 -0.9032
15992SOL    HW259196   5.019   9.091   3.261  0.7352  0.5774  1.2502
15993SOL     OW59197   9.204   5.568   3.556  0.3093  0.3021  0.1020
15993SOL    HW159198   9.139   5.498   3.583  0.0741  0.3060 -0.4302
15993SOL    HW259199   9.155   5.645   3.515  0.8655 -1.2004 -3.5687
15994SOL     OW59200   1.005   9.688   6.432  0.1987  0.0172  0.1648
15994SOL    HW159201   0.908   9.692   6.408 -0.3597 -2.2711  1.8087
15994SOL    HW259202   1.025   9.757   6.502 -0.2373  0.4883 -0.1705
15995SOL     OW59203   5.115   4.682   0.611 -0.0316  0.0221  0.0943
15995SOL    HW159204   5.089   4.762   0.665  0.9360  1.1657 -1.1081
15995SOL    HW259205   5.190   4.706   0.549 -0.7065 -1.4299 -1.3277
15996SOL     OW59206   6.978   0.074   6.154 -0.2974 -0.0291  0.4073
15996SOL    HW159207   6.989   0.090   6.056 -1.2856  1.5455  0.5318
15996SOL    HW259208   6.943   0.157   6.197  0.4678 -0.5864  2.1547
15997SOL     OW59209   8.471   2.702   4.383 -0.4033 -0.2415  0.0421
15997SOL    HW159210   8.518   2.614   4.382  0.7709  0.3864 -1.1263
15997SOL    HW259211   8.515   2.764   4.319  1.0103  2.4114  3.4620
15998SOL     OW59212   8.143   6.043   1.608  0.3416 -0.2720 -0.5571
15998SOL    HW159213   8.191   6.105   1.545 -0.4216 -0.7020 -1.5682
15998SOL    HW259214   8.054   6.083   1.632  0.9084  0.2163  0.8055
15999SOL     OW59215   9.226   6.609   4.555  0.5246  0.0591  1.0163
15999SOL    HW159216   9.163   6.658   4.616  0.9439  0.8425  0.8287
15999SOL    HW259217   9.210   6.637   4.461  2.5770  1.9196  1.1622
16000SOL     OW59218   2.362   5.693   2.694 -0.1114  0.2956  0.2248
16000SOL    HW159219   2.374   5.606   2.647 -0.0333  0.5350 -0.2031
16000SOL    HW259220   2.394   5.685   2.788  1.3716  0.3015 -0.2585
16001SOL     OW59221   2.864   1.337   3.491 -0.0517  0.0759  0.0759
16001SOL    HW159222   2.801   1.369   3.562 -1.5433 -1.8001 -0.3589
16001SOL    HW259223   2.878   1.410   3.424 -0.5842  1.0149  0.9568
16002SOL     OW59224   4.452   3.650   4.052  0.9179 -0.3535  0.3415
16002SOL    HW159225   4.359   3.622   4.077  0.1747  1.2069 -0.5507
16002SOL    HW259226   4.506   3.569   4.030 -1.3518 -1.1366 -2.8056
16003SOL     OW59227   8.000   6.518   1.167 -0.3017  0.7889  0.1244
16003SOL    HW159228   7.915   6.468   1.179 -0.1235  0.1604 -1.1266
16003SOL    HW259229   8.078   6.455   1.171 -0.1179  0.8351 -2.1294
16004SOL     OW59230   4.089   4.009   0.533  0.2892 -0.4588  0.0689
16004SOL    HW159231   4.167   3.950   0.551  1.4034  1.5444  2.0561
16004SOL    HW259232   4.111   4.071   0.457 -1.1912 -3.0670 -2.5884
16005SOL     OW59233   5.582   9.660   1.751 -0.2476  0.2424 -0.4340
16005SOL    HW159234   5.660   9.615   1.707  0.1385  0.6911 -0.2147
16005SOL    HW259235   5.529   9.711   1.684 -0.7598 -0.6411 -0.7079
16006SOL     OW59236   8.483   4.721   2.697  0.6162 -0.0235  0.1021
16006SOL    HW159237   8.528   4.785   2.635  1.5607 -0.2683  0.5409
16006SOL    HW259238   8.443   4.646   2.644  0.2257  0.4877 -0.3332
16007SOL     OW59239   1.361   5.959   1.575  0.0502 -0.7233 -0.1085
16007SOL    HW159240   1.355   5.872   1.625 -0.6527 -0.5528  0.0989
16007SOL    HW259241   1.389   6.032   1.638 -0.2777 -0.6187 -0.0834
16008SOL     OW59242   0.082   7.022   0.984  0.0616 -0.0036  0.1638
16008SOL    HW159243   0.116   6.969   0.907 -0.5137  1.8190 -1.3904
16008SOL    HW259244  -0.012   6.995   1.004  0.2917 -0.6435  0.3931
16009SOL     OW59245   7.971   6.903   5.666  0.6548  0.0412 -0.0562
16009SOL    HW159246   7.899   6.848   5.624 -0.1801  0.6917  0.5275
16009SOL    HW259247   8.054   6.847   5.675 -1.1651 -2.2608  3.6430
16010SOL     OW59248   3.979   5.249   1.154  0.0691  0.6573 -0.6726
16010SOL    HW159249   4.074   5.218   1.159 -0.3596 -0.5480  0.4993
16010SOL    HW259250   3.938   5.243   1.245 -2.1938 -2.3190 -1.8035
16011SOL     OW59251   1.066   9.834   0.212  0.2801  0.4796  0.0577
16011SOL    HW159252   1.021   9.799   0.295 -1.0871  1.4207 -0.2579
16011SOL    HW259253   1.165   9.837   0.226  0.2629 -1.7060  0.7500
16012SOL     OW59254   3.932   6.146   2.474 -0.5271 -0.0262 -0.1240
16012SOL    HW159255   3.988   6.139   2.557 -0.0353  2.1543 -0.2327
16012SOL    HW259256   3.942   6.063   2.419  1.6443 -0.1675  0.4567
16013SOL     OW59257   9.477   7.902   0.480  0.1197 -0.6747  0.0725
16013SOL    HW159258   9.434   7.812   0.483  0.0416 -0.6206  0.5184
16013SOL    HW259259   9.459   7.951   0.565 -0.5674  0.1010 -0.5057
16014SOL     OW59260   1.481   7.373   1.667 -0.8892  0.1143 -0.0541
16014SOL    HW159261   1.485   7.332   1.576 -2.2983 -3.2191  1.3188
16014SOL    HW259262   1.574   7.381   1.704 -0.5422 -1.2757 -0.6193
16015SOL     OW59263   5.633   1.126   1.376 -0.1118 -0.2147  0.2442
16015SOL    HW159264   5.680   1.071   1.307  0.3077  1.1895 -0.6299
16015SOL    HW259265   5.579   1.067   1.436  0.6047 -1.5882 -0.4390
16016SOL     OW59266   8.116   9.673   3.933  0.4920 -0.0083 -0.5958
16016SOL    HW159267   8.157   9.761   3.957  0.9569 -0.5928  0.8609
16016SOL    HW259268   8.022   9.671   3.965  0.2951  0.1731 -1.1578
16017SOL     OW59269   6.179   2.019   0.773  0.0797 -0.0043  0.3357
16017SOL    HW159270   6.137   1.929   0.758 -1.1940  0.6566 -0.1352
16017SOL    HW259271   6.120   2.074   0.832  2.1894 -0.4480  2.9480
16018SOL     OW59272   7.742   7.705   2.415  0.2232  0.3900 -0.5302
16018SOL    HW159273   7.833   7.742   2.428 -0.6063  2.9143 -1.6172
16018SOL    HW259274   7.678   7.779   2.395 -1.8824 -1.4294 -0.7792
16019SOL     OW59275   4.930   0.961   0.693  0.4279 -0.2174  0.3480
16019SOL    HW159276   5.020   0.999   0.671  0.9565 -1.4858  0.2945
16019SOL    HW259277   4.869   1.035   0.723  1.1582  0.8129 -0.6472
16020SOL     OW59278   6.576   6.821   5.605 -0.4596  0.1171 -0.6846
16020SOL    HW159279   6.626   6.896   5.649  0.3115 -0.1274 -1.1342
16020SOL    HW259280   6.565   6.842   5.508 -0.0408 -0.4525 -0.8570
16021SOL     OW59281   3.414   2.198   6.246 -0.4295  0.3558 -0.0330
16021SOL    HW159282   3.382   2.252   6.168  0.2642 -0.1046 -0.6461
16021SOL    HW259283   3.394   2.247   6.331 -0.5296  1.2056 -0.5371
16022SOL     OW59284   7.016   8.949   4.602 -0.2866  0.1073  0.0831
16022SOL    HW159285   6.918   8.950   4.620 -0.9992  1.8011 -3.4326
16022SOL    HW259286   7.056   9.036   4.629  0.1138 -0.3007  0.8131
16023SOL     OW59287   4.954   2.905   3.544  0.2036  0.0063  0.1360
16023SOL    HW159288   4.998   2.838   3.605 -1.6404 -1.5123 -0.1473
16023SOL    HW259289   4.875   2.945   3.589  0.2417  0.6540 -0.3664
16024SOL     OW59290   1.104   7.288   6.496  0.8569 -0.3530  0.1546
16024SOL    HW159291   1.068   7.292   6.589 -0.0023  0.8781 -0.2183
16024SOL    HW259292   1.180   7.353   6.487 -1.3835  2.2017 -0.9629
16025SOL     OW59293   2.638   3.349   2.101  0.5086 -0.1836  0.3101
16025SOL    HW159294   2.637   3.410   2.022  0.5864 -0.8992 -0.2530
16025SOL    HW259295   2.691   3.267   2.079 -1.2458 -1.3714  0.3540
16026SOL     OW59296   3.294   8.799   5.360  0.0190 -0.0857 -0.1855
16026SOL    HW159297   3.381   8.751   5.371 -0.2645 -0.1522  2.0148
16026SOL    HW259298   3.282   8.825   5.264  2.2098 -0.5352 -0.6080
16027SOL     OW59299   6.091   0.155   1.684  0.0974 -0.1117 -0.1476
16027SOL    HW159300   6.056   0.061   1.691  0.3507 -0.3084 -1.4628
16027SOL    HW259301   6.191   0.153   1.680  0.1266  0.2536  0.2915
16028SOL     OW59302   3.144   1.745   4.262 -0.0700 -0.4555 -0.1570
16028SOL    HW159303   3.129   1.736   4.164 -0.8524 -0.9557  0.0052
16028SOL    HW259304   3.082   1.815   4.299 -0.1589 -0.6551  0.0736
16029SOL     OW59305   2.877   9.533   0.004 -0.7707  0.0450  0.4083
16029SOL    HW159306   2.901   9.579  -0.082 -1.2494 -0.4312  0.0172
16029SOL    HW259307   2.932   9.450   0.015 -0.3966  0.3410  0.7787
16030SOL     OW59308   0.949   7.187   1.416  0.0086  0.1472  0.2797
16030SOL    HW159309   0.935   7.279   1.451  1.0816 -0.4638  2.3673
16030SOL    HW259310   1.047   7.170   1.404 -0.0644 -1.3686  1.7111
16031SOL     OW59311   1.564   1.318   6.184  0.3270  0.0743  0.0352
16031SOL    HW159312   1.506   1.316   6.265 -2.0689  1.4925 -1.5937
16031SOL    HW259313   1.647   1.370   6.203 -0.0275  0.0563  1.6808
16032SOL     OW59314   2.807   8.391   0.545 -0.5933  0.0055  0.6638
16032SOL    HW159315   2.861   8.429   0.620 -1.1651 -0.5872  1.3816
16032SOL    HW259316   2.841   8.300   0.522 -0.3707  0.2197  0.1577
16033SOL     OW59317   7.426   9.964   4.861  0.5229  1.1813 -0.2591
16033SOL    HW159318   7.349   9.999   4.807 -2.2738 -2.2777  1.3374
16033SOL    HW259319   7.430  10.014   4.947  0.8234  2.1566 -0.8243
16034SOL     OW59320   3.133   9.621   2.956 -0.8093  0.4993 -0.1687
16034SOL    HW159321   3.194   9.668   2.892 -0.6275  1.8130  0.9470
16034SOL    HW259322   3.058   9.578   2.905  0.3839 -0.1314 -1.4345
16035SOL     OW59323   3.933   8.243   5.223 -0.1888  0.5844  0.3085
16035SOL    HW159324   3.997   8.166   5.228  2.7128  2.6572 -2.8834
16035SOL    HW259325   3.949   8.305   5.300 -2.0114 -1.5052  2.4511
16036SOL     OW59326   1.579   3.775   4.674 -0.3002 -0.2106  0.0368
16036SOL    HW159327   1.504   3.746   4.615 -0.1408 -1.3712  0.3781
16036SOL    HW259328   1.654   3.810   4.618 -0.5396 -0.3901 -0.3978
16037SOL     OW59329   2.431   9.150   2.575  0.0964 -0.1989 -0.0826
16037SOL    HW159330   2.487   9.069   2.556  0.5259  0.1933 -0.4949
16037SOL    HW259331   2.372   9.132   2.654 -1.6918 -1.8517 -1.7447
16038SOL     OW59332   6.535   1.634   3.130 -0.5120  0.1469 -0.2097
16038SOL    HW159333   6.548   1.689   3.212  0.7086 -0.2109 -0.1507
16038SOL    HW259334   6.515   1.540   3.155 -1.8071  0.3930 -0.3148
16039SOL     OW59335   1.325   4.303   6.240  0.1953  0.7910  0.2806
16039SOL    HW159336   1.334   4.349   6.329  0.2075  0.5533  0.4007
16039SOL    HW259337   1.275   4.362   6.177 -1.8101  0.0113  1.1189
16040SOL     OW59338   0.191   9.555   2.686  0.0211  0.0408 -0.2548
16040SOL    HW159339   0.126   9.479   2.682 -0.9214  0.7381  1.2989
16040SOL    HW259340   0.166   9.616   2.761  1.1699  1.5250 -1.0594
16041SOL     OW59341   3.839   7.127   4.049  0.4665 -0.0134  0.3433
16041SOL    HW159342   3.795   7.040   4.069  0.4938  0.2045  1.3660
16041SOL    HW259343   3.875   7.125   3.956 -1.9483 -0.0835 -0.6113
16042SOL     OW59344   1.747   7.737   6.600  0.3161  0.0960  0.0862
16042SOL    HW159345   1.669   7.762   6.657  0.6960  2.2314 -0.2875
16042SOL    HW259346   1.731   7.767   6.506  1.1836 -0.2593 -0.1858
16043SOL     OW59347   7.379   5.211   0.953  0.0826  0.4539 -0.4996
16043SOL    HW159348   7.337   5.122   0.937 -0.7447  0.6686  0.4127
16043SOL    HW259349   7.463   5.200   1.005 -0.1050  0.2103 -0.2424
16044SOL     OW59350   0.395   0.338   3.071 -0.1703  0.2152  0.1602
16044SOL    HW159351   0.479   0.312   3.024 -1.3736 -1.6747 -0.9974
16044SOL    HW259352   0.376   0.272   3.144 -1.2293  0.0172 -0.2922
16045SOL     OW59353   1.891   0.866   4.912  0.2106 -0.5632 -0.0456
16045SOL    HW159354   1.870   0.856   4.815 -1.0547 -1.2805  0.2896
16045SOL    HW259355   1.963   0.801   4.937  0.2606 -0.6557 -0.4277
16046SOL     OW59356   4.645   1.221   1.044  0.2549 -0.0645  0.8579
16046SOL    HW159357   4.672   1.262   1.131  1.0900 -1.7839  1.4265
16046SOL    HW259358   4.595   1.136   1.061  0.0695 -0.2058 -0.3391
16047SOL     OW59359   9.957   6.404   4.250  0.2309  0.1781  0.4970
16047SOL    HW159360   9.937   6.306   4.239  0.5736  0.2526 -0.8746
16047SOL    HW259361  10.004   6.437   4.169  1.4295  1.1592  1.5836
16048SOL     OW59362   9.968   3.237   0.421  0.1603  0.0486  0.2839
16048SOL    HW159363  10.014   3.179   0.489  1.7597  0.4658 -0.4243
16048SOL    HW259364   9.869   3.220   0.425  0.0056  1.1952  3.8030
16049SOL     OW59365   4.955   1.597   1.904 -0.1342  0.7893  0.6603
16049SOL    HW159366   4.887   1.621   1.974 -0.0764 -0.1001  1.0260
16049SOL    HW259367   4.998   1.680   1.869 -1.0647  1.3313  0.7746
16050SOL     OW59368   2.074   4.124   5.607  0.1127  0.7430 -0.1193
16050SOL    HW159369   1.980   4.117   5.574 -0.2891  1.1651  0.9109
16050SOL    HW259370   2.119   4.201   5.562 -0.1387  0.7496 -0.3631
16051SOL     OW59371   0.172   2.156   3.012 -0.1853  0.2903  0.0462
16051SOL    HW159372   0.098   2.214   3.045 -0.7264  1.4054 -2.9835
16051SOL    HW259373   0.241   2.212   2.966 -0.1889 -1.3183 -2.0180
16052SOL     OW59374   1.684   2.486   2.960 -0.1344  0.3107  0.1104
16052SOL    HW159375   1.595   2.511   2.922 -0.4803  1.0437  1.3815
16052SOL    HW259376   1.677   2.479   3.059  0.8847 -1.0868  0.0861
16053SOL     OW59377   5.409   0.780   1.888  0.3194  0.1741 -0.5664
16053SOL    HW159378   5.351   0.814   1.961  1.0926  0.7027 -0.1957
16053SOL    HW259379   5.437   0.856   1.829  3.3391  0.5076  1.1708
16054SOL     OW59380   8.697   7.691   0.551 -0.1384  0.0874 -0.2904
16054SOL    HW159381   8.667   7.601   0.519 -1.1682 -0.0809  1.1128
16054SOL    HW259382   8.754   7.680   0.633  1.6263  0.5754 -1.4344
16055SOL     OW59383   9.293   9.888   1.577  0.2879 -0.0175  0.5016
16055SOL    HW159384   9.326   9.955   1.643  0.4407  0.8884 -0.4909
16055SOL    HW259385   9.363   9.818   1.563  1.7101  1.7435 -1.3842
16056SOL     OW59386   7.075   4.314   5.614 -0.3131  0.3654  0.1765
16056SOL    HW159387   7.127   4.331   5.698  2.8753  2.4409 -2.0622
16056SOL    HW259388   7.103   4.227   5.575  0.8417  1.0423 -0.5348
16057SOL     OW59389   7.186   5.396   5.650 -0.6311  0.3390 -0.0905
16057SOL    HW159390   7.232   5.392   5.561  1.2161  1.1798  0.8166
16057SOL    HW259391   7.136   5.310   5.665  0.5394 -0.5512 -1.1282
16058SOL     OW59392   7.557   9.661   4.027  0.3983 -0.1893 -0.0533
16058SOL    HW159393   7.511   9.661   3.939 -0.3344  0.5160  0.3235
16058SOL    HW259394   7.493   9.691   4.098  0.9793 -0.7537  0.7123
16059SOL     OW59395   6.939   9.945   0.097  0.2794 -0.2922 -0.0363
16059SOL    HW159396   7.002   9.893   0.038 -0.7283 -0.7150 -0.7529
16059SOL    HW259397   6.909  10.027   0.048  0.3951 -0.0070  0.3697
16060SOL     OW59398   9.540   1.981   4.587  0.1258  0.7846  0.3325
16060SOL    HW159399   9.632   1.989   4.547  0.0678  1.3932  0.3173
16060SOL    HW259400   9.534   2.039   4.668 -0.0892  0.3560  0.6256
16061SOL     OW59401   0.122   7.352   6.438 -0.1184  0.2618 -0.2280
16061SOL    HW159402   0.182   7.413   6.385 -1.1471  0.8416 -0.7377
16061SOL    HW259403   0.134   7.258   6.406 -0.5065  0.5639 -1.2970
16062SOL     OW59404   5.442   9.741   5.281  0.5253  0.0249  0.0741
16062SOL    HW159405   5.533   9.772   5.255  0.4060 -0.7647 -1.3367
16062SOL    HW259406   5.380   9.747   5.202 -0.0557 -1.6251  0.3823
16063SOL     OW59407   6.235   1.693   1.831  0.3096 -0.2774  0.3655
16063SOL    HW159408   6.280   1.762   1.774  0.4534 -2.3462 -2.1615
16063SOL    HW259409   6.297   1.663   1.903  1.0113  0.7164  0.1780
16064SOL     OW59410   5.900   3.108   3.491 -0.0972 -0.2048  0.1151
16064SOL    HW159411   5.850   3.169   3.552  1.1768  0.2948  0.6829
16064SOL    HW259412   5.854   3.104   3.402 -0.6302  0.9586  0.3325
16065SOL     OW59413   1.156   5.426   6.536  0.9239  0.5807  0.0616
16065SOL    HW159414   1.158   5.414   6.635  0.4284  0.8565  0.1052
16065SOL    HW259415   1.084   5.492   6.511  0.5828 -0.0070 -0.5329
16066SOL     OW59416   2.213   0.353   4.260 -0.2592  0.0192 -0.0423
16066SOL    HW159417   2.186   0.262   4.229  1.4923 -0.5571  0.0282
16066SOL    HW259418   2.178   0.369   4.352 -0.8816 -0.4386 -0.1971
16067SOL     OW59419   3.851   9.545   3.855 -0.6164 -0.0726 -0.2007
16067SOL    HW159420   3.876   9.453   3.884 -0.8819 -0.1115 -0.0957
16067SOL    HW259421   3.868   9.609   3.929 -0.2241 -0.0031 -0.3491
16068SOL     OW59422   8.933   1.690   5.700 -0.1700  0.5245 -0.0756
16068SOL    HW159423   8.841   1.711   5.733  0.0340  0.9798  0.2043
16068SOL    HW259424   8.998   1.700   5.775 -0.2929 -2.8841  0.5546
16069SOL     OW59425   2.731   7.595   0.757  0.3145  0.1803  0.5428
16069SOL    HW159426   2.761   7.690   0.759  0.8332  0.0335 -0.0835
16069SOL    HW259427   2.673   7.577   0.836  2.2328  0.3453  2.0226
16070SOL     OW59428   1.074   0.188   0.416 -0.6236 -0.1797  0.0906
16070SOL    HW159429   1.172   0.199   0.427 -0.2166 -2.2191 -1.1774
16070SOL    HW259430   1.027   0.217   0.500  1.1688 -0.6488  1.2842
16071SOL     OW59431   9.512   6.198   6.260 -0.9891 -0.6268  0.2543
16071SOL    HW159432   9.544   6.136   6.188 -2.3462 -1.7176  0.5749
16071SOL    HW259433   9.498   6.289   6.222 -1.9898 -1.2707 -0.9460
16072SOL     OW59434   7.323   7.842   5.160  0.3396  0.2784  0.1331
16072SOL    HW159435   7.389   7.899   5.209 -0.1087  1.0249 -0.1189
16072SOL    HW259436   7.278   7.897   5.090  1.0296 -0.8014 -1.1706
16073SOL     OW59437   8.962   7.551   4.045  0.0796  0.3844 -0.1423
16073SOL    HW159438   8.971   7.573   3.948 -1.0334 -1.8598 -0.7867
16073SOL    HW259439   9.053   7.536   4.084  0.5139  1.0275 -0.8897
16074SOL     OW59440   1.860   5.690   6.421 -0.4775 -0.1818  0.2282
16074SOL    HW159441   1.779   5.728   6.466  0.0806  0.6769  0.5152
16074SOL    HW259442   1.859   5.590   6.428 -2.0226 -0.2424 -0.6446
16075SOL     OW59443   3.089   5.687   0.714  0.8605 -0.1513  0.0388
16075SOL    HW159444   3.183   5.716   0.734  0.6963 -0.3289  1.1083
16075SOL    HW259445   3.079   5.671   0.616  1.6257  1.0130 -0.2353
16076SOL     OW59446   2.959   9.154   0.190 -0.1047 -0.4372  0.4603
16076SOL    HW159447   2.974   9.233   0.131 -0.2578  1.8564  3.3531
16076SOL    HW259448   3.041   9.097   0.192  0.1847 -0.1060 -1.2560
16077SOL     OW59449   9.140   6.736   6.506  0.2696  0.0811  0.4566
16077SOL    HW159450   9.186   6.790   6.576 -0.5453  0.0626  1.0226
16077SOL    HW259451   9.052   6.703   6.543  0.0683 -0.3429 -0.4029
16078SOL     OW59452   1.550   0.574   4.558  0.0519 -0.0732  0.4613
16078SOL    HW159453   1.557   0.476   4.539  0.1963 -0.0976  0.6386
16078SOL    HW259454   1.617   0.624   4.502 -0.6898  0.0201 -0.3562
16079SOL     OW59455   5.913   0.873   3.116  0.2815  0.3529  0.6537
16079SOL    HW159456   5.992   0.919   3.076 -0.6515  1.1994 -0.2181
16079SOL    HW259457   5.900   0.784   3.071  0.4027  0.4520  0.4244
16080SOL     OW59458   7.666   6.926   4.958  0.1001  0.0678 -0.3230
16080SOL    HW159459   7.721   6.994   5.007  1.5937 -1.2471 -0.1519
16080SOL    HW259460   7.617   6.869   5.025 -1.5557  1.2594 -0.4733
16081SOL     OW59461   1.275   4.593   4.608 -0.1415 -0.8300  0.5131
16081SOL    HW159462   1.326   4.530   4.667  0.5324 -0.5071  0.2725
16081SOL    HW259463   1.305   4.687   4.626 -0.0518 -0.7166 -0.2277
16082SOL     OW59464   2.915   0.554   5.407 -0.5121 -0.3178 -0.3177
16082SOL    HW159465   2.871   0.573   5.319  0.0050 -1.2679 -0.7840
16082SOL    HW259466   3.000   0.606   5.413 -0.1009 -0.9191 -0.7636
16083SOL     OW59467   0.221   6.201   1.686  0.1777  0.6203  0.3537
16083SOL    HW159468   0.181   6.153   1.608 -0.1056  1.0546  0.2307
16083SOL    HW259469   0.213   6.300   1.673  0.2429  0.6998  0.8733
16084SOL     OW59470   1.087   0.055   6.061 -0.0773  0.6302  0.3496
16084SOL    HW159471   1.150  -0.019   6.037  2.6914  1.7328  3.8179
16084SOL    HW259472   1.013   0.059   5.993  2.1075 -2.4004 -2.3713
16085SOL     OW59473   9.531   9.352   2.347 -0.1745  0.0012 -0.2431
16085SOL    HW159474   9.559   9.320   2.438 -2.4938  0.1687  0.5605
16085SOL    HW259475   9.526   9.451   2.347 -1.5733 -0.0651 -0.1248
16086SOL     OW59476   8.035   9.045   5.972 -0.7716  0.0192  0.3771
16086SOL    HW159477   8.076   9.026   5.882  0.0445  0.1517  0.7247
16086SOL    HW259478   8.077   9.126   6.012 -1.3378  0.1266  0.7610
16087SOL     OW59479   0.903   4.492   0.879  0.4777 -0.1054 -0.2925
16087SOL    HW159480   0.820   4.436   0.884  0.5142 -0.0239  1.5539
16087SOL    HW259481   0.915   4.541   0.965  0.6520  2.4960 -1.7474
16088SOL     OW59482   2.299   4.483   0.083  0.1821  0.2263  0.1359
16088SOL    HW159483   2.321   4.565   0.136 -0.5727  0.9699 -0.6729
16088SOL    HW259484   2.265   4.510  -0.007  0.2511 -0.9909 -0.2682
16089SOL     OW59485   1.347   1.833   6.165  0.1342 -0.0537  0.6632
16089SOL    HW159486   1.418   1.770   6.198  0.4894 -0.3024 -0.5456
16089SOL    HW259487   1.259   1.786   6.162  0.1162 -0.0510  1.1886
16090SOL     OW59488   0.294   5.072   2.230 -0.2191 -0.2475 -0.1174
16090SOL    HW159489   0.302   5.099   2.326 -1.8528  0.7724 -0.2519
16090SOL    HW259490   0.353   4.993   2.213 -0.2001 -0.6771  1.8128
16091SOL     OW59491   1.754   7.283   1.262 -0.2273  0.4573  0.6078
16091SOL    HW159492   1.815   7.214   1.303 -0.2528  0.8836  1.3677
16091SOL    HW259493   1.685   7.310   1.329  1.0229  2.7457  1.0322
16092SOL     OW59494   0.881   3.092   1.486 -0.2003  0.0148 -0.1688
16092SOL    HW159495   0.825   3.088   1.404 -0.3669  0.8849 -0.1061
16092SOL    HW259496   0.892   3.188   1.514 -0.2583 -0.2802  0.8906
16093SOL     OW59497   9.366   2.744   1.685  0.1169  0.5924 -0.0602
16093SOL    HW159498   9.410   2.665   1.642 -0.9817 -0.5210  0.8250
16093SOL    HW259499   9.363   2.820   1.620 -2.5355 -1.4238 -2.4240
16094SOL     OW59500   4.540   1.303   5.995  0.4924  0.2130  0.5410
16094SOL    HW159501   4.501   1.211   6.006 -0.2284  0.3950 -0.4372
16094SOL    HW259502   4.468   1.367   5.970  1.2135  0.7968 -0.0671
16095SOL     OW59503   3.143   9.358   2.323  0.6770  0.7393 -0.0456
16095SOL    HW159504   3.073   9.408   2.271 -0.8035 -1.6975 -0.4937
16095SOL    HW259505   3.210   9.319   2.259 -0.3135 -1.0110 -0.0463
16096SOL     OW59506   1.703   1.751   5.324 -0.1141  0.0246 -0.3204
16096SOL    HW159507   1.779   1.786   5.270 -0.2607 -0.8701 -1.1352
16096SOL    HW259508   1.688   1.810   5.403  2.1881 -0.4328  0.5047
16097SOL     OW59509   4.606   4.799   3.663  0.0601  0.3551 -0.1287
16097SOL    HW159510   4.584   4.827   3.570 -0.8245 -1.8440 -0.6181
16097SOL    HW259511   4.523   4.764   3.707  0.4536  1.4773  1.5174
16098SOL     OW59512   0.793   3.362   4.394 -0.2693  0.0623 -0.5445
16098SOL    HW159513   0.771   3.438   4.454  0.2445  0.6134 -1.0349
16098SOL    HW259514   0.714   3.301   4.386 -0.1296 -0.3702  1.1857
16099SOL     OW59515   1.141   1.851   3.357 -0.3597  0.3155 -0.5812
16099SOL    HW159516   1.082   1.770   3.362  0.1728 -0.2279 -2.6183
16099SOL    HW259517   1.228   1.826   3.315  0.7153  1.4655  0.9008
16100SOL     OW59518   3.542   3.486   6.398 -0.2838 -0.0986 -0.4730
16100SOL    HW159519   3.460   3.433   6.419 -0.0959  0.2814  1.2581
16100SOL    HW259520   3.531   3.580   6.430  0.5372  0.1589 -0.9044
16101SOL     OW59521   7.569   3.992   2.026  0.2194  0.7220 -0.0829
16101SOL    HW159522   7.590   3.909   2.078 -1.9879  0.2712  0.1446
16101SOL    HW259523   7.493   3.974   1.964 -0.3825  2.5967  0.0709
16102SOL     OW59524   2.007   6.781   6.237 -0.0187 -0.2589  0.1278
16102SOL    HW159525   2.071   6.857   6.221 -1.6998  1.1028 -0.2428
16102SOL    HW259526   1.928   6.792   6.178 -1.0535 -1.4022  1.2930
16103SOL     OW59527   0.842   0.386   5.884 -0.6750 -0.6886 -0.5077
16103SOL    HW159528   0.900   0.377   5.965 -0.0620 -1.2115 -0.9974
16103SOL    HW259529   0.886   0.340   5.806  0.2974  2.5839 -1.9868
16104SOL     OW59530   8.895   8.567   6.408 -0.1704  0.2238  0.2321
16104SOL    HW159531   8.913   8.639   6.340  0.5135 -1.1329 -1.0325
16104SOL    HW259532   8.904   8.477   6.365 -2.1569 -0.6245  1.5310
16105SOL     OW59533   8.766   7.716   4.917  0.0262  0.5577  0.2142
16105SOL    HW159534   8.729   7.749   5.004 -0.4756  1.9848 -0.5244
16105SOL    HW259535   8.714   7.635   4.888  1.5228 -1.1783  2.2272
16106SOL     OW59536   3.312   8.826   6.113 -0.6563 -0.9410 -0.2355
16106SOL    HW159537   3.377   8.822   6.189 -0.5717 -1.8183 -0.3458
16106SOL    HW259538   3.219   8.815   6.149 -0.8059  0.9497 -0.0063
16107SOL     OW59539   1.658   6.547   5.811 -0.0770  0.4030 -0.7605
16107SOL    HW159540   1.656   6.600   5.896  1.5527  2.3872 -1.9074
16107SOL    HW259541   1.573   6.563   5.760 -0.8214 -0.3671  0.1987
16108SOL     OW59542   4.263   7.342   3.272 -0.1910  0.7809 -0.2212
16108SOL    HW159543   4.170   7.308   3.268 -0.7011  2.1487 -0.2258
16108SOL    HW259544   4.285   7.388   3.185  0.6545  0.0382 -0.4083
16109SOL     OW59545   5.034   1.414   4.668 -0.2101  0.1586 -0.2965
16109SOL    HW159546   4.962   1.369   4.722 -0.0497  0.0426 -0.1784
16109SOL    HW259547   5.061   1.354   4.593  1.0048 -0.5563  0.6944
16110SOL     OW59548   7.235   8.995   5.602  0.3887  0.1174 -0.4908
16110SOL    HW159549   7.298   8.922   5.627  0.7580  0.9043  0.9418
16110SOL    HW259550   7.261   9.079   5.649 -1.1972  0.6871 -0.5983
16111SOL     OW59551   1.360   3.809   0.689  0.1024 -0.1054  0.1335
16111SOL    HW159552   1.387   3.761   0.772 -1.2829 -0.8255  0.1838
16111SOL    HW259553   1.306   3.747   0.631  0.6429  0.5390 -1.0755
16112SOL     OW59554   1.945   2.720   1.946 -0.3786 -0.2163  0.0322
16112SOL    HW159555   2.003   2.798   1.972  0.1733 -0.7411  0.3834
16112SOL    HW259556   1.996   2.659   1.887 -0.9961 -0.0372 -0.6983
16113SOL     OW59557   2.285   9.888   6.383  0.2751 -0.3805  0.5074
16113SOL    HW159558   2.254   9.800   6.417 -2.1049  0.7241  1.2492
16113SOL    HW259559   2.363   9.874   6.321 -0.4576 -3.0242  0.1376
16114SOL     OW59560   7.616   5.506   6.258  0.4564  0.1716 -0.1577
16114SOL    HW159561   7.715   5.492   6.265  0.6353 -0.5054 -3.1861
16114SOL    HW259562   7.586   5.571   6.329  3.0087  0.1796  0.9618
16115SOL     OW59563   4.308   4.400   4.172 -0.2815  0.4047  0.1888
16115SOL    HW159564   4.273   4.492   4.191  0.9030  0.5600  1.6895
16115SOL    HW259565   4.408   4.403   4.170 -0.2520 -0.7705 -0.2383
16116SOL     OW59566   9.048   8.737   1.082  0.2107  0.2074 -0.5465
16116SOL    HW159567   8.976   8.692   1.135  0.8921 -2.3846 -1.7279
16116SOL    HW259568   9.134   8.735   1.133  0.4078 -0.4799 -0.9065
16117SOL     OW59569   5.058   9.752   4.698  0.0796  0.6838 -0.6794
16117SOL    HW159570   5.126   9.699   4.749 -0.8625 -0.2725 -0.3828
16117SOL    HW259571   5.093   9.843   4.679  1.4097  0.2264 -0.4657
16118SOL     OW59572   8.403   5.079   4.968  0.1733 -0.0163 -0.4257
16118SOL    HW159573   8.373   5.173   4.985 -0.0352  0.2758 -2.2833
16118SOL    HW259574   8.461   5.077   4.886  2.0515 -1.1704  0.8787
16119SOL     OW59575   1.895   9.447   5.602 -0.3242  0.2622 -0.4701
16119SOL    HW159576   1.994   9.439   5.592 -0.5110 -0.7430 -1.6498
16119SOL    HW259577   1.874   9.488   5.691  1.1049 -0.5180  0.2498
16120SOL     OW59578   2.248   8.072   1.453  0.3129 -0.0834 -0.8322
16120SOL    HW159579   2.324   8.047   1.512 -1.4256  1.0009  1.9641
16120SOL    HW259580   2.232   8.170   1.460 -1.0131 -0.2247 -1.7866
16121SOL     OW59581   0.579   9.855   0.423 -0.5789  0.6912  0.3614
16121SOL    HW159582   0.488   9.895   0.434 -0.7958 -0.1264  1.5618
16121SOL    HW259583   0.571   9.757   0.410  0.2155  0.3325  2.3443
16122SOL     OW59584   1.998   9.300   3.894 -0.0470  0.2037  0.1726
16122SOL    HW159585   1.913   9.247   3.893  0.0704 -0.0023 -1.2952
16122SOL    HW259586   2.071   9.244   3.933 -0.6718  0.5424  1.8647
16123SOL     OW59587   1.231   7.028   6.302  0.0702  0.3252 -0.3322
16123SOL    HW159588   1.156   7.019   6.368  0.1443  3.7576  0.3380
16123SOL    HW259589   1.310   6.975   6.334 -0.8152 -0.2848  0.8853
16124SOL     OW59590   0.875   3.776   0.998 -0.1751 -0.5943  0.1121
16124SOL    HW159591   0.839   3.849   1.056  0.3824  0.3510 -0.6940
16124SOL    HW259592   0.898   3.814   0.908  0.4001 -1.7068 -0.2218
16125SOL     OW59593   1.075   4.179   2.158 -0.1091 -0.0980  0.0123
16125SOL    HW159594   1.110   4.120   2.085  1.3900  0.5274  0.2055
16125SOL    HW259595   0.993   4.227   2.125  0.8844  0.6181 -1.4684
16126SOL     OW59596   9.769   1.657   3.727 -0.0875 -0.0017 -0.2521
16126SOL    HW159597   9.687   1.658   3.783 -1.1652 -0.8477 -1.7964
16126SOL    HW259598   9.745   1.639   3.631  1.7637  0.9221 -0.9281
16127SOL     OW59599   8.042   4.381   2.111  0.2914  0.6701  0.3829
16127SOL    HW159600   8.093   4.338   2.037  1.2943 -1.2205  2.1453
16127SOL    HW259601   8.072   4.476   2.121  0.9182  0.6192 -0.9084
16128SOL     OW59602   2.811   5.403   6.739 -0.4102 -0.2148  0.0849
16128SOL    HW159603   2.789   5.500   6.734  0.1597 -0.0887 -0.0546
16128SOL    HW259604   2.877   5.387   6.813  0.0236 -0.3915 -0.3326
16129SOL     OW59605   4.871   0.216   6.579 -0.0729 -0.2760  0.6518
16129SOL    HW159606   4.877   0.235   6.481  0.4243 -0.4146  0.6515
16129SOL    HW259607   4.850   0.119   6.593  2.7796 -0.9537  0.6929
16130SOL     OW59608   5.503   9.178   2.395  0.2733 -0.0243 -0.3828
16130SOL    HW159609   5.442   9.113   2.439  1.0025 -1.2492 -1.1447
16130SOL    HW259610   5.573   9.207   2.460  0.1734 -0.2973 -0.1518
16131SOL     OW59611   7.364   2.349   1.965  0.1474 -0.2572 -0.0068
16131SOL    HW159612   7.398   2.405   1.889  1.0142 -0.8009 -0.0281
16131SOL    HW259613   7.403   2.382   2.051  3.5265 -2.9860 -0.3853
16132SOL     OW59614   6.937   0.779   1.734 -0.1463  0.8879 -0.1070
16132SOL    HW159615   6.916   0.713   1.807  2.8638 -0.0865 -0.0534
16132SOL    HW259616   6.961   0.867   1.774  2.0439  0.1998  0.1567
16133SOL     OW59617   2.429   3.176   5.290  0.0302  0.2073 -0.0728
16133SOL    HW159618   2.354   3.119   5.258 -0.2450  0.4896  0.0708
16133SOL    HW259619   2.489   3.122   5.349  0.1557 -0.1223 -0.5034
16134SOL     OW59620   2.153   2.171   2.879 -0.1256 -0.5648 -0.1987
16134SOL    HW159621   2.062   2.182   2.919 -0.1380  0.2074 -0.4194
16134SOL    HW259622   2.145   2.165   2.779  0.0895 -0.1535 -0.2412
16135SOL     OW59623   0.108   2.486   4.722 -0.3390 -0.1963 -0.6068
16135SOL    HW159624   0.089   2.411   4.658  1.5743 -1.5739  0.4027
16135SOL    HW259625   0.185   2.540   4.688 -0.2106 -0.0864 -0.1430
16136SOL     OW59626   8.164   7.375   3.858  0.0754 -0.4936 -0.2222
16136SOL    HW159627   8.213   7.288   3.856  0.9410  0.0088 -1.9024
16136SOL    HW259628   8.168   7.417   3.768 -1.2606  0.7854  0.3040
16137SOL     OW59629   4.453   2.352   0.062 -0.0317 -0.0767  0.5256
16137SOL    HW159630   4.491   2.430   0.012 -1.5690  0.1699 -0.2694
16137SOL    HW259631   4.500   2.269   0.033 -0.7777  0.0867 -1.2087
16138SOL     OW59632   1.635   3.583   6.298  0.2821 -0.1638  0.0863
16138SOL    HW159633   1.604   3.632   6.380 -0.4385 -0.2341 -0.1399
16138SOL    HW259634   1.555   3.554   6.245  0.7599  0.6407 -1.0934
16139SOL     OW59635   3.611   8.163   2.371  0.1829  0.0922  0.1889
16139SOL    HW159636   3.669   8.180   2.450 -0.6559  0.8696  0.6442
16139SOL    HW259637   3.618   8.240   2.307  0.1385 -0.0955 -0.0405
16140SOL     OW59638   1.472   4.147   4.842 -0.1506 -0.1910 -0.8733
16140SOL    HW159639   1.500   4.200   4.762 -3.2133  0.3290 -1.6721
16140SOL    HW259640   1.405   4.078   4.815  0.1534 -1.2411  0.9669
16141SOL     OW59641   0.475   4.107   0.046  0.4326 -0.0325  0.1291
16141SOL    HW159642   0.530   4.182   0.084  1.6709 -0.2944 -1.0999
16141SOL    HW259643   0.443   4.048   0.120  1.7893  0.1308  0.8608
16142SOL     OW59644   3.077   8.233   4.949  0.2938  0.7784  0.3246
16142SOL    HW159645   3.062   8.142   4.985 -1.0133  0.8114 -0.0883
16142SOL    HW259646   2.995   8.289   4.964  0.1844  1.1617 -1.5227
16143SOL     OW59647   5.458   4.883   0.047 -0.3018  0.4865 -0.0634
16143SOL    HW159648   5.457   4.785   0.072 -0.2794  0.3261 -0.7013
16143SOL    HW259649   5.390   4.900  -0.024 -0.7857  1.0674  0.5373
16144SOL     OW59650   8.102   0.949   2.292 -0.1381  0.2682  0.4842
16144SOL    HW159651   8.027   0.884   2.305 -0.3999  0.5790  0.5310
16144SOL    HW259652   8.114   0.965   2.194  1.8444 -2.0792  0.2854
16145SOL     OW59653   9.581   2.539   0.953 -1.0901 -0.2276 -0.1965
16145SOL    HW159654   9.543   2.630   0.937  1.2992  0.7379 -0.5007
16145SOL    HW259655   9.582   2.488   0.866 -2.1964 -0.4833 -0.0730
16146SOL     OW59656   7.379   9.750   4.226 -0.3178  0.1167 -0.1528
16146SOL    HW159657   7.421   9.823   4.280 -0.4585  0.0954 -0.0125
16146SOL    HW259658   7.280   9.751   4.240 -0.4609  0.7044 -1.1394
16147SOL     OW59659   1.868   1.185   6.592  0.2187 -0.0563  0.0209
16147SOL    HW159660   1.819   1.262   6.551 -1.5167 -1.2448 -0.2010
16147SOL    HW259661   1.865   1.107   6.529  0.7079 -0.7486  0.8499
16148SOL     OW59662   1.337   3.807   2.535  0.1074  0.9342  0.3553
16148SOL    HW159663   1.412   3.785   2.471  0.9739  2.9561  0.6434
16148SOL    HW259664   1.250   3.788   2.491  0.7528 -1.4036 -0.0216
16149SOL     OW59665   1.063   3.143   2.917  0.5306 -0.0269  0.3703
16149SOL    HW159666   1.157   3.111   2.927  1.3802  2.7898  1.9752
16149SOL    HW259667   1.037   3.140   2.820  2.7334  0.4098 -0.2595
16150SOL     OW59668   4.370   3.167   2.748 -0.2751  0.5176  0.2617
16150SOL    HW159669   4.388   3.252   2.797 -0.7324  1.5792 -1.3843
16150SOL    HW259670   4.436   3.157   2.673  0.2805 -0.9758  0.9212
16151SOL     OW59671   8.758   6.066   5.351  0.6683 -0.5960 -0.1001
16151SOL    HW159672   8.833   6.132   5.341  0.4475 -0.1583  1.0197
16151SOL    HW259673   8.797   5.975   5.365  1.0107 -0.2820  1.0638
16152SOL     OW59674   2.448   6.502   4.145  0.0729 -0.1011  0.1630
16152SOL    HW159675   2.406   6.416   4.171 -1.4373  0.4240 -0.5110
16152SOL    HW259676   2.406   6.577   4.195  0.0749  0.4440 -0.6324
16153SOL     OW59677   3.609   0.643   0.681  0.1708  0.2321  0.0528
16153SOL    HW159678   3.681   0.662   0.614  0.9596 -1.8139  0.3172
16153SOL    HW259679   3.619   0.705   0.759  1.9844 -0.4026  0.3461
16154SOL     OW59680   8.385   0.476   0.113 -0.3404  0.1325 -0.3027
16154SOL    HW159681   8.397   0.419   0.032 -0.4621 -0.2983 -0.0163
16154SOL    HW259682   8.414   0.426   0.195 -1.6226  0.0179  0.0977
16155SOL     OW59683   9.793   7.536   5.532  0.3745  0.6054 -0.2948
16155SOL    HW159684   9.827   7.614   5.480  0.1920  1.1627  0.4134
16155SOL    HW259685   9.791   7.455   5.473  1.2010  0.9769 -0.8451
16156SOL     OW59686   2.563   9.254   3.267 -0.7683 -0.3374  0.2411
16156SOL    HW159687   2.501   9.332   3.264 -1.8177 -1.1176  1.1739
16156SOL    HW259688   2.635   9.266   3.199 -2.2706  0.2898 -1.2540
16157SOL     OW59689   7.120   7.478   5.370  0.0695  0.1258 -0.3755
16157SOL    HW159690   7.197   7.515   5.317 -0.5006  0.8165 -0.7265
16157SOL    HW259691   7.155   7.439   5.455  0.7249  1.2619 -0.1025
16158SOL     OW59692   4.929   8.129   1.783  0.2363  0.5621 -0.2173
16158SOL    HW159693   4.924   8.148   1.881  1.1212  0.9794 -0.2557
16158SOL    HW259694   4.853   8.069   1.757  0.5336 -0.3102  0.8983
16159SOL     OW59695   7.724   3.868   0.887 -0.6956  0.0419  0.0604
16159SOL    HW159696   7.669   3.860   0.970 -0.4347  1.8572  0.4140
16159SOL    HW259697   7.778   3.785   0.875 -0.1733  0.0704  2.1078
16160SOL     OW59698   8.878   8.360   5.219 -0.4101  0.0307 -0.1439
16160SOL    HW159699   8.841   8.371   5.127 -0.1110  0.2863 -0.2359
16160SOL    HW259700   8.959   8.418   5.229 -0.1678 -0.3559  0.1259
16161SOL     OW59701   6.922   9.331   1.619  0.4649  0.0497  0.4705
16161SOL    HW159702   7.006   9.299   1.663  0.8187 -1.3128 -1.1340
16161SOL    HW259703   6.866   9.252   1.594 -0.0608  0.8277 -0.8423
16162SOL     OW59704   3.508   4.848   2.332  0.5770 -0.0654 -0.2035
16162SOL    HW159705   3.432   4.801   2.286  1.1423 -0.8877 -0.3182
16162SOL    HW259706   3.520   4.939   2.293  1.9011 -1.2367 -2.6531
16163SOL     OW59707   9.591   0.516   5.394 -0.0329 -0.2038  0.1836
16163SOL    HW159708   9.620   0.467   5.312  1.0527 -0.6149  0.7997
16163SOL    HW259709   9.556   0.606   5.367 -0.1247 -0.5093 -0.7650
16164SOL     OW59710   4.203   2.293   3.774  0.4205 -0.4012  0.0538
16164SOL    HW159711   4.175   2.280   3.679 -0.2963 -0.2269  0.2367
16164SOL    HW259712   4.125   2.324   3.828  1.1104  0.6303  0.4648
16165SOL     OW59713   2.832   2.985   0.023 -0.3417  0.4493 -0.6648
16165SOL    HW159714   2.925   2.968   0.056 -0.7018 -1.6136 -0.6710
16165SOL    HW259715   2.801   2.908  -0.032 -2.2540  0.8640 -0.2159
16166SOL     OW59716   2.315   9.032   6.117  0.1907 -0.2135  0.0361
16166SOL    HW159717   2.341   9.112   6.170 -1.4290  0.2022  0.2198
16166SOL    HW259718   2.285   8.959   6.179 -2.6277  0.6027 -0.2952
16167SOL     OW59719   9.140   4.498   2.691 -0.3377  0.2329  0.3094
16167SOL    HW159720   9.186   4.558   2.756  2.0552 -2.1642  0.9142
16167SOL    HW259721   9.188   4.500   2.604 -0.1326 -0.9244  0.3880
16168SOL     OW59722   0.605   8.861   1.835 -0.3608 -0.2841 -0.2383
16168SOL    HW159723   0.513   8.823   1.825 -0.2183 -0.2402 -1.8664
16168SOL    HW259724   0.672   8.796   1.798  0.1699  0.0878  0.0723
16169SOL     OW59725   2.331   3.851   2.976 -0.3014  0.0997 -0.4056
16169SOL    HW159726   2.355   3.932   3.031 -0.9417  0.5621 -0.8061
16169SOL    HW259727   2.285   3.880   2.892  1.0907 -0.5831 -1.4195
16170SOL     OW59728   2.728   2.645   3.509 -0.1606 -0.4297  1.1119
16170SOL    HW159729   2.733   2.628   3.411 -1.3888 -0.9619  1.1258
16170SOL    HW259730   2.784   2.724   3.533 -0.0870 -0.1289 -0.0505
16171SOL     OW59731   5.256   6.707   2.063 -0.7034 -0.5917  0.5334
16171SOL    HW159732   5.232   6.745   2.152 -1.0896 -1.5604  0.8510
16171SOL    HW259733   5.327   6.764   2.020  0.6314 -1.0228  2.1427
16172SOL     OW59734   8.261   9.601   3.737 -0.1782 -0.7421 -0.0753
16172SOL    HW159735   8.206   9.646   3.807  0.1158  0.0425 -0.3410
16172SOL    HW259736   8.318   9.530   3.779 -0.2045 -0.4669  0.4277
16173SOL     OW59737   6.444   8.262   2.284 -0.0072  0.6829  0.5510
16173SOL    HW159738   6.519   8.327   2.294  0.5248  0.2172 -0.3587
16173SOL    HW259739   6.417   8.256   2.188  1.4353 -2.0632  0.2566
16174SOL     OW59740   2.649   9.159   3.998 -0.3026 -0.3790 -0.6373
16174SOL    HW159741   2.655   9.061   4.012  0.2862 -0.3338 -0.5525
16174SOL    HW259742   2.698   9.206   4.071  2.0682 -0.1134 -2.3208
16175SOL     OW59743   5.226   9.091   5.606  0.1815 -0.4383  0.3318
16175SOL    HW159744   5.259   9.181   5.578 -0.6746 -0.7004 -1.5400
16175SOL    HW259745   5.235   9.082   5.706  2.4567  0.8216  0.2808
16176SOL     OW59746   9.228   7.305   1.064  0.0873 -0.3039  0.5636
16176SOL    HW159747   9.315   7.316   1.017  0.5700  1.2652  1.8092
16176SOL    HW259748   9.196   7.394   1.097 -1.8809 -0.8892  0.3213
16177SOL     OW59749   0.603   1.520   4.054  0.0130  0.0051 -0.3538
16177SOL    HW159750   0.622   1.585   4.127  1.0653  0.0384 -0.6437
16177SOL    HW259751   0.560   1.569   3.977 -0.7266  0.0404  0.0710
16178SOL     OW59752   1.733   0.402   6.224  0.2320  0.2548 -0.3470
16178SOL    HW159753   1.769   0.383   6.316  0.9050  2.4009 -0.1376
16178SOL    HW259754   1.798   0.459   6.174 -0.3636 -0.4884 -1.9955
16179SOL     OW59755   6.351   0.459   4.297 -0.1418 -0.2541  0.2064
16179SOL    HW159756   6.359   0.437   4.395  2.5720  0.1088  0.0987
16179SOL    HW259757   6.290   0.393   4.253 -1.6539 -0.2417  2.1774
16180SOL     OW59758   6.840   8.838   3.202 -1.0156  0.1013  0.3915
16180SOL    HW159759   6.817   8.886   3.287 -1.8974 -0.7700  0.6589
16180SOL    HW259760   6.887   8.753   3.224 -0.4229  0.3178 -0.0361
16181SOL     OW59761   3.557   1.558   2.945 -0.5866  0.3389 -0.1624
16181SOL    HW159762   3.532   1.569   2.849 -0.7782 -1.1176 -0.2906
16181SOL    HW259763   3.592   1.465   2.961 -1.3956  0.2637  1.3443
16182SOL     OW59764   9.470   2.512   1.590  0.1984 -0.1381  0.1516
16182SOL    HW159765   9.559   2.492   1.551  0.1893 -0.0562  0.0877
16182SOL    HW259766   9.403   2.445   1.558  0.4017 -0.6680  0.8243
16183SOL     OW59767   2.989   5.656   5.186  0.6002 -0.8586 -0.0117
16183SOL    HW159768   2.926   5.596   5.233  0.2886 -1.2723 -0.9439
16183SOL    HW259769   3.027   5.610   5.106  1.0660 -0.1487 -0.2135
16184SOL     OW59770   0.846   3.916   2.373  0.5997 -0.3585  0.8110
16184SOL    HW159771   0.827   3.869   2.287  0.3930 -0.4036  0.8813
16184SOL    HW259772   0.760   3.938   2.419  0.5889  2.2697 -0.3921
16185SOL     OW59773   4.148   7.795   2.753  0.3325  0.0666 -0.0787
16185SOL    HW159774   4.200   7.723   2.800  1.0207 -0.2995 -1.3755
16185SOL    HW259775   4.205   7.838   2.684 -1.0901 -0.3582 -1.5510
16186SOL     OW59776   0.139   0.819   1.483  0.2096 -0.4787 -0.1841
16186SOL    HW159777   0.087   0.783   1.406 -0.1418 -0.0818 -0.1315
16186SOL    HW259778   0.100   0.785   1.569 -1.8863  2.2535  0.0096
16187SOL     OW59779   8.284   5.673   3.164  0.2036 -0.0142 -0.1742
16187SOL    HW159780   8.348   5.656   3.239  1.6274  1.3106 -1.0783
16187SOL    HW259781   8.300   5.763   3.125 -0.5625 -0.6604 -2.0520
16188SOL     OW59782   2.552   2.893   2.108 -0.4554 -0.0168  0.2683
16188SOL    HW159783   2.566   2.964   2.039  1.9336 -0.6311  0.0956
16188SOL    HW259784   2.545   2.804   2.064 -1.5929 -0.1165  0.6336
16189SOL     OW59785   0.521   8.032   0.484 -0.7151  0.2861 -0.6827
16189SOL    HW159786   0.550   8.118   0.528  0.3787  0.1947 -1.1942
16189SOL    HW259787   0.494   7.967   0.555  0.3591  0.3833 -0.1556
16190SOL     OW59788   7.794   1.988   4.364 -0.5887  0.1268 -0.6018
16190SOL    HW159789   7.841   1.901   4.378 -0.8371  0.1448  0.3615
16190SOL    HW259790   7.808   2.047   4.443 -1.1933  0.6106 -0.8515
16191SOL     OW59791   2.188   5.352   1.690  0.1032  0.6539  0.0303
16191SOL    HW159792   2.164   5.292   1.614  0.2437 -0.6485  1.0109
16191SOL    HW259793   2.104   5.387   1.731  0.0085  0.5279 -0.0548
16192SOL     OW59794   3.821   0.995   1.832 -1.0554 -0.3537 -0.0192
16192SOL    HW159795   3.909   0.955   1.802 -0.5324 -1.1138  2.4547
16192SOL    HW259796   3.756   0.921   1.851 -1.9645  0.1872 -0.9610
16193SOL     OW59797   7.439   2.582   1.800  0.1284  0.0129  0.0668
16193SOL    HW159798   7.530   2.612   1.827 -0.6271  0.8415  1.8351
16193SOL    HW259799   7.397   2.652   1.742 -0.4370  0.9969  1.6122
16194SOL     OW59800   0.157   5.844   4.749  0.0293 -0.6796 -0.2983
16194SOL    HW159801   0.085   5.900   4.791  1.5666 -0.1050  1.6421
16194SOL    HW259802   0.172   5.874   4.654  0.2982  1.7214  0.4652
16195SOL     OW59803   3.739   3.689   1.419  0.2206  0.2251 -0.8730
16195SOL    HW159804   3.695   3.754   1.482 -0.0012 -0.6203 -0.1273
16195SOL    HW259805   3.791   3.738   1.350  2.3658  1.1531  1.3368
16196SOL     OW59806   3.160   5.941   0.985 -0.3550 -0.4086  0.0222
16196SOL    HW159807   3.074   5.897   0.960 -0.4212  0.8240 -1.9896
16196SOL    HW259808   3.146   6.039   0.995  0.7034 -0.2731  0.2249
16197SOL     OW59809   4.629   9.022   3.654  0.1933 -0.2708 -0.1470
16197SOL    HW159810   4.705   9.030   3.720 -0.2048 -2.3981  0.6133
16197SOL    HW259811   4.547   9.063   3.694  0.6306  1.0191 -0.5156
16198SOL     OW59812   2.800   5.521   5.380 -0.1017  0.5770  0.1832
16198SOL    HW159813   2.705   5.526   5.350 -0.2838  0.8727  0.8005
16198SOL    HW259814   2.803   5.515   5.480  0.5125  0.0943  0.1389
16199SOL     OW59815   4.787   7.785   2.087 -0.1840  0.4182 -0.3474
16199SOL    HW159816   4.781   7.692   2.051  0.0663  1.2597 -2.6671
16199SOL    HW259817   4.877   7.823   2.064 -0.2163  1.1614  0.7664
16200SOL     OW59818   2.671   5.353   0.243 -0.0103 -0.1864 -0.6265
16200SOL    HW159819   2.685   5.256   0.224  0.1596 -0.7941  2.3034
16200SOL    HW259820   2.749   5.388   0.296 -0.4120  1.3631 -1.0372
16201SOL     OW59821   2.749   4.333   6.103 -0.2947  0.1639  0.0070
16201SOL    HW159822   2.692   4.388   6.041 -0.2047 -1.1291 -1.2615
16201SOL    HW259823   2.715   4.342   6.196 -0.3218  2.3102 -0.1842
16202SOL     OW59824   0.782   7.822   4.521 -0.3115 -0.0539  0.2367
16202SOL    HW159825   0.828   7.870   4.447  0.2886  0.0929  0.7075
16202SOL    HW259826   0.705   7.877   4.554 -0.6154 -0.1454 -0.3078
16203SOL     OW59827   4.447   1.365   1.366  0.7788 -1.0532 -0.3942
16203SOL    HW159828   4.468   1.275   1.404  1.9614 -0.9589 -0.8172
16203SOL    HW259829   4.467   1.436   1.435  0.1344 -1.0861 -0.1681
16204SOL     OW59830   0.255   6.842   6.578 -0.1086  0.6225 -0.1947
16204SOL    HW159831   0.215   6.770   6.521 -0.3098  1.5403 -1.2153
16204SOL    HW259832   0.346   6.865   6.544  0.0503  0.6966  0.2752
16205SOL     OW59833   5.749   3.009   4.373  0.4152 -0.6058 -0.4144
16205SOL    HW159834   5.661   3.008   4.421  0.3842  2.4933 -0.2700
16205SOL    HW259835   5.794   2.921   4.383 -1.5773 -1.4458  1.5747
16206SOL     OW59836   5.356   5.973   1.186  0.0953 -0.4369 -0.2695
16206SOL    HW159837   5.404   5.910   1.125  2.7535 -0.6762  1.9756
16206SOL    HW259838   5.369   6.067   1.153 -1.2247 -0.7819 -1.8474
16207SOL     OW59839   4.850   9.411   3.672 -0.1757 -0.1186  1.0085
16207SOL    HW159840   4.939   9.454   3.686 -0.1360  0.1421  0.0237
16207SOL    HW259841   4.852   9.357   3.587 -0.7102 -0.7628  1.3954
16208SOL     OW59842   2.498   5.075   5.017 -0.3775  0.1513  0.1434
16208SOL    HW159843   2.404   5.072   4.982 -0.2374 -0.7265 -0.1562
16208SOL    HW259844   2.506   5.017   5.098 -0.1350  0.3720  0.2779
16209SOL     OW59845   3.359   0.516   2.467 -0.6017  0.3060 -0.3643
16209SOL    HW159846   3.335   0.512   2.564  0.1210  1.8803 -0.1026
16209SOL    HW259847   3.298   0.580   2.420 -1.0420 -0.5628 -0.9752
16210SOL     OW59848   4.335   5.304   6.658 -0.2947 -0.0781 -0.2616
16210SOL    HW159849   4.313   5.207   6.644  0.0816 -0.5212  1.9847
16210SOL    HW259850   4.256   5.360   6.635 -0.5908 -0.9301 -1.3536
16211SOL     OW59851   4.250   2.790   4.260 -0.2241  0.0739  0.0749
16211SOL    HW159852   4.346   2.817   4.269 -0.3992  1.0692 -0.8868
16211SOL    HW259853   4.209   2.781   4.350  0.6705  0.0200  0.4823
16212SOL     OW59854   1.720   5.247   6.301 -0.3386 -0.2881  0.3760
16212SOL    HW159855   1.775   5.187   6.359 -2.2146 -1.8847  0.5551
16212SOL    HW259856   1.631   5.205   6.284  0.4675 -0.3390 -4.5105
16213SOL     OW59857   8.089   7.067   5.478 -0.3837  0.1455  0.5373
16213SOL    HW159858   8.036   7.011   5.542 -0.2482 -0.2844  0.2767
16213SOL    HW259859   8.120   7.150   5.524  1.2399 -0.9953  1.5598
16214SOL     OW59860   2.194   6.747   0.659 -0.0500  0.6054 -0.5929
16214SOL    HW159861   2.236   6.826   0.703  0.2820  1.2598 -2.0348
16214SOL    HW259862   2.253   6.714   0.585  0.8441 -2.3630  1.3593
16215SOL     OW59863   9.482   8.103   0.689  0.2271  0.2011  0.1594
16215SOL    HW159864   9.432   8.055   0.761 -0.4275  0.2066 -0.2851
16215SOL    HW259865   9.436   8.189   0.669  0.2480  0.0698 -0.4566
16216SOL     OW59866   3.476   4.724   4.258 -0.3336 -0.3406  0.0120
16216SOL    HW159867   3.523   4.717   4.345 -0.0090  0.4084 -0.0980
16216SOL    HW259868   3.408   4.798   4.262 -0.9749 -0.9206 -0.0668
16217SOL     OW59869   9.352   2.184   3.682  0.0910  0.1003  0.2338
16217SOL    HW159870   9.349   2.228   3.593  0.5703  0.2350  0.2797
16217SOL    HW259871   9.275   2.121   3.691 -0.6688  1.0268  0.2219
16218SOL     OW59872   7.642   0.447   3.569 -0.2649 -0.2586  0.2887
16218SOL    HW159873   7.595   0.399   3.643  0.7260 -1.1394  0.3496
16218SOL    HW259874   7.586   0.444   3.487  0.9664 -3.9144 -0.4945
16219SOL     OW59875   5.624   9.151   2.149  0.0904  1.0268  0.0001
16219SOL    HW159876   5.608   9.060   2.111  0.2973  1.4550 -1.1200
16219SOL    HW259877   5.587   9.154   2.242  1.4335 -0.6583  0.6278
16220SOL     OW59878   9.114   9.168   0.243  0.3221 -0.4394  0.5667
16220SOL    HW159879   9.018   9.139   0.240  0.3058 -0.4098  0.7592
16220SOL    HW259880   9.136   9.219   0.161 -0.2425  0.8613  1.2154
16221SOL     OW59881   6.002   8.993   4.666 -0.3753  0.1994 -0.2488
16221SOL    HW159882   6.034   8.919   4.607  0.7531  0.1935  0.3460
16221SOL    HW259883   5.905   8.980   4.686 -0.2050 -1.0856 -0.2019
16222SOL     OW59884   8.381   9.356   2.209  0.4519 -0.7676 -0.2101
16222SOL    HW159885   8.316   9.294   2.166  1.1925 -0.9731 -1.0457
16222SOL    HW259886   8.412   9.317   2.296 -0.8740 -0.4568  0.4120
16223SOL     OW59887   9.409   3.769   5.159 -0.0279  0.0454  0.0333
16223SOL    HW159888   9.374   3.736   5.247  0.5367 -2.0620 -0.5157
16223SOL    HW259889   9.366   3.718   5.085  2.1559 -0.6697 -0.7564
16224SOL     OW59890   1.373   7.847   5.619 -0.9339  0.1017 -0.2217
16224SOL    HW159891   1.309   7.913   5.659 -1.2070 -1.2397  1.5989
16224SOL    HW259892   1.358   7.843   5.520 -2.5877  0.9574 -0.0289
16225SOL     OW59893   0.488   5.561   3.163  0.2442 -0.0632 -0.1245
16225SOL    HW159894   0.475   5.615   3.246  1.0713  1.7808 -1.1739
16225SOL    HW259895   0.568   5.502   3.174  0.7292  0.6399  0.1542
16226SOL     OW59896   0.318   7.270   3.189 -0.4832 -0.5834 -0.3620
16226SOL    HW159897   0.262   7.352   3.189 -0.1974 -0.3873 -0.9713
16226SOL    HW259898   0.280   7.204   3.123 -0.2146 -0.5957 -0.5046
16227SOL     OW59899   8.067   1.791   2.988 -0.6116  0.0363 -0.3897
16227SOL    HW159900   8.008   1.760   3.062  0.5170  0.3787  0.6589
16227SOL    HW259901   8.010   1.820   2.911 -1.7822 -0.6360  0.2002
16228SOL     OW59902   9.147   5.222   1.351 -0.6399 -0.0528  0.1165
16228SOL    HW159903   9.107   5.309   1.381  0.0784 -0.2862  1.8500
16228SOL    HW259904   9.162   5.164   1.431  0.6438 -1.0307 -0.8209
16229SOL     OW59905   3.032   4.362   5.046 -0.0393  0.1117  0.3534
16229SOL    HW159906   2.983   4.438   5.089 -0.1661 -0.2322  0.8096
16229SOL    HW259907   3.086   4.313   5.114  0.2978 -0.0137  0.0014
16230SOL     OW59908   2.212   0.776   4.715 -0.1250  0.0729  0.2145
16230SOL    HW159909   2.113   0.771   4.727 -0.0280 -2.2476  0.4023
16230SOL    HW259910   2.256   0.779   4.805 -0.0132  0.7441  0.1379
16231SOL     OW59911   2.084   3.708   5.004  0.1915  0.3876 -0.1468
16231SOL    HW159912   2.140   3.627   5.020 -0.8403 -0.6581 -1.6786
16231SOL    HW259913   1.987   3.684   5.010 -0.1320  1.8095  0.7504
16232SOL     OW59914   2.817   7.113   4.018 -0.6844  0.1248 -0.6976
16232SOL    HW159915   2.728   7.066   4.021 -0.4178 -0.2758  2.3147
16232SOL    HW259916   2.889   7.046   4.000 -0.7682  0.0927 -0.9146
16233SOL     OW59917   8.270   5.596   2.029  0.2285 -0.6474  0.0475
16233SOL    HW159918   8.230   5.537   2.100 -1.6519 -1.9004 -1.9686
16233SOL    HW259919   8.337   5.544   1.976  0.4967 -0.1809 -0.0716
16234SOL     OW59920   5.277   5.870   2.138  0.2635  0.1872 -0.0601
16234SOL    HW159921   5.200   5.897   2.080 -2.4778  1.9664  4.1187
16234SOL    HW259922   5.282   5.770   2.140 -1.2112  0.0568 -1.3436
16235SOL     OW59923   3.374   1.071   2.502  0.0534 -0.3617  0.1593
16235SOL    HW159924   3.297   1.102   2.447  1.7193 -0.1642 -2.1911
16235SOL    HW259925   3.434   1.148   2.522 -1.7928  0.0542  4.5252
16236SOL     OW59926   1.081   4.850   4.465 -0.4210  0.3437  0.0334
16236SOL    HW159927   1.096   4.788   4.388  0.9481  0.9620 -0.2086
16236SOL    HW259928   1.146   4.830   4.538  0.1606  1.6091 -0.1224
16237SOL     OW59929   4.447   4.217   1.257 -0.2852 -0.1782  0.0216
16237SOL    HW159930   4.504   4.203   1.176 -1.0469 -0.5153 -0.4606
16237SOL    HW259931   4.481   4.160   1.332  1.0540  0.9171  0.2670
16238SOL     OW59932   7.402   0.988   3.959  0.0524 -0.3987 -0.2352
16238SOL    HW159933   7.435   0.894   3.950  1.9324  0.1364  0.9173
16238SOL    HW259934   7.479   1.050   3.972 -1.1290  1.3962 -1.5600
16239SOL     OW59935   4.741   0.501   2.640 -0.3532 -0.6419  1.1474
16239SOL    HW159936   4.754   0.495   2.541  1.5166 -0.1793  1.3456
16239SOL    HW259937   4.679   0.578   2.661  1.8797  1.3891  0.5010
16240SOL     OW59938   0.151   1.704   5.301  0.4807  0.1309 -0.5712
16240SOL    HW159939   0.073   1.762   5.325  0.8364  0.5796 -0.4883
16240SOL    HW259940   0.168   1.712   5.202 -0.0128 -0.5057 -0.7059
16241SOL     OW59941   7.388   0.519   2.255 -0.3037 -0.2449  0.2542
16241SOL    HW159942   7.478   0.555   2.279  0.7455 -0.8553 -2.6246
16241SOL    HW259943   7.337   0.587   2.203 -0.9793 -0.4010  0.7110
16242SOL     OW59944   3.303   8.411   2.876  0.7669 -0.1052 -0.2407
16242SOL    HW159945   3.291   8.456   2.965 -0.1561  1.9029 -1.3530
16242SOL    HW259946   3.219   8.361   2.853  1.1306 -0.9160  0.1427
16243SOL     OW59947   5.198   6.414   2.376  0.2425  0.2418 -0.2112
16243SOL    HW159948   5.121   6.362   2.340  0.2480 -0.3452  0.6108
16243SOL    HW259949   5.200   6.406   2.475  0.5505  1.3888 -0.1175
16244SOL     OW59950   0.638   4.571   4.028 -0.1277  0.3209  0.0905
16244SOL    HW159951   0.635   4.481   3.983  1.3323  0.7947 -0.9766
16244SOL    HW259952   0.550   4.617   4.014 -0.8738 -0.9007  0.5960
16245SOL     OW59953   3.201   2.110   2.728  0.3514  0.0086  0.7649
16245SOL    HW159954   3.133   2.057   2.779  0.7193  0.6332  1.9287
16245SOL    HW259955   3.232   2.187   2.784 -0.1416  1.4299 -0.8964
16246SOL     OW59956   0.312   7.345   1.628 -0.1227 -0.4631 -0.0535
16246SOL    HW159957   0.257   7.262   1.633 -2.5860  1.2255  4.2870
16246SOL    HW259958   0.396   7.333   1.681  1.4714 -1.4136 -2.6934
16247SOL     OW59959   8.869   4.051   2.699  0.3929 -0.3106  0.8007
16247SOL    HW159960   8.819   4.109   2.635  0.3758 -0.5955  0.5533
16247SOL    HW259961   8.933   4.106   2.751  1.8444 -0.3930 -0.8589
16248SOL     OW59962   7.534   9.729   0.117  0.1578  0.7387 -0.4124
16248SOL    HW159963   7.596   9.698   0.045 -1.1265  1.1136 -1.7012
16248SOL    HW259964   7.467   9.792   0.078 -1.6760 -0.4510  0.7446
16249SOL     OW59965   8.630   5.018   6.096 -0.5146 -0.0970 -0.1064
16249SOL    HW159966   8.591   5.001   6.187  0.7145 -1.2604  0.2325
16249SOL    HW259967   8.557   5.032   6.030 -1.4211  1.8866  1.2610
16250SOL     OW59968   2.851   1.811   3.202  0.0036 -0.0514  0.3137
16250SOL    HW159969   2.851   1.909   3.220  1.1795 -0.1769  1.0154
16250SOL    HW259970   2.906   1.764   3.271 -0.1278 -1.1547 -0.3146
16251SOL     OW59971   9.573   7.298   2.333  0.2904  0.0309  0.3589
16251SOL    HW159972   9.576   7.352   2.249  0.6116  0.0658  0.3923
16251SOL    HW259973   9.594   7.357   2.411 -0.0723  0.0129  0.4718
16252SOL     OW59974   1.064   5.741   1.188  0.3104 -0.7319  0.2520
16252SOL    HW159975   1.053   5.671   1.258  1.5936  0.1396  1.3449
16252SOL    HW259976   1.005   5.819   1.208 -0.2898 -1.0264 -0.3555
16253SOL     OW59977   3.332   3.036   3.332 -0.1437 -0.3374  0.5848
16253SOL    HW159978   3.336   2.938   3.350 -1.7126 -0.6162 -0.4064
16253SOL    HW259979   3.258   3.076   3.386 -2.3992 -0.5213 -2.1910
16254SOL     OW59980   7.601   1.521   0.412  0.4039  0.0329  0.3846
16254SOL    HW159981   7.635   1.429   0.394 -0.2081 -0.1081 -0.0617
16254SOL    HW259982   7.674   1.587   0.393  0.4692 -0.2763 -0.4858
16255SOL     OW59983   9.934   4.465   1.234 -0.0086 -0.4917  0.4174
16255SOL    HW159984   9.966   4.450   1.140 -1.4356 -0.6875 -0.0523
16255SOL    HW259985   9.857   4.404   1.253  1.3271 -1.6426  2.2831
16256SOL     OW59986   0.609   9.386   5.768  0.3408 -0.5986  0.2318
16256SOL    HW159987   0.540   9.314   5.757  1.4012 -1.6728  0.5512
16256SOL    HW259988   0.580   9.448   5.841 -0.6729 -0.5798 -0.1728
16257SOL     OW59989   1.648   4.923   4.854  0.0334 -0.0787  0.9012
16257SOL    HW159990   1.688   4.889   4.939 -0.9949 -0.1867  1.3374
16257SOL    HW259991   1.557   4.960   4.872 -0.5019 -0.8151 -0.2877
16258SOL     OW59992   4.541   0.130   6.728 -0.1368 -0.2002  0.2781
16258SOL    HW159993   4.453   0.085   6.741  0.4576 -1.2793  0.6942
16258SOL    HW259994   4.608   0.063   6.696  0.6690  0.4885  0.5075
16259SOL     OW59995   9.095   6.468   0.444  0.0366 -0.7851  0.0162
16259SOL    HW159996   9.001   6.450   0.474 -0.0828  0.5148  0.4674
16259SOL    HW259997   9.141   6.382   0.423 -1.2337 -1.4316 -0.1335
16260SOL     OW59998   4.053   7.951   4.690  0.0774 -0.0783 -0.1803
16260SOL    HW159999   4.054   8.024   4.622 -0.5908  1.3492  1.3212
16260SOL    HW260000   4.062   7.863   4.644  0.0352  0.8897 -2.0851
16261SOL     OW60001   2.872   0.417   6.374 -0.8942 -0.5524 -0.1243
16261SOL    HW160002   2.799   0.454   6.432 -0.0339  0.1212  0.5401
16261SOL    HW260003   2.891   0.323   6.402 -0.7924 -0.3803  0.3972
16262SOL     OW60004   1.863   4.890   0.851 -0.2334 -0.0530  0.2555
16262SOL    HW160005   1.836   4.983   0.876  0.5772  0.2863 -0.1072
16262SOL    HW260006   1.799   4.853   0.784  0.4930  0.9418 -1.0139
16263SOL     OW60007   7.534   5.465   0.087  0.3663 -0.1566 -0.3283
16263SOL    HW160008   7.490   5.542   0.135  0.0027  0.4345 -1.5763
16263SOL    HW260009   7.631   5.483   0.077  0.4897 -0.4044  0.4190
16264SOL     OW60010   6.714   2.702   3.374  0.1608  0.1249 -0.1433
16264SOL    HW160011   6.753   2.793   3.375  0.5505  0.0026 -2.3844
16264SOL    HW260012   6.690   2.675   3.468  1.8411  1.7175  0.7757
16265SOL     OW60013   4.901   7.243   1.419  0.6172 -0.2112 -0.4604
16265SOL    HW160014   4.977   7.261   1.481 -0.6808 -0.9742  1.3883
16265SOL    HW260015   4.830   7.311   1.433 -0.9949 -2.1562  1.0992
16266SOL     OW60016   1.049   9.617   4.061  0.1742 -0.1505 -0.5297
16266SOL    HW160017   1.118   9.690   4.058  1.5342 -1.4096 -0.0961
16266SOL    HW260018   0.986   9.628   3.984  0.3532  1.4921 -0.4638
16267SOL     OW60019   4.298   1.549   4.024 -0.2365 -0.3187  0.2905
16267SOL    HW160020   4.341   1.571   4.112  1.3762  1.3392 -0.8792
16267SOL    HW260021   4.348   1.475   3.980 -0.3082 -0.3164  0.2057
16268SOL     OW60022   3.739   0.732   6.706  1.0438  0.1503 -0.4360
16268SOL    HW160023   3.699   0.668   6.642 -0.1341 -1.3579  1.7386
16268SOL    HW260024   3.823   0.692   6.745  0.5215  0.0611  0.6263
16269SOL     OW60025   9.477   0.072   6.289  0.1028 -0.2307 -0.4844
16269SOL    HW160026   9.530   0.140   6.239 -1.8153  0.5069 -1.5499
16269SOL    HW260027   9.402   0.116   6.337  1.0751 -1.1205  1.9626
16270SOL     OW60028   2.053   7.457   2.546 -0.4151  0.0024 -0.2410
16270SOL    HW160029   2.051   7.394   2.468 -2.4176 -0.3354  0.0753
16270SOL    HW260030   2.041   7.405   2.631 -2.0766  0.7999  0.0235
16271SOL     OW60031   0.432   9.998   5.405 -0.0071 -0.2532 -0.6058
16271SOL    HW160032   0.339  10.033   5.390 -0.6751 -1.1670  1.2494
16271SOL    HW260033   0.488  10.070   5.445  0.0711  0.2770 -1.6470
16272SOL     OW60034   1.032   4.594   3.213  0.2698 -0.1108  0.3848
16272SOL    HW160035   1.132   4.590   3.215  0.3038  0.9759  1.7680
16272SOL    HW260036   0.996   4.509   3.175  1.7588  0.0875 -1.5492
16273SOL     OW60037   4.130   5.646   0.458  0.5653 -0.4106  0.0026
16273SOL    HW160038   4.117   5.724   0.396  0.1859  0.0844  0.6963
16273SOL    HW260039   4.081   5.566   0.421 -0.2246  0.0645  0.0105
16274SOL     OW60040   4.573   1.889   3.643  0.0917  0.2204 -0.6055
16274SOL    HW160041   4.590   1.823   3.716 -1.2626 -0.6936 -1.0877
16274SOL    HW260042   4.655   1.943   3.626  0.6921 -0.1925  0.9583
16275SOL     OW60043   9.425   8.982   2.860 -0.2366  0.3359 -0.0366
16275SOL    HW160044   9.499   8.966   2.794 -0.3621 -0.3154 -0.0176
16275SOL    HW260045   9.461   8.973   2.953 -0.9140 -2.6970 -0.0182
16276SOL     OW60046   2.111   6.977   5.162  0.0828 -0.1303  0.5262
16276SOL    HW160047   2.121   6.925   5.078 -1.3453 -0.2835  0.4491
16276SOL    HW260048   2.157   7.066   5.153  0.3909 -0.3673 -0.2099
16277SOL     OW60049   8.425   3.650   5.483 -0.5552 -0.2243 -0.7633
16277SOL    HW160050   8.450   3.553   5.476 -1.4333 -0.5474  0.4504
16277SOL    HW260051   8.449   3.684   5.574 -0.0980  0.7563 -1.2407
16278SOL     OW60052   2.132   0.558   1.833 -0.3816 -0.4225 -0.0303
16278SOL    HW160053   2.203   0.621   1.868  0.2425 -1.1595  0.0501
16278SOL    HW260054   2.042   0.590   1.863  0.0879 -0.6380  1.6536
16279SOL     OW60055   9.374   1.662   2.686  0.2733 -0.2569  0.2048
16279SOL    HW160056   9.297   1.671   2.623  0.4870  0.6203  0.0630
16279SOL    HW260057   9.459   1.666   2.634  0.4280 -0.7015  0.4233
16280SOL     OW60058   6.690   1.293   2.868  0.4554  0.1964 -0.3477
16280SOL    HW160059   6.785   1.289   2.902  1.3466 -1.2720 -2.8555
16280SOL    HW260060   6.627   1.275   2.944  2.2414  0.0165  1.1341
16281SOL     OW60061   5.985   0.074   3.030 -0.1549 -0.0604 -0.5696
16281SOL    HW160062   5.976   0.170   3.058 -1.1702 -0.4886  0.6000
16281SOL    HW260063   6.080   0.056   3.004 -0.1814  1.5334 -1.8631
16282SOL     OW60064   1.600   2.994   5.878  0.3549 -0.5827  0.1905
16282SOL    HW160065   1.524   2.952   5.928 -0.3193  0.4292  0.0276
16282SOL    HW260066   1.567   3.026   5.789  0.7573  0.6997  0.5036
16283SOL     OW60067   9.055   1.992   0.380 -0.0190  0.1003  0.2806
16283SOL    HW160068   8.983   1.950   0.324  0.5598  0.0127 -0.3928
16283SOL    HW260069   9.090   2.073   0.335  0.7576 -0.2197  0.3046
16284SOL     OW60070   7.537   8.200   2.255  0.2108 -0.1938 -0.4505
16284SOL    HW160071   7.634   8.206   2.233  0.1663 -1.1872 -0.9293
16284SOL    HW260072   7.524   8.204   2.354  0.8000 -0.9037 -0.3419
16285SOL     OW60073   6.300   9.926   5.510  0.2985 -0.2038 -0.6893
16285SOL    HW160074   6.352   9.842   5.499 -1.2052 -0.9607 -2.2014
16285SOL    HW260075   6.224   9.910   5.573  1.0528  0.5384  0.4461
16286SOL     OW60076   8.395   1.947   3.767 -0.2912 -0.5721 -0.0178
16286SOL    HW160077   8.304   1.937   3.808 -0.3206 -1.8726 -0.4008
16286SOL    HW260078   8.425   1.860   3.728  0.4320  0.2376 -1.3312
16287SOL     OW60079   0.427   5.913   0.196  0.1208  0.5688  0.0149
16287SOL    HW160080   0.512   5.942   0.240 -0.6059  0.6769  1.3844
16287SOL    HW260081   0.360   5.987   0.201 -0.6753 -0.1795  0.6468
16288SOL     OW60082   2.722   7.402   4.312 -0.5009 -0.0615 -0.2254
16288SOL    HW160083   2.797   7.352   4.354 -0.5617 -0.8020 -0.9964
16288SOL    HW260084   2.650   7.417   4.380 -0.1351 -0.3242  0.2199
16289SOL     OW60085   4.555   9.501   5.872 -0.6337 -0.0704  0.5536
16289SOL    HW160086   4.490   9.510   5.949 -3.2861  0.5445 -1.6756
16289SOL    HW260087   4.522   9.554   5.795  1.8789 -0.8941 -1.1344
16290SOL     OW60088   3.814   4.438   2.411  0.3566 -0.2333  0.4074
16290SOL    HW160089   3.776   4.359   2.460  2.0194 -1.5121 -0.3221
16290SOL    HW260090   3.756   4.518   2.427 -0.4476 -1.1940  2.5077
16291SOL     OW60091   8.055   4.497   0.878 -0.7453  0.1820  0.3293
16291SOL    HW160092   8.135   4.546   0.844 -0.7306 -0.8170 -1.1005
16291SOL    HW260093   8.075   4.399   0.881 -2.3544 -0.2171 -1.3358
16292SOL     OW60094   6.929   2.610   1.820  0.1515  0.1025  1.0105
16292SOL    HW160095   6.888   2.602   1.911 -1.5576  0.2283  0.2810
16292SOL    HW260096   6.895   2.536   1.762 -1.2388  1.7960 -0.4024
16293SOL     OW60097   8.402   3.367   5.472  0.1908 -0.4035 -0.1172
16293SOL    HW160098   8.493   3.355   5.512  0.4223  1.2244 -0.1419
16293SOL    HW260099   8.335   3.320   5.529  0.8324 -0.1918  0.8344
16294SOL     OW60100   8.387   0.935   1.155  0.0852  0.6610 -0.1684
16294SOL    HW160101   8.475   0.963   1.119 -0.0308  0.9416 -0.2402
16294SOL    HW260102   8.332   0.893   1.083 -0.0554  1.0036 -0.2611
16295SOL     OW60103   7.504   4.280   1.873 -0.2456  0.0620 -0.7422
16295SOL    HW160104   7.439   4.284   1.949  1.9805  0.7956  1.2003
16295SOL    HW260105   7.563   4.361   1.874  0.8513 -0.6784 -2.2939
16296SOL     OW60106   2.316   3.832   6.467  0.2991  0.0955 -0.3273
16296SOL    HW160107   2.269   3.882   6.540  0.0458  0.9269 -1.0535
16296SOL    HW260108   2.306   3.734   6.483 -0.8991  0.2648  0.0414
16297SOL     OW60109   3.917   3.720   2.963  0.5406 -0.3591  0.4759
16297SOL    HW160110   3.818   3.726   2.956  0.5982 -1.0024 -0.9484
16297SOL    HW260111   3.959   3.787   2.901  1.0026 -0.2281  0.9251
16298SOL     OW60112   8.966   5.400   0.126 -0.3602  0.0888 -0.1786
16298SOL    HW160113   8.931   5.325   0.069 -1.5490  0.9905 -0.6545
16298SOL    HW260114   8.967   5.371   0.222  0.7108 -1.0928 -0.5314
16299SOL     OW60115   6.974   2.108   1.270 -0.3642  0.1641  0.0649
16299SOL    HW160116   7.028   2.051   1.332 -0.7826 -1.4022 -0.9783
16299SOL    HW260117   6.917   2.171   1.323  0.6976  0.1730  1.2177
16300SOL     OW60118   1.053   7.231   2.734 -0.1468  0.3299 -0.4332
16300SOL    HW160119   1.052   7.159   2.804  2.2030 -0.6968 -1.3894
16300SOL    HW260120   1.088   7.315   2.775 -0.6609  0.2783  0.1205
16301SOL     OW60121   2.702   0.452   4.994  0.4552 -0.0920 -0.0091
16301SOL    HW160122   2.615   0.466   5.041 -0.1278  0.8939 -1.3554
16301SOL    HW260123   2.685   0.433   4.897  1.7307 -0.1430 -0.2323
16302SOL     OW60124   1.469   2.954   6.692 -0.9437 -0.1972 -0.0769
16302SOL    HW160125   1.445   3.034   6.747 -1.5801 -0.1332 -0.4407
16302SOL    HW260126   1.556   2.971   6.645  0.5843 -1.0116  2.4092
16303SOL     OW60127   8.989   1.820   6.225 -0.6240 -0.2751 -0.4188
16303SOL    HW160128   9.001   1.740   6.284 -1.7154  0.0494  0.2700
16303SOL    HW260129   8.952   1.791   6.137 -0.9078 -0.5462 -0.2106
16304SOL     OW60130   3.009   5.859   3.009 -0.1041  0.8695 -0.0288
16304SOL    HW160131   3.096   5.854   3.057  0.7235  1.1817 -1.4516
16304SOL    HW260132   2.990   5.771   2.964  0.3757  1.3615 -1.2196
16305SOL     OW60133   7.062   6.275   5.969 -0.1675  0.0244  0.5373
16305SOL    HW160134   7.129   6.258   6.042 -0.2581 -0.4089  0.5200
16305SOL    HW260135   7.110   6.288   5.882 -0.0922 -0.0003  0.5746
16306SOL     OW60136   2.712   1.440   0.580 -0.4314 -0.2987  0.0763
16306SOL    HW160137   2.628   1.434   0.632 -0.7737 -0.0664 -0.4430
16306SOL    HW260138   2.730   1.352   0.535 -0.9993 -0.0042 -0.7324
16307SOL     OW60139   6.967   5.627   0.583  0.2127  0.1408  0.0522
16307SOL    HW160140   7.026   5.551   0.553  1.7145  1.4348 -0.3692
16307SOL    HW260141   6.874   5.593   0.597  0.1954 -1.2201 -2.9196
16308SOL     OW60142   7.450   2.080   1.646  0.1829 -0.1649  0.1531
16308SOL    HW160143   7.421   2.069   1.741  0.2544 -0.9019  0.0929
16308SOL    HW260144   7.544   2.112   1.643  0.6038 -1.3388  0.3342
16309SOL     OW60145   9.919   1.318   1.659  0.0234  0.0415  0.3929
16309SOL    HW160146   9.829   1.289   1.626 -0.1064 -0.8401  1.4807
16309SOL    HW260147   9.969   1.365   1.586 -1.3080  0.5093 -0.2208
16310SOL     OW60148   1.311   9.403   5.912  0.7709 -0.0593 -0.2317
16310SOL    HW160149   1.268   9.353   5.987  0.1306  0.2932 -0.3639
16310SOL    HW260150   1.392   9.353   5.880  0.2729 -0.8862 -0.2024
16311SOL     OW60151   0.862   4.634   4.897 -0.7174  0.2955 -0.5666
16311SOL    HW160152   0.891   4.723   4.862  1.0946  0.0025  0.1870
16311SOL    HW260153   0.871   4.566   4.824 -0.2161  0.3502 -0.5586
16312SOL     OW60154   3.914   0.655   4.942 -0.3171 -0.2251  0.3346
16312SOL    HW160155   3.833   0.652   5.001 -1.0949 -0.4015 -0.7348
16312SOL    HW260156   3.930   0.565   4.902 -0.1905  0.0582 -0.2571
16313SOL     OW60157   8.638   4.455   0.243  0.2566 -0.0317 -0.7265
16313SOL    HW160158   8.666   4.448   0.339 -0.5184  2.1423 -0.3076
16313SOL    HW260159   8.637   4.364   0.202 -1.8019 -1.3228  2.0110
16314SOL     OW60160   2.176   5.263   1.356  0.0067  0.0583 -0.2223
16314SOL    HW160161   2.224   5.236   1.273 -0.8536 -0.3172 -0.6043
16314SOL    HW260162   2.142   5.357   1.347  0.5122  0.2589 -0.0240
16315SOL     OW60163   1.898   2.475   3.489  0.6032 -0.1463  0.1743
16315SOL    HW160164   1.874   2.564   3.450 -1.3695 -1.0400 -0.6497
16315SOL    HW260165   1.926   2.413   3.417 -0.6241 -1.0250  0.4456
16316SOL     OW60166   1.168   6.447   2.512  0.3125  0.0960  0.4911
16316SOL    HW160167   1.213   6.368   2.469 -1.2179  0.9013 -2.7594
16316SOL    HW260168   1.074   6.422   2.537 -0.0797  0.7604 -0.2749
16317SOL     OW60169   7.615   8.449   2.677 -0.0030  0.2947  0.5651
16317SOL    HW160170   7.660   8.372   2.631  2.1463  0.5128  2.2020
16317SOL    HW260171   7.652   8.458   2.770 -0.5216  3.0467  0.5416
16318SOL     OW60172   7.678   7.415   2.630 -0.2593  0.1041  0.0213
16318SOL    HW160173   7.754   7.425   2.694 -0.3145 -0.4261  0.1703
16318SOL    HW260174   7.680   7.324   2.589 -0.1946  0.4546 -0.7759
16319SOL     OW60175   2.518   5.575   5.299  0.1698 -0.0034 -0.2642
16319SOL    HW160176   2.468   5.529   5.225 -0.8257  1.3515 -0.4574
16319SOL    HW260177   2.490   5.537   5.387 -0.6548  0.2108 -0.4248
16320SOL     OW60178   3.418   3.504   1.738 -0.1451  0.3631 -0.5125
16320SOL    HW160179   3.492   3.499   1.805  1.4064  1.2937 -2.1182
16320SOL    HW260180   3.425   3.428   1.674 -1.5491 -0.4489  0.2606
16321SOL     OW60181   0.892   8.608   4.698  0.4091 -0.7400 -0.6474
16321SOL    HW160182   0.965   8.633   4.761  0.5043 -1.3152 -0.5208
16321SOL    HW260183   0.865   8.687   4.644 -0.0263 -0.1206  0.4661
16322SOL     OW60184   3.201   0.465   6.151 -0.2239 -0.3172  0.2219
16322SOL    HW160185   3.241   0.485   6.062 -0.2879  4.0766  1.0782
16322SOL    HW260186   3.104   0.442   6.140 -0.6101  1.7334 -0.7124
16323SOL     OW60187   0.763   3.660   4.534 -0.5057 -0.2248  0.1563
16323SOL    HW160188   0.743   3.737   4.596 -0.3644 -0.4875  0.5307
16323SOL    HW260189   0.860   3.636   4.542 -0.9433 -1.6560  1.4216
16324SOL     OW60190   4.111   8.728   5.831  0.3675 -0.1354  0.3566
16324SOL    HW160191   4.012   8.723   5.817  0.0173  1.2933  2.1118
16324SOL    HW260192   4.147   8.636   5.847 -0.4143 -0.8481 -1.7300
16325SOL     OW60193   1.094   9.556   1.205 -0.2098 -0.0745 -0.2927
16325SOL    HW160194   1.033   9.635   1.193  0.0422  0.1864  0.1273
16325SOL    HW260195   1.074   9.511   1.292  0.8124  0.5632  0.2791
16326SOL     OW60196   2.414   0.326   3.019  0.1777  0.2716 -0.0752
16326SOL    HW160197   2.459   0.250   3.068  0.8600  1.1672  0.6965
16326SOL    HW260198   2.471   0.354   2.942 -0.5137 -0.6004 -0.9177
16327SOL     OW60199   9.698   4.990   2.370  0.7895 -0.5736  0.3142
16327SOL    HW160200   9.679   5.025   2.278  1.1329 -0.9317  0.1061
16327SOL    HW260201   9.793   5.010   2.394  0.7793 -0.7227  0.4804
16328SOL     OW60202   4.797   2.741   1.742  0.5294  0.2242  0.1381
16328SOL    HW160203   4.699   2.732   1.722  0.5683  1.0766 -0.4185
16328SOL    HW260204   4.819   2.682   1.820 -0.6148  0.7197  0.8627
16329SOL     OW60205   2.164   5.502   2.146 -0.7927  0.1008  0.1100
16329SOL    HW160206   2.163   5.419   2.203  0.2972 -0.0064 -0.0242
16329SOL    HW260207   2.238   5.496   2.080 -1.1392  0.8911 -0.3566
16330SOL     OW60208   0.084   0.175   4.043  0.1570 -0.1323 -0.1055
16330SOL    HW160209   0.152   0.130   4.101  0.8333 -0.5232 -1.1904
16330SOL    HW260210  -0.008   0.159   4.081  0.5394 -0.8924  0.5219
16331SOL     OW60211   3.432   2.272   1.583 -0.5861 -0.3589 -0.5877
16331SOL    HW160212   3.419   2.310   1.491 -0.4239 -1.9050 -1.2736
16331SOL    HW260213   3.389   2.331   1.651 -0.6764  0.8184 -1.6558
16332SOL     OW60214   2.584   3.003   0.510  0.2419  0.0751  0.6341
16332SOL    HW160215   2.541   2.916   0.486 -0.4479  1.3061 -2.8066
16332SOL    HW260216   2.684   2.993   0.504  0.2289 -0.7780  1.5305
16333SOL     OW60217   2.979   8.661   2.447 -0.0252 -0.1684  0.0887
16333SOL    HW160218   3.049   8.598   2.412 -0.0718 -0.7888  1.1147
16333SOL    HW260219   2.947   8.720   2.372  1.2744 -0.1766 -0.4856
16334SOL     OW60220   7.277   6.947   5.078 -0.4310  0.1381  0.1534
16334SOL    HW160221   7.273   6.849   5.059  0.7066  0.2359 -0.6416
16334SOL    HW260222   7.299   6.961   5.175 -2.3442 -0.3776  0.6736
16335SOL     OW60223   9.373   1.873   0.571 -0.4267 -0.2669 -0.7057
16335SOL    HW160224   9.282   1.838   0.551 -1.6474  0.4216  3.3226
16335SOL    HW260225   9.370   1.973   0.576  0.0848 -0.3403  1.4880
16336SOL     OW60226   4.804   3.956   1.256  0.0589 -0.3574 -0.3425
16336SOL    HW160227   4.872   3.996   1.195 -0.8978  0.2455 -1.0240
16336SOL    HW260228   4.713   3.969   1.217 -0.3381 -2.4873 -0.1836
16337SOL     OW60229   9.169   7.826   2.486 -0.1620 -0.6704 -0.1098
16337SOL    HW160230   9.214   7.888   2.550 -0.4470  1.0908 -1.5628
16337SOL    HW260231   9.079   7.801   2.520 -0.6695  0.9719 -0.2480
16338SOL     OW60232   2.291   4.973   0.024 -0.3331  0.8680  0.6399
16338SOL    HW160233   2.270   4.994  -0.072 -2.3515  3.8770  1.6596
16338SOL    HW260234   2.327   5.055   0.068 -0.3182 -0.2352  2.7073
16339SOL     OW60235   2.398   6.761   4.233  0.1016  0.5463 -0.0244
16339SOL    HW160236   2.323   6.826   4.238 -0.0904  0.2453  1.2434
16339SOL    HW260237   2.472   6.791   4.292  0.3577  0.0624 -0.0964
16340SOL     OW60238   0.547   0.967   5.852 -0.2889 -0.3566  0.2898
16340SOL    HW160239   0.465   0.982   5.798  1.5797 -0.1569 -2.6383
16340SOL    HW260240   0.536   1.008   5.942 -2.7814  1.0483 -0.6156
16341SOL     OW60241   8.221   1.052   2.081 -0.2668  0.5712  0.3157
16341SOL    HW160242   8.309   1.075   2.123  0.5230  0.2117 -1.0957
16341SOL    HW260243   8.181   1.133   2.038  0.1750  0.3977 -0.4447
16342SOL     OW60244   2.143   6.797   3.166  0.0747 -0.0919 -0.6763
16342SOL    HW160245   2.049   6.781   3.197  0.5418  1.0231  1.3776
16342SOL    HW260246   2.190   6.710   3.156 -0.9803 -0.6202 -1.1153
16343SOL     OW60247   1.898   1.207   1.607  0.3802  0.4594 -0.6841
16343SOL    HW160248   1.918   1.181   1.512 -2.0141 -0.5789 -0.9457
16343SOL    HW260249   1.882   1.124   1.661 -0.7253  1.1401  0.0509
16344SOL     OW60250   4.041   4.245   2.475  0.0113 -0.2336  0.1028
16344SOL    HW160251   3.950   4.269   2.441  0.6793  1.3990 -0.5987
16344SOL    HW260252   4.034   4.207   2.567 -1.4220 -0.5289 -0.1226
16345SOL     OW60253   9.417   8.203   1.381 -0.1586 -0.1936  0.2656
16345SOL    HW160254   9.454   8.173   1.469  1.3143  1.0151  0.0807
16345SOL    HW260255   9.467   8.157   1.307 -0.7340 -0.4584  0.0381
16346SOL     OW60256   1.041   9.754   6.720 -0.0217  0.0895  0.1248
16346SOL    HW160257   1.029   9.835   6.663  0.0750  1.0425  1.4530
16346SOL    HW260258   1.072   9.781   6.811  0.7060 -1.4872  0.3591
16347SOL     OW60259   2.885   6.723   4.733  0.4514  0.0248 -0.5421
16347SOL    HW160260   2.946   6.670   4.792 -0.5249 -0.7008 -0.1742
16347SOL    HW260261   2.929   6.810   4.710  1.1018  0.0615  0.7571
16348SOL     OW60262   2.509   5.921   0.195  0.5411  0.1179 -0.1833
16348SOL    HW160263   2.476   5.978   0.119  2.3929  0.2500 -0.9298
16348SOL    HW260264   2.605   5.896   0.178  1.1166  0.5030  2.3248
16349SOL     OW60265   1.117   8.059   6.200  0.7269 -0.1640 -0.4540
16349SOL    HW160266   1.073   8.003   6.130 -0.2691  3.2844 -2.7016
16349SOL    HW260267   1.209   8.084   6.170  1.4338 -1.1416  0.8548
16350SOL     OW60268   2.607   5.032   0.604 -0.3979 -0.1006 -0.0982
16350SOL    HW160269   2.689   4.991   0.644 -0.0232  1.0526  0.3292
16350SOL    HW260270   2.610   5.022   0.504  0.1385 -0.2717 -0.0663
16351SOL     OW60271   5.070   2.457   4.342 -0.2811  0.3490  0.3797
16351SOL    HW160272   5.115   2.453   4.432 -1.4089  1.5926  1.0200
16351SOL    HW260273   5.139   2.457   4.270  0.6153 -1.3877  1.2192
16352SOL     OW60274   2.357   5.628   0.923  0.6438  0.1500 -0.4277
16352SOL    HW160275   2.284   5.696   0.912  0.7788  0.2763 -0.5492
16352SOL    HW260276   2.425   5.641   0.852 -1.3460 -2.7063 -2.9619
16353SOL     OW60277   4.052   5.725   1.801  0.2352 -0.3334  0.1805
16353SOL    HW160278   3.993   5.797   1.765 -0.2839 -0.5521  0.5976
16353SOL    HW260279   4.119   5.700   1.731  0.4283  0.5617  0.0395
16354SOL     OW60280   3.082   6.584   3.170 -0.0079 -0.0711  0.1123
16354SOL    HW160281   3.081   6.487   3.146  1.7838  0.0836 -0.6179
16354SOL    HW260282   3.010   6.631   3.119 -1.8948 -1.2440  1.5928
16355SOL     OW60283   9.117   6.065   4.266 -0.4311 -0.4558  0.0498
16355SOL    HW160284   9.090   6.053   4.362 -2.7683 -1.1253 -0.6469
16355SOL    HW260285   9.175   6.146   4.258 -0.1297 -0.4387  2.0317
16356SOL     OW60286   2.206   1.459   2.334  0.0847  0.3106  0.0613
16356SOL    HW160287   2.145   1.497   2.403  0.3042  0.7598  0.0062
16356SOL    HW260288   2.152   1.428   2.256 -0.2514 -0.9786  0.7792
16357SOL     OW60289   4.140   0.687   4.772 -0.0111 -0.3146 -0.1054
16357SOL    HW160290   4.190   0.608   4.808  0.7769 -0.5094 -1.5795
16357SOL    HW260291   4.048   0.690   4.812  0.0012 -1.9035  0.0582
16358SOL     OW60292   2.417   3.947   0.635 -0.1190 -0.1101 -0.6062
16358SOL    HW160293   2.454   4.038   0.615  0.7422 -0.3522 -0.1380
16358SOL    HW260294   2.491   3.879   0.632 -0.3533 -0.4778  1.1647
16359SOL     OW60295   1.720   9.512   5.990 -0.5637  0.2115  0.5684
16359SOL    HW160296   1.749   9.556   6.075 -1.0455  0.7558  0.4617
16359SOL    HW260297   1.701   9.583   5.922 -1.2977 -0.1716  0.3725
16360SOL     OW60298   8.392   5.859   5.827 -0.2012  0.1971 -0.4182
16360SOL    HW160299   8.306   5.834   5.872 -0.2152 -1.0964 -1.1394
16360SOL    HW260300   8.394   5.821   5.735  2.6711 -3.0429  0.8440
16361SOL     OW60301   2.304   6.214   5.541 -0.3460  0.5229 -0.6754
16361SOL    HW160302   2.283   6.186   5.635 -1.9425  0.3259 -1.0668
16361SOL    HW260303   2.368   6.149   5.500  0.8835  0.9792  0.4825
16362SOL     OW60304   3.511   0.113   5.361 -0.8130  0.0243 -0.6253
16362SOL    HW160305   3.451   0.192   5.372  0.8214  1.1831  0.0883
16362SOL    HW260306   3.545   0.109   5.267 -1.4601 -0.2587 -0.8533
16363SOL     OW60307   7.185   0.922   6.079  0.2932 -0.2025  0.1457
16363SOL    HW160308   7.266   0.965   6.118 -0.5754 -0.2042  1.9582
16363SOL    HW260309   7.140   0.865   6.147 -0.4397 -1.3627 -1.2637
16364SOL     OW60310   9.781   8.654   3.737 -0.3684  0.7170 -0.1343
16364SOL    HW160311   9.799   8.567   3.783  0.2996 -0.3092 -2.2743
16364SOL    HW260312   9.826   8.655   3.648 -1.9618  2.4862 -0.9721
16365SOL     OW60313   1.751   4.172   4.867 -0.1166  0.7301 -0.3614
16365SOL    HW160314   1.814   4.103   4.831 -0.6406 -1.2764  2.4292
16365SOL    HW260315   1.657   4.142   4.852 -0.3477  0.7488  0.9946
16366SOL     OW60316   0.823   3.477   6.687  0.2893  0.5568 -0.4696
16366SOL    HW160317   0.872   3.398   6.725 -0.6128  1.0745  1.8332
16366SOL    HW260318   0.730   3.449   6.661 -0.3181  0.9878  1.1194
16367SOL     OW60319   2.261   2.495   4.127  0.3281 -0.0878 -0.2525
16367SOL    HW160320   2.215   2.412   4.157  0.9116  0.3702  2.0147
16367SOL    HW260321   2.344   2.471   4.076  0.2563 -0.8963  0.0086
16368SOL     OW60322   2.287   4.806   3.406 -0.0406 -0.3200  0.6755
16368SOL    HW160323   2.310   4.710   3.418 -1.9607 -1.0584 -1.2854
16368SOL    HW260324   2.348   4.848   3.339  0.5936 -0.2504  1.2965
16369SOL     OW60325   8.702   1.327   0.114  0.0749  0.3140 -0.2345
16369SOL    HW160326   8.755   1.327   0.029 -0.0823  0.8940 -0.3327
16369SOL    HW260327   8.610   1.362   0.096  0.2502  1.0572  0.2954
16370SOL     OW60328   8.539   1.980   4.582 -0.3708  0.1003 -0.3514
16370SOL    HW160329   8.547   1.995   4.680 -1.7441  0.2646 -0.2569
16370SOL    HW260330   8.513   1.884   4.565  1.2197 -0.2989 -0.6262
16371SOL     OW60331   0.360   0.542   3.914 -0.5060 -0.0366 -0.1550
16371SOL    HW160332   0.407   0.462   3.950 -0.7891  0.0378  0.3905
16371SOL    HW260333   0.281   0.513   3.860  0.6872 -0.1873 -1.8396
16372SOL     OW60334   1.104   4.487   2.471 -0.0827 -0.2713 -0.1387
16372SOL    HW160335   1.108   4.457   2.375 -0.9164  1.0249 -0.5891
16372SOL    HW260336   1.015   4.528   2.490  0.4325  0.3755  0.9244
16373SOL     OW60337   8.858   4.647   0.286 -0.0000 -0.3712  0.1042
16373SOL    HW160338   8.816   4.600   0.208 -1.6165 -0.1489  0.8355
16373SOL    HW260339   8.876   4.580   0.359  0.4384 -0.3714 -0.0020
16374SOL     OW60340   8.442   7.011   4.198  0.0271  0.2101  0.2625
16374SOL    HW160341   8.403   7.075   4.264 -0.2048  0.2805  0.0582
16374SOL    HW260342   8.370   6.953   4.161  0.0434  0.6413 -0.4502
16375SOL     OW60343   3.491   2.193   0.655 -0.0768  0.3981 -0.1694
16375SOL    HW160344   3.405   2.143   0.647 -0.3745  0.5622  1.6780
16375SOL    HW260345   3.540   2.163   0.737  2.4750 -0.9237 -2.1335
16376SOL     OW60346   6.302   7.808   4.341  0.5572  0.0269  0.4008
16376SOL    HW160347   6.203   7.815   4.333  0.6705  0.7107 -0.4941
16376SOL    HW260348   6.345   7.863   4.270  1.5699 -1.1875  0.0518
16377SOL     OW60349   3.903   5.222   1.832  0.3628  0.2329 -0.1429
16377SOL    HW160350   3.967   5.297   1.813 -0.7746  1.1661 -0.3022
16377SOL    HW260351   3.955   5.141   1.860  1.6089  1.0496 -0.0445
16378SOL     OW60352   7.811   3.821   3.179 -0.3849  0.6698  0.3106
16378SOL    HW160353   7.855   3.785   3.096 -1.1653 -0.4483  0.3867
16378SOL    HW260354   7.716   3.792   3.182 -0.8085  2.0548  0.7947
16379SOL     OW60355   5.796   9.762   4.538 -0.3052 -0.4690  0.4196
16379SOL    HW160356   5.807   9.789   4.634 -1.1074  1.8916 -0.1349
16379SOL    HW260357   5.796   9.662   4.532 -2.6692 -0.7142  3.2120
16380SOL     OW60358   7.679   5.905   6.164  0.1443  0.3053 -0.1056
16380SOL    HW160359   7.588   5.864   6.173  0.4799 -0.1048  1.5412
16380SOL    HW260360   7.672   6.004   6.163 -0.4686  0.2518 -1.7260
16381SOL     OW60361   5.940   8.822   2.868  0.5038 -0.2291 -0.5028
16381SOL    HW160362   6.015   8.757   2.877  1.9512  1.4695  0.0063
16381SOL    HW260363   5.968   8.897   2.808  0.4929  2.2038  2.4380
16382SOL     OW60364   9.358   7.653   3.388 -0.6122 -0.6943  0.1806
16382SOL    HW160365   9.365   7.676   3.485  0.5133 -2.1586  0.4745
16382SOL    HW260366   9.275   7.600   3.372  0.2180 -2.2234  0.7522
16383SOL     OW60367   4.413   4.827   4.115  0.4604  0.6557 -0.0316
16383SOL    HW160368   4.466   4.744   4.132 -0.7717  0.2620  1.9911
16383SOL    HW260369   4.446   4.901   4.174 -1.5490  0.2660  1.6033
16384SOL     OW60370   0.505   6.458   6.217 -0.1529 -0.1912  0.4616
16384SOL    HW160371   0.544   6.414   6.136 -1.4161  0.7707 -0.6990
16384SOL    HW260372   0.522   6.401   6.297  0.9946 -1.2312 -0.4963
16385SOL     OW60373   2.677   6.434   0.348 -0.0040 -0.0090 -0.1526
16385SOL    HW160374   2.678   6.344   0.393  0.7207 -0.9876 -2.0822
16385SOL    HW260375   2.625   6.429   0.264 -0.2825  1.4953 -0.0802
16386SOL     OW60376   1.892   5.450   0.450 -0.1339  0.5213 -0.7661
16386SOL    HW160377   1.945   5.405   0.378  0.1626 -0.2842 -0.0421
16386SOL    HW260378   1.878   5.546   0.425 -0.5859  0.0888 -2.2087
16387SOL     OW60379   0.528   9.580   0.425 -0.3694  0.1642  0.1296
16387SOL    HW160380   0.577   9.524   0.491  1.6728  2.6311  0.8029
16387SOL    HW260381   0.550   9.550   0.332  0.9833  0.0641  0.4774
16388SOL     OW60382   1.934   2.390   6.721  0.5553 -0.0024 -0.2250
16388SOL    HW160383   1.981   2.384   6.808  0.7423 -1.8790 -0.4448
16388SOL    HW260384   1.992   2.355   6.648  0.0290  0.6398 -0.9721
16389SOL     OW60385   0.537   2.280   3.830  0.6480 -0.5326 -0.1699
16389SOL    HW160386   0.517   2.375   3.806  1.2229 -0.4938 -0.5000
16389SOL    HW260387   0.472   2.220   3.782 -1.9981 -0.1281  2.7714
16390SOL     OW60388   0.021   9.292   6.594 -0.6372  0.3364  0.2186
16390SOL    HW160389   0.063   9.202   6.610 -0.3266  0.6008  0.9110
16390SOL    HW260390  -0.055   9.282   6.530  0.1971 -0.2173 -0.7042
16391SOL     OW60391   0.646   0.204   5.253 -0.1403  0.7673 -0.0582
16391SOL    HW160392   0.586   0.282   5.239 -2.3623 -0.7912  0.5695
16391SOL    HW260393   0.661   0.190   5.351 -1.6526 -0.9534 -0.0372
16392SOL     OW60394   8.270   9.035   4.094  0.1297 -0.5479 -0.0741
16392SOL    HW160395   8.331   8.973   4.144  0.0351 -0.9078 -0.4026
16392SOL    HW260396   8.185   9.047   4.145  0.6491  0.2978  0.6002
16393SOL     OW60397   9.572   6.574   1.799  0.0554 -0.0978 -0.1386
16393SOL    HW160398   9.661   6.535   1.822  0.0001 -0.3911 -0.4175
16393SOL    HW260399   9.500   6.511   1.829 -0.0092 -0.6328 -1.4017
16394SOL     OW60400   2.451   0.137   5.564  0.7589 -0.3227 -0.2226
16394SOL    HW160401   2.524   0.168   5.625 -0.3149  1.1694  0.3219
16394SOL    HW260402   2.392   0.073   5.613 -0.6927  1.6470  0.6649
16395SOL     OW60403   2.884   9.923   4.778  0.3913  0.1214 -0.0178
16395SOL    HW160404   2.981   9.912   4.802 -0.0338  1.4903  2.5401
16395SOL    HW260405   2.839   9.979   4.847 -2.1888 -0.2512 -1.3313
16396SOL     OW60406   8.638   6.778   1.748 -0.0775 -0.5669 -0.2591
16396SOL    HW160407   8.678   6.707   1.805  0.2004  0.4139  0.7842
16396SOL    HW260408   8.538   6.765   1.744 -0.1445 -0.3844  0.8021
16397SOL     OW60409   4.332   2.039   1.930 -0.1740 -0.2371  0.4765
16397SOL    HW160410   4.272   2.022   1.852  0.8543 -2.1857  0.0693
16397SOL    HW260411   4.305   1.980   2.006 -0.6465  1.0514  1.3101
16398SOL     OW60412   2.675   6.142   3.132 -0.3800 -0.5436  0.0021
16398SOL    HW160413   2.730   6.163   3.213 -2.0361 -3.2507  1.8982
16398SOL    HW260414   2.714   6.063   3.085 -0.1750  0.2118 -1.0998
16399SOL     OW60415   6.377   9.290   2.970  0.2446 -0.1291  0.3428
16399SOL    HW160416   6.298   9.228   2.962  0.2326  0.0640 -1.3241
16399SOL    HW260417   6.353   9.366   3.030 -0.6779 -0.3471  0.2698
16400SOL     OW60418   6.634   0.911   5.735 -0.3753  0.4648 -0.4767
16400SOL    HW160419   6.614   0.975   5.661 -0.0369 -0.4244 -1.3529
16400SOL    HW260420   6.587   0.825   5.718  0.3859 -0.0307 -0.1056
16401SOL     OW60421   3.981   3.712   5.400  0.2719 -0.4011  0.1149
16401SOL    HW160422   4.044   3.635   5.391  0.0912 -0.6283  0.7954
16401SOL    HW260423   3.994   3.774   5.322  0.1911 -1.2756 -0.6102
16402SOL     OW60424   7.530   0.028   5.324  0.2246 -0.0892  0.0680
16402SOL    HW160425   7.534   0.022   5.423 -0.0858  0.6409  0.1268
16402SOL    HW260426   7.622   0.039   5.287  0.3689 -0.6864  0.2547
16403SOL     OW60427   8.178   3.221   5.926 -0.4148 -0.3412 -0.2187
16403SOL    HW160428   8.085   3.233   5.962 -0.4784  0.0569 -0.5046
16403SOL    HW260429   8.231   3.304   5.944 -0.0533 -0.6450  0.1213
16404SOL     OW60430   0.119   5.396   0.914 -0.0524 -0.4054 -0.3438
16404SOL    HW160431   0.099   5.352   0.827 -2.7016  1.7974 -0.9225
16404SOL    HW260432   0.138   5.327   0.984  0.4942 -2.2413 -2.2671
16405SOL     OW60433   4.895   7.967   3.722 -0.1754 -0.0449 -0.1409
16405SOL    HW160434   4.985   8.011   3.725 -0.2465  0.1677 -0.9016
16405SOL    HW260435   4.827   8.029   3.762  0.2468 -0.8327  1.8685
16406SOL     OW60436   2.858   8.936   0.873  0.1453 -0.5345 -0.2066
16406SOL    HW160437   2.829   9.007   0.808  1.1754  1.0828  1.0570
16406SOL    HW260438   2.781   8.911   0.931 -0.4697 -1.1413 -1.2603
16407SOL     OW60439   8.322   2.710   5.542  0.1237 -0.3834  0.1207
16407SOL    HW160440   8.351   2.801   5.511  0.4143  0.0104  1.4974
16407SOL    HW260441   8.353   2.641   5.477  0.7891  0.4125 -0.4160
16408SOL     OW60442   3.879   8.098   0.945  0.2851  0.0946 -0.0548
16408SOL    HW160443   3.903   8.002   0.930  1.9068  0.4718  0.0706
16408SOL    HW260444   3.785   8.113   0.914  0.4893 -1.2120 -1.4243
16409SOL     OW60445   9.548   5.220   6.623 -0.0260 -0.5349 -0.2030
16409SOL    HW160446   9.618   5.196   6.556 -0.0725  0.4437 -0.6082
16409SOL    HW260447   9.474   5.153   6.619  0.2267 -0.7845 -0.7614
16410SOL     OW60448   9.315   5.244   1.952  0.2425 -0.0788  0.2440
16410SOL    HW160449   9.236   5.211   1.901 -1.2618  2.0922  1.1089
16410SOL    HW260450   9.328   5.188   2.034 -1.5105  0.6311  1.0284
16411SOL     OW60451   9.225   5.939   1.273 -0.0063 -0.2479  0.4071
16411SOL    HW160452   9.285   5.860   1.283 -0.9243 -0.9879  0.0941
16411SOL    HW260453   9.150   5.932   1.339  0.6169  1.0249  1.2761
16412SOL     OW60454   7.889   3.514   4.869 -0.3276 -0.7318  0.4791
16412SOL    HW160455   7.937   3.567   4.939  1.2340  0.9943 -1.8235
16412SOL    HW260456   7.801   3.558   4.849  0.5441  0.5044 -0.7419
16413SOL     OW60457   6.670   2.477   5.190  0.5687 -0.7704 -0.2217
16413SOL    HW160458   6.738   2.413   5.225  1.3885  1.0038  1.5325
16413SOL    HW260459   6.578   2.439   5.201  0.9697 -1.2158  1.7963
16414SOL     OW60460   0.103   5.860   2.550  0.4095  0.1601  0.5516
16414SOL    HW160461   0.095   5.867   2.451  0.1095 -0.1298  0.5561
16414SOL    HW260462   0.023   5.814   2.587  0.9978 -0.6626  0.8253
16415SOL     OW60463   3.931   4.542   3.745 -0.1465 -0.1684 -0.5997
16415SOL    HW160464   3.887   4.452   3.755 -2.1898  0.5623 -2.4239
16415SOL    HW260465   3.959   4.554   3.649 -0.8029  1.5266 -0.5914
16416SOL     OW60466   4.115   0.739   2.700  0.2038 -0.0991  0.1786
16416SOL    HW160467   4.113   0.643   2.669  0.3194 -0.1237  0.2454
16416SOL    HW260468   4.022   0.770   2.718  0.0950  0.0807 -0.6971
16417SOL     OW60469   0.516   4.292   3.291 -0.1423 -0.0001  0.0306
16417SOL    HW160470   0.500   4.274   3.194 -0.8163 -1.8029  0.4672
16417SOL    HW260471   0.472   4.378   3.316  0.1583  0.5588 -1.2878
16418SOL     OW60472   4.028   0.835   0.198  0.4673 -0.5201 -0.1004
16418SOL    HW160473   4.065   0.831   0.291  0.7643  0.6114 -0.1567
16418SOL    HW260474   4.077   0.905   0.146  0.8023 -1.6466 -1.3351
16419SOL     OW60475   9.818   7.469   4.839  0.7603 -0.2382  0.2099
16419SOL    HW160476   9.808   7.530   4.918  1.2906 -1.5507  1.3207
16419SOL    HW260477   9.770   7.383   4.858  1.5507 -0.8544 -0.5866
16420SOL     OW60478   2.459   0.443   3.942 -0.0047  0.4228 -0.3985
16420SOL    HW160479   2.513   0.431   4.026 -2.0057 -2.5829  0.5295
16420SOL    HW260480   2.465   0.538   3.912  4.5977  0.5217  0.4785
16421SOL     OW60481   2.457   3.071   1.416 -0.0614 -0.0976  0.0226
16421SOL    HW160482   2.481   3.012   1.493  2.4031 -0.6719 -1.1409
16421SOL    HW260483   2.377   3.033   1.369 -1.1986 -0.0724  1.9012
16422SOL     OW60484   1.497   9.946   3.392 -0.3698  0.0177  0.1541
16422SOL    HW160485   1.476  10.017   3.460 -0.6296 -0.4659  0.5779
16422SOL    HW260486   1.497   9.856   3.435 -1.5003 -0.3932 -0.6902
16423SOL     OW60487   8.097   2.411   6.163  0.2880 -0.1292 -0.4170
16423SOL    HW160488   8.059   2.461   6.241 -0.0462 -1.7143  0.4562
16423SOL    HW260489   8.197   2.413   6.168  0.2984  1.0354 -0.7872
16424SOL     OW60490   8.047   3.579   0.224  0.3475  0.2306 -0.3654
16424SOL    HW160491   8.008   3.671   0.230 -0.6090 -0.1776 -0.2729
16424SOL    HW260492   8.004   3.529   0.149  0.2183 -0.4463  0.1525
16425SOL     OW60493   4.187   4.885   5.577 -0.1324 -0.1418 -0.1749
16425SOL    HW160494   4.092   4.876   5.547 -0.6782  0.7445  1.2092
16425SOL    HW260495   4.245   4.910   5.499 -1.2142  0.4206 -0.8109
16426SOL     OW60496   0.361   8.965   0.781  0.0559 -0.4065 -0.1982
16426SOL    HW160497   0.317   8.903   0.716 -0.9775  0.1238 -0.0004
16426SOL    HW260498   0.330   9.058   0.765 -0.3246 -0.2957  1.1641
16427SOL     OW60499   9.957   8.392   4.389 -0.0561  0.1733  0.2334
16427SOL    HW160500   9.942   8.468   4.452  1.8798  0.8984 -0.1530
16427SOL    HW260501  10.028   8.332   4.426 -0.5842 -0.6897 -0.1364
16428SOL     OW60502   9.938   3.915   1.361 -0.7105 -0.6771  0.1121
16428SOL    HW160503   9.957   3.948   1.269 -0.9935 -0.8420 -0.0078
16428SOL    HW260504   9.851   3.955   1.393 -1.3519 -1.7495 -0.2583
16429SOL     OW60505   9.512   6.471   3.244  0.4925  0.3676  0.2874
16429SOL    HW160506   9.545   6.494   3.153 -0.5404  1.2298  0.1152
16429SOL    HW260507   9.573   6.511   3.313  0.4444  1.0071 -0.0298
16430SOL     OW60508   8.673   1.413   0.467 -0.8099 -0.0539  0.3291
16430SOL    HW160509   8.615   1.356   0.525  0.7916 -0.1130  1.9129
16430SOL    HW260510   8.704   1.359   0.388 -1.5577 -0.5125  0.3404
16431SOL     OW60511   3.975   1.680   0.910 -0.0689  0.3946  0.2068
16431SOL    HW160512   3.984   1.598   0.854  0.0178  0.2759  0.3962
16431SOL    HW260513   4.045   1.747   0.884  1.2882 -0.4629  1.5782
16432SOL     OW60514   3.094   0.721   5.226 -0.6285  0.9351 -0.4134
16432SOL    HW160515   3.113   0.662   5.147 -0.6723  0.2593  0.0740
16432SOL    HW260516   3.163   0.793   5.231  0.0619  0.2870 -0.4019
16433SOL     OW60517   7.817   0.333   4.186 -0.3027 -0.2255 -0.1330
16433SOL    HW160518   7.760   0.356   4.265 -0.2580 -0.2973 -0.0798
16433SOL    HW260519   7.913   0.356   4.206 -0.0576 -1.7006  0.4315
16434SOL     OW60520   0.202   2.455   3.062  0.1813  0.1476  0.2689
16434SOL    HW160521   0.278   2.447   3.126 -1.1844 -0.2522  1.8839
16434SOL    HW260522   0.116   2.460   3.113 -0.8150  1.5010 -1.4868
16435SOL     OW60523   3.664   3.728   2.974  0.9049  0.3678 -0.1675
16435SOL    HW160524   3.610   3.781   2.908 -2.7157 -1.2880  1.3775
16435SOL    HW260525   3.652   3.767   3.065  1.7024 -0.5269  0.3203
16436SOL     OW60526   8.375   5.092   5.954 -0.4798 -0.0362  0.0032
16436SOL    HW160527   8.369   5.146   6.037  0.4117 -1.4535  1.0157
16436SOL    HW260528   8.283   5.063   5.926 -0.9404  1.7683 -0.4278
16437SOL     OW60529   1.613   5.824   1.505  0.3938  0.6258 -0.1716
16437SOL    HW160530   1.521   5.840   1.542  0.8676  0.8979  0.8976
16437SOL    HW260531   1.635   5.895   1.438 -0.6259 -0.0920 -1.2903
16438SOL     OW60532   8.989   9.159   1.094 -0.0779 -0.0635  0.9637
16438SOL    HW160533   9.037   9.113   1.020 -0.1680  1.2938  0.0408
16438SOL    HW260534   9.008   9.112   1.181  2.1374 -0.1250  0.4690
16439SOL     OW60535   7.924   5.973   2.518  0.3854  0.0853  0.4336
16439SOL    HW160536   7.982   5.945   2.442  0.1936  0.3236  0.1985
16439SOL    HW260537   7.924   5.902   2.588  2.4762  0.8978  1.2838
16440SOL     OW60538   3.879   3.640   3.213 -0.8381 -0.4323 -0.7286
16440SOL    HW160539   3.914   3.672   3.125 -0.7065  2.2573  0.2510
16440SOL    HW260540   3.939   3.568   3.248  0.4309  0.0924 -1.7647
16441SOL     OW60541   7.821   2.975   6.690  0.0506 -0.3241 -0.2765
16441SOL    HW160542   7.909   2.985   6.644 -0.7820  0.0295 -1.8620
16441SOL    HW260543   7.799   3.060   6.739  1.0816 -0.8088  1.0356
16442SOL     OW60544   9.843   7.033   0.182  0.0668 -0.3189 -0.3248
16442SOL    HW160545   9.940   7.055   0.169 -0.2961  1.1703 -0.5248
16442SOL    HW260546   9.827   6.938   0.154  2.0079 -1.5055  2.3595
16443SOL     OW60547   2.253   5.418   0.773 -0.0134  0.2068 -0.0353
16443SOL    HW160548   2.278   5.493   0.835  1.4071 -0.6053  0.4075
16443SOL    HW260549   2.223   5.455   0.686  0.5202  1.2985  0.2388
16444SOL     OW60550   3.601   6.380   1.031  0.1814 -0.1446  0.1757
16444SOL    HW160551   3.583   6.308   0.964 -0.8583  1.7484 -1.6534
16444SOL    HW260552   3.677   6.437   0.999 -0.2320  0.6893  0.6543
16445SOL     OW60553   2.124   8.158   0.976 -0.0418  0.3743  0.3284
16445SOL    HW160554   2.060   8.082   0.964 -1.3611  1.3670  1.0492
16445SOL    HW260555   2.215   8.128   0.948 -1.2251 -0.3109 -3.1008
16446SOL     OW60556   7.819   6.799   4.106 -0.6371  0.2598 -0.2871
16446SOL    HW160557   7.915   6.824   4.090 -0.3601 -0.3708  0.3745
16446SOL    HW260558   7.771   6.797   4.018 -0.0224  0.4779 -0.6369
16447SOL     OW60559   8.728   4.933   4.208 -0.3832  0.2119  0.1998
16447SOL    HW160560   8.687   5.024   4.199 -1.0054  0.0872  1.7024
16447SOL    HW260561   8.789   4.916   4.130 -1.0757  1.4862 -0.6365
16448SOL     OW60562   1.649   4.601   0.303 -0.8362 -0.0277  0.3749
16448SOL    HW160563   1.682   4.604   0.209 -3.3541 -1.6866 -0.6223
16448SOL    HW260564   1.659   4.691   0.345 -1.5005  1.2757 -2.1595
16449SOL     OW60565   4.614   6.242   2.143  0.1644  0.4437  0.8847
16449SOL    HW160566   4.659   6.280   2.062  0.7028  0.9081  1.3952
16449SOL    HW260567   4.515   6.237   2.127  0.4706 -1.4692 -0.6001
16450SOL     OW60568   4.288   9.172   0.907  0.0145 -0.0911  0.1928
16450SOL    HW160569   4.203   9.160   0.854  1.3160 -0.9663 -1.7596
16450SOL    HW260570   4.288   9.263   0.949 -1.2335  0.4930 -1.0270
16451SOL     OW60571   4.656   9.301   2.416  0.0183 -0.6574  0.1243
16451SOL    HW160572   4.574   9.356   2.403 -0.1491 -0.8928  0.1900
16451SOL    HW260573   4.679   9.255   2.330  0.9722  0.6373 -0.3167
16452SOL     OW60574   7.313   3.782   6.600 -0.0589  0.4926 -0.3924
16452SOL    HW160575   7.280   3.734   6.681  0.8303  1.0822  0.3268
16452SOL    HW260576   7.396   3.739   6.566  0.6764  1.4283  0.1830
16453SOL     OW60577   1.280   7.007   6.671 -0.0352 -0.0114  0.0978
16453SOL    HW160578   1.334   6.927   6.695 -1.1581 -0.2045  2.1559
16453SOL    HW260579   1.331   7.064   6.607  2.8512  0.0575  2.3266
16454SOL     OW60580   7.644   3.333   1.051  0.7101 -0.2437 -0.7022
16454SOL    HW160581   7.679   3.345   0.958  0.0866 -0.8628 -1.0194
16454SOL    HW260582   7.579   3.257   1.052 -0.4857  0.7808 -0.0758
16455SOL     OW60583   1.005   7.425   0.298  0.3363  0.4288 -0.4318
16455SOL    HW160584   1.052   7.510   0.275 -0.7825  0.8662 -1.1560
16455SOL    HW260585   1.046   7.349   0.248  0.8097  0.6709 -0.4144
16456SOL     OW60586   2.419   7.463   3.087 -0.3145 -0.0555  0.1664
16456SOL    HW160587   2.343   7.482   3.150  0.0268  1.1764  0.2278
16456SOL    HW260588   2.426   7.538   3.021  0.9099 -0.1130  0.2202
16457SOL     OW60589   3.708   1.946   6.294  0.4381  0.3070 -0.0811
16457SOL    HW160590   3.739   1.894   6.214  0.3141  1.0702 -0.6429
16457SOL    HW260591   3.668   2.032   6.263  4.0546  2.4991  0.9390
16458SOL     OW60592   8.695   1.158   0.323 -0.2222 -0.5485  0.1866
16458SOL    HW160593   8.680   1.067   0.285  0.9100 -0.9076  0.5665
16458SOL    HW260594   8.707   1.224   0.249  1.4369 -1.1529 -0.0996
16459SOL     OW60595   1.165   6.786   4.991 -0.0176  0.0736 -0.6006
16459SOL    HW160596   1.235   6.751   5.053 -0.1637  2.4836  1.0201
16459SOL    HW260597   1.105   6.712   4.962  1.6177 -1.5564  0.0730
16460SOL     OW60598   3.335   3.977   0.900 -0.1130 -0.2804  0.3609
16460SOL    HW160599   3.342   3.911   0.975 -2.2209 -2.5085 -1.3415
16460SOL    HW260600   3.284   4.058   0.930  0.4715 -0.4321  1.7799
16461SOL     OW60601   3.996   1.683   3.539 -0.0731 -0.3582 -0.5707
16461SOL    HW160602   4.025   1.690   3.443  1.9826  0.9593  0.1256
16461SOL    HW260603   4.015   1.769   3.586  0.0734 -1.4134  1.3318
16462SOL     OW60604   0.862   3.551   6.431 -0.1208 -0.0371 -0.0563
16462SOL    HW160605   0.875   3.514   6.522  0.1563  0.5581  0.1466
16462SOL    HW260606   0.933   3.618   6.411 -1.1344  1.0602 -0.0637
16463SOL     OW60607   4.676   0.953   1.412  0.3513 -0.0890  0.1791
16463SOL    HW160608   4.763   1.001   1.422  0.3768 -0.5595  2.4948
16463SOL    HW260609   4.680   0.865   1.460 -1.5755  0.0896  0.7246
16464SOL     OW60610   1.229   4.414   0.907  0.1503  0.1861 -0.3194
16464SOL    HW160611   1.266   4.397   0.815 -0.7156  1.1134 -0.8588
16464SOL    HW260612   1.135   4.380   0.911 -0.8462  2.7555 -0.7325
16465SOL     OW60613   1.267   1.849   1.355 -0.1255  0.3888 -0.1476
16465SOL    HW160614   1.344   1.844   1.418 -0.8548  0.5480  0.7616
16465SOL    HW260615   1.186   1.808   1.398 -0.8431  1.2738 -0.6447
16466SOL     OW60616   4.141   2.929   3.722  0.1428  0.3167 -0.1580
16466SOL    HW160617   4.142   2.924   3.822  0.0248 -0.8283 -0.2104
16466SOL    HW260618   4.060   2.883   3.686  0.7799 -0.3190 -0.8257
16467SOL     OW60619   4.118   3.932   4.083 -0.2636  0.2627  0.5705
16467SOL    HW160620   4.081   3.858   4.028 -1.2472  1.5848 -0.5680
16467SOL    HW260621   4.182   3.986   4.028  0.0964  0.5387  1.2528
16468SOL     OW60622   1.039   2.288   3.893  0.3099  0.1115 -0.1619
16468SOL    HW160623   1.056   2.194   3.861  0.6668  0.1256 -0.0169
16468SOL    HW260624   0.943   2.296   3.921  0.4114 -0.3713  0.3491
16469SOL     OW60625   2.534   3.277   3.828  0.1356  0.3540  0.1047
16469SOL    HW160626   2.445   3.322   3.838 -0.9546 -1.5186 -0.7470
16469SOL    HW260627   2.602   3.324   3.884 -1.1983  2.3187  0.1229
16470SOL     OW60628   4.543   1.838   4.390 -0.1523  0.5439 -0.8102
16470SOL    HW160629   4.610   1.775   4.430 -0.5067  0.7712  0.1645
16470SOL    HW260630   4.451   1.802   4.406 -0.5302  2.6693  2.2772
16471SOL     OW60631   7.822   7.782   6.538  0.4523  0.0932 -0.2932
16471SOL    HW160632   7.798   7.813   6.446 -0.1094 -1.1599 -0.5798
16471SOL    HW260633   7.768   7.700   6.561  3.2381 -1.7966 -0.2921
16472SOL     OW60634   2.407   2.484   2.194 -0.6613 -0.2822 -0.1627
16472SOL    HW160635   2.326   2.472   2.136  0.6102 -2.3073 -1.5790
16472SOL    HW260636   2.483   2.430   2.157  1.1782  1.0935  1.4851
16473SOL     OW60637   7.228   6.207   4.547 -0.0551 -0.0048  0.3479
16473SOL    HW160638   7.147   6.176   4.498  1.1449 -2.0564 -0.4209
16473SOL    HW260639   7.276   6.128   4.585  1.4768  1.1913  0.9609
16474SOL     OW60640   0.882   2.252   2.496  0.2651 -0.1643 -0.1862
16474SOL    HW160641   0.911   2.278   2.404 -0.5068  2.0803  0.1690
16474SOL    HW260642   0.955   2.271   2.561  0.2076 -0.2135 -0.1073
16475SOL     OW60643   1.866   4.132   5.385  0.1085 -0.8252  0.0132
16475SOL    HW160644   1.789   4.152   5.325 -0.6716  1.1711  1.6093
16475SOL    HW260645   1.844   4.054   5.444 -0.4397 -0.6750  0.0104
16476SOL     OW60646   8.014   9.368   1.713 -0.2876  0.1516 -0.3392
16476SOL    HW160647   8.098   9.392   1.761 -0.2654 -0.5808 -0.0026
16476SOL    HW260648   8.016   9.406   1.621  0.6124 -0.2419 -0.4906
16477SOL     OW60649   8.915   9.629   2.564  0.3339 -0.0497  0.0635
16477SOL    HW160650   8.857   9.571   2.508  0.4845 -0.6568  0.5317
16477SOL    HW260651   9.011   9.608   2.547  0.3540 -2.1049  2.4660
16478SOL     OW60652   7.541   8.535   5.097  0.0379 -0.6577 -0.2795
16478SOL    HW160653   7.525   8.438   5.111 -0.8814 -0.2301  1.8497
16478SOL    HW260654   7.455   8.585   5.104  0.6795  0.4462 -0.0759
16479SOL     OW60655   4.730   0.721   3.758  0.1357 -0.0764  0.0050
16479SOL    HW160656   4.735   0.784   3.835 -0.1799 -0.0609  0.0156
16479SOL    HW260657   4.634   0.706   3.734  0.1791 -1.1101  0.4553
16480SOL     OW60658   0.316   8.845   4.841 -0.1213 -0.3099 -0.2176
16480SOL    HW160659   0.339   8.890   4.928  1.4983 -1.7167  0.0932
16480SOL    HW260660   0.217   8.828   4.838 -0.3292  0.6194  0.9225
16481SOL     OW60661   8.774   8.211   2.333 -1.0006  0.2528 -0.1207
16481SOL    HW160662   8.862   8.257   2.319 -2.0742  2.4681  0.0735
16481SOL    HW260663   8.787   8.127   2.386  1.0636  0.2272 -0.6529
16482SOL     OW60664   3.309   6.928   3.884  0.1188 -1.0201  0.3443
16482SOL    HW160665   3.385   6.936   3.948 -0.1114 -1.2424  0.6499
16482SOL    HW260666   3.294   6.831   3.862 -1.1054 -1.1333  1.5559
16483SOL     OW60667   2.689   6.102   3.489  0.1373  0.0567 -0.0524
16483SOL    HW160668   2.636   6.185   3.468  0.7249  0.5653  0.4694
16483SOL    HW260669   2.626   6.027   3.510 -0.3931  0.8886  1.4367
16484SOL     OW60670   0.779   5.741   3.077  0.2282  0.2169 -0.1426
16484SOL    HW160671   0.750   5.647   3.096  0.0976  0.3986  0.6040
16484SOL    HW260672   0.718   5.804   3.125 -0.4390  0.7244 -1.6614
16485SOL     OW60673   1.709   4.240   1.062  0.4682  0.3831 -0.8928
16485SOL    HW160674   1.744   4.329   1.093  0.8031 -0.2965  0.7383
16485SOL    HW260675   1.610   4.238   1.073  0.5762  0.1700  0.1369
16486SOL     OW60676   0.438   7.394   4.788  0.6678  0.1946  0.3446
16486SOL    HW160677   0.433   7.488   4.752 -0.2108 -0.0135 -0.0896
16486SOL    HW260678   0.389   7.333   4.726  1.7080 -0.6456  0.3361
16487SOL     OW60679   7.675   0.088   4.724  0.2716  0.0985 -0.0555
16487SOL    HW160680   7.587   0.073   4.679  0.6159  1.0194 -1.0535
16487SOL    HW260681   7.705   0.004   4.767 -1.8327  0.1535  1.6074
16488SOL     OW60682   2.087   5.877   3.045  0.5673 -0.4486  0.1376
16488SOL    HW160683   2.042   5.789   3.034 -1.8466  0.6967  0.4137
16488SOL    HW260684   2.068   5.934   2.965  2.0622 -0.1541 -0.0171
16489SOL     OW60685   6.054   1.150   1.325  0.3257 -0.4433 -0.2682
16489SOL    HW160686   6.076   1.113   1.415 -0.4350 -0.6496 -0.1660
16489SOL    HW260687   6.104   1.236   1.311  2.5656 -1.7674 -0.7456
16490SOL     OW60688   0.718   1.172   1.795 -0.1395 -0.2434 -0.0398
16490SOL    HW160689   0.677   1.111   1.728  0.4573 -0.5062 -0.1680
16490SOL    HW260690   0.759   1.251   1.749 -0.0092 -0.2630  0.0400
16491SOL     OW60691   8.124   8.124   4.700  0.7287  0.2431  0.3172
16491SOL    HW160692   8.183   8.126   4.781  0.3065  0.2686  0.6232
16491SOL    HW260693   8.149   8.200   4.640  1.2527  0.0381  0.2736
16492SOL     OW60694   0.817   6.079   6.757  0.0933  0.1013  0.0882
16492SOL    HW160695   0.870   6.138   6.818  0.0638  2.1481 -1.8152
16492SOL    HW260696   0.879   6.019   6.707  0.2101 -0.7562  1.2391
16493SOL     OW60697   3.018   0.272   0.609  0.2649  0.6413 -0.6410
16493SOL    HW160698   3.007   0.174   0.624 -0.4251  0.8584  0.2598
16493SOL    HW260699   3.029   0.289   0.511 -1.2746 -0.1798 -0.9656
16494SOL     OW60700   1.588   5.921   6.079 -0.3620  0.3561 -0.0749
16494SOL    HW160701   1.557   5.844   6.022  1.1244  0.5817 -1.2267
16494SOL    HW260702   1.512   5.953   6.135 -1.9392  0.2231 -2.0564
16495SOL     OW60703   4.932   9.086   2.328  0.4367  0.2471 -0.9212
16495SOL    HW160704   4.961   8.992   2.313 -0.0480 -0.0755  0.1121
16495SOL    HW260705   4.901   9.097   2.423 -1.5145  0.9146 -1.6119
16496SOL     OW60706   4.578   2.285   0.358 -0.0663 -0.8373 -0.7267
16496SOL    HW160707   4.526   2.244   0.433  0.5570 -1.1849 -0.4719
16496SOL    HW260708   4.517   2.306   0.282 -0.5873 -1.1616 -0.4030
16497SOL     OW60709   1.192   0.774   4.252 -0.5871  0.4990 -0.0660
16497SOL    HW160710   1.178   0.856   4.307  0.0776 -0.6448  1.8380
16497SOL    HW260711   1.285   0.775   4.215 -1.2984  1.6712 -1.8989
16498SOL     OW60712   3.803   0.128   1.354 -0.2246 -0.6099 -0.3000
16498SOL    HW160713   3.738   0.119   1.429 -1.0308  0.0035 -0.9065
16498SOL    HW260714   3.884   0.074   1.373 -1.4107 -2.3304 -0.0654
16499SOL     OW60715   4.169   4.690   2.199  0.3038 -0.4131 -0.4341
16499SOL    HW160716   4.141   4.642   2.282  0.1949 -0.9760 -0.7945
16499SOL    HW260717   4.267   4.708   2.202  0.0697  0.7148  0.3996
16500SOL     OW60718   0.814   6.579   0.098  0.1156  0.0048 -0.0866
16500SOL    HW160719   0.751   6.640   0.146  1.0273  0.1504  0.9531
16500SOL    HW260720   0.898   6.629   0.075  0.4269 -0.5615 -0.1943
16501SOL     OW60721   2.934   3.587   4.427 -0.1226  0.3458 -0.0981
16501SOL    HW160722   2.936   3.539   4.515  1.6365  0.9582  0.2260
16501SOL    HW260723   2.967   3.526   4.355 -0.5558  0.1838 -0.1620
16502SOL     OW60724   6.412   0.229   2.573 -0.7242  0.5648 -0.8689
16502SOL    HW160725   6.334   0.213   2.512 -2.6574 -2.0237  2.1718
16502SOL    HW260726   6.411   0.325   2.602 -3.0915  0.4426 -0.4452
16503SOL     OW60727   1.456   3.737   2.777  0.3167 -0.3007 -0.4875
16503SOL    HW160728   1.556   3.739   2.768  0.3488 -2.4538 -0.7118
16503SOL    HW260729   1.415   3.764   2.689  0.6916  0.5270 -0.4136
16504SOL     OW60730   2.649   2.834   0.202 -0.1250 -0.1037  0.0116
16504SOL    HW160731   2.682   2.754   0.153  0.7158  0.3460 -0.1771
16504SOL    HW260732   2.654   2.914   0.142  0.7916  0.4271  0.7770
16505SOL     OW60733   1.323   7.530   0.638  0.1488  0.4226 -0.3370
16505SOL    HW160734   1.267   7.447   0.641 -0.4989  0.8950  2.4885
16505SOL    HW260735   1.419   7.505   0.650 -0.0259  0.0474  0.3362
16506SOL     OW60736   1.382   7.714   1.885 -0.0011 -0.3305  0.2608
16506SOL    HW160737   1.392   7.725   1.786 -2.9089  0.0540 -0.0199
16506SOL    HW260738   1.427   7.790   1.932 -1.5352  1.3404 -0.9067
16507SOL     OW60739   9.864   5.653   4.439 -0.5159 -0.1988  0.1868
16507SOL    HW160740   9.871   5.563   4.396 -0.2532 -0.5549  0.9718
16507SOL    HW260741   9.840   5.721   4.370  2.3023 -0.3582 -0.9891
16508SOL     OW60742   4.746   9.554   4.118 -0.2922  0.0794 -0.4551
16508SOL    HW160743   4.735   9.615   4.196 -0.4882  2.2599 -2.1353
16508SOL    HW260744   4.740   9.607   4.033  0.8994 -2.0861 -1.9432
16509SOL     OW60745   7.314   4.709   5.235  0.2750 -0.3498 -0.0293
16509SOL    HW160746   7.289   4.796   5.193  0.1579 -0.6503 -0.5934
16509SOL    HW260747   7.309   4.717   5.334  2.1680  0.8646 -0.0024
16510SOL     OW60748   3.866   2.565   2.933 -0.5855 -0.6731 -0.3092
16510SOL    HW160749   3.924   2.495   2.976  1.3110  1.3926  0.5819
16510SOL    HW260750   3.901   2.584   2.841 -0.2466  0.0814 -0.0294
16511SOL     OW60751   2.314   7.463   3.391  0.0109  0.1314  0.5640
16511SOL    HW160752   2.276   7.555   3.398  0.0847 -0.0162  3.3358
16511SOL    HW260753   2.248   7.403   3.346 -0.4089  1.3350 -0.4389
16512SOL     OW60754   2.843   5.862   0.531 -0.2010 -0.3992 -0.2180
16512SOL    HW160755   2.783   5.786   0.553 -0.8792  0.2593  0.2392
16512SOL    HW260756   2.789   5.943   0.509  0.5086  0.0498 -0.3478
16513SOL     OW60757   7.919   1.348   1.240  0.2520  0.4799  0.5317
16513SOL    HW160758   7.873   1.268   1.279  0.6932 -0.0324  0.0152
16513SOL    HW260759   7.858   1.394   1.175 -1.1832  2.4148  3.1481
16514SOL     OW60760   3.711   1.769   4.789 -0.0024  0.1374 -0.3077
16514SOL    HW160761   3.658   1.689   4.816 -0.0152  0.7049  1.3954
16514SOL    HW260762   3.804   1.741   4.763 -0.3450 -0.5500 -0.8059
16515SOL     OW60763   8.260   0.628   5.923 -0.1572  0.7226  0.6793
16515SOL    HW160764   8.216   0.553   5.872 -0.4826  1.6084 -0.3528
16515SOL    HW260765   8.246   0.714   5.874  0.6878  1.3791  1.5875
16516SOL     OW60766   2.612   4.576   0.865 -0.2294  0.3824 -0.2657
16516SOL    HW160767   2.610   4.676   0.853 -0.4086  0.3264 -0.6816
16516SOL    HW260768   2.635   4.532   0.779 -0.2266  0.0562 -0.0995
16517SOL     OW60769   5.573   6.540   2.547 -0.4102 -0.3765 -0.5471
16517SOL    HW160770   5.608   6.446   2.545  0.4014 -0.0878 -0.2686
16517SOL    HW260771   5.524   6.559   2.462 -0.4311 -0.9954 -0.6777
16518SOL     OW60772   8.944   4.930   4.019  0.1798 -0.0485  0.1605
16518SOL    HW160773   8.986   5.008   4.065 -0.7353  0.6041 -0.1035
16518SOL    HW260774   8.982   4.920   3.927  0.0614  0.2832  0.0758
16519SOL     OW60775   9.301   2.569   2.395 -0.0313  0.2063  0.0065
16519SOL    HW160776   9.365   2.618   2.336 -1.0430  0.4755 -0.8819
16519SOL    HW260777   9.262   2.632   2.462 -0.1869  0.2716 -0.1476
16520SOL     OW60778   5.860   8.247   4.286 -0.3518  0.3997  0.5286
16520SOL    HW160779   5.806   8.291   4.358 -0.5005  0.5826  0.3060
16520SOL    HW260780   5.856   8.303   4.203  1.1992  1.0584  0.8801
16521SOL     OW60781   4.008   9.459   0.857  0.1826 -0.6128 -0.1766
16521SOL    HW160782   4.005   9.441   0.955  3.2942  0.9877  0.2927
16521SOL    HW260783   4.046   9.380   0.809 -0.8219 -1.1868 -0.0253
16522SOL     OW60784   3.777   2.432   1.593  0.1078  0.2070 -0.1171
16522SOL    HW160785   3.751   2.356   1.652  2.4408 -0.5109  0.0369
16522SOL    HW260786   3.820   2.504   1.648  1.6609 -0.1640 -0.8188
16523SOL     OW60787   9.017   3.226   0.812  0.2785  0.3886  0.0944
16523SOL    HW160788   9.101   3.263   0.772 -0.6498  1.5900 -0.7845
16523SOL    HW260789   8.952   3.206   0.739 -0.0410 -0.9411  0.7424
16524SOL     OW60790   0.936   2.820   5.089 -0.2804  0.1509 -0.3222
16524SOL    HW160791   0.918   2.778   5.179  0.5486  0.8550  0.1779
16524SOL    HW260792   0.863   2.884   5.068 -1.0663 -0.8407 -0.6655
16525SOL     OW60793   0.399   3.167   1.621  0.3912 -0.0678  0.0104
16525SOL    HW160794   0.301   3.180   1.632  0.5901 -0.1211  2.0741
16525SOL    HW260795   0.447   3.253   1.641  0.7803 -0.0895 -0.8042
16526SOL     OW60796   9.878   4.356   6.534  0.1614 -0.3318 -0.1436
16526SOL    HW160797   9.846   4.341   6.628 -0.5643 -1.7589 -0.6060
16526SOL    HW260798   9.860   4.275   6.480  1.9809 -0.0815 -1.1474
16527SOL     OW60799   2.359   4.547   0.756  0.1747  0.2805 -0.3743
16527SOL    HW160800   2.435   4.555   0.821  1.2439 -1.0299 -1.4256
16527SOL    HW260801   2.364   4.621   0.689  0.1341  0.5750 -0.0541
16528SOL     OW60802   8.688   0.324   3.488  0.2446  0.1504 -0.3948
16528SOL    HW160803   8.716   0.228   3.490 -0.1548  0.0546  1.1862
16528SOL    HW260804   8.602   0.334   3.539  1.0669  1.5834  0.7235
16529SOL     OW60805   7.833   7.146   1.902  0.1605 -0.1939 -0.1228
16529SOL    HW160806   7.917   7.094   1.887 -0.0343 -0.8737  1.0287
16529SOL    HW260807   7.829   7.176   1.997  0.8338  2.9960 -1.0328
16530SOL     OW60808   1.502   2.727   1.312 -0.4231  0.8073  0.0459
16530SOL    HW160809   1.479   2.822   1.336  1.2001  1.2508 -0.0919
16530SOL    HW260810   1.472   2.666   1.385  2.3183  1.8831  2.2011
16531SOL     OW60811   8.249   9.900   3.980 -0.6003  0.1180  0.8244
16531SOL    HW160812   8.170   9.945   4.023  0.0467  0.1314  2.0303
16531SOL    HW260813   8.271   9.946   3.894 -0.4996  1.5659  1.6063
16532SOL     OW60814   3.631   7.852   1.709  0.0644  0.2064  0.4244
16532SOL    HW160815   3.653   7.757   1.731  0.9430 -0.2911 -2.4335
16532SOL    HW260816   3.687   7.912   1.766  0.2539 -0.9946  1.5366
16533SOL     OW60817   4.381   2.078   6.481  0.6872  0.7285 -0.0455
16533SOL    HW160818   4.386   1.980   6.499  2.2061  0.7983 -0.0603
16533SOL    HW260819   4.440   2.101   6.403 -0.5093  1.4897 -0.7567
16534SOL     OW60820   3.597   4.655   5.442  0.0695  0.3366 -0.8069
16534SOL    HW160821   3.532   4.696   5.506 -0.0897 -1.5109  0.2502
16534SOL    HW260822   3.650   4.727   5.398  1.1748  1.6061  2.4340
16535SOL     OW60823   7.300   3.183   3.678 -0.0177  0.2820 -0.1970
16535SOL    HW160824   7.319   3.105   3.738  0.0670 -0.4958 -1.2299
16535SOL    HW260825   7.223   3.235   3.715 -1.2351 -1.3109 -0.4300
16536SOL     OW60826   9.235   3.393   1.975 -0.5315  0.2817 -0.1005
16536SOL    HW160827   9.314   3.412   1.917 -1.1186  0.2205 -0.9332
16536SOL    HW260828   9.171   3.470   1.969 -1.2794 -0.3796 -0.6995
16537SOL     OW60829   1.756   2.811   3.124 -0.0562  0.1048  0.4782
16537SOL    HW160830   1.678   2.795   3.184  0.3702  1.2363  1.3546
16537SOL    HW260831   1.723   2.848   3.037 -0.5379  0.1726  0.6847
16538SOL     OW60832   8.312   2.899   0.869  0.0300 -0.1179  0.0524
16538SOL    HW160833   8.398   2.858   0.898  0.4929  0.7379 -0.1058
16538SOL    HW260834   8.321   2.933   0.776  0.2456  2.0657  0.8621
16539SOL     OW60835   7.601   1.496   5.913 -0.0351  0.4799  0.2167
16539SOL    HW160836   7.677   1.558   5.897  0.0214  0.6137  1.0021
16539SOL    HW260837   7.515   1.541   5.888  0.0764  0.5936  0.0382
16540SOL     OW60838   4.374   1.364   3.836  0.0216 -0.0588  0.3215
16540SOL    HW160839   4.411   1.415   3.758 -0.3900  1.4702  1.1147
16540SOL    HW260840   4.278   1.341   3.818 -0.2851  0.9214  0.6716
16541SOL     OW60841   3.135   7.483   2.477 -0.5426 -0.4656 -0.9256
16541SOL    HW160842   3.229   7.509   2.456 -0.3599  0.9140  1.4356
16541SOL    HW260843   3.072   7.534   2.419  0.0210  1.9438  0.4932
16542SOL     OW60844   4.701   3.453   3.342 -0.2658 -0.0557 -0.1231
16542SOL    HW160845   4.715   3.396   3.423  1.2737 -1.6080 -1.4677
16542SOL    HW260846   4.604   3.475   3.333 -0.3062  1.1833  2.8350
16543SOL     OW60847   0.630   9.773   4.112  0.0203 -0.6249 -0.1927
16543SOL    HW160848   0.694   9.701   4.141  0.2468 -0.2939  0.1421
16543SOL    HW260849   0.611   9.763   4.015  2.0232  0.3631 -0.7184
16544SOL     OW60850   9.261   8.968   2.262 -0.0886 -0.3655 -0.6364
16544SOL    HW160851   9.317   8.896   2.305 -0.9954 -1.5294 -1.3637
16544SOL    HW260852   9.171   8.971   2.306 -0.0167  0.3961 -0.5455
16545SOL     OW60853   0.285   8.019   3.577  0.2511 -0.2563  0.2596
16545SOL    HW160854   0.330   7.973   3.500  1.9611 -0.3777  1.3103
16545SOL    HW260855   0.313   7.976   3.663 -0.3628  0.9242  1.0629
16546SOL     OW60856   0.519   2.393   0.928  0.2635 -0.2870  0.6988
16546SOL    HW160857   0.569   2.429   0.850 -0.2800 -0.0138  0.4793
16546SOL    HW260858   0.448   2.457   0.955 -0.0053 -0.7004  0.9805
16547SOL     OW60859   0.190   7.014   1.236  0.2506  0.0108  0.2046
16547SOL    HW160860   0.111   7.035   1.294 -0.4321 -1.8918 -0.0034
16547SOL    HW260861   0.161   7.013   1.140  0.0209 -2.7318  0.2621
16548SOL     OW60862   1.507   8.181   3.159 -0.1588  0.3424 -0.1411
16548SOL    HW160863   1.482   8.103   3.216  0.5257  0.5216  0.4141
16548SOL    HW260864   1.499   8.266   3.212  0.3335  0.5252 -0.3515
16549SOL     OW60865   5.946   1.825   2.880 -0.0754  0.4055  0.2278
16549SOL    HW160866   6.024   1.883   2.902  0.2977  0.4113 -1.0728
16549SOL    HW260867   5.881   1.876   2.823 -0.4590  0.0199  0.3177
16550SOL     OW60868   6.704   7.442   5.076 -0.0153  0.3568  0.1592
16550SOL    HW160869   6.726   7.354   5.118  0.4091  0.9014  1.0684
16550SOL    HW260870   6.667   7.426   4.984 -2.3819 -0.9284  1.2803
16551SOL     OW60871   4.799   2.465   2.195  0.5156 -0.2777  0.3942
16551SOL    HW160872   4.819   2.369   2.175 -2.2584 -1.0665  1.1009
16551SOL    HW260873   4.838   2.489   2.284  1.1242 -0.8024  0.2688
16552SOL     OW60874   2.935   5.289   5.472 -0.1275  0.6550 -0.5165
16552SOL    HW160875   3.033   5.295   5.453 -0.2972  0.9608 -1.3083
16552SOL    HW260876   2.884   5.334   5.399 -0.8081  1.7288  0.6027
16553SOL     OW60877   9.958   2.856   1.266  0.5617 -0.1194  0.6395
16553SOL    HW160878   9.954   2.768   1.314 -0.6758 -0.0577  0.6902
16553SOL    HW260879  10.012   2.921   1.320 -0.6066 -0.1277  1.8659
16554SOL     OW60880   0.700   5.744   4.793 -0.0259 -0.1062 -0.7128
16554SOL    HW160881   0.699   5.644   4.801  0.9642 -0.4755 -4.0833
16554SOL    HW260882   0.621   5.775   4.740  0.4225  0.7489 -0.9016
16555SOL     OW60883   2.607   0.464   2.381  0.3968  0.1152 -0.4680
16555SOL    HW160884   2.511   0.476   2.357  0.5159 -0.1739 -1.1017
16555SOL    HW260885   2.655   0.417   2.306  1.5883  2.4868 -1.2518
16556SOL     OW60886   2.320   7.718   3.783 -0.9515 -0.1611  0.4744
16556SOL    HW160887   2.354   7.802   3.742 -2.6012  0.5157  0.4680
16556SOL    HW260888   2.363   7.639   3.738 -1.0451  0.6267 -1.0207
16557SOL     OW60889   6.171   0.330   4.124 -0.0994  0.2909 -0.4472
16557SOL    HW160890   6.117   0.385   4.061  0.2965  0.1492 -0.9179
16557SOL    HW260891   6.110   0.283   4.188 -0.3253  3.3417  1.7076
16558SOL     OW60892   0.409   8.281   5.412  0.1379  0.0880  0.6478
16558SOL    HW160893   0.488   8.227   5.383 -0.3766  0.2890 -1.1768
16558SOL    HW260894   0.436   8.377   5.421  0.5972 -0.1602  2.0886
16559SOL     OW60895   7.561   2.349   6.249  0.0785 -0.0113  0.1074
16559SOL    HW160896   7.590   2.360   6.344  3.2420 -1.7792 -0.5747
16559SOL    HW260897   7.543   2.252   6.231 -1.6336  0.4555 -0.8365
16560SOL     OW60898   4.366   1.389   4.473  0.1901  0.4169 -0.1913
16560SOL    HW160899   4.344   1.484   4.495  1.3281  0.7440 -0.4286
16560SOL    HW260900   4.412   1.347   4.551 -2.2982 -0.6344  0.7673
16561SOL     OW60901   9.999   4.961   1.279 -0.0480 -0.7206  0.3700
16561SOL    HW160902   9.942   5.029   1.235 -0.0831 -0.9093  0.1251
16561SOL    HW260903   9.977   4.870   1.244  1.2497 -0.6592 -0.6233
16562SOL     OW60904   0.421   4.743   5.655  0.2844 -0.5857  0.3014
16562SOL    HW160905   0.452   4.830   5.616  1.9151 -1.3638 -0.2096
16562SOL    HW260906   0.342   4.709   5.604  1.8544 -1.1574 -1.8370
16563SOL     OW60907   8.176   9.049   3.016  0.1169  0.4940 -0.9788
16563SOL    HW160908   8.187   9.075   2.920 -0.0077  1.7912 -0.6499
16563SOL    HW260909   8.245   8.980   3.040  1.6830  1.8742 -1.3802
16564SOL     OW60910   3.665   9.738   6.527 -0.0128 -0.1911  0.1804
16564SOL    HW160911   3.657   9.740   6.627  0.1931  0.4829  0.1868
16564SOL    HW260912   3.728   9.666   6.499  2.4267  1.6571  0.7117
16565SOL     OW60913   7.644   1.975   5.092  0.1956 -0.4068 -0.2751
16565SOL    HW160914   7.721   1.920   5.126  1.2625  1.1151 -0.2173
16565SOL    HW260915   7.565   1.915   5.077  1.0990 -1.8326  0.5512
16566SOL     OW60916   5.369   9.919   3.262 -0.1546  0.5762 -0.4750
16566SOL    HW160917   5.332   9.831   3.233 -2.4461  1.2618  0.2542
16566SOL    HW260918   5.441   9.904   3.329 -1.0808 -0.7440  0.2587
16567SOL     OW60919   8.288   4.763   2.894  0.3391  0.4828 -0.3369
16567SOL    HW160920   8.212   4.776   2.831 -1.0653  1.5730  1.5292
16567SOL    HW260921   8.368   4.731   2.843 -1.2332 -0.3179 -2.3944
16568SOL     OW60922   2.453   1.440   0.635  0.1262 -0.5058  0.2910
16568SOL    HW160923   2.404   1.400   0.558  0.3186  0.5398 -0.3774
16568SOL    HW260924   2.392   1.444   0.714 -0.7524  0.4230 -0.4257
16569SOL     OW60925   2.196   7.698   3.285 -1.0198 -0.4353  0.2885
16569SOL    HW160926   2.277   7.745   3.249 -0.2887 -1.9193 -0.0589
16569SOL    HW260927   2.114   7.748   3.258 -0.3061  0.2204 -0.7234
16570SOL     OW60928   5.436   5.133   0.495 -0.1311 -0.0782  0.2604
16570SOL    HW160929   5.452   5.202   0.424  0.3538 -2.0213 -1.5801
16570SOL    HW260930   5.489   5.051   0.474 -1.5868 -1.4479  1.7805
16571SOL     OW60931   0.331   0.383   4.891  0.2448  0.1459 -0.1793
16571SOL    HW160932   0.277   0.355   4.970 -1.1492 -0.4667 -1.3332
16571SOL    HW260933   0.422   0.342   4.897  0.1322  0.0426  1.0536
16572SOL     OW60934   5.427   6.579   2.314 -0.0516  1.2398  0.2801
16572SOL    HW160935   5.412   6.640   2.236  1.2871  0.9597 -0.2096
16572SOL    HW260936   5.348   6.518   2.324  0.0500  0.8314 -1.2752
16573SOL     OW60937   8.736   8.808   3.107 -0.3441 -0.3800  0.7068
16573SOL    HW160938   8.766   8.901   3.130 -0.7268 -0.0272 -0.1771
16573SOL    HW260939   8.747   8.793   3.009 -0.6516 -1.1331  0.7849
16574SOL     OW60940   0.930   8.295   0.266  0.1049  0.2434  0.2926
16574SOL    HW160941   0.959   8.276   0.172 -2.1284  1.4768 -0.6710
16574SOL    HW260942   0.903   8.209   0.310  0.7574 -0.2851 -0.3203
16575SOL     OW60943   9.509   0.294   1.310 -0.2246  0.0200 -0.0680
16575SOL    HW160944   9.443   0.224   1.286 -0.4023  0.1850 -0.0580
16575SOL    HW260945   9.566   0.315   1.231  0.9316 -1.3388  0.3829
16576SOL     OW60946   0.254   4.692   2.104 -0.2620 -0.1474 -0.1044
16576SOL    HW160947   0.175   4.693   2.165  0.3897  1.8372  0.7163
16576SOL    HW260948   0.222   4.681   2.009 -1.3486 -1.7194  0.4181
16577SOL     OW60949   1.984   7.858   3.237 -0.5147 -0.0022 -0.5259
16577SOL    HW160950   1.931   7.815   3.309 -0.2966 -0.6487 -0.7459
16577SOL    HW260951   1.923   7.913   3.180 -0.9454 -0.6725 -0.7300
16578SOL     OW60952   3.999   3.935   3.633 -0.9198 -0.4654 -0.6141
16578SOL    HW160953   4.007   4.028   3.669  0.1615 -1.0740  0.7631
16578SOL    HW260954   3.938   3.935   3.554 -0.1612  1.5692 -1.2220
16579SOL     OW60955   7.401   8.361   1.627  0.4417  0.2793 -0.1077
16579SOL    HW160956   7.425   8.309   1.545  0.9329 -0.4565  0.5022
16579SOL    HW260957   7.420   8.306   1.708 -0.3163  0.8961  0.4905
16580SOL     OW60958   1.105   2.603   4.867  0.2767 -0.1640 -0.2622
16580SOL    HW160959   1.130   2.649   4.952  0.3863 -1.1110  0.2245
16580SOL    HW260960   1.186   2.594   4.809  1.0884 -3.0569  1.2313
16581SOL     OW60961   3.780   1.080   0.602 -0.3773 -0.4407 -0.1317
16581SOL    HW160962   3.762   0.988   0.566 -0.7913 -0.3340 -0.1971
16581SOL    HW260963   3.746   1.086   0.696  2.1659 -1.2346  0.8801
16582SOL     OW60964   2.758   1.491   0.872 -0.5886  0.4594  0.1770
16582SOL    HW160965   2.741   1.432   0.793  0.4742  1.5534 -0.8961
16582SOL    HW260966   2.751   1.437   0.956  0.1899 -1.1603 -0.7675
16583SOL     OW60967   3.909   9.950   6.530  0.4288 -0.0096 -0.2320
16583SOL    HW160968   3.836   9.984   6.589  1.9986 -1.1465  2.4764
16583SOL    HW260969   3.876   9.943   6.436 -2.1364  1.8796  0.4753
16584SOL     OW60970   0.054   0.567   4.174  0.3270 -0.1975 -0.5913
16584SOL    HW160971   0.119   0.524   4.237  0.7169 -0.7814 -1.3950
16584SOL    HW260972  -0.031   0.515   4.174  0.6899 -0.7805 -1.3302
16585SOL     OW60973   6.628   4.381   0.558  0.3348  0.0392 -0.1659
16585SOL    HW160974   6.654   4.381   0.655  0.4672  0.5530 -0.2005
16585SOL    HW260975   6.687   4.318   0.508  0.4192 -0.0506  0.0438
16586SOL     OW60976   6.808   7.046   4.917 -0.0694 -0.2235 -0.4080
16586SOL    HW160977   6.767   6.969   4.867 -1.0967 -0.6545  1.0382
16586SOL    HW260978   6.897   7.067   4.878  0.2924 -2.2486 -0.7647
16587SOL     OW60979   9.311   9.952   3.156  0.2737  0.5604  0.2677
16587SOL    HW160980   9.213   9.946   3.139  0.6143 -1.4481 -1.1424
16587SOL    HW260981   9.332   9.920   3.248 -0.2873  0.0839  0.2265
16588SOL     OW60982   9.537   4.685   1.736  0.0036 -0.1635 -0.1723
16588SOL    HW160983   9.542   4.588   1.761 -1.9082 -0.2122  0.1143
16588SOL    HW260984   9.612   4.707   1.674  0.4596 -1.8305 -0.2536
16589SOL     OW60985   2.536   9.365   2.074  0.4667 -0.3247  0.3751
16589SOL    HW160986   2.612   9.334   2.130 -0.2541 -1.3892  0.7804
16589SOL    HW260987   2.474   9.289   2.055 -0.1578  0.3789 -0.4974
16590SOL     OW60988   9.602   0.089   4.008 -0.3584  0.2781  0.3422
16590SOL    HW160989   9.542   0.083   4.088  0.2972 -0.1393  0.8098
16590SOL    HW260990   9.598   0.003   3.956 -0.8107  0.5621 -0.0903
16591SOL     OW60991   8.616   1.971   6.167  0.1791  0.0998  0.9172
16591SOL    HW160992   8.627   2.041   6.237 -1.4101  1.4634 -0.1491
16591SOL    HW260993   8.521   1.941   6.165  0.2018  0.1015 -0.6575
16592SOL     OW60994   4.144   7.038   0.967 -0.0886 -0.0392  0.1576
16592SOL    HW160995   4.202   6.959   0.946  0.1920  0.1949  0.0472
16592SOL    HW260996   4.200   7.111   1.006 -0.2141  0.4091 -0.5010
16593SOL     OW60997   4.466   9.822   5.015 -0.4165  0.2901  0.6214
16593SOL    HW160998   4.383   9.768   5.032  0.6345 -1.8379 -0.7278
16593SOL    HW260999   4.481   9.830   4.916  1.5362 -0.2433  0.8458
16594SOL     OW61000   6.290   0.340   4.567 -0.7422 -0.4945  0.2216
16594SOL    HW161001   6.335   0.251   4.575 -0.8771 -0.6237 -0.3836
16594SOL    HW261002   6.329   0.403   4.634  1.2076 -0.2646 -1.0798
16595SOL     OW61003   2.781   3.655   4.151  0.2946  0.4111  0.2691
16595SOL    HW161004   2.845   3.729   4.133 -0.4676  0.6722 -1.4558
16595SOL    HW261005   2.754   3.657   4.247  2.8069  0.3220  1.0017
16596SOL     OW61006   3.875   3.168   3.562  0.1773  0.7429 -0.6535
16596SOL    HW161007   3.921   3.173   3.473  0.2089  0.6930 -0.6399
16596SOL    HW261008   3.852   3.073   3.583  1.3247  0.5920 -0.0282
16597SOL     OW61009   2.123   5.575   1.270  0.9713  0.3689  0.1206
16597SOL    HW161010   2.025   5.583   1.286  0.9806  0.1255  0.3109
16597SOL    HW261011   2.171   5.646   1.321  0.8918  0.5024  0.0088
16598SOL     OW61012   2.616   8.966   6.423 -0.1534  0.6819  0.1527
16598SOL    HW161013   2.635   9.030   6.496  2.1826  1.1725 -0.8496
16598SOL    HW261014   2.528   8.989   6.380 -0.4466  1.7528  1.3064
16599SOL     OW61015   2.143   5.272   2.320 -0.3102  0.0639  0.0367
16599SOL    HW161016   2.075   5.209   2.283  1.2889 -1.3785 -0.5103
16599SOL    HW261017   2.162   5.247   2.415  1.0717 -0.9471 -0.4916
16600SOL     OW61018   7.852   5.901   1.364  0.0744  0.0993  0.1173
16600SOL    HW161019   7.804   5.976   1.410  0.0937  0.4724 -0.4641
16600SOL    HW261020   7.928   5.870   1.421  1.0918  1.6387 -0.3860
16601SOL     OW61021   8.794   0.375   4.520 -0.1864 -0.0558 -0.5134
16601SOL    HW161022   8.824   0.287   4.555  0.6612  1.3852  2.5837
16601SOL    HW261023   8.846   0.448   4.565 -3.9257  2.2192  0.3608
16602SOL     OW61024   3.370   0.866   5.212  0.6246 -0.4459  0.3379
16602SOL    HW161025   3.396   0.955   5.250 -0.4034  0.2974 -0.6622
16602SOL    HW261026   3.409   0.793   5.268  0.1391  0.6267  2.0974
16603SOL     OW61027   9.911   6.512   3.334  0.2710  0.8111  0.1523
16603SOL    HW161028   9.898   6.489   3.237 -3.0701 -1.5783  1.0707
16603SOL    HW261029   9.837   6.572   3.364  0.0496 -0.2421  1.7588
16604SOL     OW61030   2.808   7.178   3.057  0.1816  0.5687  0.4610
16604SOL    HW161031   2.896   7.153   3.097  0.1035  0.0324  0.3080
16604SOL    HW261032   2.765   7.249   3.112 -0.7483 -1.4100  2.3688
16605SOL     OW61033   9.195   6.361   2.945  0.4273 -0.2520 -0.0231
16605SOL    HW161034   9.125   6.418   2.902  0.0101 -1.9405 -1.6356
16605SOL    HW261035   9.238   6.411   3.020  0.4948  2.4032 -1.7910
16606SOL     OW61036   9.724   6.568   4.268  0.3559 -0.4844 -0.4219
16606SOL    HW161037   9.818   6.534   4.262  0.6139 -0.2973  1.8676
16606SOL    HW261038   9.699   6.577   4.365 -1.8065  0.0621 -1.0157
16607SOL     OW61039   6.913   1.078   1.661 -0.2992  0.4603 -0.4872
16607SOL    HW161040   6.914   0.981   1.637  1.3567  0.5253 -0.7095
16607SOL    HW261041   6.861   1.090   1.746  0.0053 -0.7079 -0.1208
16608SOL     OW61042   0.948   1.692   5.599 -0.0568 -0.8073  0.2654
16608SOL    HW161043   0.984   1.599   5.589 -0.2901 -0.6897 -2.1809
16608SOL    HW261044   0.966   1.743   5.515 -1.3142  0.8770  0.9963
16609SOL     OW61045   1.478   7.540   4.466  0.1232 -0.5948 -0.1979
16609SOL    HW161046   1.520   7.510   4.380  0.6945  0.6062 -0.3540
16609SOL    HW261047   1.548   7.545   4.537 -0.3908 -1.8050  0.4083
16610SOL     OW61048   7.239   3.495   1.489  0.2474  0.0410  0.4194
16610SOL    HW161049   7.175   3.418   1.499  0.8872 -0.4622  0.6438
16610SOL    HW261050   7.191   3.580   1.511 -1.0681 -0.0468 -1.9260
16611SOL     OW61051   0.089   4.524   0.770  0.2602  0.2538 -0.1917
16611SOL    HW161052   0.084   4.464   0.850  0.6967 -0.8509 -0.9859
16611SOL    HW261053   0.123   4.614   0.798 -4.1328  1.4666  1.7484
16612SOL     OW61054   0.021   7.568   4.445 -0.9216 -1.0709 -0.1993
16612SOL    HW161055   0.106   7.527   4.476 -0.2542  1.0751  0.9219
16612SOL    HW261056   0.039   7.628   4.367 -1.2076  0.1456  0.6439
16613SOL     OW61057   3.523   4.204   1.247 -0.0822  0.1972 -0.0210
16613SOL    HW161058   3.586   4.274   1.280 -2.4861  2.2639  0.3056
16613SOL    HW261059   3.550   4.115   1.284  1.6179  1.3013  1.4734
16614SOL     OW61060   9.435   5.641   0.795  0.2361  0.0317  0.1441
16614SOL    HW161061   9.403   5.589   0.874 -1.3123  1.6459  0.5955
16614SOL    HW261062   9.361   5.649   0.728  0.0547  2.6863  0.6227
16615SOL     OW61063   6.637   0.041   0.975 -0.3703 -0.3751 -0.0149
16615SOL    HW161064   6.715  -0.011   0.940 -1.4140 -1.6394 -0.4412
16615SOL    HW261065   6.557   0.026   0.918 -0.5545  2.1561 -0.4999
16616SOL     OW61066   2.854   8.470   2.555  0.1856  0.2205  0.1341
16616SOL    HW161067   2.765   8.471   2.509 -0.0375  2.5898  0.5972
16616SOL    HW261068   2.911   8.545   2.520  2.1203 -1.4008 -0.3317
16617SOL     OW61069   9.158   9.466   0.918  0.0874  0.0518  0.5487
16617SOL    HW161070   9.202   9.554   0.899  1.1687 -0.7314 -0.6710
16617SOL    HW261071   9.062   9.481   0.943 -0.5276  1.4266 -2.4215
16618SOL     OW61072   3.230   8.217   2.255 -0.2906  0.7157 -0.0441
16618SOL    HW161073   3.192   8.152   2.190 -0.5404  1.2443 -0.4324
16618SOL    HW261074   3.264   8.168   2.336  0.2918  0.0246 -0.6978
16619SOL     OW61075   8.655   2.153   1.281 -0.3618  0.7277 -0.3237
16619SOL    HW161076   8.570   2.199   1.307 -1.2813 -0.3209 -1.4616
16619SOL    HW261077   8.690   2.192   1.196 -0.2636  0.4305 -0.4194
16620SOL     OW61078   8.300   2.620   1.331  0.0091  0.4748 -0.3839
16620SOL    HW161079   8.244   2.701   1.315  0.9613  1.4016  0.7855
16620SOL    HW261080   8.258   2.563   1.402  1.3917  2.0804  1.7916
16621SOL     OW61081   2.926   3.676   1.280  0.4175 -0.3925 -0.2040
16621SOL    HW161082   3.024   3.695   1.287  0.3675 -0.0592 -0.3678
16621SOL    HW261083   2.896   3.621   1.358  0.6483 -0.1154  0.0835
16622SOL     OW61084   9.647   6.063   1.116  0.3169  0.1659  0.1512
16622SOL    HW161085   9.685   6.104   1.033 -0.6411  2.2268  0.6913
16622SOL    HW261086   9.629   6.134   1.183  0.8037 -1.4529  2.0356
16623SOL     OW61087   1.483   7.109   5.303 -0.3184  0.3294  0.1708
16623SOL    HW161088   1.558   7.061   5.348  0.6633 -1.0770 -2.8345
16623SOL    HW261089   1.401   7.051   5.302 -0.3994  0.4404  0.2971
16624SOL     OW61090   2.039   0.470   6.187 -0.2002 -0.6913  0.2279
16624SOL    HW161091   2.039   0.441   6.092 -1.0386 -0.5076  0.1690
16624SOL    HW261092   2.132   0.462   6.225  0.4705  0.7819 -1.0615
16625SOL     OW61093   3.723   8.646   6.286 -0.5371  0.0129 -0.1221
16625SOL    HW161094   3.795   8.673   6.350  0.4802 -1.1338 -0.7489
16625SOL    HW261095   3.763   8.590   6.214 -2.0029 -0.2981 -0.7023
16626SOL     OW61096   0.878   7.788   2.720  0.3181 -0.0531  0.0578
16626SOL    HW161097   0.945   7.791   2.646 -0.1259 -0.3964 -0.3617
16626SOL    HW261098   0.871   7.879   2.762  4.2078 -0.9307  2.9723
16627SOL     OW61099   3.891   6.174   1.795 -0.2000 -0.1314  0.3315
16627SOL    HW161100   3.864   6.092   1.745  1.0273 -0.4750  0.2119
16627SOL    HW261101   3.964   6.221   1.745 -1.7097  1.6929 -0.2129
16628SOL     OW61102   9.905   4.364   2.393  0.1540  0.1139 -0.2286
16628SOL    HW161103   9.953   4.432   2.337 -0.4435  0.9244  0.2472
16628SOL    HW261104   9.897   4.397   2.486 -0.7430 -0.3200 -0.1470
16629SOL     OW61105   7.750   5.450   5.785  0.2424  0.1646 -0.4131
16629SOL    HW161106   7.692   5.516   5.833  0.1139  0.2223 -0.6442
16629SOL    HW261107   7.763   5.480   5.690 -2.5012 -1.7858 -1.4728
16630SOL     OW61108   9.776   4.533   5.237 -0.2756 -0.2208  0.2076
16630SOL    HW161109   9.691   4.525   5.290 -1.6327 -0.1169 -1.9092
16630SOL    HW261110   9.827   4.448   5.245 -0.8348 -0.4934  1.0439
16631SOL     OW61111   9.703   6.651   2.395  0.6771 -0.8335  0.0330
16631SOL    HW161112   9.720   6.637   2.297 -0.2239  0.9316 -0.3823
16631SOL    HW261113   9.621   6.600   2.422  2.4383 -3.5541  0.5002
16632SOL     OW61114   8.393   6.002   0.414  0.0298 -0.2542 -0.9588
16632SOL    HW161115   8.391   6.022   0.511  1.3993  3.3115 -1.6170
16632SOL    HW261116   8.450   5.921   0.397 -0.3931 -1.0142  1.1819
16633SOL     OW61117   0.264   9.768   4.878 -0.2151 -0.5072  0.6374
16633SOL    HW161118   0.267   9.794   4.781 -0.8921  0.4190  0.8492
16633SOL    HW261119   0.353   9.786   4.920 -0.6859  1.5932  0.7861
16634SOL     OW61120   7.375   2.844   1.118  0.7121 -0.2676 -0.3710
16634SOL    HW161121   7.449   2.778   1.130  1.3330  0.2599 -1.1768
16634SOL    HW261122   7.411   2.925   1.071 -0.3696  0.0162 -0.7199
16635SOL     OW61123   4.113   2.557   2.460 -0.4037  0.4577  0.4523
16635SOL    HW161124   4.197   2.534   2.411 -0.5205  1.7993 -0.4129
16635SOL    HW261125   4.131   2.630   2.526 -0.9907  1.0933 -0.0850
16636SOL     OW61126   4.327   0.672   1.529  0.4764  0.5943 -0.1982
16636SOL    HW161127   4.387   0.687   1.608  0.0632  1.9956 -0.1369
16636SOL    HW261128   4.234   0.699   1.553 -0.2694 -1.7680 -0.2213
16637SOL     OW61129   8.844   4.394   2.962  0.6302 -0.1963  0.0778
16637SOL    HW161130   8.794   4.449   3.029  2.0580  0.4521  0.6436
16637SOL    HW261131   8.931   4.366   3.002  0.2331 -2.2565 -0.4827
16638SOL     OW61132   4.289   2.547   4.134 -0.3463  0.0538  0.3764
16638SOL    HW161133   4.386   2.525   4.124 -0.0901  1.6479 -0.8100
16638SOL    HW261134   4.277   2.607   4.213 -0.3533 -0.1166  0.5033
16639SOL     OW61135   2.630   9.071   5.935  0.5240  0.7163 -0.1815
16639SOL    HW161136   2.611   8.989   5.881 -1.8300  0.4048  1.0411
16639SOL    HW261137   2.618   9.152   5.877  1.1338  0.2687 -0.9438
16640SOL     OW61138   4.346   9.819   1.935 -0.2069  0.2131 -0.3424
16640SOL    HW161139   4.279   9.755   1.974 -0.6274  0.9074  0.0929
16640SOL    HW261140   4.422   9.768   1.894 -0.6968 -0.5671 -0.2823
16641SOL     OW61141   0.821   9.252   1.243  0.0237 -0.0106 -0.4720
16641SOL    HW161142   0.808   9.160   1.207  0.5401 -0.4533  0.4727
16641SOL    HW261143   0.858   9.248   1.336 -0.6689  1.1337 -0.1193
16642SOL     OW61144   2.692   2.547   3.269  0.1239 -0.1761 -0.1721
16642SOL    HW161145   2.671   2.517   3.176 -0.6962  0.8135 -0.3162
16642SOL    HW261146   2.650   2.483   3.334 -1.5416  0.5554 -0.4815
16643SOL     OW61147   7.999   4.053   0.698  0.2310 -0.4443 -0.3978
16643SOL    HW161148   7.901   4.056   0.677  0.1380  1.8052  0.2662
16643SOL    HW261149   8.017   3.976   0.760 -1.4178  0.1906  0.9060
16644SOL     OW61150   7.334   2.307   5.670 -0.0302  0.4275 -0.2079
16644SOL    HW161151   7.257   2.370   5.678  1.1735  2.0975 -1.3776
16644SOL    HW261152   7.394   2.318   5.750 -0.9250 -0.7895  0.6456
16645SOL     OW61153   9.138   1.755   0.520 -0.0430 -0.4323 -0.1922
16645SOL    HW161154   9.112   1.675   0.465  1.6859 -1.1376  0.0105
16645SOL    HW261155   9.108   1.838   0.472 -2.2425 -1.1803 -0.2019
16646SOL     OW61156   9.930   0.089   3.813  0.0281  0.3354  0.2891
16646SOL    HW161157   9.841   0.135   3.816  0.7641  1.8413 -0.4481
16646SOL    HW261158   9.977   0.100   3.901  0.1085  0.8117  0.1885
16647SOL     OW61159   5.630   1.851   4.466  0.0296  0.2221 -0.4921
16647SOL    HW161160   5.671   1.920   4.525 -0.3844  1.1025 -1.2260
16647SOL    HW261161   5.609   1.769   4.520 -0.9041  1.2280  0.7118
16648SOL     OW61162   3.331   0.250   3.406 -0.6383  0.2897 -0.7033
16648SOL    HW161163   3.315   0.205   3.494  3.5781 -0.2943 -0.1068
16648SOL    HW261164   3.342   0.348   3.421  0.2733  0.1654 -0.5258
16649SOL     OW61165   7.671   7.399   2.264  0.0059  0.3854 -0.0263
16649SOL    HW161166   7.671   7.460   2.184  1.1798  0.5211  0.0640
16649SOL    HW261167   7.704   7.449   2.344 -0.2158 -0.0285  0.3257
16650SOL     OW61168   2.092   7.811   1.504  0.9848  0.4633 -0.3683
16650SOL    HW161169   2.046   7.877   1.444 -1.7963 -1.1875 -0.1090
16650SOL    HW261170   2.076   7.836   1.600 -0.1657 -0.6372 -0.2679
16651SOL     OW61171   9.039   1.723   3.103  0.1892 -0.4026 -0.2468
16651SOL    HW161172   8.999   1.676   3.181 -1.1759  1.0746 -0.0344
16651SOL    HW261173   9.104   1.662   3.057  0.3485 -1.5871  1.5011
16652SOL     OW61174   8.612   2.047   1.835 -0.1078  1.0585  0.7980
16652SOL    HW161175   8.618   2.053   1.935  1.7445  0.6696  0.7208
16652SOL    HW261176   8.695   2.086   1.795 -0.1816 -0.1668 -0.5482
16653SOL     OW61177   5.599   1.206   5.487  0.6156 -0.5634  0.4706
16653SOL    HW161178   5.525   1.139   5.478  0.2744 -0.2251  0.7599
16653SOL    HW261179   5.573   1.291   5.442  1.3854 -0.8962 -0.6102
16654SOL     OW61180   0.262   1.811   3.633  0.1097 -0.7710  0.2300
16654SOL    HW161181   0.245   1.855   3.545 -1.0330 -1.3445  0.1604
16654SOL    HW261182   0.253   1.712   3.623  1.5000 -0.9505  0.6517
16655SOL     OW61183   0.974   5.822   1.829  0.7060  0.1305  0.2606
16655SOL    HW161184   1.036   5.753   1.866 -0.4048 -0.7039  0.6175
16655SOL    HW261185   0.887   5.779   1.805  0.8785  0.9414 -1.9436
16656SOL     OW61186   4.575   1.679   2.943 -0.3845 -0.8403 -0.0040
16656SOL    HW161187   4.571   1.758   3.004 -0.1664 -0.4918 -0.4454
16656SOL    HW261188   4.564   1.595   2.997  1.6162 -0.6280  0.7812
16657SOL     OW61189   7.504   6.706   4.148 -0.0165 -0.7200  0.4619
16657SOL    HW161190   7.557   6.639   4.096  1.4229 -0.7723  1.9838
16657SOL    HW261191   7.562   6.783   4.172 -1.3107  0.4515 -0.0819
16658SOL     OW61192   2.075   5.980   5.611  0.7407  0.0361 -0.3605
16658SOL    HW161193   2.039   5.890   5.585 -0.4673  0.6114 -0.7388
16658SOL    HW261194   2.004   6.049   5.598  2.3216  1.3901 -2.2081
16659SOL     OW61195   9.572   2.516   4.621  0.1783  0.2585  0.0090
16659SOL    HW161196   9.576   2.431   4.568 -0.4193  0.7738 -0.8783
16659SOL    HW261197   9.665   2.546   4.642  0.3995 -0.5213  0.1896
16660SOL     OW61198   1.185   4.329   2.726  0.1008  0.0506 -0.4478
16660SOL    HW161199   1.266   4.274   2.706  1.7150  1.9112  0.7471
16660SOL    HW261200   1.157   4.379   2.644  1.5824  1.1708 -0.2972
16661SOL     OW61201   8.878   7.034   1.615  0.2949  0.4071  0.3316
16661SOL    HW161202   8.791   7.059   1.657  1.3422  0.8413  2.3376
16661SOL    HW261203   8.890   6.935   1.621  0.7111  0.5231  1.6798
16662SOL     OW61204   4.618   3.868   3.038 -0.5456 -0.6693 -0.1015
16662SOL    HW161205   4.584   3.829   2.952 -2.8697 -1.7012  1.2576
16662SOL    HW261206   4.685   3.806   3.078 -2.0975 -1.9342  0.5921
16663SOL     OW61207   8.625   7.077   6.350  0.0246  0.2842  0.1792
16663SOL    HW161208   8.657   7.104   6.441  1.6495 -0.2644 -0.2298
16663SOL    HW261209   8.672   7.131   6.280  1.1328 -1.4984 -0.4895
16664SOL     OW61210   0.129   7.352   1.305  0.1559 -0.5198  0.0175
16664SOL    HW161211   0.083   7.437   1.281  0.2556  0.2557  2.4326
16664SOL    HW261212   0.228   7.364   1.294  0.1636 -0.3663  0.2567
16665SOL     OW61213   3.068   5.383   6.147  0.5262  0.0276 -0.4774
16665SOL    HW161214   3.139   5.352   6.211  0.4260  2.3344  0.8549
16665SOL    HW261215   3.090   5.476   6.116 -1.3320  0.3492 -0.9168
16666SOL     OW61216   5.490   1.870   1.101 -0.4827 -0.5854  0.2194
16666SOL    HW161217   5.580   1.827   1.103  0.1785  0.7901  0.5065
16666SOL    HW261218   5.471   1.912   1.190 -0.1882  1.5941 -0.7068
16667SOL     OW61219   0.766   2.455   5.922  0.3812  0.6095  0.3942
16667SOL    HW161220   0.772   2.495   5.830  1.8482  0.3374  0.3501
16667SOL    HW261221   0.750   2.357   5.915  1.6081  0.4030  0.3972
16668SOL     OW61222   8.453   4.425   3.869  0.2768  0.2131 -0.7700
16668SOL    HW161223   8.523   4.447   3.937 -0.4551 -0.9148  0.3710
16668SOL    HW261224   8.496   4.383   3.790  0.7827 -1.6127  0.4475
16669SOL     OW61225   6.831   9.370   4.448 -0.2987  0.2579  0.1751
16669SOL    HW161226   6.781   9.288   4.475 -1.4487  0.7715 -0.3374
16669SOL    HW261227   6.897   9.347   4.377 -0.1901 -0.3335  0.4645
16670SOL     OW61228   9.293   2.682   3.178 -0.5199 -0.4598 -0.1271
16670SOL    HW161229   9.380   2.675   3.128 -0.3051 -0.5971  0.2631
16670SOL    HW261230   9.269   2.779   3.188  0.3943 -0.3468  1.1298
16671SOL     OW61231   8.782   1.713   4.089  0.2673 -0.7961 -0.1478
16671SOL    HW161232   8.807   1.622   4.121  0.1413 -0.6626  0.3364
16671SOL    HW261233   8.731   1.706   4.003  1.1611 -1.1220 -0.6593
16672SOL     OW61234   4.757   8.944   6.532  0.8999  0.1047 -0.0108
16672SOL    HW161235   4.705   8.989   6.604  1.4287  2.8530 -1.2762
16672SOL    HW261236   4.812   8.870   6.571 -1.1052 -0.4616  1.8904
16673SOL     OW61237   1.125   7.316   5.625  0.0017  0.6808 -0.2128
16673SOL    HW161238   1.165   7.236   5.669 -1.3364 -0.1093 -0.4082
16673SOL    HW261239   1.161   7.325   5.533 -0.8897 -0.5337 -0.7005
16674SOL     OW61240   8.116   5.022   3.723  0.0388  0.7049 -0.1490
16674SOL    HW161241   8.166   4.969   3.791  1.5873  1.8596 -0.3492
16674SOL    HW261242   8.079   5.105   3.766 -0.7846  0.3956 -0.2484
16675SOL     OW61243   3.237   1.928   1.987  0.2716  0.1224 -0.2266
16675SOL    HW161244   3.173   1.909   1.912 -0.4709  0.5978  0.2736
16675SOL    HW261245   3.301   1.999   1.959 -0.2370  0.5622 -0.2929
16676SOL     OW61246   1.324   5.794   1.092  0.1024 -0.3062 -0.0653
16676SOL    HW161247   1.400   5.734   1.117 -0.2881 -1.0421 -0.6097
16676SOL    HW261248   1.237   5.750   1.117 -0.1134  1.2862  2.1861
16677SOL     OW61249   1.295   4.981   5.954 -0.5295 -0.2360  0.0500
16677SOL    HW161250   1.309   5.076   5.925  0.5286  0.2880  2.1604
16677SOL    HW261251   1.258   4.979   6.046  2.2763 -1.8671  1.2199
16678SOL     OW61252   4.815   1.439   2.973  0.4470 -0.0137 -0.0993
16678SOL    HW161253   4.755   1.438   2.894 -1.3743 -0.0780  1.2382
16678SOL    HW261254   4.807   1.352   3.022 -0.5674  1.0308  1.6641
16679SOL     OW61255   1.657   3.346   3.043  0.1152 -0.1001 -0.4344
16679SOL    HW161256   1.560   3.351   3.021  0.1080  0.6776 -0.2283
16679SOL    HW261257   1.679   3.254   3.075 -0.4144 -0.4758 -1.1390
16680SOL     OW61258   2.151   7.580   5.995 -0.5180 -0.9427  0.0660
16680SOL    HW161259   2.203   7.627   6.066 -0.3878 -0.9658 -0.0133
16680SOL    HW261260   2.079   7.640   5.960 -0.6011 -0.9416  0.2379
16681SOL     OW61261   3.848   7.385   4.084 -0.8712 -0.2351  0.2929
16681SOL    HW161262   3.840   7.286   4.071 -1.9644 -0.0838 -0.2587
16681SOL    HW261263   3.782   7.415   4.153 -0.7118  0.1514  0.2799
16682SOL     OW61264   8.586   1.509   4.927 -0.2852 -0.1099 -0.2129
16682SOL    HW161265   8.682   1.517   4.901 -0.5984  1.3856 -1.0185
16682SOL    HW261266   8.538   1.593   4.900 -1.8653 -0.9500 -0.0473
16683SOL     OW61267   2.280   9.295   1.346  0.2464  0.4670 -0.2008
16683SOL    HW161268   2.346   9.278   1.418 -1.9497 -1.9149  1.3698
16683SOL    HW261269   2.277   9.216   1.284 -1.0382  0.5499 -0.2733
16684SOL     OW61270   8.680   2.328   1.954 -0.2028 -0.0770 -0.4178
16684SOL    HW161271   8.653   2.407   2.010 -1.3616  0.3204 -1.4979
16684SOL    HW261272   8.648   2.342   1.860  1.0406 -1.0848 -1.0016
16685SOL     OW61273   6.470   9.898   2.960  0.5773  0.2012  0.2715
16685SOL    HW161274   6.477   9.839   2.880  1.7116  1.3192 -0.4752
16685SOL    HW261275   6.556   9.948   2.973 -0.7750  2.6998  0.0569
16686SOL     OW61276   9.807   0.736   2.464 -0.2151 -0.0304  0.3848
16686SOL    HW161277   9.867   0.782   2.399 -1.4833  0.8359 -0.2060
16686SOL    HW261278   9.835   0.641   2.475  0.5432  0.0591 -0.7616
16687SOL     OW61279   7.236   0.906   3.748  0.4998 -0.3665 -0.4920
16687SOL    HW161280   7.285   0.950   3.823  0.9350  0.1039 -1.0394
16687SOL    HW261281   7.218   0.973   3.676  0.9247 -1.0163 -1.2142
16688SOL     OW61282   2.013   6.964   3.806 -0.0082 -0.0819 -0.3274
16688SOL    HW161283   1.988   6.868   3.799 -1.7088  0.3265 -0.0839
16688SOL    HW261284   1.936   7.016   3.842  0.6216  1.4992 -1.2051
16689SOL     OW61285   6.696   1.930   3.529  0.4080  0.2996  0.1581
16689SOL    HW161286   6.761   1.888   3.592  0.4326  1.4540  0.9061
16689SOL    HW261287   6.630   1.861   3.499  1.5387 -0.7038 -0.0533
16690SOL     OW61288   2.805   5.444   2.858  0.1823  0.0769 -0.0729
16690SOL    HW161289   2.731   5.383   2.887 -0.5473  0.7859 -0.4105
16690SOL    HW261290   2.851   5.405   2.779 -1.5041  0.8468 -1.4579
16691SOL     OW61291   8.005   9.711   2.501  0.3048  0.2622  0.2668
16691SOL    HW161292   7.923   9.716   2.444  2.0647 -1.4334 -2.5664
16691SOL    HW261293   8.040   9.617   2.501  1.1902  0.5313  3.0198
16692SOL     OW61294   2.687   7.870   1.424 -0.2361 -0.2270  0.2637
16692SOL    HW161295   2.678   7.891   1.327  0.8761  1.8759  0.5686
16692SOL    HW261296   2.780   7.891   1.454 -1.0883  1.0079  2.1711
16693SOL     OW61297   8.709   3.214   2.373 -0.1004 -0.3071  0.0926
16693SOL    HW161298   8.616   3.228   2.338 -0.6421  0.0744  1.6030
16693SOL    HW261299   8.747   3.301   2.404  0.0655 -0.7254  1.1033
16694SOL     OW61300   9.024   8.722   0.491 -0.3327 -0.7169  0.8302
16694SOL    HW161301   9.068   8.673   0.567 -0.4492 -1.9407  0.1225
16694SOL    HW261302   9.084   8.795   0.460 -1.6338  1.9409  4.2155
16695SOL     OW61303   1.360   2.871   5.908 -0.1186  0.6738 -0.3543
16695SOL    HW161304   1.310   2.949   5.943  0.1150  0.5545  0.2479
16695SOL    HW261305   1.310   2.831   5.831  0.5576  2.3783 -1.7038
16696SOL     OW61306   8.519   9.173   4.017  0.9940 -0.6245  0.1974
16696SOL    HW161307   8.520   9.229   4.100 -0.9726  0.3983 -0.4314
16696SOL    HW261308   8.428   9.134   4.004  1.7475 -2.1749 -0.5735
16697SOL     OW61309   9.046   8.700   4.875  0.2798 -0.5254  0.0595
16697SOL    HW161310   8.968   8.704   4.811  0.6227 -1.0713 -0.4004
16697SOL    HW261311   9.126   8.742   4.832  0.7416 -1.6697 -0.2100
16698SOL     OW61312   6.341   1.316   3.913 -0.3100  0.0528  0.3657
16698SOL    HW161313   6.263   1.378   3.902 -0.5722 -0.1299  1.1516
16698SOL    HW261314   6.307   1.222   3.922  0.0420 -0.1125 -0.0218
16699SOL     OW61315   1.486   0.087   1.714 -0.2675 -0.2303 -0.1088
16699SOL    HW161316   1.530   0.100   1.626 -2.4755 -0.5457 -1.2997
16699SOL    HW261317   1.398   0.041   1.701 -0.3448 -0.8605  2.3253
16700SOL     OW61318   9.019   7.722   1.904  0.4277  0.0748 -0.2048
16700SOL    HW161319   9.100   7.690   1.855  0.8406 -0.2708  0.7075
16700SOL    HW261320   8.944   7.657   1.891  1.0094 -0.8405  0.9361
16701SOL     OW61321   8.906   8.273   5.480 -0.2251 -0.4423  0.4398
16701SOL    HW161322   8.904   8.299   5.383  0.2081 -0.0748  0.5295
16701SOL    HW261323   8.962   8.191   5.491 -1.3921 -1.2900  0.1925
16702SOL     OW61324   7.535   9.846   0.433  0.0326 -0.6557  0.8285
16702SOL    HW161325   7.624   9.818   0.470  0.4690 -1.0494 -0.4885
16702SOL    HW261326   7.548   9.888   0.343 -1.3614 -3.0361 -0.5090
16703SOL     OW61327   0.582   5.721   0.651 -0.1675  0.0053  0.2555
16703SOL    HW161328   0.488   5.691   0.640 -0.2415  0.1586  0.4601
16703SOL    HW261329   0.630   5.714   0.564 -0.2889 -0.3389  0.2173
16704SOL     OW61330   2.255   2.258   0.815  0.0161  0.8762 -0.2408
16704SOL    HW161331   2.355   2.263   0.812  0.1788  0.2117  2.6031
16704SOL    HW261332   2.227   2.162   0.804 -0.0535  0.4549  3.2815
16705SOL     OW61333   3.873   2.229   2.991  0.1534 -0.2486  0.5626
16705SOL    HW161334   3.795   2.279   3.029  1.0671  1.9875 -0.4046
16705SOL    HW261335   3.880   2.140   3.035 -2.7357 -0.3452  0.9029
16706SOL     OW61336   5.667   8.003   4.106 -0.1843 -0.4680 -0.3068
16706SOL    HW161337   5.722   7.951   4.040  1.3223  1.2809 -0.4438
16706SOL    HW261338   5.639   8.090   4.066  0.3606  0.4209  1.1915
16707SOL     OW61339   1.686   9.402   5.442  0.0551 -0.8527 -0.4800
16707SOL    HW161340   1.617   9.471   5.463 -1.6513 -2.4356 -0.8100
16707SOL    HW261341   1.768   9.419   5.497 -1.2267 -0.0049  1.2007
16708SOL     OW61342   3.200   5.202   5.432  0.4551  0.2829  0.1870
16708SOL    HW161343   3.270   5.136   5.459  0.1806  0.4454  1.2870
16708SOL    HW261344   3.230   5.250   5.350  0.2207 -1.9300 -1.2551
16709SOL     OW61345   0.020   2.965   2.813  0.0588 -0.0236 -0.1939
16709SOL    HW161346   0.098   3.019   2.846  0.4136 -0.4243 -0.3667
16709SOL    HW261347   0.024   2.873   2.853 -1.6033  0.6423  1.6224
16710SOL     OW61348   6.584   1.019   0.645 -0.2884 -0.1206 -0.7548
16710SOL    HW161349   6.663   0.961   0.664  0.0606  0.5505 -0.1030
16710SOL    HW261350   6.613   1.097   0.590 -0.7610 -0.5652 -1.6499
16711SOL     OW61351   6.760   7.188   3.996  0.2283  0.7641 -0.7014
16711SOL    HW161352   6.790   7.169   4.089 -0.0943  2.7153 -0.1603
16711SOL    HW261353   6.784   7.112   3.936  0.2013 -0.6350  1.0218
16712SOL     OW61354   9.024   2.234   1.863  0.5393 -0.4221  0.1999
16712SOL    HW161355   9.107   2.263   1.816 -0.3568  0.8020 -0.6675
16712SOL    HW261356   8.962   2.190   1.798  0.5904 -1.5299  0.8850
16713SOL     OW61357   0.013   0.560   6.730  0.8103  0.3609  0.1908
16713SOL    HW161358  -0.057   0.492   6.709  0.6528  0.4904  0.2930
16713SOL    HW261359  -0.011   0.647   6.687  2.0062 -0.1612 -1.5742
16714SOL     OW61360   0.540   8.574   1.098 -0.0858 -0.1684 -0.0823
16714SOL    HW161361   0.447   8.571   1.060 -0.7144 -0.9915  1.4683
16714SOL    HW261362   0.534   8.571   1.198  1.7254 -2.4418 -0.0316
16715SOL     OW61363   9.637   3.410   2.063  0.1436 -0.1208  0.2248
16715SOL    HW161364   9.599   3.440   2.150  0.4393  0.2030  0.2435
16715SOL    HW261365   9.574   3.433   1.989  0.6224  1.0651  0.1772
16716SOL     OW61366   2.878   1.393   5.732 -0.0772 -0.0310  0.0166
16716SOL    HW161367   2.926   1.315   5.692  2.5469 -0.3688  3.5027
16716SOL    HW261368   2.898   1.475   5.679  0.0628 -1.1100 -1.6296
16717SOL     OW61369   3.585   2.829   2.400  0.1057  0.3929 -0.3107
16717SOL    HW161370   3.677   2.829   2.360  0.2280 -1.3764 -0.0726
16717SOL    HW261371   3.523   2.776   2.343 -0.6152  1.0246 -0.1222
16718SOL     OW61372   3.608   7.633   2.285  0.4505 -0.5324  0.6798
16718SOL    HW161373   3.635   7.608   2.192 -0.8568 -0.7851  0.3597
16718SOL    HW261374   3.684   7.615   2.347  1.3420 -0.3529 -0.3314
16719SOL     OW61375   3.004   5.866   0.025  0.1782 -0.1518  0.5151
16719SOL    HW161376   3.022   5.801  -0.049  1.0438 -1.1908  1.6253
16719SOL    HW261377   3.044   5.955   0.001  1.8517 -0.9075  0.4231
16720SOL     OW61378   6.967   3.741   0.684  0.0268  0.0619 -0.5574
16720SOL    HW161379   6.906   3.816   0.659 -0.3206 -0.1839 -0.4386
16720SOL    HW261380   7.051   3.747   0.629 -0.0905  0.4120 -0.6989
16721SOL     OW61381   9.565   9.572   2.937 -0.4250  0.0504  0.5138
16721SOL    HW161382   9.548   9.668   2.916 -0.4624 -0.1536 -0.4351
16721SOL    HW261383   9.643   9.565   2.999 -0.5150  0.6969  0.7081
16722SOL     OW61384   2.219   8.500   6.042  0.3540 -0.1270  0.0787
16722SOL    HW161385   2.178   8.476   5.954  1.3395  3.0251 -1.3039
16722SOL    HW261386   2.318   8.489   6.037  0.5451  1.4579  0.3242
16723SOL     OW61387   8.185   7.537   4.858 -0.4740  0.1803  0.3938
16723SOL    HW161388   8.121   7.606   4.891 -0.4851  0.2781  0.1630
16723SOL    HW261389   8.251   7.516   4.931 -0.9937 -0.1940  0.7649
16724SOL     OW61390   4.722   1.916   2.402 -0.1033 -0.0153  0.2699
16724SOL    HW161391   4.798   1.943   2.343  0.6349 -0.3503  1.0502
16724SOL    HW261392   4.708   1.987   2.472  0.2948 -0.5243  0.8721
16725SOL     OW61393   9.475   2.703   0.041 -0.1611  0.1170  0.4381
16725SOL    HW161394   9.532   2.675  -0.036 -0.2958 -0.5012  0.5573
16725SOL    HW261395   9.522   2.774   0.093 -0.5286  1.3060 -0.8223
16726SOL     OW61396   8.088   1.793   5.422 -0.1381 -0.5657  0.1880
16726SOL    HW161397   8.163   1.732   5.396  0.1860 -0.3204  0.5327
16726SOL    HW261398   8.107   1.885   5.387  0.3121 -0.2259  1.2731
16727SOL     OW61399   2.412   2.171   1.978 -0.0277  0.2591  0.0019
16727SOL    HW161400   2.425   2.077   1.945 -0.3717  0.1687  0.1264
16727SOL    HW261401   2.363   2.169   2.065 -0.8562  0.6054 -0.4508
16728SOL     OW61402   2.353   9.016   0.312 -0.4126 -0.1574  0.3703
16728SOL    HW161403   2.438   9.060   0.341  0.9280  0.3956 -4.0239
16728SOL    HW261404   2.360   8.917   0.326  1.0603 -0.1399 -0.2045
16729SOL     OW61405   9.117   3.879   4.519  0.9879 -0.2523 -0.4991
16729SOL    HW161406   9.073   3.800   4.476 -0.2331  0.7705 -1.1373
16729SOL    HW261407   9.215   3.877   4.499  1.1221 -2.0249  0.1430
16730SOL     OW61408   2.590   0.919   4.183  0.3659  0.5022  0.0067
16730SOL    HW161409   2.637   1.003   4.213  1.0625 -0.4305  1.6104
16730SOL    HW261410   2.647   0.840   4.202 -1.4289 -0.5807  1.0912
16731SOL     OW61411   7.993   7.580   2.823 -1.1187 -0.0489  0.6797
16731SOL    HW161412   7.968   7.656   2.764  0.2252  0.3810  0.6359
16731SOL    HW261413   8.032   7.615   2.908 -4.7969 -0.6230  2.7041
16732SOL     OW61414   7.937   9.017   3.177  0.5287 -0.1326 -0.0600
16732SOL    HW161415   8.007   9.067   3.124  1.1447  0.2849  1.1220
16732SOL    HW261416   7.885   9.082   3.233  0.4317 -0.6561  0.4640
16733SOL     OW61417   2.660   7.344   0.274  0.1104 -0.1083  0.4149
16733SOL    HW161418   2.645   7.428   0.326 -2.2323 -0.8383  0.9565
16733SOL    HW261419   2.673   7.367   0.177 -0.5773  0.8853  0.5434
16734SOL     OW61420   8.531   9.450   3.864  0.2164 -0.0856 -0.1535
16734SOL    HW161421   8.475   9.367   3.857  0.3583 -0.4305  2.2666
16734SOL    HW261422   8.625   9.425   3.887  0.5472  0.6950 -0.6438
16735SOL     OW61423   7.977   5.925   4.308  0.5676 -0.8438 -0.2379
16735SOL    HW161424   8.068   5.913   4.268  1.6623  0.1827  1.9071
16735SOL    HW261425   7.955   5.847   4.366 -0.0080 -1.1704 -0.8827
16736SOL     OW61426   3.797   9.735   1.419 -0.0644 -0.3949 -0.1553
16736SOL    HW161427   3.809   9.774   1.328 -1.4864 -1.0924 -0.6641
16736SOL    HW261428   3.755   9.644   1.410 -2.0904  0.3750  1.2784
16737SOL     OW61429   3.000   5.733   1.342 -0.2839  0.3216  0.1885
16737SOL    HW161430   3.099   5.719   1.336 -0.3957 -1.2655  1.6197
16737SOL    HW261431   2.965   5.757   1.251  1.2901 -0.0128 -0.5324
16738SOL     OW61432   9.229   7.741   6.704  0.2769  0.3889  0.2486
16738SOL    HW161433   9.159   7.811   6.694  0.3940  0.8117  2.1389
16738SOL    HW261434   9.192   7.652   6.677 -0.8682  0.6823  0.8363
16739SOL     OW61435   8.494   2.244   5.265 -0.0388 -0.3890  0.0498
16739SOL    HW161436   8.531   2.306   5.196 -1.3185 -0.9147 -1.1100
16739SOL    HW261437   8.568   2.216   5.327  1.1404 -0.0628 -1.1879
16740SOL     OW61438   0.218   4.647   5.195  0.0147 -0.1174  0.2614
16740SOL    HW161439   0.194   4.693   5.110  0.5611 -1.8828 -0.8751
16740SOL    HW261440   0.149   4.579   5.217 -1.1391  1.6170  2.2935
16741SOL     OW61441   4.656   2.450   3.553  0.0904 -0.0156  0.2409
16741SOL    HW161442   4.655   2.398   3.468  1.0073  0.0850  0.1558
16741SOL    HW261443   4.694   2.394   3.627  0.1705  0.2021  0.3684
16742SOL     OW61444   2.798   0.784   6.065 -0.1739  0.1004  0.2252
16742SOL    HW161445   2.723   0.722   6.042  0.3640 -0.3885 -0.2579
16742SOL    HW261446   2.762   0.871   6.096 -0.9685  0.5584 -1.8713
16743SOL     OW61447   2.410   8.020   5.161  0.2193  0.0450  0.0136
16743SOL    HW161448   2.347   7.942   5.156  1.4560 -1.1445  2.0462
16743SOL    HW261449   2.475   8.015   5.085 -1.1093  0.3783 -1.1631
16744SOL     OW61450   8.820   7.926   1.014  0.1474 -0.0506 -0.6579
16744SOL    HW161451   8.748   7.861   0.992 -0.4260  1.3018 -2.9518
16744SOL    HW261452   8.805   8.011   0.964  1.7712  1.2924  1.0403
16745SOL     OW61453   0.077   2.537   3.323 -0.2093  0.1354 -0.0534
16745SOL    HW161454   0.006   2.492   3.378  0.9504  0.5837  1.8292
16745SOL    HW261455   0.034   2.579   3.242 -1.7276 -1.7129 -0.2511
16746SOL     OW61456   2.462   0.885   0.885 -0.7769  0.2550 -0.5382
16746SOL    HW161457   2.539   0.877   0.822 -1.3401  1.0114 -1.3327
16746SOL    HW261458   2.487   0.947   0.960  1.0730 -3.1928  1.8184
16747SOL     OW61459   2.695   7.705   3.145 -0.6338 -0.2593  0.1374
16747SOL    HW161460   2.729   7.773   3.210 -1.1925  0.2412 -0.0891
16747SOL    HW261461   2.771   7.647   3.115  0.0082  0.7819 -0.2855
16748SOL     OW61462   0.647   5.983   0.337 -0.2060  0.0323  0.3245
16748SOL    HW161463   0.747   5.986   0.341 -0.1875 -0.9257  0.5786
16748SOL    HW261464   0.609   5.991   0.429 -0.3422 -0.3593  0.3031
16749SOL     OW61465   0.347   4.168   4.172  0.0278  0.5279 -0.1481
16749SOL    HW161466   0.266   4.125   4.211  0.5341 -0.1606  0.1533
16749SOL    HW261467   0.401   4.211   4.245  0.3843  0.2361 -0.2387
16750SOL     OW61468   8.068   1.511   3.447  0.0221  0.0684  0.3042
16750SOL    HW161469   8.093   1.601   3.411 -0.6719 -0.1338 -0.6853
16750SOL    HW261470   8.147   1.471   3.494  1.4437 -0.3255 -2.3353
16751SOL     OW61471   2.335   3.761   3.872  0.4439 -0.2105 -0.5039
16751SOL    HW161472   2.324   3.695   3.797 -0.4185 -0.0268 -0.5456
16751SOL    HW261473   2.273   3.838   3.857 -0.7147 -0.8154  1.0937
16752SOL     OW61474   8.228   6.194   5.923  0.6655  0.7722 -0.1777
16752SOL    HW161475   8.149   6.224   5.869 -0.8191 -3.6023 -0.6504
16752SOL    HW261476   8.301   6.165   5.862 -0.3312 -2.4420  0.0361
16753SOL     OW61477   8.538   1.205   4.466 -0.8962 -0.0782 -0.1418
16753SOL    HW161478   8.530   1.247   4.556  0.6805  1.8744 -0.8785
16753SOL    HW261479   8.579   1.114   4.475  0.5170  0.6621  0.9930
16754SOL     OW61480   7.759   6.718   2.197  0.3578 -0.3493 -0.0961
16754SOL    HW161481   7.858   6.728   2.201  0.4132 -0.8432 -0.1704
16754SOL    HW261482   7.735   6.621   2.207 -0.0422 -0.4099 -1.5481
16755SOL     OW61483   4.171   7.194   1.213 -0.1044 -0.3067 -0.8237
16755SOL    HW161484   4.197   7.266   1.149  0.5282 -1.3054 -1.7190
16755SOL    HW261485   4.111   7.231   1.284 -0.3083  0.9477 -1.6471
16756SOL     OW61486   8.109   9.274   6.351  0.2826 -0.5782  0.2983
16756SOL    HW161487   8.094   9.255   6.254  0.9240  2.0774 -0.3548
16756SOL    HW261488   8.134   9.189   6.398 -2.0395 -2.2951 -1.4392
16757SOL     OW61489   3.255   6.878   0.163 -0.4371 -0.4706 -0.6032
16757SOL    HW161490   3.349   6.880   0.196  0.2111  1.9710 -2.4021
16757SOL    HW261491   3.210   6.965   0.185 -2.0077 -1.2959 -0.4986
16758SOL     OW61492   3.790   2.839   2.220  0.6203 -0.1704 -0.2901
16758SOL    HW161493   3.879   2.880   2.240  0.4981  0.0328 -0.1569
16758SOL    HW261494   3.802   2.759   2.162  0.9767 -0.8116  0.6614
16759SOL     OW61495   1.355   3.130   3.971 -0.0751  0.1806  0.6123
16759SOL    HW161496   1.294   3.159   3.898  0.4715  0.7495  0.3794
16759SOL    HW261497   1.353   3.030   3.978 -2.9500  0.3177  2.2913
16760SOL     OW61498   9.222   2.217   2.973  0.0915  0.2062  0.4007
16760SOL    HW161499   9.132   2.189   3.007 -0.5793  2.3449  0.4559
16760SOL    HW261500   9.294   2.166   3.021 -0.9955  0.2625  2.1180
16761SOL     OW61501   2.013   0.315   0.301 -0.0409 -0.2333  0.3980
16761SOL    HW161502   1.915   0.324   0.320  0.1529 -0.1604  1.3462
16761SOL    HW261503   2.057   0.265   0.375  0.2857 -2.1046 -1.0178
16762SOL     OW61504   1.492   1.995   5.715  0.2942  0.1225  0.3316
16762SOL    HW161505   1.443   2.049   5.647  0.1375 -0.9850 -0.4437
16762SOL    HW261506   1.451   2.009   5.805 -1.4439 -0.8056 -0.3032
16763SOL     OW61507   9.739   5.363   0.531 -0.6856 -0.5003  0.2290
16763SOL    HW161508   9.708   5.408   0.614  1.0903  0.2033  0.5448
16763SOL    HW261509   9.679   5.286   0.510 -2.0082  0.2082  1.3340
16764SOL     OW61510   0.261   0.057   5.170 -0.3130  0.2414 -0.7779
16764SOL    HW161511   0.339   0.027   5.114  1.7283  1.3599  1.4186
16764SOL    HW261512   0.207  -0.023   5.197  0.0590 -0.5417 -2.2861
16765SOL     OW61513   9.097   4.224   1.224 -0.2026  0.6332 -0.2836
16765SOL    HW161514   9.051   4.141   1.254  0.2580  0.5201  0.1308
16765SOL    HW261515   9.063   4.302   1.277  1.1209  0.3255  1.0838
16766SOL     OW61516   0.549   6.595   2.352 -0.1094 -0.2900  0.2103
16766SOL    HW161517   0.564   6.657   2.429 -2.1764 -1.0814  1.2911
16766SOL    HW261518   0.630   6.539   2.338  0.0577 -0.5838  2.2386
16767SOL     OW61519   3.699   9.694   2.618 -0.3484  0.2335  0.5156
16767SOL    HW161520   3.796   9.671   2.609 -1.3694 -3.5344 -1.5456
16767SOL    HW261521   3.674   9.762   2.549  0.2530 -0.7904 -0.7207
16768SOL     OW61522   0.370   5.998   1.798  0.0833 -0.2243 -0.0952
16768SOL    HW161523   0.466   6.025   1.792  0.2015 -0.3056  1.2555
16768SOL    HW261524   0.312   6.075   1.770  0.5416 -0.2151 -1.0172
16769SOL     OW61525   6.848   1.829   0.566 -0.3281 -0.2597 -0.7603
16769SOL    HW161526   6.767   1.843   0.508 -0.5058 -0.2984 -0.5217
16769SOL    HW261527   6.883   1.736   0.551  0.2734  0.0937 -1.6121
16770SOL     OW61528   2.428   8.818   5.971  0.2680  0.4312  0.0099
16770SOL    HW161529   2.401   8.902   6.018 -0.7937  0.0546  0.1010
16770SOL    HW261530   2.374   8.807   5.888  1.5790  0.6780 -0.8884
16771SOL     OW61531   0.847   1.338   3.998  0.4115  0.1043  0.1810
16771SOL    HW161532   0.831   1.418   4.056 -0.1222 -0.5547  0.9598
16771SOL    HW261533   0.771   1.329   3.934  0.2260 -0.0465  0.4175
16772SOL     OW61534   8.625   4.463   1.023 -0.2017 -0.3220 -1.0706
16772SOL    HW161535   8.708   4.464   0.967 -0.0412  1.0833 -0.8238
16772SOL    HW261536   8.650   4.463   1.120 -0.4879 -2.1502 -0.9681
16773SOL     OW61537   2.863   5.542   4.752 -0.0657 -0.3811 -0.3518
16773SOL    HW161538   2.904   5.605   4.686 -1.2420 -0.5418 -1.2534
16773SOL    HW261539   2.934   5.486   4.794  0.5150 -1.6561 -2.9295
16774SOL     OW61540   8.429   8.144   4.518 -0.1915  0.4045 -0.6062
16774SOL    HW161541   8.426   8.051   4.483 -0.8792  0.0334  0.4434
16774SOL    HW261542   8.489   8.149   4.597  1.6650  1.3293 -2.0183
16775SOL     OW61543   4.649   7.628   3.627 -0.8019 -0.2584  0.0528
16775SOL    HW161544   4.572   7.683   3.592  0.6083  1.8188  0.0985
16775SOL    HW261545   4.636   7.611   3.724 -0.9461  0.5484  0.1767
16776SOL     OW61546   2.549   3.262   0.409  0.1557 -0.3337  0.1546
16776SOL    HW161547   2.641   3.266   0.371  0.6054 -0.1213  1.2507
16776SOL    HW261548   2.530   3.169   0.441 -0.7603 -0.8758 -1.8763
16777SOL     OW61549   6.976   9.387   2.505  0.4783  0.4513 -0.1148
16777SOL    HW161550   7.051   9.454   2.510 -0.0839  1.1129 -0.5293
16777SOL    HW261551   6.899   9.419   2.561 -0.3493  0.8650 -1.4834
16778SOL     OW61552   9.252   1.463   3.797 -0.6749 -0.1352  0.9937
16778SOL    HW161553   9.333   1.449   3.740 -1.3904 -0.2142  0.0026
16778SOL    HW261554   9.281   1.476   3.892  0.5160  0.0373  0.6173
16779SOL     OW61555   4.210   7.869   1.176  0.0462 -0.0237 -0.1316
16779SOL    HW161556   4.252   7.940   1.119  1.3683  0.5121  1.4973
16779SOL    HW261557   4.169   7.910   1.256 -0.4754 -0.9478  0.0782
16780SOL     OW61558   2.165   6.522   4.504  0.2450 -0.1982  0.5546
16780SOL    HW161559   2.235   6.592   4.519 -0.2823  0.2954  0.7382
16780SOL    HW261560   2.107   6.548   4.426  1.3208 -1.4492 -0.6883
16781SOL     OW61561   4.512   6.036   2.921 -0.3083 -0.2156  0.4418
16781SOL    HW161562   4.530   6.124   2.878 -1.9304 -0.2668 -0.3692
16781SOL    HW261563   4.421   6.036   2.963 -0.7332 -1.8315 -0.4270
16782SOL     OW61564   7.472   6.997   0.385 -0.5531  0.6560  0.2906
16782SOL    HW161565   7.459   7.050   0.469  1.2338 -0.6355  1.4154
16782SOL    HW261566   7.538   7.043   0.326  0.7010 -0.0819  1.0930
16783SOL     OW61567   2.705   9.052   0.096 -0.1670 -0.3948 -0.3805
16783SOL    HW161568   2.794   9.074   0.137 -0.5632  0.5671 -0.0171
16783SOL    HW261569   2.670   8.968   0.137  0.8846 -1.1586 -1.0204
16784SOL     OW61570   6.430   1.177   4.959 -0.6509 -0.1146  0.0984
16784SOL    HW161571   6.405   1.193   4.864  2.3071 -0.8659 -0.8379
16784SOL    HW261572   6.489   1.251   4.991 -0.2676 -0.7240  0.8286
16785SOL     OW61573   3.800   2.399   4.049  0.2732  0.5655  0.1307
16785SOL    HW161574   3.816   2.363   3.957  0.0501  1.7774 -0.3942
16785SOL    HW261575   3.762   2.327   4.107  1.2570 -0.4568 -0.4716
16786SOL     OW61576   0.661   0.314   3.016  0.3544 -0.1663  0.1686
16786SOL    HW161577   0.714   0.346   2.936 -0.1167  0.6211  0.1630
16786SOL    HW261578   0.718   0.254   3.071  0.9523 -0.0841 -0.3450
16787SOL     OW61579   8.435   0.147   4.099 -0.4014  0.0535  0.3713
16787SOL    HW161580   8.453   0.051   4.122 -1.9085 -0.7085 -1.5408
16787SOL    HW261581   8.468   0.167   4.007 -0.6819  1.2128  0.5094
16788SOL     OW61582   1.341   6.023   6.672  0.1116 -0.3305 -0.5741
16788SOL    HW161583   1.315   6.068   6.757 -0.3187  1.5429 -1.6733
16788SOL    HW261584   1.440   6.005   6.673  0.0884 -0.4167  0.3544
16789SOL     OW61585   1.627   7.166   4.177  0.3058  0.0529 -0.0021
16789SOL    HW161586   1.543   7.167   4.122  0.4406  0.0981 -0.2094
16789SOL    HW261587   1.620   7.095   4.246  0.6006 -0.7842 -0.8200
16790SOL     OW61588   9.784   3.434   0.734 -0.4930  0.5435  0.2327
16790SOL    HW161589   9.867   3.442   0.790 -0.7031  2.0895  0.3345
16790SOL    HW261590   9.786   3.503   0.662 -0.2388 -1.4049 -1.6867
16791SOL     OW61591   2.376   3.078   2.532 -0.0683 -0.4166  0.1148
16791SOL    HW161592   2.475   3.064   2.527 -0.0905 -0.7078  0.4044
16791SOL    HW261593   2.356   3.159   2.588  0.0238 -0.0478 -0.3899
16792SOL     OW61594   7.766   2.484   0.423  0.2128  0.4735  0.3028
16792SOL    HW161595   7.686   2.425   0.411  1.0457 -1.0286  1.8013
16792SOL    HW261596   7.837   2.455   0.360 -1.2888  3.4903 -2.8805
16793SOL     OW61597   1.828   1.180   3.739  0.4973 -0.2758 -0.0778
16793SOL    HW161598   1.757   1.148   3.676 -0.6847  0.1460  0.9960
16793SOL    HW261599   1.842   1.278   3.725  0.7187 -0.3204 -0.1584
16794SOL     OW61600   1.308   5.403   3.752 -0.8247 -0.2367  0.2461
16794SOL    HW161601   1.362   5.449   3.822 -1.0634 -1.9443  1.5827
16794SOL    HW261602   1.274   5.316   3.788 -1.3583 -0.9067 -1.8298
16795SOL     OW61603   4.266   1.475   5.270 -0.1426 -0.6334  0.1207
16795SOL    HW161604   4.205   1.545   5.305 -0.7129 -0.6501 -0.8342
16795SOL    HW261605   4.351   1.518   5.237  0.4341 -0.6264  1.5709
16796SOL     OW61606   4.076   9.722   3.037 -0.5122 -0.1936 -0.2171
16796SOL    HW161607   4.040   9.740   2.945 -2.1524 -1.7655  0.0644
16796SOL    HW261608   4.165   9.677   3.029 -0.3742  0.2059 -1.0372
16797SOL     OW61609   6.361   4.200   0.694  0.3691 -0.2506 -0.0833
16797SOL    HW161610   6.362   4.120   0.634  1.9292  0.4847 -1.0804
16797SOL    HW261611   6.355   4.283   0.639  1.5294  0.4209  0.7710
16798SOL     OW61612   5.789   4.271   0.712  0.1321 -0.0748  0.8851
16798SOL    HW161613   5.748   4.326   0.786 -0.2997  0.5895  0.1624
16798SOL    HW261614   5.885   4.296   0.702  0.0065  0.3561  0.7412
16799SOL     OW61615   3.796   1.847   0.728  0.7176  0.5587  0.0193
16799SOL    HW161616   3.836   1.764   0.766 -3.2559 -2.0471 -1.1495
16799SOL    HW261617   3.719   1.876   0.784 -0.2706  1.2488 -1.6435
16800SOL     OW61618   5.297   6.058   1.755  0.2798  0.1713  0.1918
16800SOL    HW161619   5.289   6.147   1.709  1.8339  0.7844  1.0628
16800SOL    HW261620   5.384   6.054   1.803  0.3071 -1.9236 -0.0162
16801SOL     OW61621   7.433   1.307   2.418  0.2444 -0.2830  0.3198
16801SOL    HW161622   7.504   1.367   2.457 -0.2220 -0.5427  1.5995
16801SOL    HW261623   7.344   1.331   2.457 -0.1348 -0.9963 -0.0923
16802SOL     OW61624   0.796   4.335   3.334  0.4581 -0.2088  0.2874
16802SOL    HW161625   0.696   4.332   3.327  0.3187  1.4914  1.3033
16802SOL    HW261626   0.836   4.347   3.244 -0.1302 -3.1293 -0.4191
16803SOL     OW61627   9.206   7.894   1.246 -0.5067  0.1453  0.9814
16803SOL    HW161628   9.126   7.847   1.210 -0.6779 -2.1241  4.1240
16803SOL    HW261629   9.183   7.990   1.264 -2.4774 -0.4250  1.6432
16804SOL     OW61630   0.421   2.953   1.858 -0.2586  0.2028 -0.3942
16804SOL    HW161631   0.506   2.935   1.907 -0.2696 -0.4464 -0.6142
16804SOL    HW261632   0.442   2.995   1.769 -0.1875  0.3503 -0.3088
16805SOL     OW61633   2.199   9.127   3.931 -0.4255 -0.5201  0.2141
16805SOL    HW161634   2.254   9.043   3.930 -1.2376 -1.0577  0.5719
16805SOL    HW261635   2.250   9.199   3.979  1.0581 -0.2562 -1.6716
16806SOL     OW61636   0.742   7.151   0.500  0.0593 -0.2820  0.3358
16806SOL    HW161637   0.662   7.108   0.541 -0.2595 -0.1579 -0.1538
16806SOL    HW261638   0.715   7.201   0.418  0.4022  0.9569  0.9570
16807SOL     OW61639   0.138   4.275   2.953  0.2404  0.0098 -0.4570
16807SOL    HW161640   0.168   4.323   2.871  1.2936 -0.4244 -0.3392
16807SOL    HW261641   0.084   4.195   2.927 -1.5472  1.2505 -0.6530
16808SOL     OW61642   8.205   6.559   2.705 -0.1775  0.4617 -0.2722
16808SOL    HW161643   8.188   6.637   2.765  1.7537  0.2310  0.6084
16808SOL    HW261644   8.152   6.480   2.737 -1.4622  1.1417 -0.6588
16809SOL     OW61645   9.682   7.690   0.354  0.3669  0.1175 -0.2175
16809SOL    HW161646   9.584   7.686   0.376  0.4988  0.7573  0.5200
16809SOL    HW261647   9.693   7.692   0.255 -0.2449 -2.6597 -0.3699
16810SOL     OW61648   2.179   0.867   2.845  0.3697 -0.0706  0.0133
16810SOL    HW161649   2.097   0.920   2.822  0.4270  1.0302  2.2256
16810SOL    HW261650   2.238   0.862   2.765 -1.7792 -0.7696 -1.5890
16811SOL     OW61651   8.169   7.377   2.996  0.7005 -0.3061  0.0807
16811SOL    HW161652   8.084   7.429   3.003  0.9823  0.0815  0.5989
16811SOL    HW261653   8.173   7.309   3.069  1.0440 -0.0285  0.3178
16812SOL     OW61654   9.150   0.533   0.451  0.1473  0.1677  0.2987
16812SOL    HW161655   9.212   0.537   0.372  2.2865 -1.0708  1.8521
16812SOL    HW261656   9.077   0.467   0.433  0.5331  0.0018 -0.7022
16813SOL     OW61657   0.611   6.450   1.163  0.2638 -0.5990  0.6322
16813SOL    HW161658   0.585   6.356   1.138  0.4127 -0.7242  0.9509
16813SOL    HW261659   0.636   6.453   1.259 -2.2941  0.3073  1.3136
16814SOL     OW61660   9.410   7.335   3.138  0.4294  0.1790 -0.0295
16814SOL    HW161661   9.346   7.411   3.125  0.4181  0.6813  2.7298
16814SOL    HW261662   9.365   7.249   3.113 -0.7359  0.7069  0.2246
16815SOL     OW61663   0.689   9.526   1.250 -0.1191  0.4678 -0.7487
16815SOL    HW161664   0.736   9.438   1.252  0.9173  0.9741 -1.9098
16815SOL    HW261665   0.597   9.514   1.211 -0.4404 -0.2912  0.2329
16816SOL     OW61666   8.483   7.909   4.466  0.3717  0.4377 -0.2777
16816SOL    HW161667   8.425   7.831   4.443  1.6570 -0.2738 -1.1671
16816SOL    HW261668   8.541   7.885   4.544 -0.9536  1.3769  1.0429
16817SOL     OW61669   3.573   8.731   6.500  0.0932 -0.2455 -0.1600
16817SOL    HW161670   3.618   8.701   6.416  1.1447  1.0812 -0.0874
16817SOL    HW261671   3.642   8.750   6.570 -0.5192  2.1347 -0.1518
16818SOL     OW61672   2.336   7.408   2.668 -0.0807 -0.1136  0.3568
16818SOL    HW161673   2.357   7.324   2.618  0.5334 -0.8250  1.7915
16818SOL    HW261674   2.251   7.396   2.720 -1.3445  1.0179 -1.4012
16819SOL     OW61675   3.359   9.198   0.330 -0.1974 -0.2990 -0.7003
16819SOL    HW161676   3.266   9.162   0.331  0.6147 -2.4448  0.6876
16819SOL    HW261677   3.419   9.135   0.281  0.4976  1.1874 -1.7915
16820SOL     OW61678   4.936   6.138   1.746 -0.1976 -0.1150 -0.1958
16820SOL    HW161679   4.894   6.186   1.669  0.6240  0.4377 -0.3099
16820SOL    HW261680   4.981   6.055   1.713 -1.9073 -1.1668  0.0504
16821SOL     OW61681   5.181   5.963   2.527  0.7113  0.2141  0.0813
16821SOL    HW161682   5.117   5.984   2.601 -0.5551  0.9916 -1.2056
16821SOL    HW261683   5.147   6.002   2.441  2.1948 -0.6022 -0.9069
16822SOL     OW61684   5.183   9.510   2.308  0.3998 -0.2652  0.5346
16822SOL    HW161685   5.214   9.482   2.218  1.7707  2.6640  0.0219
16822SOL    HW261686   5.091   9.550   2.300  1.9006  3.2342 -0.2532
16823SOL     OW61687   8.505   5.132   0.032  0.0226  0.0788  0.2707
16823SOL    HW161688   8.534   5.145  -0.063  0.2231 -0.7504  0.2130
16823SOL    HW261689   8.568   5.180   0.092  1.0328 -1.0056  0.0925
16824SOL     OW61690   4.058   9.647   1.493 -0.1168 -0.3989  0.4272
16824SOL    HW161691   3.959   9.663   1.490  0.2781  2.0583 -1.2685
16824SOL    HW261692   4.097   9.692   1.573 -0.0387  0.9444 -0.3440
16825SOL     OW61693   9.542   1.827   2.425 -0.4828 -0.0180  0.3321
16825SOL    HW161694   9.464   1.882   2.456  0.0711  0.4739  0.8621
16825SOL    HW261695   9.509   1.738   2.391 -1.1590 -0.3438  1.8051
16826SOL     OW61696   4.938   1.739   2.168 -0.3927  0.5254 -0.3479
16826SOL    HW161697   4.873   1.779   2.104 -0.1884 -0.5685 -1.2626
16826SOL    HW261698   5.028   1.731   2.125  0.3181  1.8634  0.8489
16827SOL     OW61699   9.258   3.185   2.158 -0.4764  0.2517  0.4132
16827SOL    HW161700   9.224   3.199   2.251 -0.0509  1.5999  0.3798
16827SOL    HW261701   9.247   3.270   2.106 -0.0208 -0.2740 -0.5476
16828SOL     OW61702   2.109   3.558   1.617 -0.3456  0.3185 -0.0832
16828SOL    HW161703   2.171   3.594   1.547 -0.4050 -0.7501 -0.6895
16828SOL    HW261704   2.111   3.458   1.616 -1.3425  0.2812  0.5551
16829SOL     OW61705   3.089   6.294   4.165 -0.0190  0.0981 -0.0359
16829SOL    HW161706   3.069   6.254   4.076  0.6328  0.7645 -0.4886
16829SOL    HW261707   3.157   6.367   4.155 -0.4125  0.6143  0.9129
16830SOL     OW61708   0.314   2.866   3.909  0.1701  0.2749  0.1485
16830SOL    HW161709   0.271   2.949   3.945 -0.8818 -0.8444  1.5016
16830SOL    HW261710   0.350   2.811   3.985  0.2428 -0.8529 -0.6904
16831SOL     OW61711   4.168   7.713   1.756 -0.0813  0.1751 -0.0817
16831SOL    HW161712   4.200   7.619   1.765  1.2630  0.4217 -1.9669
16831SOL    HW261713   4.243   7.771   1.726 -1.0406  1.7576  0.5115
16832SOL     OW61714   2.383   5.257   3.669 -0.6551  0.2129  0.4453
16832SOL    HW161715   2.453   5.282   3.735  0.0374  1.4927 -0.7582
16832SOL    HW261716   2.383   5.158   3.656  1.2572  0.2568  0.0806
16833SOL     OW61717   8.763   8.018   6.595  0.9022  0.2130 -0.0587
16833SOL    HW161718   8.709   7.934   6.589 -0.1759  0.8769  0.1489
16833SOL    HW261719   8.726   8.077   6.667 -0.3065  2.2116 -2.2047
16834SOL     OW61720   2.450   2.709   2.448 -0.6192 -0.4499  0.3262
16834SOL    HW161721   2.534   2.757   2.475 -1.5906  1.0898  0.6390
16834SOL    HW261722   2.449   2.698   2.349 -2.3575  4.0405 -0.2776
16835SOL     OW61723   8.777   0.347   1.252  0.1089 -0.1475  0.2805
16835SOL    HW161724   8.866   0.347   1.297 -0.1160  1.1279  0.7444
16835SOL    HW261725   8.746   0.441   1.239 -0.5803 -0.5352 -1.0581
16836SOL     OW61726   1.286   6.641   4.408 -0.6683  0.0444  0.1648
16836SOL    HW161727   1.231   6.558   4.395 -0.4456 -0.1052  0.1639
16836SOL    HW261728   1.376   6.615   4.444  0.5820 -0.0025 -2.8553
16837SOL     OW61729   2.623   5.154   5.306  0.3518  0.5203 -0.3986
16837SOL    HW161730   2.639   5.161   5.404  0.3041  0.4105 -0.3831
16837SOL    HW261731   2.563   5.076   5.287  2.0244 -0.7276 -0.6940
16838SOL     OW61732   2.814   6.370   5.994 -0.2606 -0.4635 -0.4157
16838SOL    HW161733   2.897   6.416   6.025 -0.6503 -1.1458  1.7452
16838SOL    HW261734   2.839   6.281   5.954 -0.0339 -1.4563  1.8238
16839SOL     OW61735   3.158   5.298   1.855  0.2933  0.4258 -0.0325
16839SOL    HW161736   3.239   5.357   1.857  0.4361  0.2687 -1.2238
16839SOL    HW261737   3.101   5.322   1.777 -0.0387 -0.5011 -0.0721
16840SOL     OW61738   9.207   2.862   5.970  0.4959  0.0999 -0.1346
16840SOL    HW161739   9.129   2.864   5.907  1.0926 -0.4378 -0.9032
16840SOL    HW261740   9.176   2.884   6.062 -0.3252  1.3292 -0.6936
16841SOL     OW61741   8.182   4.447   5.336  0.1380 -0.7419 -0.4062
16841SOL    HW161742   8.111   4.511   5.365  1.2553  0.8063 -1.0233
16841SOL    HW261743   8.195   4.377   5.406 -0.2508  0.4108  0.8184
16842SOL     OW61744   9.549   8.638   0.321 -0.6463  0.3831  0.1952
16842SOL    HW161745   9.607   8.590   0.387 -1.8327 -0.9608  0.2715
16842SOL    HW261746   9.590   8.630   0.230  0.2926  1.1054  0.5374
16843SOL     OW61747   1.478   8.255   0.231  0.3524 -0.8757 -0.1651
16843SOL    HW161748   1.531   8.303   0.161 -0.9710  1.5001  0.4094
16843SOL    HW261749   1.531   8.248   0.315  0.8697 -1.2163 -0.5147
16844SOL     OW61750   7.176   0.355   6.159 -0.2213 -0.8435  0.1522
16844SOL    HW161751   7.250   0.306   6.112 -0.0980  0.0477 -0.6009
16844SOL    HW261752   7.123   0.291   6.214  0.7564 -1.5920  0.2291
16845SOL     OW61753   6.820   1.804   1.762 -0.2833  0.1064  0.1868
16845SOL    HW161754   6.854   1.855   1.841  1.2019 -0.3585 -0.1378
16845SOL    HW261755   6.897   1.763   1.713 -1.1519  0.6523 -1.6866
16846SOL     OW61756   4.462   4.402   3.241  0.6115  0.0995  0.3163
16846SOL    HW161757   4.364   4.409   3.257  0.8055  1.5508  0.9641
16846SOL    HW261758   4.510   4.397   3.329  1.1511 -0.1553  0.0130
16847SOL     OW61759   2.419   1.799   0.016  0.2317 -0.2201  0.3100
16847SOL    HW161760   2.379   1.876  -0.033 -1.5504  0.6657  3.0460
16847SOL    HW261761   2.367   1.716  -0.004  0.7852 -0.2853 -0.8929
16848SOL     OW61762   1.008   2.858   2.123 -0.0250  0.1389  0.1902
16848SOL    HW161763   0.964   2.779   2.165  1.8950 -0.6232  0.8631
16848SOL    HW261764   0.997   2.938   2.181 -0.3139 -0.1054  0.4680
16849SOL     OW61765   0.271   7.529   0.810 -0.0639 -0.0377 -0.1251
16849SOL    HW161766   0.248   7.506   0.716  0.5353  0.5873 -0.4247
16849SOL    HW261767   0.250   7.451   0.869  0.4816 -0.7870 -0.9098
16850SOL     OW61768   9.296   3.541   4.945 -0.1221 -0.4215  0.0454
16850SOL    HW161769   9.270   3.601   4.869  1.5789  1.4714  0.9034
16850SOL    HW261770   9.214   3.504   4.988 -1.1561  0.0599 -1.4804
16851SOL     OW61771   4.217   9.016   1.916  0.1528  0.1936  0.3087
16851SOL    HW161772   4.166   8.935   1.945  1.6224 -0.6845  0.4875
16851SOL    HW261773   4.155   9.080   1.871 -1.7039  0.4768  3.1239
16852SOL     OW61774   8.676   9.326   6.095  0.0756  0.2545  0.0428
16852SOL    HW161775   8.584   9.353   6.124 -0.4768  0.5127 -1.8885
16852SOL    HW261776   8.737   9.405   6.099  0.4357 -0.1082  2.1378
16853SOL     OW61777   1.092   0.982   3.923 -0.1987  0.5718 -0.0764
16853SOL    HW161778   1.103   0.993   4.022  0.7089 -0.2320 -0.0841
16853SOL    HW261779   1.009   0.929   3.904  0.2301 -0.2361  0.2961
16854SOL     OW61780   8.732   1.237   2.383  0.2385 -0.4126 -0.6061
16854SOL    HW161781   8.732   1.138   2.397  0.8880 -0.4068 -0.5114
16854SOL    HW261782   8.729   1.284   2.471 -0.1212 -0.3503 -0.6531
16855SOL     OW61783   4.195   4.532   1.838  0.1379  0.4523  0.1833
16855SOL    HW161784   4.234   4.539   1.746  1.1399 -0.5873  0.5069
16855SOL    HW261785   4.112   4.477   1.835  0.2124  0.3532 -0.0845
16856SOL     OW61786   1.009   4.584   2.842  0.1063 -0.6803  0.3475
16856SOL    HW161787   1.094   4.588   2.894  1.1914  0.6627 -1.5172
16856SOL    HW261788   1.014   4.510   2.775  0.3573  0.3335 -0.7473
16857SOL     OW61789   8.573   8.547   6.488 -0.7684  0.0399 -0.0248
16857SOL    HW161790   8.615   8.597   6.413  0.9029 -1.3102 -0.0143
16857SOL    HW261791   8.533   8.462   6.453 -1.0239 -0.0279  0.4260
16858SOL     OW61792   9.046   5.886   0.864  0.0309  0.5742  0.5751
16858SOL    HW161793   9.042   5.917   0.769  1.6786 -1.5290 -0.2215
16858SOL    HW261794   9.110   5.944   0.916 -1.0902  1.9007  0.4888
16859SOL     OW61795   8.193   8.276   6.035 -0.2079  0.0027  0.1277
16859SOL    HW161796   8.196   8.364   5.987  0.1867  0.6266  1.2618
16859SOL    HW261797   8.282   8.231   6.028  0.1667  0.5709  1.1262
16860SOL     OW61798   5.397   4.423   0.542  0.0571  0.3260  0.5060
16860SOL    HW161799   5.400   4.454   0.446 -1.8151  0.1329  0.3650
16860SOL    HW261800   5.461   4.477   0.596  0.9410  0.6171 -0.8133
16861SOL     OW61801   0.320   0.523   1.043 -0.0026  0.2295  0.3014
16861SOL    HW161802   0.305   0.592   0.972  2.0235 -1.3712 -1.7319
16861SOL    HW261803   0.404   0.544   1.093  0.6562 -0.8335 -0.3746
16862SOL     OW61804   3.504   1.648   3.924  1.0738  0.3088 -0.5687
16862SOL    HW161805   3.450   1.729   3.946  0.6688  0.0855 -0.7364
16862SOL    HW261806   3.443   1.571   3.909  1.4724 -0.0911 -0.1559
16863SOL     OW61807   3.085   3.827   3.311 -0.3882  0.1705 -0.0323
16863SOL    HW161808   3.054   3.813   3.217 -2.0098  0.0487  0.4965
16863SOL    HW261809   3.141   3.749   3.340 -1.5788 -0.7900 -0.2402
16864SOL     OW61810   2.851   5.288   5.174 -0.1445 -0.0025  0.1536
16864SOL    HW161811   2.799   5.372   5.159 -1.0522 -0.6796 -0.4906
16864SOL    HW261812   2.791   5.218   5.213  0.5888 -0.3861  0.5993
16865SOL     OW61813   8.715   9.219   1.104 -0.0803 -0.3458  0.2574
16865SOL    HW161814   8.629   9.168   1.093 -0.5042  0.2399  0.8089
16865SOL    HW261815   8.792   9.159   1.084 -0.5545 -1.3876  1.4488
16866SOL     OW61816   7.416   0.716   1.695  0.5359  0.1612 -0.0138
16866SOL    HW161817   7.476   0.656   1.642  0.9487  1.2711 -0.8211
16866SOL    HW261818   7.347   0.661   1.742  0.7108 -0.9127 -0.9959
16867SOL     OW61819   1.566   2.272   1.392  0.0287 -0.2341 -0.6405
16867SOL    HW161820   1.487   2.319   1.352 -0.3999  1.3298  1.9137
16867SOL    HW261821   1.623   2.338   1.441  1.3113 -1.8261  0.0668
16868SOL     OW61822   3.965   3.157   3.323 -0.2549  0.6808 -0.4210
16868SOL    HW161823   4.033   3.086   3.308 -0.5578  0.2000  0.4406
16868SOL    HW261824   3.893   3.151   3.254  0.3126  0.8747 -1.0300
16869SOL     OW61825   3.979   1.071   6.223  0.2913 -0.3772 -0.0137
16869SOL    HW161826   3.898   1.093   6.169  0.3257 -0.4458 -0.0927
16869SOL    HW261827   4.035   1.153   6.234 -0.0683 -0.1967  0.5154
16870SOL     OW61828   6.521   9.353   4.536 -0.1520 -0.4341  0.2410
16870SOL    HW161829   6.443   9.405   4.499  0.1017 -1.5166 -1.8947
16870SOL    HW261830   6.571   9.411   4.600 -1.7777  0.8377  0.4110
16871SOL     OW61831   2.718   9.068   2.034  0.0357 -0.6027  0.1570
16871SOL    HW161832   2.754   9.158   2.008  0.6339 -0.4658  1.4520
16871SOL    HW261833   2.768   8.997   1.984 -0.0006 -0.2498 -0.3836
16872SOL     OW61834   3.689   4.440   0.200  0.0415  0.3820  0.4421
16872SOL    HW161835   3.728   4.388   0.275 -1.1192 -0.9503  0.1497
16872SOL    HW261836   3.666   4.532   0.231  2.4309  0.8617  0.8757
16873SOL     OW61837   1.060   9.867   4.448  0.4618 -0.0313  0.8402
16873SOL    HW161838   1.023   9.956   4.422 -0.2843 -0.4798  0.3443
16873SOL    HW261839   1.144   9.850   4.397 -1.0348 -0.9486 -1.4397
16874SOL     OW61840   0.866   0.711   0.095  0.3880  0.2192 -0.5626
16874SOL    HW161841   0.849   0.770   0.174 -1.5779  1.2461 -1.7157
16874SOL    HW261842   0.864   0.766   0.011  2.0179 -0.9292 -1.3889
16875SOL     OW61843   0.750   5.577   5.141  0.2961  0.0032  0.1304
16875SOL    HW161844   0.663   5.566   5.093 -0.8586  1.6079  1.7847
16875SOL    HW261845   0.766   5.500   5.201  1.7488 -2.0276 -2.7269
16876SOL     OW61846   0.043   2.740   4.911 -0.5251 -0.0871 -0.2684
16876SOL    HW161847  -0.033   2.738   4.977 -0.3590 -0.4674 -0.0856
16876SOL    HW261848   0.103   2.662   4.927 -0.8644 -0.5734 -1.3183
16877SOL     OW61849   2.887   2.375   5.141  0.8101  0.4447 -0.6650
16877SOL    HW161850   2.929   2.377   5.051  2.8664 -1.0534  0.2417
16877SOL    HW261851   2.802   2.322   5.137  0.0608  1.7121 -2.0363
16878SOL     OW61852   0.277   4.381   0.638 -0.1164 -0.4703 -0.5964
16878SOL    HW161853   0.214   4.443   0.685 -0.4637  0.3636 -2.1413
16878SOL    HW261854   0.227   4.329   0.569  0.9376  0.4704 -2.1000
16879SOL     OW61855   5.831   9.423   2.965  0.0499 -0.0265  0.3534
16879SOL    HW161856   5.903   9.460   2.907 -0.8019  0.9958 -0.0680
16879SOL    HW261857   5.872   9.366   3.037  1.4279  1.8969  1.1437
16880SOL     OW61858   4.782   0.202   5.876  0.7367 -0.1673 -0.0810
16880SOL    HW161859   4.861   0.157   5.918 -0.7652  0.4879  3.6115
16880SOL    HW261860   4.750   0.147   5.798  4.2297 -0.8833 -1.1157
16881SOL     OW61861   5.874   2.932   4.004 -0.1580  0.4745  0.5635
16881SOL    HW161862   5.859   2.834   4.017 -0.3485  0.2967 -0.8800
16881SOL    HW261863   5.924   2.969   4.082  0.2168 -0.8364  0.9554
16882SOL     OW61864   5.517   9.223   5.131 -0.0346 -0.4698 -0.1801
16882SOL    HW161865   5.452   9.177   5.192  0.5418  0.4792  1.1481
16882SOL    HW261866   5.608   9.224   5.172  0.0603  1.4521 -0.3892
16883SOL     OW61867   1.146   1.639   6.548 -0.2362 -0.6102  0.3259
16883SOL    HW161868   1.123   1.543   6.541 -1.0244 -0.7348  3.5179
16883SOL    HW261869   1.235   1.649   6.593 -1.4879  0.1299  2.7656
16884SOL     OW61870   5.521   1.663   2.218  0.0290 -0.6521  0.0574
16884SOL    HW161871   5.453   1.590   2.216  0.1501 -0.7318 -1.6139
16884SOL    HW261872   5.605   1.632   2.173  0.5467  0.0750  0.4949
16885SOL     OW61873   7.739   4.451   2.439 -0.3791  0.1702  0.2091
16885SOL    HW161874   7.756   4.514   2.515 -1.6937  0.2257  0.4612
16885SOL    HW261875   7.734   4.358   2.475 -2.8529  0.3775  0.4781
16886SOL     OW61876   9.568   1.249   0.098 -0.3660 -0.0308  0.1691
16886SOL    HW161877   9.617   1.271   0.013  1.5267  0.0539  1.2639
16886SOL    HW261878   9.491   1.189   0.077 -0.9110  1.3001 -1.8256
16887SOL     OW61879   1.884   0.510   0.999  0.3422  0.1761 -0.0335
16887SOL    HW161880   1.969   0.461   1.016  0.3451 -0.1145 -0.8733
16887SOL    HW261881   1.899   0.581   0.931 -0.1851 -0.1595 -0.5042
16888SOL     OW61882   5.144   9.403   4.979 -0.0532  0.7575 -0.0486
16888SOL    HW161883   5.191   9.468   4.920 -3.7601  2.5695 -1.1520
16888SOL    HW261884   5.167   9.310   4.951 -0.4077  1.5881 -3.2896
16889SOL     OW61885   1.907   5.140   6.480 -0.0147  0.5682  0.4229
16889SOL    HW161886   1.946   5.155   6.571  0.6842  0.9210  0.0666
16889SOL    HW261887   1.978   5.109   6.417 -0.6939 -0.6414  0.2330
16890SOL     OW61888   8.543   7.347   4.151 -0.2005  0.3427 -0.0816
16890SOL    HW161889   8.492   7.274   4.197  0.9052  0.5334  1.4577
16890SOL    HW261890   8.582   7.409   4.219  2.2951  0.0607 -1.1986
16891SOL     OW61891   6.400   1.650   5.936 -0.4852  0.0424  0.0556
16891SOL    HW161892   6.391   1.550   5.944 -1.1680  0.0138 -0.8935
16891SOL    HW261893   6.467   1.671   5.865 -0.6466  0.2530 -0.0346
16892SOL     OW61894   2.665   4.775   6.424  0.2759 -0.0001  0.4781
16892SOL    HW161895   2.711   4.821   6.348  0.3252  0.0498  0.5384
16892SOL    HW261896   2.694   4.679   6.427 -0.3671 -0.2175 -0.0839
16893SOL     OW61897   7.226   4.990   0.470  0.3849 -0.0552 -0.7624
16893SOL    HW161898   7.161   4.977   0.544  1.4478  1.8069  0.5425
16893SOL    HW261899   7.180   4.979   0.382 -1.2213 -0.7228  0.1535
16894SOL     OW61900   3.998   8.298   1.712 -0.5592 -0.0433  0.2502
16894SOL    HW161901   4.050   8.281   1.628 -0.5373  0.0119  0.2533
16894SOL    HW261902   3.904   8.323   1.688  0.0296  2.1705  0.1745
16895SOL     OW61903   2.399   5.311   0.300  0.7491 -0.2418 -0.1683
16895SOL    HW161904   2.497   5.320   0.279  1.0723 -0.6274  1.1001
16895SOL    HW261905   2.387   5.247   0.376 -0.4847 -0.0807 -0.2159
16896SOL     OW61906   2.454   3.320   4.885 -0.5699  0.5272  0.2958
16896SOL    HW161907   2.527   3.313   4.953 -0.2661 -0.2037 -0.0898
16896SOL    HW261908   2.449   3.234   4.833 -2.6524  0.0243  1.2702
16897SOL     OW61909   0.580   7.276   3.268 -0.1191 -0.7097 -0.6610
16897SOL    HW161910   0.487   7.269   3.232  1.1219 -0.7899 -3.9922
16897SOL    HW261911   0.622   7.185   3.269 -0.5140 -0.9047  2.2026
16898SOL     OW61912   7.281   5.390   0.752  0.4467  0.4566  0.1434
16898SOL    HW161913   7.317   5.348   0.836  2.8060  2.8884  0.4363
16898SOL    HW261914   7.302   5.332   0.674 -0.1162 -0.9306  0.9952
16899SOL     OW61915   6.803   1.285   4.764  0.4373 -0.5221  0.5284
16899SOL    HW161916   6.850   1.205   4.801  1.5025  0.5358  1.4799
16899SOL    HW261917   6.794   1.355   4.835 -0.5368  0.1844 -0.2760
16900SOL     OW61918   4.357   2.302   4.835 -0.1697 -0.0877  0.0791
16900SOL    HW161919   4.396   2.232   4.894  0.2126  0.8820  0.9942
16900SOL    HW261920   4.263   2.278   4.812 -0.0960 -0.8133  0.5277
16901SOL     OW61921   7.472   6.451   0.263  0.2335  0.0272 -0.1505
16901SOL    HW161922   7.543   6.487   0.324  0.8674  1.6608 -1.7784
16901SOL    HW261923   7.416   6.527   0.228  0.5523 -0.7025 -2.3669
16902SOL     OW61924   2.212   6.170   1.632  0.3534 -0.2025 -0.6220
16902SOL    HW161925   2.300   6.154   1.587  0.8713 -0.9366  0.6524
16902SOL    HW261926   2.167   6.083   1.649 -0.4286  0.1519 -0.8779
16903SOL     OW61927   5.567   0.927   4.703 -0.3455  0.1119  0.2222
16903SOL    HW161928   5.626   0.860   4.747 -0.2750 -0.5850 -0.9123
16903SOL    HW261929   5.472   0.895   4.705 -0.4064  0.2934  0.2755
16904SOL     OW61930   1.481   5.134   0.901 -0.0989  0.7083 -0.6676
16904SOL    HW161931   1.481   5.057   0.964 -0.4292  1.8903  0.7894
16904SOL    HW261932   1.435   5.107   0.816 -0.9489 -0.4341  0.1334
16905SOL     OW61933   2.825   5.266   4.162  0.7884  0.9605 -0.0181
16905SOL    HW161934   2.738   5.236   4.201  1.1678  0.8223  0.7220
16905SOL    HW261935   2.858   5.346   4.211  1.1068  0.9842 -0.2697
16906SOL     OW61936   2.079   4.200   3.227  0.2122 -0.2588 -0.1461
16906SOL    HW161937   2.032   4.173   3.311  0.8335 -0.8260  0.0224
16906SOL    HW261938   2.141   4.276   3.248  0.4000 -0.4294 -0.0817
16907SOL     OW61939   6.583   2.597   3.579  0.0107  0.1321  0.5393
16907SOL    HW161940   6.637   2.520   3.613 -2.4882 -0.8917  2.2604
16907SOL    HW261941   6.492   2.566   3.553 -0.4123  2.1862 -0.5513
16908SOL     OW61942   9.063   8.274   1.104 -0.5091  0.4471  0.4165
16908SOL    HW161943   9.083   8.231   1.192 -1.4436 -2.1680 -0.6316
16908SOL    HW261944   8.984   8.335   1.114 -0.1392  0.7677  1.5351
16909SOL     OW61945   8.262   9.935   3.552  0.1138  0.1258  0.3239
16909SOL    HW161946   8.280   9.852   3.499  5.5048  1.9979 -1.0737
16909SOL    HW261947   8.308   9.930   3.640 -1.5642  0.6921  1.2659
16910SOL     OW61948   3.917   7.029   1.124 -0.6373  0.4386  0.4376
16910SOL    HW161949   4.011   7.037   1.088 -1.1505  1.1077 -0.7725
16910SOL    HW261950   3.894   7.112   1.175 -1.0522  0.8439 -0.4107
16911SOL     OW61951   9.068   8.886   2.537 -0.3026 -0.5365  0.3411
16911SOL    HW161952   9.001   8.934   2.480 -1.2824 -1.0005  1.0708
16911SOL    HW261953   9.030   8.797   2.565  1.4090 -1.6524 -0.8261
16912SOL     OW61954   2.325   1.896   4.111  0.1208 -0.0238 -0.2511
16912SOL    HW161955   2.387   1.970   4.084  0.8329 -0.6422 -0.3365
16912SOL    HW261956   2.230   1.928   4.108  0.4942  1.2528  0.8930
16913SOL     OW61957   0.479   3.559   4.342  0.0285  0.6685  0.1097
16913SOL    HW161958   0.486   3.462   4.366 -2.2869  0.6851  1.0582
16913SOL    HW261959   0.526   3.576   4.256 -3.4383 -2.3055 -2.5636
16914SOL     OW61960   2.893   7.693   2.632 -0.2021  0.4808  0.3093
16914SOL    HW161961   2.922   7.612   2.682  0.0803 -0.5512 -1.4988
16914SOL    HW261962   2.819   7.669   2.569  0.9765  1.2508 -1.4217
16915SOL     OW61963   6.605   1.565   1.324  0.1158  0.0920 -0.4693
16915SOL    HW161964   6.702   1.583   1.339  0.1043  0.6001 -0.9620
16915SOL    HW261965   6.550   1.627   1.380  0.0777  0.0500 -0.4603
16916SOL     OW61966   5.817   1.845   4.887 -0.2046  0.9481 -0.0228
16916SOL    HW161967   5.750   1.773   4.906  0.5984  0.4754  1.0306
16916SOL    HW261968   5.770   1.932   4.876 -1.0490  0.5145  0.1096
16917SOL     OW61969   6.943   1.250   0.049  0.3648  0.2124  0.0174
16917SOL    HW161970   6.914   1.270   0.143  0.1460  1.2649 -0.2660
16917SOL    HW261971   6.928   1.153   0.029  0.8472 -0.1121  1.2237
16918SOL     OW61972   0.783   7.365   2.590  0.3595  0.1578  0.0413
16918SOL    HW161973   0.768   7.420   2.672  3.0278  0.9590  0.0277
16918SOL    HW261974   0.872   7.387   2.551 -0.6448 -0.6056 -2.7831
16919SOL     OW61975   6.717   7.748   5.097 -0.2185  0.1190  0.5972
16919SOL    HW161976   6.689   7.738   5.001 -0.4556  0.6845  0.6015
16919SOL    HW261977   6.702   7.662   5.146  0.7191 -0.4378 -0.0780
16920SOL     OW61978   7.644   4.063   1.354  0.3581  0.1901  0.6099
16920SOL    HW161979   7.644   4.084   1.452 -0.8884 -2.2084  1.1513
16920SOL    HW261980   7.550   4.057   1.321  0.6599 -2.8802  0.1701
16921SOL     OW61981   1.389   6.842   3.921 -0.0625 -0.0366 -0.0359
16921SOL    HW161982   1.390   6.798   4.011  0.0420  0.0463  0.0029
16921SOL    HW261983   1.471   6.817   3.871 -1.4682 -2.3890 -1.2275
16922SOL     OW61984   5.015   1.693   4.982  0.6203  0.7350  0.3231
16922SOL    HW161985   5.064   1.729   4.903 -1.3033  3.1243  0.1716
16922SOL    HW261986   5.077   1.691   5.061  2.3358 -0.9700 -1.0009
16923SOL     OW61987   0.322   1.559   1.227  0.3102  0.0185  0.3783
16923SOL    HW161988   0.225   1.554   1.205  0.5115  0.0607 -0.5229
16923SOL    HW261989   0.352   1.472   1.266 -0.0476 -0.0584  0.4754
16924SOL     OW61990   3.578   3.322   1.166 -0.0803  0.3799 -0.3746
16924SOL    HW161991   3.610   3.417   1.162 -1.6893  1.0279  1.4734
16924SOL    HW261992   3.650   3.264   1.205  0.5150  1.0173 -0.5061
16925SOL     OW61993   3.948   3.626   6.396 -0.0480 -0.0723 -0.3045
16925SOL    HW161994   4.014   3.552   6.384 -0.0287 -0.0536 -0.3146
16925SOL    HW261995   3.997   3.711   6.413 -0.1148 -0.4548  1.9316
16926SOL     OW61996   3.911   8.769   0.463 -0.0619 -0.2125 -0.3015
16926SOL    HW161997   3.892   8.854   0.412  0.7456 -0.3592 -0.8621
16926SOL    HW261998   3.837   8.704   0.448 -0.1310 -0.0231 -0.7944
16927SOL     OW61999   5.514   8.449   2.382  0.1537 -0.3276 -0.1209
16927SOL    HW162000   5.485   8.537   2.343 -0.7560 -0.2334  0.7463
16927SOL    HW262001   5.512   8.455   2.482  4.2059  0.0324  0.0469
16928SOL     OW62002   0.061   2.649   3.775  0.0912 -0.1634  0.1738
16928SOL    HW162003   0.097   2.712   3.844 -0.7740 -0.2076  0.6698
16928SOL    HW262004  -0.036   2.668   3.760 -0.2570 -1.6090  0.5829
16929SOL     OW62005   7.063   7.218   4.029  0.2896  0.4348 -0.3773
16929SOL    HW162006   6.967   7.215   4.055  0.1266  1.5914 -0.8093
16929SOL    HW262007   7.100   7.309   4.047  1.0601  0.2747 -1.0918
16930SOL     OW62008   7.038   3.055   4.355  0.2551 -0.2192 -0.2232
16930SOL    HW162009   7.030   2.971   4.303  1.7261  0.4731 -1.6062
16930SOL    HW262010   7.011   3.133   4.298  0.2924  0.3780  0.5634
16931SOL     OW62011   4.974   4.950   1.394  0.6337 -0.1339  0.2639
16931SOL    HW162012   4.911   4.970   1.469  0.7543 -0.1024  0.3570
16931SOL    HW262013   5.068   4.968   1.423  0.5122  2.2209 -0.6504
16932SOL     OW62014   6.941   0.967   0.099 -0.6469  0.2007  0.2719
16932SOL    HW162015   7.031   0.938   0.132 -0.1180  0.7726 -0.6617
16932SOL    HW262016   6.870   0.924   0.155  0.1675 -1.6050 -0.0568
16933SOL     OW62017   3.310   9.665   5.438 -0.6218 -0.3756  0.5329
16933SOL    HW162018   3.365   9.658   5.355  0.6124  0.8105  1.2332
16933SOL    HW262019   3.283   9.760   5.452  1.5510 -0.0617  2.9661
16934SOL     OW62020   9.125   4.589   1.242  0.0461  0.1276  0.3738
16934SOL    HW162021   9.051   4.633   1.192  1.2775  0.5838 -1.0908
16934SOL    HW262022   9.202   4.573   1.181  1.0690 -0.5889  1.8034
16935SOL     OW62023   1.126   1.133   5.669 -0.5099 -0.0558  0.1909
16935SOL    HW162024   1.155   1.130   5.764  0.0705 -0.1697  0.0157
16935SOL    HW262025   1.055   1.064   5.653 -0.4166 -0.2181  0.4778
16936SOL     OW62026   1.972   8.037   0.599 -0.1267 -0.1294  0.6802
16936SOL    HW162027   1.978   7.938   0.590 -0.4014 -0.1200  0.3786
16936SOL    HW262028   2.038   8.080   0.537  0.1749 -0.1322  1.0044
16937SOL     OW62029   0.926   5.710   2.382 -0.9118  0.3404 -0.3799
16937SOL    HW162030   0.849   5.694   2.319  0.0344  1.0226 -1.7460
16937SOL    HW262031   1.004   5.655   2.354 -1.1002 -0.8801  1.4246
16938SOL     OW62032   0.864   2.744   5.342 -0.3428  0.0122 -0.1103
16938SOL    HW162033   0.773   2.783   5.358 -0.4199 -0.7301  1.4151
16938SOL    HW262034   0.867   2.651   5.378 -0.2536 -1.5667 -3.9503
16939SOL     OW62035   3.571   2.212   0.952 -0.1136 -0.4893  0.4340
16939SOL    HW162036   3.639   2.286   0.946 -1.4971  0.8031  0.2970
16939SOL    HW262037   3.550   2.193   1.047 -2.1200  1.5555  0.4409
16940SOL     OW62038   4.289   1.545   6.412 -0.3616 -0.2821  0.3368
16940SOL    HW162039   4.313   1.462   6.361  1.5640  0.6063 -0.2761
16940SOL    HW262040   4.245   1.610   6.351  1.5456  0.6076 -0.1262
16941SOL     OW62041   1.154   1.173   0.956 -0.4314 -0.2173 -0.0624
16941SOL    HW162042   1.246   1.138   0.934 -0.7796  0.0468 -2.0214
16941SOL    HW262043   1.162   1.268   0.987 -0.0261 -0.3039  0.1184
16942SOL     OW62044   3.611   3.076   4.574 -0.0330  0.1457 -0.2765
16942SOL    HW162045   3.576   3.043   4.662  0.8508 -0.5169 -0.1643
16942SOL    HW262046   3.561   3.159   4.547 -2.5525 -1.4962 -0.7578
16943SOL     OW62047   0.693   1.567   1.702  0.0631  0.3142  0.3253
16943SOL    HW162048   0.706   1.665   1.689 -2.0226  0.8046  1.6744
16943SOL    HW262049   0.596   1.544   1.691  0.6266 -1.7184 -0.6594
16944SOL     OW62050   8.249   0.596   3.926  0.5468 -0.1233  0.2815
16944SOL    HW162051   8.322   0.565   3.988 -0.7606  1.4360  2.7027
16944SOL    HW262052   8.259   0.693   3.909 -1.1732  0.2046  0.9956
16945SOL     OW62053   9.035   3.361   4.537  0.0018  0.1867 -0.4614
16945SOL    HW162054   8.975   3.350   4.457  0.5838  1.1986 -1.0548
16945SOL    HW262055   9.122   3.400   4.508  0.8486 -0.9998  0.4437
16946SOL     OW62056   3.836   9.017   6.535  0.2574 -0.8047  0.3033
16946SOL    HW162057   3.896   9.095   6.552  0.4997 -0.9365  0.0564
16946SOL    HW262058   3.826   9.004   6.436  1.4023 -1.9911  0.3378
16947SOL     OW62059   0.346   6.350   2.415  0.2135 -0.3624 -0.2564
16947SOL    HW162060   0.363   6.395   2.327 -0.8254  2.4516  0.9054
16947SOL    HW262061   0.248   6.332   2.426  0.4661 -1.7080 -0.1237
16948SOL     OW62062   2.891   6.848   3.209 -0.3038  0.4131  0.4423
16948SOL    HW162063   2.882   6.786   3.287 -1.3476 -0.2440 -0.1948
16948SOL    HW262064   2.886   6.795   3.124  2.6468  0.8685 -0.0828
16949SOL     OW62065   0.332   2.665   6.392  0.3680  0.0177 -0.4210
16949SOL    HW162066   0.376   2.698   6.476  1.4555 -0.1041 -0.9258
16949SOL    HW262067   0.298   2.572   6.405  1.4431 -0.3794 -0.4223
16950SOL     OW62068   1.146   2.488   1.500  0.4013  0.0567  0.4457
16950SOL    HW162069   1.065   2.542   1.477 -0.4371 -1.4537 -0.1936
16950SOL    HW262070   1.199   2.537   1.570 -0.5406  1.5081  0.1762
16951SOL     OW62071   7.711   4.765   6.037  0.3389 -0.7034  0.0397
16951SOL    HW162072   7.646   4.690   6.033  0.0740 -0.4916  0.3514
16951SOL    HW262073   7.672   4.841   6.090 -0.1812  0.4328 -1.9230
16952SOL     OW62074   9.589   7.709   3.216 -0.4038  0.3359  0.2980
16952SOL    HW162075   9.513   7.723   3.279 -1.0569  1.5892 -0.7506
16952SOL    HW262076   9.590   7.782   3.148  1.2514 -0.1145 -0.1939
16953SOL     OW62077   7.302   3.999   6.457  0.4348 -0.0695 -0.0218
16953SOL    HW162078   7.294   3.917   6.513  0.8356  0.3060  0.5868
16953SOL    HW262079   7.384   3.993   6.400 -0.8998 -1.2272 -1.8494
16954SOL     OW62080   4.706   9.975   0.943 -0.3222  0.3645 -0.5315
16954SOL    HW162081   4.698  10.028   0.859 -0.6260  1.9816  0.4965
16954SOL    HW262082   4.634   9.906   0.946  0.9539 -1.0784 -2.5480
16955SOL     OW62083   9.154   7.237   2.364  0.1430  0.4262 -0.4163
16955SOL    HW162084   9.165   7.328   2.322 -1.2839  0.9673  0.3430
16955SOL    HW262085   9.066   7.233   2.410  1.0346 -0.7009  1.2014
16956SOL     OW62086   7.584   0.436   5.386 -0.5750 -0.1691 -0.0403
16956SOL    HW162087   7.648   0.512   5.392  0.0893 -0.7935  0.9635
16956SOL    HW262088   7.553   0.425   5.292 -0.4324  1.1387 -0.2479
16957SOL     OW62089   9.982   1.600   3.905  0.3721  0.2987 -0.4100
16957SOL    HW162090   9.902   1.630   3.853 -0.4172 -0.2538  0.4669
16957SOL    HW262091  10.021   1.519   3.862 -1.8175 -1.7032  1.2579
16958SOL     OW62092   3.570   5.642   1.884 -0.0299  0.1319 -0.0433
16958SOL    HW162093   3.637   5.604   1.947 -0.5841 -0.0833  0.4185
16958SOL    HW262094   3.586   5.741   1.875  1.8347 -0.2963 -1.7731
16959SOL     OW62095   2.016   5.039   2.258 -0.2210 -0.0644 -0.0583
16959SOL    HW162096   2.045   4.969   2.323  0.0521  0.5559  0.4823
16959SOL    HW262097   2.041   5.010   2.165  0.4658 -0.3887  0.2273
16960SOL     OW62098   9.368   0.584   4.225 -0.3912  0.3902 -0.2537
16960SOL    HW162099   9.305   0.634   4.166 -0.0633  1.6796  0.4824
16960SOL    HW262100   9.459   0.583   4.184 -0.5586 -0.2697 -0.6299
16961SOL     OW62101   3.785   1.141   1.561 -0.0617 -0.2742  0.1509
16961SOL    HW162102   3.807   1.232   1.527  1.0204 -0.9932 -1.1089
16961SOL    HW262103   3.779   1.143   1.661 -1.4890  1.4725  0.0657
16962SOL     OW62104   1.456   6.380   4.214 -0.1716  0.3954  0.6369
16962SOL    HW162105   1.545   6.406   4.252 -0.4558  1.0893  0.8311
16962SOL    HW262106   1.446   6.417   4.122 -0.3148  0.4252  0.6638
16963SOL     OW62107   3.124   9.807   0.257  0.0273 -0.3707  0.0438
16963SOL    HW162108   3.204   9.800   0.317 -0.0028 -0.5038  0.0681
16963SOL    HW262109   3.151   9.852   0.172  0.2496 -0.8727 -0.1584
16964SOL     OW62110   0.920   7.185   2.331  0.1162 -0.2935  0.6273
16964SOL    HW162111   0.874   7.114   2.383  1.1210 -1.1604  0.3392
16964SOL    HW262112   0.951   7.148   2.243  0.6419  0.4928  0.4750
16965SOL     OW62113   1.777   1.695   3.890  0.2936  0.1003 -0.2971
16965SOL    HW162114   1.873   1.702   3.864  0.5466  0.6856  0.7901
16965SOL    HW262115   1.746   1.780   3.932 -0.4811 -0.3469  0.0710
16966SOL     OW62116   0.167   9.737   3.918  0.1992 -0.6338  0.0237
16966SOL    HW162117   0.114   9.783   3.989  2.3836  1.3104  0.4631
16966SOL    HW262118   0.130   9.645   3.903  0.4354 -1.6317  4.6071
16967SOL     OW62119   7.109   2.900   2.282 -0.7006 -0.4160 -0.1652
16967SOL    HW162120   7.074   2.846   2.205  0.8452 -0.1202 -1.0882
16967SOL    HW262121   7.182   2.850   2.327 -0.9995 -0.1969  0.5683
16968SOL     OW62122   1.893   8.318   4.072 -0.4144 -0.1382 -0.0918
16968SOL    HW162123   1.860   8.408   4.044  0.2277  0.0152 -0.3717
16968SOL    HW262124   1.990   8.324   4.096 -0.4700 -0.6720  0.2837
16969SOL     OW62125   4.500   3.256   1.757  0.1200 -0.4639  0.1672
16969SOL    HW162126   4.567   3.182   1.767 -1.1682 -1.9347 -1.5998
16969SOL    HW262127   4.420   3.221   1.708 -0.1215  2.3550 -1.5283
16970SOL     OW62128   8.778   5.089   0.600  0.5788 -0.4038  0.3439
16970SOL    HW162129   8.789   5.027   0.522  0.4953  2.2397 -1.8070
16970SOL    HW262130   8.694   5.066   0.649 -1.2104  0.1032 -2.3906
16971SOL     OW62131   0.102   6.898   3.112  0.3933 -0.0440  0.3486
16971SOL    HW162132   0.191   6.944   3.119 -0.0431  0.5842  1.8816
16971SOL    HW262133   0.042   6.950   3.051 -0.0046  1.3040  1.8604
16972SOL     OW62134   9.573   8.994   0.959 -0.3261  0.1290 -0.0341
16972SOL    HW162135   9.571   8.953   1.050 -0.3312  0.0033 -0.0909
16972SOL    HW262136   9.495   9.055   0.948 -0.2376  0.2671  0.1044
16973SOL     OW62137   4.531   8.604   1.776  0.5240  0.1796 -0.0696
16973SOL    HW162138   4.574   8.520   1.809  1.5848  1.0593  0.8003
16973SOL    HW262139   4.574   8.634   1.691  0.3038 -0.0215 -0.2526
16974SOL     OW62140   3.374   1.300   4.467 -0.7090 -0.2862 -0.2707
16974SOL    HW162141   3.298   1.358   4.438 -0.8470 -0.2231  0.2290
16974SOL    HW262142   3.456   1.355   4.481 -0.4793 -0.3946 -1.1177
16975SOL     OW62143   2.727   2.337   5.617  0.1428  0.2520 -0.0313
16975SOL    HW162144   2.746   2.366   5.710  0.0914 -1.0101  0.3824
16975SOL    HW262145   2.637   2.370   5.589  0.1365  0.5821  0.3819
16976SOL     OW62146   1.829   4.314   2.586  0.7193  0.5950  0.3452
16976SOL    HW162147   1.887   4.328   2.506  0.7674 -1.6785 -0.0291
16976SOL    HW262148   1.733   4.333   2.561  0.8241  0.6195 -0.0419
16977SOL     OW62149   0.110   1.417   1.895 -0.3393  0.0308 -0.1983
16977SOL    HW162150   0.143   1.503   1.855 -2.1038  0.5172 -0.6417
16977SOL    HW262151   0.039   1.378   1.836  0.7625 -1.9807 -0.2320
16978SOL     OW62152   0.890   0.091   5.242 -0.5205 -0.0470  0.2721
16978SOL    HW162153   0.795   0.123   5.233 -0.5037 -0.4770 -1.5923
16978SOL    HW262154   0.919   0.049   5.157  1.4182  0.2111  0.7910
16979SOL     OW62155   3.139   9.229   3.948  0.1043 -0.4719  0.1711
16979SOL    HW162156   3.216   9.288   3.969  0.5770 -1.0697  0.1240
16979SOL    HW262157   3.061   9.285   3.919  0.4893  0.1346  0.3027
16980SOL     OW62158   1.116   9.457   2.868 -0.1383 -0.0602  0.1520
16980SOL    HW162159   1.047   9.520   2.833  1.4294  0.8887 -1.2622
16980SOL    HW262160   1.101   9.366   2.829  0.2559  0.4773 -1.2859
16981SOL     OW62161   2.142   9.544   1.364  0.2097  0.1857 -0.1356
16981SOL    HW162162   2.075   9.549   1.437  0.4015  0.3510  0.0290
16981SOL    HW262163   2.194   9.459   1.372 -0.2471 -0.1264 -0.4954
16982SOL     OW62164   7.541   4.196   4.916 -0.0499  0.5030 -0.5137
16982SOL    HW162165   7.466   4.228   4.974 -1.7098 -1.4612 -1.5110
16982SOL    HW262166   7.537   4.242   4.828 -0.7482 -0.3279 -0.9347
16983SOL     OW62167   3.382   2.886   3.609 -0.0428 -0.4921 -0.1240
16983SOL    HW162168   3.415   2.805   3.657  0.9973 -0.7669 -1.2577
16983SOL    HW262169   3.293   2.867   3.569 -0.7234 -0.3952  1.3292
16984SOL     OW62170   0.183   5.719   2.879 -0.1184 -0.2315 -0.0606
16984SOL    HW162171   0.275   5.693   2.909  0.0079  0.0929 -0.1648
16984SOL    HW262172   0.120   5.642   2.893  0.5890 -1.1583 -1.8525
16985SOL     OW62173   1.372   3.868   6.239  0.1560 -0.0432 -0.5486
16985SOL    HW162174   1.338   3.774   6.243 -1.1594  0.4441 -0.0603
16985SOL    HW262175   1.426   3.887   6.321 -0.3253 -0.1011 -0.2136
16986SOL     OW62176   3.811   4.138   4.483  0.2541  0.1095  0.2863
16986SOL    HW162177   3.862   4.125   4.569 -1.1558  0.4545  1.1907
16986SOL    HW262178   3.818   4.233   4.454  3.4661 -0.6926 -1.7672
16987SOL     OW62179   8.487   1.857   0.531 -0.4682 -0.7362  0.3019
16987SOL    HW162180   8.461   1.764   0.509 -0.3753 -1.0655  1.5471
16987SOL    HW262181   8.501   1.866   0.630  0.4676  0.3502  0.0902
16988SOL     OW62182   8.344   3.956   6.122 -0.5148  0.4935  0.0098
16988SOL    HW162183   8.343   3.859   6.149 -2.7450  0.7351  0.9568
16988SOL    HW262184   8.351   3.963   6.023  0.0757 -0.6375 -0.0361
16989SOL     OW62185   8.681   7.062   5.892 -0.1081 -0.2007 -0.1718
16989SOL    HW162186   8.763   7.113   5.916 -0.5266  0.6770 -0.5868
16989SOL    HW262187   8.676   6.979   5.948 -0.7393  1.4756  2.3285
16990SOL     OW62188   3.329   9.928   5.491 -0.3982  0.1922  0.5116
16990SOL    HW162189   3.235   9.963   5.491  0.1601  1.7437 -0.0436
16990SOL    HW262190   3.389   9.994   5.446  0.8736 -1.0398  0.3627
16991SOL     OW62191   1.652   0.304   5.375  0.6672  0.0225 -0.2473
16991SOL    HW162192   1.582   0.274   5.441 -0.1974  2.0355 -0.2137
16991SOL    HW262193   1.615   0.379   5.320  2.7671  1.0235 -0.3129
16992SOL     OW62194   6.841   4.895   5.471 -0.1046 -0.6300  0.0900
16992SOL    HW162195   6.809   4.802   5.488 -3.3442  0.6071  1.1443
16992SOL    HW262196   6.870   4.937   5.557  2.1532 -0.8978 -0.5030
16993SOL     OW62197   7.830   8.011   5.674  0.3051 -0.0213 -0.2605
16993SOL    HW162198   7.735   7.988   5.696  0.0487  0.6027 -0.7040
16993SOL    HW262199   7.856   7.968   5.588  0.4448 -0.2351 -0.1122
16994SOL     OW62200   8.693   0.517   5.175 -0.0345 -0.3323 -0.0350
16994SOL    HW162201   8.697   0.583   5.251  1.1946 -3.0115  2.3173
16994SOL    HW262202   8.785   0.506   5.136 -0.4210  0.0555 -1.0706
16995SOL     OW62203   5.795   0.051   3.770 -0.1234 -0.0050  0.5753
16995SOL    HW162204   5.806   0.104   3.686 -1.3821 -1.4489 -0.5246
16995SOL    HW262205   5.885   0.021   3.802  0.2745 -0.5857 -1.0274
16996SOL     OW62206   1.929   0.393   4.968  0.2129  0.0170  0.0919
16996SOL    HW162207   1.890   0.327   5.031 -0.4113  1.4184  1.2074
16996SOL    HW262208   1.856   0.437   4.915  0.5891  0.0858 -0.3818
16997SOL     OW62209   5.044   1.641   3.410 -0.0253 -0.1009  0.1845
16997SOL    HW162210   4.985   1.597   3.342 -0.2556 -2.7130  1.9917
16997SOL    HW262211   5.122   1.683   3.364 -1.0235 -0.3907 -1.8367
16998SOL     OW62212   4.687   0.923   4.220  0.8361  0.7091  0.6331
16998SOL    HW162213   4.587   0.920   4.214  0.7429  1.2505  1.8379
16998SOL    HW262214   4.722   0.996   4.161  0.7444 -1.3314 -2.0500
16999SOL     OW62215   6.128   9.749   1.176  0.8793  0.1752  0.5165
16999SOL    HW162216   6.093   9.773   1.267 -1.5823 -1.2354 -0.0234
16999SOL    HW262217   6.125   9.650   1.164  1.8627  0.2959 -0.8544
17000SOL     OW62218   9.107   8.764   4.230 -0.4301 -0.3214 -0.0359
17000SOL    HW162219   9.039   8.770   4.303  1.3474 -1.3484  1.7538
17000SOL    HW262220   9.166   8.684   4.246  1.6455  0.9348 -1.1465
17001SOL     OW62221   4.768   3.693   2.818 -0.1442 -0.0383 -0.7694
17001SOL    HW162222   4.860   3.709   2.782  0.8005  0.9667  1.9688
17001SOL    HW262223   4.770   3.616   2.882 -0.7571  1.2423  0.8220
17002SOL     OW62224   2.251   6.687   3.563  0.1789  0.4153  0.2171
17002SOL    HW162225   2.340   6.721   3.594  0.8314  1.2183 -2.4587
17002SOL    HW262226   2.260   6.592   3.533 -0.1884  0.0345  1.2971
17003SOL     OW62227   4.346   1.181   0.793 -0.3557 -0.0665  0.2357
17003SOL    HW162228   4.299   1.180   0.881  0.8481  0.9152  0.9005
17003SOL    HW262229   4.404   1.262   0.787 -0.5354 -0.0580 -1.5218
17004SOL     OW62230   9.154   0.543   4.805 -0.6304 -0.7636 -0.2702
17004SOL    HW162231   9.236   0.580   4.848 -0.9670  1.3331 -1.3327
17004SOL    HW262232   9.162   0.444   4.796  1.0553 -0.7787  1.1373
17005SOL     OW62233   9.502   3.209   6.211  0.3159  0.1729  0.2111
17005SOL    HW162234   9.598   3.207   6.184  0.0906 -0.9931 -0.5600
17005SOL    HW262235   9.465   3.116   6.211 -0.9224  0.6423  0.1200
17006SOL     OW62236   1.123   2.908   5.793  0.0529 -0.3078  0.4154
17006SOL    HW162237   1.129   2.920   5.694 -0.8835  0.9606  0.5016
17006SOL    HW262238   1.076   2.822   5.814  2.1796 -1.6743 -0.2211
17007SOL     OW62239   3.432   9.397   0.807 -0.0373 -0.7937 -0.7024
17007SOL    HW162240   3.461   9.324   0.870  0.0405 -0.7673 -0.7078
17007SOL    HW262241   3.336   9.384   0.783 -0.9193  0.8011  1.7036
17008SOL     OW62242   7.850   2.459   5.064 -0.2772 -0.4705 -0.1062
17008SOL    HW162243   7.826   2.408   4.981  1.2374 -1.5555  0.1114
17008SOL    HW262244   7.816   2.410   5.144  0.3782 -0.6896  0.0453
17009SOL     OW62245   2.195   2.127   5.714  0.1411 -0.3144  0.9535
17009SOL    HW162246   2.256   2.109   5.791  0.7759 -0.6446  0.3774
17009SOL    HW262247   2.237   2.093   5.630 -0.1448  0.8254  0.3350
17010SOL     OW62248   3.327   5.508   6.209 -0.3315 -0.0918 -0.4616
17010SOL    HW162249   3.393   5.454   6.158  0.1014 -0.3380  0.3534
17010SOL    HW262250   3.272   5.562   6.145  0.1464 -0.4539 -1.1891
17011SOL     OW62251   2.501   1.853   5.636  0.2440  0.2454  0.2392
17011SOL    HW162252   2.581   1.794   5.622 -0.0984  0.0729 -1.0998
17011SOL    HW262253   2.531   1.947   5.652  0.7396  0.0101  0.7123
17012SOL     OW62254   0.940   9.282   5.395  0.4335  0.1811  0.0130
17012SOL    HW162255   0.949   9.205   5.458 -0.1590  0.4693  0.4505
17012SOL    HW262256   0.847   9.318   5.399 -0.0366 -0.7185 -2.1014
17013SOL     OW62257   1.838   7.066   4.036  0.0554  0.4879 -0.6025
17013SOL    HW162258   1.757   7.116   4.067  0.0930 -1.3073  2.6829
17013SOL    HW262259   1.912   7.081   4.102  1.3751 -0.4884 -1.8507
17014SOL     OW62260   9.988   9.390   5.111 -0.4056 -0.1765 -0.3617
17014SOL    HW162261   9.930   9.401   5.029  0.0210  0.1923 -0.6145
17014SOL    HW262262   9.993   9.293   5.134  0.3532 -0.4027 -1.4224
17015SOL     OW62263   6.519   1.828   2.011 -0.5021 -0.7514 -0.2722
17015SOL    HW162264   6.574   1.756   1.967  0.9085 -0.9351  1.7236
17015SOL    HW262265   6.499   1.801   2.105 -0.5495  1.1718  0.2828
17016SOL     OW62266   2.265   7.799   5.089 -0.2782  0.0462  0.4199
17016SOL    HW162267   2.193   7.847   5.138 -1.7252 -0.3487 -1.2442
17016SOL    HW262268   2.245   7.801   4.991  1.2109 -1.3436  0.0655
17017SOL     OW62269   3.622   2.700   6.611  0.1337  0.0468  0.1883
17017SOL    HW162270   3.666   2.743   6.533 -0.7842  0.5232 -0.0706
17017SOL    HW262271   3.690   2.646   6.662  0.6233 -0.6982 -1.2223
17018SOL     OW62272   0.638   8.975   0.816  0.0374  0.1404 -0.1047
17018SOL    HW162273   0.542   8.951   0.833  0.9536 -2.2721  2.0377
17018SOL    HW262274   0.665   8.943   0.726 -0.4543 -1.5836  0.3416
17019SOL     OW62275   2.669   2.889   2.358 -0.6389  0.4962  0.0957
17019SOL    HW162276   2.637   2.889   2.264 -0.6881  0.0456  0.1063
17019SOL    HW262277   2.631   2.967   2.407 -2.2843 -0.3813  0.2798
17020SOL     OW62278   7.450   1.109   6.429 -0.1905 -0.0017 -0.1682
17020SOL    HW162279   7.525   1.044   6.417  0.5031  0.5547  1.0917
17020SOL    HW262280   7.381   1.094   6.357  0.1253 -1.8940 -0.1053
17021SOL     OW62281   5.091   7.927   2.057 -0.6625  0.2023 -0.1147
17021SOL    HW162282   5.041   8.013   2.046 -0.8215  0.2052  0.5722
17021SOL    HW262283   5.186   7.947   2.080 -1.0227  0.2076  1.4321
17022SOL     OW62284   0.238   4.234   1.419 -0.3008 -0.9091  0.2810
17022SOL    HW162285   0.240   4.151   1.364  2.0997  0.0302 -1.1401
17022SOL    HW262286   0.269   4.213   1.512  0.3527 -1.5967 -0.0880
17023SOL     OW62287   0.637   9.750   0.910 -0.7282  0.5369 -0.2789
17023SOL    HW162288   0.651   9.781   0.816  1.8089  1.5792  0.3931
17023SOL    HW262289   0.650   9.651   0.916 -0.2889  0.5552 -0.9189
17024SOL     OW62290   4.289   4.109   6.376  0.1099  0.1922  0.4989
17024SOL    HW162291   4.386   4.083   6.377 -0.7709 -3.3076  0.8271
17024SOL    HW262292   4.248   4.081   6.289 -0.3434  2.8872 -0.2008
17025SOL     OW62293   3.667   9.121   4.230  0.2787 -0.1257  0.1148
17025SOL    HW162294   3.728   9.074   4.166  0.7287  0.0508  0.4118
17025SOL    HW262295   3.682   9.085   4.322  0.5767  0.5529  0.3348
17026SOL     OW62296   6.547   6.549   5.696 -0.5700  0.3476 -0.1888
17026SOL    HW162297   6.545   6.635   5.646 -0.0202 -0.0924 -0.9881
17026SOL    HW262298   6.618   6.490   5.658  2.5959  1.5100  3.6669
17027SOL     OW62299   8.511   2.152   2.946  0.6015  0.4694 -0.6797
17027SOL    HW162300   8.444   2.181   2.877 -0.7437  3.3724  1.7541
17027SOL    HW262301   8.466   2.096   3.015  1.0701  0.9350  0.0106
17028SOL     OW62302   8.042   1.282   5.970  0.4374  0.2270  0.1036
17028SOL    HW162303   8.069   1.343   5.895  0.4727 -0.8390 -0.7725
17028SOL    HW262304   8.023   1.191   5.933  3.0988 -1.0533  1.7413
17029SOL     OW62305   7.255   7.997   4.952  0.1105 -0.8563 -0.7925
17029SOL    HW162306   7.334   8.039   4.907 -0.4957 -1.1778 -2.1703
17029SOL    HW262307   7.177   8.060   4.947  0.3178 -0.4512  0.7459
17030SOL     OW62308   8.634   8.093   4.111  0.2351  0.6079 -0.0532
17030SOL    HW162309   8.562   8.035   4.072  1.5262 -0.9756 -0.1853
17030SOL    HW262310   8.720   8.074   4.063  0.8693  1.9895  0.5332
17031SOL     OW62311   9.039   0.048   6.745  0.2788  0.1983  0.1422
17031SOL    HW162312   9.022  -0.001   6.831  0.0773  1.9845  1.1717
17031SOL    HW262313   8.963   0.032   6.682 -0.0448 -0.3867  0.6712
17032SOL     OW62314   6.954   4.578   5.160 -0.1938  0.7914  0.0067
17032SOL    HW162315   7.043   4.557   5.120  0.5565  1.2586  1.3946
17032SOL    HW262316   6.938   4.677   5.159  1.2732  1.1594  3.7144
17033SOL     OW62317   4.043   3.131   5.015  0.0994  0.1882 -0.2591
17033SOL    HW162318   4.060   3.067   4.940 -0.1124  0.2806 -0.3853
17033SOL    HW262319   3.958   3.181   4.998  1.3420  2.0196 -1.1929
17034SOL     OW62320   1.077   7.290   1.986  0.2716  0.1026 -0.3027
17034SOL    HW162321   1.105   7.369   2.040 -1.0954  1.2398 -1.2335
17034SOL    HW262322   1.130   7.287   1.901 -1.9358  1.9399 -1.8056
17035SOL     OW62323   9.404   7.129   2.572  0.2498  0.8087  0.1626
17035SOL    HW162324   9.422   7.103   2.477 -1.4031 -1.0244  0.3228
17035SOL    HW262325   9.424   7.227   2.584  1.3524  0.8553 -1.8285
17036SOL     OW62326   8.067   2.137   4.976  0.3438  0.0543  0.2242
17036SOL    HW162327   8.099   2.230   4.995  0.8239  0.2236 -1.4079
17036SOL    HW262328   8.058   2.087   5.063 -2.3013  2.3781  1.3489
17037SOL     OW62329   8.449   2.390   3.859  0.2659 -0.3537 -0.1742
17037SOL    HW162330   8.539   2.424   3.829 -0.4570  1.2356 -0.5650
17037SOL    HW262331   8.406   2.339   3.785 -0.0680  0.6961 -0.6995
17038SOL     OW62332   8.857   9.734   4.150 -0.0992 -0.0577  0.1990
17038SOL    HW162333   8.872   9.646   4.195 -2.5334 -0.9400 -0.6066
17038SOL    HW262334   8.900   9.734   4.060 -0.5899 -0.6471 -0.0360
17039SOL     OW62335   4.720   1.918   2.028 -0.0303  0.6175 -0.2048
17039SOL    HW162336   4.718   1.890   1.932 -0.9901  0.2391 -0.0848
17039SOL    HW262337   4.669   2.004   2.039  0.3696  0.8409 -0.0874
17040SOL     OW62338   1.038   8.137   4.847  0.9730 -0.2150 -0.1529
17040SOL    HW162339   1.066   8.051   4.805 -0.5004 -1.9873  2.3535
17040SOL    HW262340   0.981   8.188   4.783 -0.8436 -2.6398 -0.5754
17041SOL     OW62341   7.929   4.270   1.050 -0.2814  0.0367  0.2160
17041SOL    HW162342   8.027   4.252   1.043  0.0429  2.1037 -0.8612
17041SOL    HW262343   7.897   4.244   1.141  1.3501 -0.2751  0.7191
17042SOL     OW62344   8.997   8.960   0.922 -0.0565 -0.3877 -0.5465
17042SOL    HW162345   9.065   8.931   0.855 -0.1692  0.0932 -0.8667
17042SOL    HW262346   8.987   8.889   0.992  1.7586  0.1306  0.2598
17043SOL     OW62347   1.572   5.161   2.012 -0.3230  0.2089 -0.1800
17043SOL    HW162348   1.601   5.068   1.992 -1.0337  0.1479 -0.9908
17043SOL    HW262349   1.477   5.173   1.982 -1.0882  0.4508  2.2435
17044SOL     OW62350   8.124   9.284   6.084  0.6216 -0.2147 -0.1936
17044SOL    HW162351   8.060   9.361   6.097  0.2471 -0.4696 -0.5150
17044SOL    HW262352   8.179   9.301   6.003  1.7476  0.5403  0.7189
17045SOL     OW62353   2.146   7.277   3.269  0.3122  0.3633 -0.2481
17045SOL    HW162354   2.051   7.303   3.257 -0.0115 -0.2918  0.8854
17045SOL    HW262355   2.153   7.177   3.271  1.2186  0.3686 -1.8941
17046SOL     OW62356   2.470   4.953   2.114 -0.4886  0.3778  0.1224
17046SOL    HW162357   2.480   4.943   2.213  1.5120  2.1391  0.1221
17046SOL    HW262358   2.395   5.015   2.093 -0.6832  0.2800  0.5472
17047SOL     OW62359   8.859   7.076   0.875 -0.2938  0.1002 -0.1359
17047SOL    HW162360   8.947   7.076   0.922 -0.2566 -0.3555 -0.2061
17047SOL    HW262361   8.807   6.994   0.901 -1.1225  0.8785  0.7117
17048SOL     OW62362   7.076   1.338   5.171  0.3016  0.2185 -0.0337
17048SOL    HW162363   7.094   1.384   5.258 -1.7503  1.3245 -0.1590
17048SOL    HW262364   7.089   1.402   5.096 -2.6677  0.6992 -0.2059
17049SOL     OW62365   7.924   8.931   3.629 -0.5600 -0.5193 -0.3611
17049SOL    HW162366   7.874   8.913   3.545 -0.6818  0.9396 -0.6105
17049SOL    HW262367   7.990   9.005   3.614 -2.3765  1.5680  1.4771
17050SOL     OW62368   7.048   2.539   5.429 -0.0263  0.3620 -0.4443
17050SOL    HW162369   7.013   2.618   5.380 -0.5038  0.6039  0.2843
17050SOL    HW262370   7.135   2.510   5.388 -0.9960 -0.1777 -2.1925
17051SOL     OW62371   4.462   3.283   2.169 -0.5182  0.0516  0.3998
17051SOL    HW162372   4.550   3.327   2.151 -0.5320 -0.1766 -0.2395
17051SOL    HW262373   4.469   3.185   2.149 -0.5322 -0.2191  1.6662
17052SOL     OW62374   1.089   8.981   6.751  0.0227 -0.1923  0.2876
17052SOL    HW162375   1.025   9.030   6.810  2.9576  3.1262  0.8922
17052SOL    HW262376   1.126   8.903   6.801 -1.2248 -0.3319  1.0357
17053SOL     OW62377   5.401   8.355   4.197  0.2579  0.1791  0.3297
17053SOL    HW162378   5.436   8.435   4.244  2.7219 -0.7050  0.0671
17053SOL    HW262379   5.417   8.273   4.252 -1.6809 -0.2275  0.3278
17054SOL     OW62380   3.843   2.319   0.935  0.1014  0.7023  0.1805
17054SOL    HW162381   3.813   2.325   0.840 -0.5909  1.8173  0.4673
17054SOL    HW262382   3.943   2.312   0.938  0.0253 -0.9711 -0.6906
17055SOL     OW62383   9.482   6.066   5.646 -0.3840 -0.9903 -0.2229
17055SOL    HW162384   9.559   6.013   5.610 -0.0935 -1.0927  0.5453
17055SOL    HW262385   9.444   6.123   5.573 -0.3955 -1.8944 -0.9346
17056SOL     OW62386   2.863   9.053   1.680 -0.3508 -0.0828  0.0931
17056SOL    HW162387   2.825   9.145   1.687 -1.0303 -0.3649  0.2230
17056SOL    HW262388   2.796   8.987   1.717  0.0838 -0.6322 -0.0962
17057SOL     OW62389   8.655   8.130   0.863 -0.0163  0.6843 -0.2511
17057SOL    HW162390   8.717   8.141   0.786 -0.4427 -2.5266 -1.1227
17057SOL    HW262391   8.612   8.039   0.859 -1.2555  1.0645  2.8688
17058SOL     OW62392   7.102   9.081   3.319  0.5019  0.8503  0.1355
17058SOL    HW162393   7.139   8.995   3.285 -0.1431  0.3078  0.7966
17058SOL    HW262394   7.093   9.145   3.243  0.0585 -0.0022 -0.5443
17059SOL     OW62395   7.526   3.946   6.293  0.2676  0.4007 -0.4653
17059SOL    HW162396   7.619   3.909   6.291  0.8270  1.7561  0.0530
17059SOL    HW262397   7.500   3.978   6.202  0.2073 -0.2196 -0.6678
17060SOL     OW62398   8.913   8.292   6.313 -0.0396  0.5144 -0.1185
17060SOL    HW162399   8.946   8.290   6.408 -0.6305  0.1177  0.0777
17060SOL    HW262400   8.859   8.211   6.294  1.9456 -0.5209 -1.4939
17061SOL     OW62401   2.946   2.936   3.296 -0.5362 -0.0866 -1.0443
17061SOL    HW162402   2.994   3.020   3.270  0.8155 -0.6911 -0.5153
17061SOL    HW262403   2.866   2.959   3.351  0.1849  0.8207 -0.3721
17062SOL     OW62404   0.906   7.381   3.299 -0.3514 -1.1735  0.3290
17062SOL    HW162405   0.820   7.362   3.347 -1.1402  0.3392 -0.4792
17062SOL    HW262406   0.914   7.321   3.219 -1.1353 -0.6200 -0.1661
17063SOL     OW62407   4.472   2.391   2.052 -0.1002  0.6842 -0.3801
17063SOL    HW162408   4.465   2.434   2.142  0.0697 -1.5381  0.7418
17063SOL    HW262409   4.382   2.392   2.008 -0.7360 -0.3283  0.8551
17064SOL     OW62410   8.682   4.463   1.301 -0.1347 -0.4946 -0.3947
17064SOL    HW162411   8.663   4.380   1.354  1.0253 -0.7119 -0.2969
17064SOL    HW262412   8.605   4.526   1.310 -0.4222 -0.9746  0.6948
17065SOL     OW62413   8.885   3.808   1.064 -0.4312  0.3160  0.1055
17065SOL    HW162414   8.804   3.804   1.006 -0.6122  1.8068  0.2364
17065SOL    HW262415   8.964   3.841   1.011 -0.2295  0.1588  0.3057
17066SOL     OW62416   3.936   5.247   2.142 -0.0390  0.4748  0.0360
17066SOL    HW162417   3.847   5.248   2.097 -0.5971  0.8210  1.1456
17066SOL    HW262418   4.001   5.301   2.088 -0.2814 -0.4359 -1.1891
17067SOL     OW62419   2.238   2.351   3.350 -0.1766 -0.1220 -0.3803
17067SOL    HW162420   2.187   2.429   3.313  0.6932  0.1307 -1.0613
17067SOL    HW262421   2.226   2.272   3.289  0.9913  0.2014 -1.0413
17068SOL     OW62422   5.578   8.174   3.275  0.7590 -0.4757 -0.0305
17068SOL    HW162423   5.666   8.203   3.237  0.0512  0.6212 -0.8751
17068SOL    HW262424   5.539   8.249   3.329  1.0642 -1.5098  1.6738
17069SOL     OW62425   9.079   0.393   2.949  0.6198 -0.1006  0.1764
17069SOL    HW162426   9.127   0.324   3.003  0.3913 -0.6551 -0.3203
17069SOL    HW262427   9.139   0.471   2.933  1.0165 -0.3573  0.4060
17070SOL     OW62428   3.195   0.499   1.444  0.5739  0.5734 -0.1424
17070SOL    HW162429   3.195   0.465   1.350 -0.2588 -0.8547  0.3773
17070SOL    HW262430   3.114   0.555   1.459 -0.4601 -1.0361  0.3800
17071SOL     OW62431   4.358   0.717   2.186  0.3963 -0.5101 -0.0360
17071SOL    HW162432   4.273   0.681   2.224 -0.3296  0.7824 -0.3769
17071SOL    HW262433   4.386   0.798   2.238  1.1193 -0.6087 -0.2654
17072SOL     OW62434   2.176   6.906   4.271 -0.1896  0.2315 -0.7417
17072SOL    HW162435   2.114   6.828   4.263 -0.9549  1.0458 -3.4804
17072SOL    HW262436   2.122   6.990   4.277  0.6537  0.7349 -0.0580
17073SOL     OW62437   9.759   6.876   5.590 -0.5124  0.4947 -0.1761
17073SOL    HW162438   9.849   6.855   5.628  0.1821 -0.8328 -2.5106
17073SOL    HW262439   9.695   6.896   5.665  1.2793 -0.2399  1.5763
17074SOL     OW62440   4.078   3.570   2.596  0.4512 -0.8041  0.5385
17074SOL    HW162441   4.160   3.514   2.583 -0.1545 -1.4733 -0.4394
17074SOL    HW262442   3.998   3.511   2.605  0.0154 -0.1396  1.0541
17075SOL     OW62443   9.647   0.941   6.167  0.4854  0.4307  0.0286
17075SOL    HW162444   9.734   0.894   6.177 -0.1554 -0.8442 -0.2799
17075SOL    HW262445   9.637   1.008   6.241 -0.2871 -2.6711  2.8884
17076SOL     OW62446   0.081   0.998   5.896  0.2986 -0.1145  0.0472
17076SOL    HW162447  -0.014   1.020   5.875  0.5772  1.2307  0.1962
17076SOL    HW262448   0.090   0.898   5.904 -0.7084 -0.3740 -1.7888
17077SOL     OW62449   9.321   3.521   0.283  0.5187 -0.2308  0.0206
17077SOL    HW162450   9.329   3.598   0.346  0.7512 -1.1819  1.1673
17077SOL    HW262451   9.407   3.469   0.282 -0.4779 -1.9410  1.1823
17078SOL     OW62452   1.951   7.238   1.725 -0.1171 -0.3673  0.5961
17078SOL    HW162453   1.886   7.308   1.754 -0.5241 -0.8964  0.9669
17078SOL    HW262454   2.044   7.268   1.748 -0.4522 -0.9704  2.9089
17079SOL     OW62455   8.295   4.637   0.781 -0.2787  0.3621  0.3817
17079SOL    HW162456   8.342   4.549   0.768 -2.4409 -0.9426  1.0512
17079SOL    HW262457   8.311   4.695   0.701  0.0937 -1.1731 -0.6956
17080SOL     OW62458   6.867   0.532   2.858  0.8347 -0.6064 -0.0361
17080SOL    HW162459   6.913   0.449   2.828  0.0387 -0.8062 -0.7110
17080SOL    HW262460   6.795   0.509   2.922 -0.2449 -0.5674 -1.2160
17081SOL     OW62461   1.571   7.266   4.828 -0.4057 -0.3282  0.0725
17081SOL    HW162462   1.556   7.178   4.783 -0.2503 -0.8596  1.0395
17081SOL    HW262463   1.540   7.261   4.923 -1.6811  1.0896 -0.2412
17082SOL     OW62464   3.389   2.673   1.248 -0.4673  0.1540  0.1967
17082SOL    HW162465   3.311   2.621   1.212 -0.6570 -0.6939  1.7878
17082SOL    HW262466   3.365   2.770   1.250 -0.0452  0.3877 -2.9723
17083SOL     OW62467   9.055   4.128   5.932 -0.4063 -0.0871 -0.0181
17083SOL    HW162468   8.995   4.208   5.921  0.4343  0.4616 -0.7212
17083SOL    HW262469   9.116   4.143   6.009 -0.5426 -0.2355  0.1178
17084SOL     OW62470   8.217   0.874   3.841  0.1358  0.0493 -0.4556
17084SOL    HW162471   8.154   0.894   3.917 -0.4754 -0.8651 -0.7151
17084SOL    HW262472   8.174   0.901   3.755  0.6366  0.6397 -0.5225
17085SOL     OW62473   5.988   7.229   4.517  0.2074  0.4889  0.3796
17085SOL    HW162474   5.921   7.189   4.454 -0.0663 -0.8351  1.4998
17085SOL    HW262475   6.057   7.277   4.464  0.6985 -1.6820 -1.0371
17086SOL     OW62476   9.909   1.781   5.022  0.3460  0.0770 -0.4223
17086SOL    HW162477   9.873   1.817   4.935  0.7005  1.4674 -0.0118
17086SOL    HW262478  10.009   1.781   5.018  0.3404 -2.4746 -1.0430
17087SOL     OW62479   4.863   9.480   3.109 -0.0914  0.0973  0.2569
17087SOL    HW162480   4.919   9.549   3.063 -0.2624 -0.3140 -0.5660
17087SOL    HW262481   4.772   9.518   3.126 -0.7258 -0.5098 -1.7357
17088SOL     OW62482   6.945   1.303   1.506 -0.1504  0.4912  0.1213
17088SOL    HW162483   6.924   1.224   1.564  2.1091 -0.0763  0.2215
17088SOL    HW262484   6.984   1.271   1.420 -1.3494  1.4316 -0.7836
17089SOL     OW62485   7.352   1.670   3.148 -0.8123 -0.3543 -0.0478
17089SOL    HW162486   7.270   1.708   3.190  0.4521  0.7386  1.4992
17089SOL    HW262487   7.393   1.737   3.086  1.1965  0.7253  2.3775
17090SOL     OW62488   3.536   1.091   1.396 -0.0623  0.4309 -0.1184
17090SOL    HW162489   3.574   1.167   1.343  1.6392  0.6131  1.3456
17090SOL    HW262490   3.578   1.088   1.486 -2.3483 -0.3739  0.9768
17091SOL     OW62491   3.520   1.261   5.052  0.4524  0.1322 -0.4090
17091SOL    HW162492   3.562   1.187   4.999 -0.9173 -0.4192 -0.7495
17091SOL    HW262493   3.422   1.264   5.033  0.4077  1.6785  0.0471
17092SOL     OW62494   9.487   6.481   2.419 -0.5198 -0.4718  0.5544
17092SOL    HW162495   9.408   6.424   2.440  0.1413 -1.0518  1.5186
17092SOL    HW262496   9.557   6.426   2.374 -0.5264 -0.0309 -0.0101
17093SOL     OW62497   8.783   5.541   3.697 -0.1097  0.4423  0.0416
17093SOL    HW162498   8.683   5.545   3.700 -0.0164  3.7031  0.5756
17093SOL    HW262499   8.818   5.624   3.654  2.3837 -0.7374 -0.2666
17094SOL     OW62500   9.813   5.756   0.363  0.4578  0.1771  0.5273
17094SOL    HW162501   9.855   5.775   0.452 -0.3198 -0.1648  0.9745
17094SOL    HW262502   9.792   5.843   0.317 -0.8953  0.4019  1.5231
17095SOL     OW62503   1.824   2.760   0.390 -0.5550  0.1427 -0.4658
17095SOL    HW162504   1.875   2.845   0.405 -0.6127 -0.3185  2.8344
17095SOL    HW262505   1.831   2.732   0.294  3.1218  1.5491 -0.6670
17096SOL     OW62506   8.133   0.598   1.863 -0.0586 -0.0450  0.5529
17096SOL    HW162507   8.154   0.694   1.844  0.1493 -0.0556  0.7148
17096SOL    HW262508   8.219   0.548   1.877 -0.0905 -0.5810 -1.0659
17097SOL     OW62509   0.840   4.465   4.202  0.0881  0.6459 -0.1338
17097SOL    HW162510   0.760   4.524   4.191 -0.4237 -0.0537 -0.2230
17097SOL    HW262511   0.817   4.372   4.173  0.7665  0.3115  0.3806
17098SOL     OW62512   6.171   1.007   0.511 -0.6504 -0.5148  0.3785
17098SOL    HW162513   6.158   1.037   0.417  1.2142  0.7167  0.5084
17098SOL    HW262514   6.160   0.907   0.515 -1.5675 -0.4906 -0.9723
17099SOL     OW62515   7.206   4.480   1.025  0.1957 -0.0899 -0.1404
17099SOL    HW162516   7.280   4.515   0.968  0.5263 -1.6669 -0.6945
17099SOL    HW262517   7.245   4.431   1.103 -0.2644  0.6570  0.5654
17100SOL     OW62518   3.669   4.057   5.795  0.1211  0.1598  0.4775
17100SOL    HW162519   3.636   4.012   5.877 -0.1918  0.6780  0.6401
17100SOL    HW262520   3.760   4.022   5.771 -0.4662 -1.1364  0.1365
17101SOL     OW62521   1.908   8.755   2.815 -0.2814 -0.1457  0.5074
17101SOL    HW162522   1.883   8.792   2.905 -0.5115 -0.6011  0.6296
17101SOL    HW262523   1.867   8.813   2.744 -1.9524 -1.0386  0.7065
17102SOL     OW62524   6.561   1.713   3.426  0.0677  0.3417 -0.2861
17102SOL    HW162525   6.631   1.680   3.489  0.2086 -0.0709 -0.6534
17102SOL    HW262526   6.473   1.670   3.448  0.0526  0.4210 -0.1895
17103SOL     OW62527   4.336   1.443   1.127  0.2389 -0.1377 -0.0186
17103SOL    HW162528   4.373   1.411   1.214 -1.7630  0.1017  0.9602
17103SOL    HW262529   4.313   1.540   1.134 -1.2984 -0.4571 -0.2985
17104SOL     OW62530   3.056   4.783   2.306 -0.1884  0.1670 -0.3944
17104SOL    HW162531   2.961   4.794   2.277 -0.5909  1.3397  1.2558
17104SOL    HW262532   3.061   4.790   2.406  1.4746 -1.1374 -0.3575
17105SOL     OW62533   9.736   5.079   3.540 -0.2544  0.4855 -0.1206
17105SOL    HW162534   9.689   5.167   3.536 -0.5210  0.3232 -0.5363
17105SOL    HW262535   9.674   5.006   3.511 -0.7826 -0.1521  2.4703
17106SOL     OW62536   3.939   9.305   4.015 -0.1803  0.6837 -0.1378
17106SOL    HW162537   3.927   9.350   4.104 -1.5684 -0.0246  0.0425
17106SOL    HW262538   3.899   9.214   4.018  0.0473  0.5391 -1.3970
17107SOL     OW62539   0.226   0.284   2.768  0.1079  0.7666  0.0391
17107SOL    HW162540   0.320   0.299   2.737  0.4286 -0.5320  0.3684
17107SOL    HW262541   0.215   0.323   2.860  0.2902  1.0012 -0.0373
17108SOL     OW62542   8.815   0.469   5.944  0.0373 -0.7715  0.1447
17108SOL    HW162543   8.736   0.427   5.900 -1.2742 -0.3625  2.0448
17108SOL    HW262544   8.785   0.542   6.004  1.9211 -0.2161  0.4585
17109SOL     OW62545   0.694   2.198   6.477 -0.4184 -0.1504 -0.2021
17109SOL    HW162546   0.595   2.204   6.485 -0.7044 -2.5861 -1.1963
17109SOL    HW262547   0.736   2.286   6.498 -2.7759  0.8413  0.4209
17110SOL     OW62548   3.318   5.100   2.010  0.6744 -0.7824  0.0494
17110SOL    HW162549   3.251   5.175   2.016  0.7863 -0.5957 -1.0180
17110SOL    HW262550   3.274   5.015   2.038  0.1698 -0.5477 -0.0058
17111SOL     OW62551   4.229   8.796   1.709  0.3629 -0.3181  0.1803
17111SOL    HW162552   4.189   8.729   1.771 -0.8374  0.7325  0.5470
17111SOL    HW262553   4.215   8.888   1.745  1.3781  0.1847 -0.6738
17112SOL     OW62554   1.813   4.889   1.514 -0.0271 -0.0612  0.2657
17112SOL    HW162555   1.839   4.848   1.427 -1.0829  0.3401 -0.2395
17112SOL    HW262556   1.867   4.971   1.531 -0.9904  0.8157 -0.8206
17113SOL     OW62557   8.385   2.239   4.260 -0.4060 -0.5954  0.0381
17113SOL    HW162558   8.470   2.220   4.309 -0.5852 -1.8331 -0.1034
17113SOL    HW262559   8.350   2.154   4.221  0.5169  0.5620 -3.5279
17114SOL     OW62560   0.586   3.615   1.277 -0.0988 -0.5117  0.6613
17114SOL    HW162561   0.685   3.607   1.287 -0.0585 -1.4966 -0.3872
17114SOL    HW262562   0.565   3.661   1.190 -0.5685 -1.5224  0.2309
17115SOL     OW62563   6.004   5.192   1.250 -0.2801  0.3076  0.2372
17115SOL    HW162564   6.058   5.262   1.203  2.5587 -0.4843  2.2389
17115SOL    HW262565   5.987   5.115   1.187 -1.1926  1.6199 -1.1467
17116SOL     OW62566   3.724   0.896   3.043  0.3133 -0.1786 -0.4221
17116SOL    HW162567   3.646   0.921   3.100 -0.1765 -0.5592 -0.9106
17116SOL    HW262568   3.809   0.921   3.089 -0.1294  1.4905 -0.4864
17117SOL     OW62569   5.550   0.042   3.456 -0.1476  0.0058  0.5218
17117SOL    HW162570   5.577   0.113   3.391 -1.9438 -0.0710 -0.3225
17117SOL    HW262571   5.545   0.081   3.548 -2.1986  1.2667 -0.0988
17118SOL     OW62572   1.686   0.586   2.755  0.6221 -0.3000 -0.1733
17118SOL    HW162573   1.717   0.677   2.782  0.8613 -0.7641  1.1699
17118SOL    HW262574   1.766   0.526   2.742  0.4658 -0.3353 -1.0016
17119SOL     OW62575   2.907   6.654   0.784 -0.1998  0.1326  0.5150
17119SOL    HW162576   2.964   6.700   0.715 -1.0384 -0.7545 -0.7938
17119SOL    HW262577   2.891   6.716   0.861  2.6847  0.3558  1.0075
17120SOL     OW62578   6.943   4.587   0.645 -0.0453  0.5532  0.0619
17120SOL    HW162579   6.889   4.669   0.661  0.6920  1.0813 -0.1123
17120SOL    HW262580   6.950   4.534   0.730 -0.9788  0.3903  0.0360
17121SOL     OW62581   2.583   9.055   3.708  0.0009 -0.2137  0.1733
17121SOL    HW162582   2.510   9.097   3.654 -0.4245 -0.9457  0.1718
17121SOL    HW262583   2.593   9.105   3.794 -0.8087 -0.3806  0.3711
17122SOL     OW62584   3.221   3.166   2.608  0.0491  0.3712 -0.1638
17122SOL    HW162585   3.123   3.147   2.612  0.0721  0.1778 -0.5155
17122SOL    HW262586   3.247   3.185   2.513  0.4097  0.1227 -0.1126
17123SOL     OW62587   1.823   1.057   0.081 -0.0980  0.2462  0.0015
17123SOL    HW162588   1.830   1.107  -0.005  0.7202  0.1632  0.0130
17123SOL    HW262589   1.800   1.120   0.155  2.5872  0.9496  0.3156
17124SOL     OW62590   2.245   6.932   3.932  0.1186 -0.4793 -0.4241
17124SOL    HW162591   2.236   6.844   3.979  0.5412  0.2795  1.1246
17124SOL    HW262592   2.166   6.947   3.873 -2.5411  0.3257  3.1301
17125SOL     OW62593   9.054   1.544   4.422 -0.2790 -0.2012  0.1730
17125SOL    HW162594   9.152   1.565   4.431 -0.2279 -0.3380 -0.0952
17125SOL    HW262595   9.004   1.595   4.492  0.0214 -0.4103  0.5461
17126SOL     OW62596   2.302   2.160   2.210  0.2680  0.1563  0.4156
17126SOL    HW162597   2.320   2.181   2.306  1.2544 -0.6617  0.4085
17126SOL    HW262598   2.259   2.070   2.203 -2.7011  1.5173  0.3330
17127SOL     OW62599   3.491   0.993   0.736 -0.0357  0.1382 -0.2768
17127SOL    HW162600   3.450   0.903   0.752 -1.1110  0.3624 -1.6141
17127SOL    HW262601   3.457   1.057   0.805 -0.6492 -0.0775 -0.3678
17128SOL     OW62602   1.233   3.264   1.189  0.3111  0.2243 -0.0950
17128SOL    HW162603   1.217   3.244   1.285 -0.3752 -1.1583 -0.4893
17128SOL    HW262604   1.260   3.180   1.141 -0.5599  0.6520 -1.3501
17129SOL     OW62605   6.629   1.304   0.866 -0.1229 -0.1736 -0.1986
17129SOL    HW162606   6.566   1.227   0.878  0.8989 -0.7551  1.7289
17129SOL    HW262607   6.613   1.372   0.938  0.7439  0.1704 -0.3212
17130SOL     OW62608   6.813   0.012   2.321 -0.1753  0.3411  0.4214
17130SOL    HW162609   6.795   0.110   2.313 -1.4513  0.1171  0.3515
17130SOL    HW262610   6.781  -0.034   2.238  0.3184 -0.1481  0.4991
17131SOL     OW62611   7.010   1.096   3.118  0.2795  0.4069 -0.7010
17131SOL    HW162612   7.074   1.168   3.146  1.8152 -1.1518 -0.1091
17131SOL    HW262613   6.960   1.063   3.198  1.0179 -0.5519 -0.6280
17132SOL     OW62614   3.647   2.302   3.163  0.8671 -0.2298 -0.4680
17132SOL    HW162615   3.584   2.224   3.156 -0.0308  0.2565  1.7167
17132SOL    HW262616   3.679   2.309   3.257  1.9169  1.2998 -0.9432
17133SOL     OW62617   3.589   8.850   1.154  0.3272  0.4209 -0.0202
17133SOL    HW162618   3.518   8.874   1.220  0.6391 -0.7284  0.7403
17133SOL    HW262619   3.565   8.888   1.065 -0.1241  1.9491  0.7265
17134SOL     OW62620   7.446   9.819   2.423 -0.4597  0.2729 -0.3255
17134SOL    HW162621   7.394   9.749   2.472 -0.4740 -0.5166 -1.4745
17134SOL    HW262622   7.543   9.809   2.444 -0.6480  1.1811  1.0991
17135SOL     OW62623   9.823   8.229   6.151 -0.2933 -0.0568 -0.1249
17135SOL    HW162624   9.836   8.158   6.220  2.3424  1.7529  1.3301
17135SOL    HW262625   9.898   8.227   6.085  0.1432  1.6884  0.2674
17136SOL     OW62626   1.659   3.582   1.987 -0.3113 -0.5219 -0.5537
17136SOL    HW162627   1.700   3.617   2.071 -1.4940 -1.4882  0.4344
17136SOL    HW262628   1.570   3.625   1.973  0.1304  0.0825 -1.6547
17137SOL     OW62629   2.883   3.311   5.216 -0.6546 -0.5048 -0.1569
17137SOL    HW162630   2.789   3.291   5.188 -1.4075  1.3703  0.9468
17137SOL    HW262631   2.898   3.275   5.309 -0.9101  0.9085  0.4421
17138SOL     OW62632   4.651   0.646   2.026 -0.2956  0.0714  0.0555
17138SOL    HW162633   4.571   0.704   2.039 -1.6019 -1.9666  1.3629
17138SOL    HW262634   4.623   0.558   1.987  1.3391 -0.5313  0.2029
17139SOL     OW62635   1.543   9.915   1.917 -0.2704 -0.6029  0.3052
17139SOL    HW162636   1.493   9.933   2.003  0.7568  1.7115  0.4475
17139SOL    HW262637   1.532   9.993   1.855  0.3926 -1.5365 -1.0112
17140SOL     OW62638   3.758   9.794   2.875 -0.3481 -0.0134 -0.4383
17140SOL    HW162639   3.740   9.885   2.838 -0.1084  0.3585  0.3333
17140SOL    HW262640   3.718   9.724   2.816  1.4462  0.4682 -2.2654
17141SOL     OW62641   7.363   9.218   4.902 -0.6841  0.0171 -0.0128
17141SOL    HW162642   7.331   9.293   4.843 -2.3115 -0.8583 -0.2845
17141SOL    HW262643   7.447   9.246   4.948 -0.8883  1.7627 -0.6336
17142SOL     OW62644   9.107   1.065   0.050  0.4495 -0.1077 -0.0621
17142SOL    HW162645   9.108   1.160   0.018 -3.2137  0.2914  0.7560
17142SOL    HW262646   9.126   1.063   0.148 -0.2225 -0.1036  0.0745
17143SOL     OW62647   6.451   2.714   3.321 -0.4168  0.4759  0.5646
17143SOL    HW162648   6.549   2.717   3.343 -0.1834 -0.8352 -0.2658
17143SOL    HW262649   6.401   2.672   3.397 -0.3581  1.2183  1.0243
17144SOL     OW62650   1.057   7.902   1.524  0.5951 -0.3245 -0.1817
17144SOL    HW162651   1.064   7.991   1.478  2.7461 -0.6999 -0.6265
17144SOL    HW262652   1.092   7.830   1.465  1.8882 -1.0333  1.4012
17145SOL     OW62653   3.125   7.995   4.024 -0.3178 -0.4717 -0.3893
17145SOL    HW162654   3.037   7.957   4.053  0.0825 -1.8007 -0.8993
17145SOL    HW262655   3.119   8.022   3.928 -0.7183  1.1225  0.0779
17146SOL     OW62656   0.050   0.631   2.999 -0.7352 -0.3211 -0.4521
17146SOL    HW162657   0.134   0.612   2.949 -0.2396 -1.1948  0.6997
17146SOL    HW262658  -0.003   0.700   2.950  1.1374  0.9930 -0.6470
17147SOL     OW62659   6.548   2.323   4.887  0.0485  0.2117  0.0409
17147SOL    HW162660   6.493   2.294   4.808  0.5856 -1.9692  0.4421
17147SOL    HW262661   6.500   2.396   4.935 -1.7612 -0.5564 -0.5449
17148SOL     OW62662   0.834   3.827   4.782 -0.8057 -0.7789  0.0316
17148SOL    HW162663   0.785   3.740   4.792  1.0207 -1.8127  0.1132
17148SOL    HW262664   0.792   3.896   4.841 -2.3247 -1.5672 -0.1011
17149SOL     OW62665   2.858   2.658   5.511  0.1829 -0.1693 -0.1298
17149SOL    HW162666   2.900   2.568   5.500  0.2603 -0.5060  2.5262
17149SOL    HW262667   2.921   2.728   5.478  0.8018 -0.9791 -0.6934
17150SOL     OW62668   9.793   0.157   3.183  0.1452  0.3441 -0.1815
17150SOL    HW162669   9.809   0.252   3.208 -1.5229  0.8092 -0.8382
17150SOL    HW262670   9.732   0.152   3.105 -3.1748 -1.3030  2.3636
17151SOL     OW62671   3.715   1.940   1.960 -0.5463  0.3379 -0.5184
17151SOL    HW162672   3.637   1.985   1.917 -1.3588 -0.4856  0.0791
17151SOL    HW262673   3.695   1.921   2.056  0.1896 -0.3281 -0.4814
17152SOL     OW62674   1.960   3.224   4.903 -0.5138  0.2525 -0.4214
17152SOL    HW162675   2.016   3.154   4.946  0.2720  1.0172 -0.1854
17152SOL    HW262676   1.864   3.211   4.929 -0.4725 -1.1244 -0.9197
17153SOL     OW62677   3.674   8.858   2.162  0.4299  0.6836 -0.2385
17153SOL    HW162678   3.768   8.847   2.131  0.4049  0.5263 -0.2562
17153SOL    HW262679   3.612   8.860   2.083  0.3948  0.5594 -0.2137
17154SOL     OW62680   8.305   3.954   6.532  0.1390  0.2777 -0.0360
17154SOL    HW162681   8.281   3.997   6.619 -1.4487 -0.7895  0.0789
17154SOL    HW262682   8.244   3.987   6.460 -0.4942 -1.0809 -0.1305
17155SOL     OW62683   5.970   1.777   4.385  0.4062 -0.3189  0.2949
17155SOL    HW162684   5.927   1.686   4.387  0.4427 -0.3527 -0.3363
17155SOL    HW262685   5.940   1.826   4.304  1.4405 -0.2803 -0.0696
17156SOL     OW62686   1.526   0.144   3.927  0.4008  0.1557 -0.4795
17156SOL    HW162687   1.559   0.129   3.833 -0.5749 -0.3774 -0.7492
17156SOL    HW262688   1.599   0.185   3.982  1.2697 -0.3457 -1.2377
17157SOL     OW62689   9.988   6.073   6.311  0.2163  0.5830  0.3951
17157SOL    HW162690  10.085   6.077   6.333  0.1704  1.9808  0.4340
17157SOL    HW262691   9.935   6.104   6.391 -0.2385  0.1003  0.2795
17158SOL     OW62692   9.445   1.184   6.392 -0.3739  0.5872 -1.0782
17158SOL    HW162693   9.419   1.088   6.381 -2.6010  1.2047 -1.5063
17158SOL    HW262694   9.544   1.193   6.385  0.1773 -2.1019  2.0701
17159SOL     OW62695   8.130   6.326   0.909 -0.0260 -0.2351 -0.3812
17159SOL    HW162696   8.177   6.251   0.956  0.1977  0.0403 -0.1631
17159SOL    HW262697   8.031   6.320   0.926 -0.2719 -1.7896 -2.2081
17160SOL     OW62698   1.743   6.865   5.056 -0.2389 -0.0647 -0.1478
17160SOL    HW162699   1.834   6.825   5.066 -0.5247 -0.5311  0.6936
17160SOL    HW262700   1.737   6.915   4.970  1.1615  0.8998  0.3044
17161SOL     OW62701   9.437   5.087   6.339  0.1974 -0.2689  0.3211
17161SOL    HW162702   9.426   5.125   6.247  0.9524 -1.9125 -0.4858
17161SOL    HW262703   9.523   5.035   6.343 -0.7353 -1.7797  1.3658
17162SOL     OW62704   1.512   4.230   2.583  0.2786  0.0312  0.0807
17162SOL    HW162705   1.446   4.158   2.604  0.4258 -0.5115 -1.2343
17162SOL    HW262706   1.544   4.219   2.488 -0.7566  2.6539 -0.6254
17163SOL     OW62707   0.036   1.076   6.632 -0.6370  0.4280  0.3050
17163SOL    HW162708   0.011   1.145   6.564 -2.1991  0.6671  1.0834
17163SOL    HW262709   0.048   0.988   6.588 -0.0758  0.9008 -0.4982
17164SOL     OW62710   3.124   9.308   4.479  0.1827 -0.0531 -0.3420
17164SOL    HW162711   3.126   9.347   4.387 -0.8090 -0.9223 -0.7376
17164SOL    HW262712   3.131   9.209   4.474  0.7032 -0.0743  0.5647
17165SOL     OW62713   9.688   9.814   1.837  0.8055 -0.1465  0.5982
17165SOL    HW162714   9.750   9.802   1.760  0.3539  0.6770  0.0964
17165SOL    HW262715   9.722   9.888   1.896 -0.0450  0.7697 -0.0438
17166SOL     OW62716   7.908   9.898   6.047  0.5725 -0.2253  0.3122
17166SOL    HW162717   7.871   9.949   5.969  0.5044 -1.0763 -0.2127
17166SOL    HW262718   7.909   9.958   6.128 -2.6204 -0.3786  0.5331
17167SOL     OW62719   7.339   2.691   2.369 -0.0971  0.3495  0.5917
17167SOL    HW162720   7.278   2.701   2.447 -1.1123  2.0069 -0.3758
17167SOL    HW262721   7.356   2.594   2.352 -0.9157 -0.0617  2.0560
17168SOL     OW62722   9.974   4.562   4.933  0.1064 -0.4162 -0.0479
17168SOL    HW162723  10.010   4.654   4.918 -0.0339 -0.5620 -1.3700
17168SOL    HW262724   9.936   4.555   5.025 -0.1965  0.9406 -0.0664
17169SOL     OW62725   0.429   1.909   0.761 -0.3846 -0.3673 -0.5536
17169SOL    HW162726   0.414   1.895   0.663  1.3473  1.6026 -1.1506
17169SOL    HW262727   0.425   2.007   0.781  0.8109 -0.6331  1.0738
17170SOL     OW62728   8.601   9.545   1.785 -0.2352  0.1094  0.1463
17170SOL    HW162729   8.659   9.616   1.743 -1.1693  0.9324  0.2150
17170SOL    HW262730   8.588   9.566   1.882 -3.1537  1.6792 -0.5181
17171SOL     OW62731   3.749   0.596   4.721 -0.3628  0.3551  0.4312
17171SOL    HW162732   3.828   0.540   4.695 -0.6305 -0.0219  0.4367
17171SOL    HW262733   3.681   0.540   4.767 -0.8796  0.5705 -0.0622
17172SOL     OW62734   8.780   6.044   3.732  0.1906 -0.1091 -0.1073
17172SOL    HW162735   8.854   6.106   3.757 -0.4289 -0.0392  1.6391
17172SOL    HW262736   8.753   5.990   3.812 -2.7913  1.0927 -0.2103
17173SOL     OW62737   8.440   2.417   0.421 -0.8399  0.2627 -0.4041
17173SOL    HW162738   8.393   2.396   0.335  1.1628  0.9220 -1.7004
17173SOL    HW262739   8.493   2.338   0.451  1.5812  1.2592 -1.8917
17174SOL     OW62740   7.820   6.261   5.478  0.4897 -0.1526  0.5189
17174SOL    HW162741   7.779   6.351   5.491  1.0704  0.6361 -2.6087
17174SOL    HW262742   7.917   6.271   5.456  0.3839 -1.4682 -0.6190
17175SOL     OW62743   8.401   2.422   6.573 -0.0693 -0.3765  0.3540
17175SOL    HW162744   8.428   2.518   6.566  0.9505 -0.7073 -0.5524
17175SOL    HW262745   8.479   2.367   6.604 -0.4639 -0.9918  0.2835
17176SOL     OW62746   9.761   1.164   2.763 -0.3448  0.1145 -0.3791
17176SOL    HW162747   9.756   1.066   2.745  1.0177 -0.2734  1.2523
17176SOL    HW262748   9.856   1.192   2.769 -0.6235  0.5581  3.9868
17177SOL     OW62749   9.270   0.505   0.195  0.2548 -0.0616  0.4819
17177SOL    HW162750   9.314   0.594   0.205 -1.0008  0.5146  1.0379
17177SOL    HW262751   9.305   0.459   0.113  0.7384  1.0545  0.0570
17178SOL     OW62752   8.395   8.194   0.619 -0.2305 -0.0095  0.6407
17178SOL    HW162753   8.405   8.235   0.709 -0.8006  1.1492  0.1943
17178SOL    HW262754   8.327   8.246   0.566 -1.1324 -1.6682  0.1328
17179SOL     OW62755   5.127   0.226   3.945 -0.2507 -0.2037 -0.1199
17179SOL    HW162756   5.125   0.275   3.858 -1.5141 -0.7536 -0.4107
17179SOL    HW262757   5.035   0.221   3.983  0.0092 -1.5226  0.3650
17180SOL     OW62758   3.474   3.755   5.541  0.0124  0.3002  0.5446
17180SOL    HW162759   3.481   3.848   5.577  0.0688  0.4335  0.1894
17180SOL    HW262760   3.379   3.736   5.517  0.1763  0.6505 -0.4039
17181SOL     OW62761   6.212   7.765   4.017 -0.1617 -0.2673 -0.1870
17181SOL    HW162762   6.231   7.851   3.969  0.3267 -1.0999 -1.5302
17181SOL    HW262763   6.183   7.696   3.950  0.7196 -1.5062  0.6904
17182SOL     OW62764   0.469   2.666   2.015  0.1956  0.1575 -0.3552
17182SOL    HW162765   0.502   2.662   2.109 -0.5833 -0.4240 -0.0990
17182SOL    HW262766   0.538   2.707   1.957  0.8913  0.0368  0.3828
17183SOL     OW62767   8.427   2.615   2.310  0.1224  0.5106  0.2814
17183SOL    HW162768   8.368   2.644   2.235  0.6692 -0.1603 -0.4200
17183SOL    HW262769   8.465   2.695   2.356 -2.8644  0.9860  1.9946
17184SOL     OW62770   5.651   7.094   2.260  0.0349  1.0669  0.2001
17184SOL    HW162771   5.668   7.004   2.218  0.1697  1.2487 -0.1436
17184SOL    HW262772   5.555   7.101   2.286  0.1182  0.6593  0.6274
17185SOL     OW62773   0.731   1.865   4.968  0.3130  0.3855 -1.1088
17185SOL    HW162774   0.752   1.767   4.965 -0.3718  0.2642 -2.1864
17185SOL    HW262775   0.755   1.902   5.058 -1.1814 -1.1571 -0.0574
17186SOL     OW62776   3.770   8.837   4.121 -0.7098  0.3127  0.5712
17186SOL    HW162777   3.767   8.828   4.221  2.5998 -0.5334  0.6572
17186SOL    HW262778   3.799   8.930   4.097  1.4163 -0.3437  0.5009
17187SOL     OW62779   9.124   8.459   3.239 -0.2368 -0.0472 -0.1809
17187SOL    HW162780   9.181   8.434   3.318  0.8776 -0.3483 -1.0784
17187SOL    HW262781   9.035   8.414   3.248  0.9067 -2.4717 -0.5613
17188SOL     OW62782   5.273   4.029   1.175 -0.5206  0.2548 -0.1941
17188SOL    HW162783   5.320   3.942   1.191  1.2007  1.3250  0.6152
17188SOL    HW262784   5.193   4.035   1.235  0.1091 -0.1720  0.6879
17189SOL     OW62785   1.404   9.005   0.604 -0.1844  0.1684  0.3127
17189SOL    HW162786   1.308   9.013   0.629 -0.3311 -1.5827  0.3600
17189SOL    HW262787   1.425   8.910   0.583  1.6813  0.4355  0.8888
17190SOL     OW62788   1.897   6.063   2.028  0.3573 -0.3409  0.1732
17190SOL    HW162789   1.985   6.018   2.015  0.8184  0.6584 -0.2284
17190SOL    HW262790   1.893   6.145   1.971 -0.8919 -0.4648  0.0820
17191SOL     OW62791   2.284   6.206   1.152  0.4550  0.2760 -0.0740
17191SOL    HW162792   2.253   6.112   1.137  1.3818  0.1098 -1.0271
17191SOL    HW262793   2.366   6.222   1.098 -0.1639  1.8934 -0.5434
17192SOL     OW62794   1.151   2.121   3.395  0.1723 -0.1057 -0.4689
17192SOL    HW162795   1.061   2.137   3.435 -0.2178 -1.7124 -0.6440
17192SOL    HW262796   1.162   2.023   3.376  1.2248  0.3178 -2.1902
17193SOL     OW62797   4.227   0.084   2.832  0.0945 -0.5733  0.3470
17193SOL    HW162798   4.325   0.070   2.821  0.4273  1.0203  1.1717
17193SOL    HW262799   4.178   0.003   2.799  1.5894 -0.7266 -1.5826
17194SOL     OW62800   8.278   2.097   4.721  0.6366 -0.2344  0.7904
17194SOL    HW162801   8.336   2.103   4.639  0.1018  1.3193  0.5105
17194SOL    HW262802   8.299   2.173   4.783  0.4700 -0.9418  1.7211
17195SOL     OW62803   9.124   2.428   2.842 -0.0218  0.1736  0.2375
17195SOL    HW162804   9.165   2.358   2.902  2.0083  1.9088  0.9526
17195SOL    HW262805   9.105   2.388   2.753 -0.1959 -1.6624  1.0664
17196SOL     OW62806   1.109   7.782   2.168  0.3612  0.0477  0.2484
17196SOL    HW162807   1.011   7.767   2.177  0.1278  1.6377  0.5056
17196SOL    HW262808   1.158   7.703   2.205 -0.7934  0.0721  1.9028
17197SOL     OW62809   6.270   7.925   3.780  0.0213 -0.0920  0.4618
17197SOL    HW162810   6.246   7.951   3.687  0.1127 -0.8089  0.2385
17197SOL    HW262811   6.367   7.942   3.796 -0.0006  0.0572  0.4385
17198SOL     OW62812   0.542   0.131   5.895  0.4518  0.3242 -0.4888
17198SOL    HW162813   0.572   0.207   5.952  0.3556  0.1395 -0.1917
17198SOL    HW262814   0.577   0.045   5.932 -1.3504 -0.0054  0.4854
17199SOL     OW62815   8.012   9.354   4.205  0.0910 -0.1772 -0.0957
17199SOL    HW162816   7.948   9.405   4.263  0.4517  0.7215 -0.4818
17199SOL    HW262817   8.098   9.405   4.198  0.0938 -0.3423 -1.3220
17200SOL     OW62818   0.446   8.300   4.289  0.5219  0.4364  0.4278
17200SOL    HW162819   0.459   8.247   4.206  0.1250 -0.8498  1.1815
17200SOL    HW262820   0.526   8.290   4.348 -0.3145 -0.8165  1.3816
17201SOL     OW62821   5.639   4.865   1.523  0.2733 -0.0619  0.1120
17201SOL    HW162822   5.587   4.813   1.590  2.0050 -0.6095  1.0573
17201SOL    HW262823   5.652   4.810   1.441  1.2391 -0.7423  0.7208
17202SOL     OW62824   9.676   2.132   3.327 -0.4068 -0.2468  0.1877
17202SOL    HW162825   9.666   2.224   3.289 -0.0833  0.4298  1.6959
17202SOL    HW262826   9.713   2.138   3.420  0.2096 -1.9417  0.0658
17203SOL     OW62827   2.323   7.357   0.514 -0.8021  0.2057  0.1124
17203SOL    HW162828   2.390   7.352   0.588 -1.9328 -0.2112  1.1236
17203SOL    HW262829   2.358   7.308   0.433 -0.5808 -1.4133  1.1690
17204SOL     OW62830   6.505   1.421   0.641  0.1745 -0.5526  0.1751
17204SOL    HW162831   6.564   1.376   0.708 -0.1032 -1.1388  0.0214
17204SOL    HW262832   6.464   1.353   0.581  0.9443  0.0148 -1.0202
17205SOL     OW62833   9.061   2.074   5.265 -0.3848  0.4434  0.1877
17205SOL    HW162834   9.020   1.983   5.276  1.2259 -0.6946 -2.6115
17205SOL    HW262835   9.001   2.130   5.207  0.3849 -0.0896 -1.1325
17206SOL     OW62836   2.678   4.963   4.864 -0.2860  0.2184 -0.5289
17206SOL    HW162837   2.622   5.002   4.937 -0.9529 -0.4472 -0.6793
17206SOL    HW262838   2.706   4.870   4.890  0.0897  0.2578 -0.7974
17207SOL     OW62839   8.324   2.978   1.796  0.1815  0.1626  0.4268
17207SOL    HW162840   8.234   2.990   1.837 -0.5550 -2.1265 -0.4514
17207SOL    HW262841   8.335   3.042   1.719 -0.4971  0.7704  0.8342
17208SOL     OW62842   4.932   0.362   1.165  0.8066 -0.0824 -0.2286
17208SOL    HW162843   4.955   0.414   1.083 -0.9956 -0.5581 -1.0394
17208SOL    HW262844   4.834   0.368   1.183  0.6943 -2.4908  0.1507
17209SOL     OW62845   6.982   2.169   1.002 -0.1883  0.1238 -0.5366
17209SOL    HW162846   7.025   2.082   0.980 -0.7723 -0.3204  0.0712
17209SOL    HW262847   6.956   2.170   1.099  1.5467  1.7059 -0.0666
17210SOL     OW62848   4.053   8.904   3.877  0.6245 -0.4434  0.1040
17210SOL    HW162849   4.108   8.821   3.891  0.7018 -0.4550 -0.2649
17210SOL    HW262850   4.010   8.901   3.787 -1.5560 -1.3315  1.1495
17211SOL     OW62851   2.095   8.022   1.235 -0.4899  0.1932  0.2939
17211SOL    HW162852   2.160   8.004   1.309  0.0280  1.0040  0.0493
17211SOL    HW262853   2.118   8.109   1.191  0.7843 -1.4790 -2.5002
17212SOL     OW62854   3.370   8.034   2.424  0.0634 -0.2624  0.0487
17212SOL    HW162855   3.455   8.086   2.412  0.2819 -0.1549  1.9602
17212SOL    HW262856   3.370   7.957   2.360  1.3348  0.0556 -0.3598
17213SOL     OW62857   8.009   6.153   0.357  0.2196 -0.1602 -0.1141
17213SOL    HW162858   8.075   6.229   0.365  0.5417 -0.4819  0.2935
17213SOL    HW262859   7.960   6.162   0.271 -1.3181  1.7707  0.9125
17214SOL     OW62860   0.677   5.692   0.924  0.2767  0.4075 -0.2121
17214SOL    HW162861   0.698   5.726   0.833  1.5467 -1.9851 -0.8401
17214SOL    HW262862   0.634   5.602   0.918  0.6488  0.0815  1.5481
17215SOL     OW62863   3.444   4.674   6.742 -0.1030  0.3150  0.0825
17215SOL    HW162864   3.358   4.679   6.692  0.6660  0.7038 -1.1996
17215SOL    HW262865   3.436   4.604   6.814 -1.8176  1.0490  0.6469
17216SOL     OW62866   7.865   8.920   1.476 -0.1669  0.2378 -0.0281
17216SOL    HW162867   7.813   8.835   1.473  0.9426 -0.4625  0.3984
17216SOL    HW262868   7.804   8.996   1.502 -0.5837 -0.8768  2.3638
17217SOL     OW62869   4.791   6.534   1.985  0.5052  0.9706  0.1350
17217SOL    HW162870   4.857   6.582   2.043  4.0585 -0.7106 -2.3939
17217SOL    HW262871   4.812   6.437   1.983 -1.7039  0.4853 -1.2251
17218SOL     OW62872   2.571   7.072   2.657 -0.4825 -0.0350  0.1126
17218SOL    HW162873   2.670   7.083   2.664 -0.6527  1.1413  0.7241
17218SOL    HW262874   2.532   7.063   2.749 -0.8766 -1.1318 -0.1551
17219SOL     OW62875   2.678   9.411   3.664  0.1309 -0.0035 -0.5211
17219SOL    HW162876   2.693   9.329   3.610  0.8746  0.7256 -1.4350
17219SOL    HW262877   2.754   9.475   3.650 -0.7670  1.1220 -0.3515
17220SOL     OW62878   7.017   5.168   5.618 -0.1987 -0.2859  0.3072
17220SOL    HW162879   6.950   5.115   5.671 -1.0472  1.9994  1.5886
17220SOL    HW262880   6.971   5.214   5.543  0.0154  0.8027  0.8282
17221SOL     OW62881   1.531   3.081   4.557  0.7361 -0.2344  0.0605
17221SOL    HW162882   1.490   2.994   4.582 -0.3047 -0.0606 -0.9716
17221SOL    HW262883   1.626   3.083   4.586  1.4261 -2.5912 -1.8631
17222SOL     OW62884   9.825   4.765   0.475  0.1491  0.3141 -0.6427
17222SOL    HW162885   9.882   4.804   0.404  1.6588 -0.1588  0.2889
17222SOL    HW262886   9.852   4.802   0.564  0.4089 -1.5000  0.0485
17223SOL     OW62887   7.056   0.614   3.920  0.3158 -0.4897 -0.5570
17223SOL    HW162888   6.974   0.649   3.875  0.7778 -1.1986 -2.0063
17223SOL    HW262889   7.034   0.532   3.972 -0.1087 -0.0307 -0.0180
17224SOL     OW62890   9.137   1.243   3.104 -0.2464 -0.4654 -0.0394
17224SOL    HW162891   9.160   1.332   3.064  1.7208 -0.1982  1.5498
17224SOL    HW262892   9.219   1.186   3.107 -1.2127 -1.8717  0.1024
17225SOL     OW62893   4.918   7.641   2.450  0.1920 -0.0440  0.8936
17225SOL    HW162894   4.969   7.618   2.367 -1.2620 -1.5848  0.4082
17225SOL    HW262895   4.895   7.739   2.449  1.8861  0.3644  0.4512
17226SOL     OW62896   4.724   1.316   4.537  0.2455 -0.2998 -0.2142
17226SOL    HW162897   4.649   1.371   4.574 -0.5751 -0.0208 -2.2540
17226SOL    HW262898   4.690   1.225   4.513  0.5033 -0.1173 -1.3014
17227SOL     OW62899   0.107   6.311   3.990  0.4051 -0.0027  0.0653
17227SOL    HW162900   0.188   6.340   3.940  2.1322 -2.1841  1.4593
17227SOL    HW262901   0.105   6.211   3.994 -1.4931  0.0677  1.4434
17228SOL     OW62902   2.582   7.618   0.966 -0.4084 -0.1054  0.1841
17228SOL    HW162903   2.511   7.673   0.923 -1.6946 -1.7141  0.2242
17228SOL    HW262904   2.546   7.573   1.047  0.4522 -1.4308 -0.1449
17229SOL     OW62905   0.728   0.020   4.504 -0.4102 -0.1372  0.3027
17229SOL    HW162906   0.775   0.063   4.427  0.0273  0.2633  0.7906
17229SOL    HW262907   0.639   0.063   4.517  0.2155  0.9306  1.0732
17230SOL     OW62908   3.607   4.687   0.292 -0.5272 -0.2566 -0.1952
17230SOL    HW162909   3.622   4.668   0.389  0.0337  2.9800  0.4204
17230SOL    HW262910   3.536   4.756   0.281 -2.3061 -2.3228 -2.2563
17231SOL     OW62911   0.999   3.945   5.459 -0.4812 -0.3021  0.0103
17231SOL    HW162912   1.000   3.913   5.364  1.1494  1.7457 -0.6964
17231SOL    HW262913   0.930   4.016   5.469  0.1386  0.2973  0.0648
17232SOL     OW62914   5.447   0.738   0.795  0.4587  0.4824  0.4659
17232SOL    HW162915   5.528   0.682   0.780 -0.4568 -0.9689  0.8395
17232SOL    HW262916   5.415   0.775   0.708  1.4928  1.0361  0.3156
17233SOL     OW62917   2.104   5.835   5.108 -0.3314  0.0192  0.4714
17233SOL    HW162918   2.052   5.802   5.030 -1.6725  0.2794  1.2544
17233SOL    HW262919   2.193   5.869   5.076  0.0690 -2.0205 -0.6323
17234SOL     OW62920   8.014   3.925   3.628 -0.0947 -0.2030  0.5914
17234SOL    HW162921   7.956   3.917   3.709  0.0897 -0.0204  0.7433
17234SOL    HW262922   7.979   3.997   3.568  0.5240  0.5681  1.1480
17235SOL     OW62923   5.645   7.971   4.673  0.4122 -0.5258 -0.3637
17235SOL    HW162924   5.745   7.966   4.667  0.3390 -1.0201 -1.2325
17235SOL    HW262925   5.616   8.066   4.662  0.6887 -0.6028 -1.9186
17236SOL     OW62926   8.027   2.272   4.653  0.4141  0.0506  0.0280
17236SOL    HW162927   8.106   2.232   4.700  0.9675 -0.1594 -1.0785
17236SOL    HW262928   8.054   2.358   4.609  0.4057 -0.7781 -1.6245
17237SOL     OW62929   7.126   3.427   3.209  0.6189  0.7963 -0.3142
17237SOL    HW162930   7.170   3.508   3.171  2.6057 -0.3258 -0.4693
17237SOL    HW262931   7.194   3.370   3.255 -0.6899 -0.8828 -0.3862
17238SOL     OW62932   3.641   6.020   2.117  0.4406 -0.1772 -0.1702
17238SOL    HW162933   3.542   6.010   2.109  0.4731 -1.4352  0.7839
17238SOL    HW262934   3.663   6.110   2.154 -0.3542  0.1214 -0.4230
17239SOL     OW62935   5.098   7.333   1.587 -0.1548  0.3021  0.2175
17239SOL    HW162936   5.112   7.286   1.674  1.0797  2.4290  1.2010
17239SOL    HW262937   5.185   7.340   1.538 -0.6956 -0.1697 -0.8276
17240SOL     OW62938   3.816   3.698   6.690  0.5292  0.3595  0.1418
17240SOL    HW162939   3.814   3.599   6.677  0.0462  0.4730 -0.6833
17240SOL    HW262940   3.910   3.727   6.711  0.4968 -0.3822  1.3314
17241SOL     OW62941   9.154   3.617   4.175  0.1510 -0.2606  0.1036
17241SOL    HW162942   9.079   3.599   4.239 -0.0868 -1.7480 -0.5612
17241SOL    HW262943   9.122   3.679   4.103 -0.1436 -0.1038  0.3684
17242SOL     OW62944   1.101   1.727   6.281  0.0176  0.4412  0.2867
17242SOL    HW162945   1.109   1.641   6.230 -0.9914  0.9234 -0.6908
17242SOL    HW262946   1.111   1.708   6.379 -0.4378 -0.8192  0.1013
17243SOL     OW62947   6.426   9.151   4.785 -0.1889  0.2251 -0.3403
17243SOL    HW162948   6.328   9.134   4.788 -0.2712  0.1307 -2.7105
17243SOL    HW262949   6.462   9.125   4.696  1.7744  1.4393  0.0556
17244SOL     OW62950   9.781   3.511   5.207 -0.0646  0.4933 -0.1511
17244SOL    HW162951   9.805   3.528   5.302 -0.9211 -1.6842  0.4807
17244SOL    HW262952   9.858   3.466   5.161 -1.2119 -2.4700  0.7138
17245SOL     OW62953   9.862   2.619   6.664 -0.2007  0.0012 -0.0345
17245SOL    HW162954   9.908   2.707   6.677 -1.1315  0.3685  0.7743
17245SOL    HW262955   9.848   2.604   6.566 -1.1007  1.3053 -0.1153
17246SOL     OW62956   9.813   1.370   3.119  0.0481  0.2627  0.3519
17246SOL    HW162957   9.721   1.362   3.159  0.4658  1.2097  1.5123
17246SOL    HW262958   9.825   1.463   3.083  0.1538 -0.1925 -0.8187
17247SOL     OW62959   4.901   2.208   4.748 -0.2254 -0.2138 -0.0252
17247SOL    HW162960   4.893   2.126   4.691 -3.1935 -0.2653  0.3688
17247SOL    HW262961   4.824   2.269   4.728  1.3401  1.9755  0.4902
17248SOL     OW62962   7.245   3.755   4.834 -0.3685 -0.2054  0.3789
17248SOL    HW162963   7.280   3.681   4.776  0.8295 -0.3598  1.2747
17248SOL    HW262964   7.149   3.737   4.857 -0.6719 -0.4455 -1.0562
17249SOL     OW62965   4.051   7.954   1.374 -0.2204  0.0828  0.8300
17249SOL    HW162966   3.951   7.960   1.378 -0.0706  2.8100  0.8309
17249SOL    HW262967   4.091   8.020   1.438  1.5998 -1.0332  0.8793
17250SOL     OW62968   3.454   4.678   1.359  1.1263 -0.4046 -0.5279
17250SOL    HW162969   3.355   4.691   1.355  1.1181  0.6418  2.0982
17250SOL    HW262970   3.494   4.697   1.269 -1.0288 -0.6716 -1.5675
17251SOL     OW62971   3.499   3.313   5.586  0.4614 -0.6174 -0.4145
17251SOL    HW162972   3.531   3.352   5.672  2.1956 -0.3288 -1.1633
17251SOL    HW262973   3.526   3.373   5.510 -1.6815 -0.4805 -1.1220
17252SOL     OW62974   1.322   5.424   4.216  0.2729 -0.8965 -0.3491
17252SOL    HW162975   1.233   5.453   4.252  0.9644  0.9026 -0.0518
17252SOL    HW262976   1.376   5.382   4.290  0.9587  1.0670  0.2791
17253SOL     OW62977   8.021   5.145   2.751 -0.4023  0.1338 -0.1784
17253SOL    HW162978   8.023   5.057   2.704 -0.5501  1.0335 -1.8841
17253SOL    HW262979   7.991   5.131   2.846  1.5066 -1.9132  0.1668
17254SOL     OW62980   7.564   8.835   2.946  0.3309  0.2570 -0.0451
17254SOL    HW162981   7.556   8.835   2.846 -1.6718 -0.3487  0.0841
17254SOL    HW262982   7.523   8.751   2.982  0.0173  0.9961  1.3566
17255SOL     OW62983   4.327   1.613   1.472  0.3353  0.3455  0.3083
17255SOL    HW162984   4.363   1.706   1.482 -0.8122  0.8633 -0.2887
17255SOL    HW262985   4.288   1.583   1.560  0.1028  0.6936  0.3283
17256SOL     OW62986   0.142   1.258   2.431  0.0042 -0.1392 -0.0114
17256SOL    HW162987   0.043   1.255   2.418 -0.1228  1.4940  0.4480
17256SOL    HW262988   0.186   1.197   2.365 -1.2220  0.2709 -1.2511
17257SOL     OW62989   5.853   8.253   3.540  0.3811  0.6399 -0.6127
17257SOL    HW162990   5.907   8.172   3.517  1.3273  0.8618  0.7860
17257SOL    HW262991   5.909   8.316   3.594 -0.3425  2.2363 -1.6922
17258SOL     OW62992   0.755   4.884   2.700 -0.2924  0.0667  0.0985
17258SOL    HW162993   0.835   4.886   2.759  0.6677 -1.1423 -1.1525
17258SOL    HW262994   0.783   4.883   2.604 -1.8191  0.7242 -0.3771
17259SOL     OW62995   3.741   1.509   4.287  0.3229  0.3910  0.7714
17259SOL    HW162996   3.660   1.504   4.345  1.0284  0.2267  1.7427
17259SOL    HW262997   3.717   1.555   4.201 -1.0421 -0.5835  0.6197
17260SOL     OW62998   2.200   4.754   1.268  0.5355 -0.2315  0.0123
17260SOL    HW162999   2.210   4.685   1.197  1.9094 -0.0506  0.0176
17260SOL    HW263000   2.157   4.836   1.229 -0.5449 -0.8626 -0.1290
17261SOL     OW63001   2.894   7.715   3.964 -0.5642 -0.2220  0.0606
17261SOL    HW163002   2.876   7.617   3.969 -1.3192 -0.0974 -0.0522
17261SOL    HW263003   2.951   7.735   3.885 -0.7435 -0.5243 -0.1457
17262SOL     OW63004   4.073   2.152   2.802 -0.5399 -0.2900  0.2638
17262SOL    HW163005   3.999   2.167   2.868  0.3331 -1.1504  1.4670
17262SOL    HW263006   4.080   2.055   2.781 -0.5399 -0.0667 -0.8015
17263SOL     OW63007   1.506   9.710   6.366  0.0837 -0.3066 -0.3779
17263SOL    HW163008   1.530   9.746   6.456  1.3284 -0.9573 -0.4461
17263SOL    HW263009   1.408   9.690   6.363 -0.1518  0.6783  0.4868
17264SOL     OW63010   7.272   5.500   5.949  0.5097 -0.0398 -0.5318
17264SOL    HW163011   7.261   5.440   5.870  0.4168 -0.9114  0.1367
17264SOL    HW263012   7.353   5.473   6.000  1.9663  2.0722 -1.6754
17265SOL     OW63013   7.728   8.096   4.205  0.5421 -0.6287 -0.0717
17265SOL    HW163014   7.751   8.191   4.184  0.3644 -0.4861  0.3725
17265SOL    HW263015   7.756   8.037   4.129  0.1508 -0.1530 -0.5873
17266SOL     OW63016   2.312   1.825   2.229 -0.0612  0.0882  0.4798
17266SOL    HW163017   2.221   1.789   2.247  0.0249 -0.4546 -0.1324
17266SOL    HW263018   2.367   1.754   2.183  1.0565 -0.0144  1.9498
17267SOL     OW63019   3.502   4.540   2.365  0.0693  0.1644  0.0680
17267SOL    HW163020   3.569   4.613   2.377 -0.4995  0.7147 -0.0961
17267SOL    HW263021   3.538   4.471   2.303  0.9883 -0.1599  0.9636
17268SOL     OW63022   9.883   9.037   5.674  0.3155  0.2257  0.0088
17268SOL    HW163023   9.822   9.084   5.611  0.7048  0.5891 -0.1030
17268SOL    HW263024   9.896   9.093   5.756  0.8714  0.3680 -0.1733
17269SOL     OW63025   9.723   4.491   3.885  0.4731  0.0362 -0.0952
17269SOL    HW163026   9.657   4.427   3.848  1.3621 -0.2028 -1.2813
17269SOL    HW263027   9.801   4.441   3.924  0.4469  0.3517  0.3754
17270SOL     OW63028   1.912   5.854   0.934 -0.3678  0.2618 -0.2975
17270SOL    HW163029   1.902   5.899   1.023 -1.6300 -2.3021  0.9066
17270SOL    HW263030   1.830   5.868   0.880  0.3353  1.6827 -1.0242
17271SOL     OW63031   9.396   7.856   5.371 -0.7479  0.1348 -0.4751
17271SOL    HW163032   9.411   7.780   5.434  0.3057  1.0051  0.3510
17271SOL    HW263033   9.374   7.821   5.280 -1.1447 -1.1407  0.1044
17272SOL     OW63034   0.779   5.913   0.625  0.6197 -0.1023  0.3768
17272SOL    HW163035   0.730   5.827   0.640  0.7762 -0.2023  0.3217
17272SOL    HW263036   0.868   5.908   0.670  0.6934 -0.0291  0.2392
17273SOL     OW63037   3.457   2.291   4.237  0.7383 -0.1689 -0.0015
17273SOL    HW163038   3.397   2.223   4.279  0.2976  0.6584  0.7367
17273SOL    HW263039   3.508   2.339   4.309  2.1634 -0.7305 -0.6046
17274SOL     OW63040   9.033   3.610   2.099  0.4514 -0.3447 -0.4215
17274SOL    HW163041   8.961   3.542   2.095  0.4395 -0.2409 -2.4355
17274SOL    HW263042   9.099   3.585   2.170 -1.5100 -0.4460  1.4367
17275SOL     OW63043   7.055   0.628   2.413 -0.2229  0.0566  0.0293
17275SOL    HW163044   7.136   0.574   2.438  0.1228  0.7096  0.3425
17275SOL    HW263045   7.063   0.719   2.453 -0.5657  0.5009 -0.9068
17276SOL     OW63046   7.216   2.165   6.662 -0.2762 -0.1948 -0.1620
17276SOL    HW163047   7.212   2.073   6.623  0.3993  0.0688 -0.8785
17276SOL    HW263048   7.264   2.162   6.749  1.5510 -0.2331 -1.1323
17277SOL     OW63049   9.292   4.147   4.709  0.3303  0.0469 -0.2452
17277SOL    HW163050   9.328   4.061   4.743 -2.1654 -0.5125  1.1079
17277SOL    HW263051   9.312   4.220   4.774  0.1513 -0.0167 -0.1193
17278SOL     OW63052   2.223   6.417   1.322 -0.3787 -0.5297  0.2919
17278SOL    HW163053   2.312   6.433   1.364  0.7525 -0.8033 -1.8875
17278SOL    HW263054   2.230   6.340   1.258 -1.6844  0.6663 -1.3256
17279SOL     OW63055   0.094   1.577   0.827 -0.1989 -0.4758  0.0186
17279SOL    HW163056   0.136   1.649   0.881  0.0912 -0.9779  0.4655
17279SOL    HW263057  -0.004   1.574   0.845 -0.2936  0.1364 -0.3814
17280SOL     OW63058   8.430   8.352   1.774 -0.7015 -0.8231  0.0706
17280SOL    HW163059   8.449   8.278   1.838  0.9136 -0.8465 -0.4166
17280SOL    HW263060   8.483   8.339   1.690  0.4648  1.4186  0.3959
17281SOL     OW63061   2.370   9.891   3.228 -0.1014  0.2625 -0.2212
17281SOL    HW163062   2.291   9.903   3.169 -0.8033  0.8923  0.8235
17281SOL    HW263063   2.435   9.828   3.186 -1.8824 -1.5185 -0.3617
17282SOL     OW63064   0.076   1.115   1.325 -0.3431  0.2396 -0.4196
17282SOL    HW163065   0.070   1.102   1.226  2.2153  0.3922 -0.6204
17282SOL    HW263066   0.008   1.058   1.371  0.3893 -2.0408 -2.1171
17283SOL     OW63067   8.930   9.181   6.061  0.2306  0.5191  0.2771
17283SOL    HW163068   8.836   9.217   6.057  0.2594  0.5451 -0.2287
17283SOL    HW263069   8.955   9.145   5.971  1.3728  2.1863 -0.0891
17284SOL     OW63070   5.083   5.052   0.588 -0.1882 -0.0904  0.2632
17284SOL    HW163071   5.158   5.116   0.601  0.0844  0.0949 -1.9830
17284SOL    HW263072   5.072   4.996   0.670  1.5672  0.7412  1.0875
17285SOL     OW63073   8.714   8.674   3.825 -0.1141 -0.4291  0.1963
17285SOL    HW163074   8.762   8.722   3.898 -1.0349  0.6512  0.1080
17285SOL    HW263075   8.635   8.728   3.795 -0.0586 -1.1072 -1.2349
17286SOL     OW63076   0.746   9.114   4.895  0.4662  0.4397  0.1699
17286SOL    HW163077   0.721   9.207   4.921  0.2315  0.6733 -0.9032
17286SOL    HW263078   0.690   9.084   4.818  0.1277 -0.8114  0.8858
17287SOL     OW63079   2.770   3.434   3.292 -0.1816  0.2145  0.0093
17287SOL    HW163080   2.771   3.493   3.373 -2.2540  0.1543  0.1014
17287SOL    HW263081   2.756   3.490   3.210  1.2266  0.2000 -0.2516
17288SOL     OW63082   1.385   3.339   4.184 -0.4341 -0.2918 -0.5658
17288SOL    HW163083   1.382   3.312   4.280 -1.9389  0.1587 -0.4728
17288SOL    HW263084   1.359   3.261   4.127  0.4039 -0.5434 -0.6072
17289SOL     OW63085   8.250   1.744   1.772  0.5555  0.0148 -0.0958
17289SOL    HW163086   8.313   1.732   1.849  0.7064  1.0339 -0.0547
17289SOL    HW263087   8.214   1.655   1.744  1.4770 -0.4951  0.3309
17290SOL     OW63088   0.322   2.993   2.112  0.1654  0.5657 -0.1348
17290SOL    HW163089   0.289   3.087   2.124 -1.7484 -0.0656 -0.3196
17290SOL    HW263090   0.341   2.977   2.015 -0.3835  0.4806 -0.2284
17291SOL     OW63091   0.814   3.448   2.874  0.1617  0.1059 -0.3407
17291SOL    HW163092   0.914   3.451   2.886  0.2213  3.0815 -1.2395
17291SOL    HW263093   0.770   3.483   2.957 -0.2251 -2.0675  0.4246
17292SOL     OW63094   1.146   5.408   1.206  0.1359 -0.0475 -0.1558
17292SOL    HW163095   1.076   5.337   1.194 -1.2014  1.2464 -0.2725
17292SOL    HW263096   1.144   5.470   1.127 -0.3505  1.4592  1.0073
17293SOL     OW63097   3.571   5.980   1.307 -0.2015  0.4225 -0.4452
17293SOL    HW163098   3.489   6.033   1.330 -0.6733 -0.5032 -0.0040
17293SOL    HW263099   3.652   6.037   1.320 -0.6286  0.6800  1.1205
17294SOL     OW63100   3.111   2.124   6.743 -0.1145 -0.0653  0.0687
17294SOL    HW163101   3.108   2.220   6.772  0.2130  0.7268 -2.3560
17294SOL    HW263102   3.203   2.088   6.759 -0.7353 -0.5766  2.7012
17295SOL     OW63103   0.500   1.614   3.560 -0.0447  0.1959  0.2190
17295SOL    HW163104   0.592   1.612   3.521  0.1973  1.7208  0.6627
17295SOL    HW263105   0.435   1.643   3.490  0.0542  0.6907  0.3293
17296SOL     OW63106   5.556   8.431   1.952 -0.6304 -0.0107 -0.0873
17296SOL    HW163107   5.487   8.456   1.883 -1.7919 -0.4682  0.9052
17296SOL    HW263108   5.645   8.420   1.907 -1.3374 -0.1027 -1.4860
17297SOL     OW63109   1.914   5.982   4.689  0.4049  0.1195 -0.1342
17297SOL    HW163110   1.938   5.910   4.753  0.6615 -1.8956 -2.3983
17297SOL    HW263111   1.997   6.021   4.649  0.2627  1.6000  0.9891
17298SOL     OW63112   1.623   4.034   1.694 -0.8177  0.0791  0.0746
17298SOL    HW163113   1.639   4.101   1.621  1.0336  1.4703  1.6905
17298SOL    HW263114   1.620   4.081   1.782 -3.4794 -1.5315  0.8778
17299SOL     OW63115   1.290   3.618   6.243 -0.3407 -0.5656  0.1430
17299SOL    HW163116   1.203   3.631   6.291  0.9923 -2.7229  3.3402
17299SOL    HW263117   1.295   3.524   6.210  0.3736 -0.1657 -0.8821
17300SOL     OW63118   1.440   9.579   0.283  0.0241  0.4396 -0.1616
17300SOL    HW163119   1.352   9.591   0.330 -0.2664  0.3807 -0.6805
17300SOL    HW263120   1.429   9.513   0.209  0.0001  1.9400 -1.5385
17301SOL     OW63121   6.790   1.233   5.175 -0.0639 -0.0853  0.1004
17301SOL    HW163122   6.838   1.199   5.256 -0.8715 -0.8513  0.2677
17301SOL    HW263123   6.841   1.309   5.135  0.3568  0.2765  1.3109
17302SOL     OW63124   6.869   9.045   2.741 -0.3781  0.8942  0.2069
17302SOL    HW163125   6.825   9.134   2.733 -0.4815  0.8384  0.1499
17302SOL    HW263126   6.839   8.999   2.824 -0.6405  0.7403  0.0294
17303SOL     OW63127   3.052   8.317   1.796  0.1756  1.0255 -0.5126
17303SOL    HW163128   3.098   8.405   1.807 -1.0302  1.5995  0.0046
17303SOL    HW263129   3.120   8.244   1.795  1.4499  2.1741 -3.9630
17304SOL     OW63130   3.960   8.762   5.524  0.6931  0.1076 -0.0486
17304SOL    HW163131   3.897   8.752   5.448  0.4348  0.0679  0.1696
17304SOL    HW263132   4.046   8.716   5.502  1.0220  1.0600 -0.7638
17305SOL     OW63133   1.996   3.520   0.391  0.0245  0.1727 -0.5323
17305SOL    HW163134   1.904   3.486   0.411 -1.4057  2.3350 -3.2304
17305SOL    HW263135   2.049   3.447   0.348  0.1348 -1.5491  2.3273
17306SOL     OW63136   7.903   6.849   3.402  0.0642 -0.1251 -0.3265
17306SOL    HW163137   7.824   6.823   3.347  0.0134 -1.3604  0.3030
17306SOL    HW263138   7.926   6.944   3.385 -1.1949  0.0753 -0.9570
17307SOL     OW63139   1.024   0.532   0.993 -0.2252  0.1124  1.1565
17307SOL    HW163140   0.982   0.454   1.038 -0.9258 -0.6144 -0.7011
17307SOL    HW263141   1.026   0.517   0.894 -0.9066  2.6948  0.7070
17308SOL     OW63142   1.701   3.737   3.919  0.1797  0.3119  1.1643
17308SOL    HW163143   1.680   3.692   3.832  0.8878  1.5106  0.3635
17308SOL    HW263144   1.736   3.670   3.984 -0.1892 -0.5590  0.4648
17309SOL     OW63145   2.235   9.330   0.585 -0.6626  0.0242 -0.8328
17309SOL    HW163146   2.152   9.276   0.600 -1.0657  0.5460 -1.1636
17309SOL    HW263147   2.226   9.418   0.630 -0.1017 -0.0942 -0.4905
17310SOL     OW63148   0.025   7.866   0.629  0.2050 -0.4706 -0.0972
17310SOL    HW163149  -0.001   7.770   0.621 -0.4622 -0.2023 -1.2853
17310SOL    HW263150   0.062   7.898   0.542 -0.4803  0.6072  0.0033
17311SOL     OW63151   9.451   7.390   0.940  0.3335 -0.0994 -0.0066
17311SOL    HW163152   9.413   7.431   0.857  1.8382 -0.0854 -0.7168
17311SOL    HW263153   9.543   7.427   0.956  0.0658 -0.1111  1.6730
17312SOL     OW63154   5.010   1.828   1.759  0.3115 -0.5157 -0.0000
17312SOL    HW163155   5.105   1.826   1.728  0.2511 -0.0133 -0.2221
17312SOL    HW263156   4.952   1.869   1.688  0.0163 -0.3195  0.3504
17313SOL     OW63157   7.453   4.155   3.013 -0.5176  0.2750  1.0646
17313SOL    HW163158   7.429   4.252   3.024  1.8464  0.7414  2.5319
17313SOL    HW263159   7.541   4.137   3.057 -0.3409 -2.3113 -0.2193
17314SOL     OW63160   8.168   7.988   5.318 -0.0879 -0.1310  0.0288
17314SOL    HW163161   8.095   8.053   5.297 -0.1381 -0.8009 -1.9167
17314SOL    HW263162   8.256   8.030   5.298 -0.0356 -0.1037  0.3075
17315SOL     OW63163   9.193   3.798   3.494 -0.3954  0.4279  0.2196
17315SOL    HW163164   9.286   3.780   3.525 -0.8157 -1.2720  0.5785
17315SOL    HW263165   9.133   3.724   3.526 -1.8333  1.4119 -0.1492
17316SOL     OW63166   1.055   9.216   2.178 -0.4363 -0.4578  0.1191
17316SOL    HW163167   1.148   9.249   2.157 -0.9232  0.6703 -0.3096
17316SOL    HW263168   0.994   9.295   2.188 -1.1427 -1.1600  1.4192
17317SOL     OW63169   8.150   4.863   3.964  0.3731 -0.7711 -1.1726
17317SOL    HW163170   8.155   4.763   3.968 -0.0856 -0.8663 -2.6231
17317SOL    HW263171   8.181   4.902   4.051  0.3040 -2.1806 -0.5058
17318SOL     OW63172   2.839   0.781   5.197 -0.0088  0.4776 -0.7710
17318SOL    HW163173   2.934   0.758   5.218 -0.3372 -0.6023 -0.4450
17318SOL    HW263174   2.822   0.763   5.100  0.2000  0.9708 -0.9027
17319SOL     OW63175   1.365   9.938   0.076  0.6643  0.0748  0.0115
17319SOL    HW163176   1.387  10.031   0.045  0.6973  0.4821  1.2213
17319SOL    HW263177   1.379   9.932   0.174  0.1127 -1.0601  0.0260
17320SOL     OW63178   8.095   9.997   1.350 -0.4243  0.2428  0.0614
17320SOL    HW163179   8.130  10.087   1.378 -0.8815  0.6507 -0.6781
17320SOL    HW263180   8.007   9.980   1.395 -0.9308  0.6940 -0.7583
17321SOL     OW63181   9.197   7.309   3.704 -0.7515  0.6878  0.0785
17321SOL    HW163182   9.133   7.232   3.709  0.2612 -0.1763 -0.1600
17321SOL    HW263183   9.229   7.320   3.610  0.0110  0.6661  0.3353
17322SOL     OW63184   7.983   1.516   2.944 -0.0092 -0.2092  0.1779
17322SOL    HW163185   7.975   1.613   2.921  0.1048 -0.5870 -1.5115
17322SOL    HW263186   7.910   1.465   2.899 -0.4103 -0.8465  1.5252
17323SOL     OW63187   2.462   4.433   4.068  0.4076  0.0550 -0.0832
17323SOL    HW163188   2.392   4.500   4.044 -0.1531 -0.2718  0.6532
17323SOL    HW263189   2.441   4.345   4.025  1.2065  0.3723 -1.1465
17324SOL     OW63190   0.806   9.987   4.126  0.2535 -0.4898 -0.6618
17324SOL    HW163191   0.752   9.906   4.150  1.8365 -1.8081 -1.4017
17324SOL    HW263192   0.833   9.981   4.030 -0.4684  1.4344 -0.9933
17325SOL     OW63193   8.654   5.831   1.473 -0.4487 -0.7108  0.0884
17325SOL    HW163194   8.585   5.884   1.521 -0.9531 -0.8985 -0.4293
17325SOL    HW263195   8.743   5.846   1.516 -0.7326 -0.1194  0.4752
17326SOL     OW63196   8.936   3.017   4.675  0.1382  0.1161  0.1824
17326SOL    HW163197   8.905   2.958   4.601 -0.0047  1.1468 -0.5911
17326SOL    HW263198   9.036   3.028   4.669  0.2161 -0.3988  0.5801
17327SOL     OW63199   1.600   8.571   5.860  0.1181  0.7987 -0.1014
17327SOL    HW163200   1.693   8.548   5.834  0.1711 -0.7220  1.3004
17327SOL    HW263201   1.601   8.625   5.944 -0.2203  1.8529 -0.7659
17328SOL     OW63202   4.679   1.904   4.123 -0.2660  0.7872 -0.3164
17328SOL    HW163203   4.694   1.970   4.196 -0.3282  0.9054 -0.4103
17328SOL    HW263204   4.593   1.855   4.138 -0.1946  0.6915 -0.2192
17329SOL     OW63205   3.074   8.751   6.241 -1.0042  0.2108 -0.0955
17329SOL    HW163206   3.009   8.823   6.262 -1.1794  0.3434 -1.0576
17329SOL    HW263207   3.025   8.671   6.206 -0.7548 -0.1188  0.3146
17330SOL     OW63208   3.503   3.176   6.126 -0.1860 -0.7203  0.7200
17330SOL    HW163209   3.439   3.251   6.109 -0.3024 -1.0055 -0.1262
17330SOL    HW263210   3.525   3.131   6.039  0.3068 -1.3210  1.1542
17331SOL     OW63211   4.597   1.059   5.150 -0.3837  0.6594  0.1276
17331SOL    HW163212   4.690   1.029   5.172 -0.2063 -0.9508 -2.5915
17331SOL    HW263213   4.537   1.040   5.227  1.3308  0.7024  1.5030
17332SOL     OW63214   7.042   0.814   5.021 -0.0268  0.1005 -0.9007
17332SOL    HW163215   6.948   0.813   5.055  0.6139  0.9695  0.9665
17332SOL    HW263216   7.078   0.908   5.026  1.6368 -0.5852  0.3932
17333SOL     OW63217   1.005   4.129   2.817  0.0039  0.5342  0.5137
17333SOL    HW163218   1.068   4.055   2.842  0.2750  1.0154  1.2627
17333SOL    HW263219   1.057   4.209   2.789 -0.2821  0.7816  0.6926
17334SOL     OW63220   0.654   4.286   3.856  0.3946  0.5022 -0.3978
17334SOL    HW163221   0.722   4.342   3.808  0.4227  0.3536 -0.5303
17334SOL    HW263222   0.677   4.189   3.845  1.8366  0.5345  2.0523
17335SOL     OW63223   4.617   0.520   6.476  0.3533  0.0642  0.0017
17335SOL    HW163224   4.688   0.590   6.485  1.5350 -1.0294 -0.6783
17335SOL    HW263225   4.634   0.446   6.541  0.1833 -0.4886 -0.5718
17336SOL     OW63226   2.038   0.711   5.641  0.0386 -0.8289 -0.6302
17336SOL    HW163227   1.971   0.770   5.596 -1.2052 -0.9314  1.0361
17336SOL    HW263228   1.993   0.627   5.671  1.0522 -1.1877 -0.0965
17337SOL     OW63229   6.861   8.979   4.946 -0.2751  0.3495  0.3223
17337SOL    HW163230   6.828   8.986   4.852 -0.5432  2.2625  0.5437
17337SOL    HW263231   6.945   9.032   4.956 -0.2265  0.1161  1.1492
17338SOL     OW63232   0.930   5.165   5.795  0.0263 -0.4029 -0.8310
17338SOL    HW163233   1.015   5.163   5.742  0.8396 -0.6451  0.4429
17338SOL    HW263234   0.928   5.246   5.853 -0.0795 -0.9670 -0.0248
17339SOL     OW63235   9.002   1.923   6.650  0.7223  0.0016  0.2400
17339SOL    HW163236   9.027   1.829   6.673 -0.4480 -0.5206 -0.6077
17339SOL    HW263237   9.071   1.962   6.589 -0.2527 -1.2749 -1.7072
17340SOL     OW63238   9.558   9.762   1.416  0.1505 -0.3516 -0.3560
17340SOL    HW163239   9.555   9.860   1.393 -1.1689 -0.6400 -1.4290
17340SOL    HW263240   9.526   9.708   1.338 -0.8999 -1.5446  0.8882
17341SOL     OW63241   2.703   0.535   3.068  0.5672 -0.1592  0.5673
17341SOL    HW163242   2.631   0.604   3.066  2.3691  1.7704  0.7491
17341SOL    HW263243   2.727   0.510   2.974 -0.0838 -0.5580  0.5021
17342SOL     OW63244   8.204   6.422   4.483  0.5959  0.4833 -0.2729
17342SOL    HW163245   8.299   6.405   4.506  0.8433 -0.3063 -1.8274
17342SOL    HW263246   8.197   6.499   4.419  0.1613  0.7992  0.1474
17343SOL     OW63247   7.904   8.151   2.000 -0.0023  0.0978 -0.6307
17343SOL    HW163248   7.931   8.199   1.917 -0.3491 -1.0103 -1.3929
17343SOL    HW263249   7.919   8.053   1.989  0.0890 -0.0512  0.6681
17344SOL     OW63250   8.603   6.015   1.916 -0.4089  0.3283 -0.1608
17344SOL    HW163251   8.515   6.058   1.932  0.4722  1.3845  1.9663
17344SOL    HW263252   8.633   5.967   1.999 -0.3615 -2.5968 -1.7777
17345SOL     OW63253   8.157   4.169   5.149 -0.0121 -0.4009 -0.4069
17345SOL    HW163254   8.255   4.164   5.168 -0.3005  0.0593  1.2796
17345SOL    HW263255   8.130   4.265   5.141 -0.2175 -0.5433 -1.4818
17346SOL     OW63256   1.773   0.332   2.193 -0.1084 -0.1571  0.0617
17346SOL    HW163257   1.731   0.255   2.146  2.3636  0.2059 -2.8668
17346SOL    HW263258   1.712   0.411   2.190 -1.5735 -1.2434  0.8647
17347SOL     OW63259   0.132   6.661   3.467  0.1420 -0.0686  0.8838
17347SOL    HW163260   0.053   6.607   3.436  0.8606 -0.5143 -0.1975
17347SOL    HW263261   0.131   6.667   3.567 -2.5454  1.8584  0.7913
17348SOL     OW63262   6.947   4.560   6.544  0.8348 -0.5662  0.0017
17348SOL    HW163263   7.032   4.610   6.528  0.7937 -0.1341  1.0982
17348SOL    HW263264   6.968   4.468   6.577  0.8840 -0.4406  0.3268
17349SOL     OW63265   6.097   0.449   2.358  0.1820 -0.1388  0.1584
17349SOL    HW163266   6.027   0.426   2.290 -2.1026 -0.2752  2.4722
17349SOL    HW263267   6.107   0.548   2.362  1.4559 -0.1786 -1.4340
17350SOL     OW63268   3.188   1.231   1.365 -0.3642  0.0461 -0.1182
17350SOL    HW163269   3.115   1.296   1.345  0.7963  1.4663  0.0950
17350SOL    HW263270   3.277   1.275   1.348  0.4637 -1.1843  0.8966
17351SOL     OW63271   2.828   2.432   0.264  0.4976  0.3532 -0.1339
17351SOL    HW163272   2.752   2.475   0.315  0.1170 -0.4077 -0.0528
17351SOL    HW263273   2.849   2.487   0.184 -0.9384 -0.0521 -0.8077
17352SOL     OW63274   3.663   1.989   5.924 -0.1678 -0.0089 -0.6684
17352SOL    HW163275   3.582   1.982   5.981  0.2607  0.8313  0.0651
17352SOL    HW263276   3.734   1.929   5.959  0.0435  0.3936 -0.3991
17353SOL     OW63277   3.342   5.272   4.925 -0.4183 -0.0225 -0.2159
17353SOL    HW163278   3.324   5.366   4.955 -0.3872 -0.0907  0.0137
17353SOL    HW263279   3.256   5.221   4.923 -0.9385  0.8317 -3.2027
17354SOL     OW63280   0.760   2.288   2.120 -0.2368  0.0434  0.5166
17354SOL    HW163281   0.804   2.374   2.096 -0.3550 -0.2625 -0.8788
17354SOL    HW263282   0.829   2.223   2.151  0.4310 -0.6098 -2.1796
17355SOL     OW63283   7.735   1.297   0.413  0.3409  0.4114  0.1158
17355SOL    HW163284   7.833   1.298   0.393  0.3318 -3.7827 -0.6121
17355SOL    HW263285   7.688   1.236   0.349 -2.4859  0.9836  1.5430
17356SOL     OW63286   9.134   1.694   5.894  0.0246  0.1253  0.5305
17356SOL    HW163287   9.054   1.687   5.954  0.2462 -0.4048  0.7679
17356SOL    HW263288   9.200   1.622   5.918  0.3151  0.1993 -0.0473
17357SOL     OW63289   4.325   1.792   3.566 -0.7095 -0.4746  0.2289
17357SOL    HW163290   4.416   1.824   3.590 -0.4673 -0.6696 -0.4070
17357SOL    HW263291   4.329   1.696   3.539 -0.9485 -0.2432 -0.6708
17358SOL     OW63292   1.589   4.233   3.703 -0.8249 -0.4353  0.3200
17358SOL    HW163293   1.645   4.252   3.783  0.9221 -0.7981 -0.7786
17358SOL    HW263294   1.517   4.302   3.694  0.8788  1.4005  0.4595
17359SOL     OW63295   9.025   6.432   1.391  0.2428  0.2134  0.1184
17359SOL    HW163296   9.079   6.350   1.371 -1.1419 -1.0712  1.4497
17359SOL    HW263297   9.085   6.506   1.421  1.2666 -1.2186  1.6805
17360SOL     OW63298   5.261   8.759   2.781 -0.7367  0.5302 -0.1782
17360SOL    HW163299   5.172   8.732   2.817  0.0778  0.5918  1.9771
17360SOL    HW263300   5.299   8.832   2.838  1.0662 -0.0855 -0.5600
17361SOL     OW63301   5.486   8.834   4.846 -0.1015  0.1789  0.2793
17361SOL    HW163302   5.503   8.862   4.941 -3.1336  0.0654  0.9207
17361SOL    HW263303   5.483   8.734   4.841  3.1772  0.0827 -0.5717
17362SOL     OW63304   6.779   9.005   5.502  0.5425  0.1315 -0.4998
17362SOL    HW163305   6.810   8.917   5.538  1.9543  1.1047  0.7001
17362SOL    HW263306   6.681   9.014   5.519  0.9207  0.0126  1.9944
17363SOL     OW63307   7.455   7.291   1.190  0.2990  0.0420  0.3178
17363SOL    HW163308   7.361   7.267   1.166  0.1965  0.5947  0.1528
17363SOL    HW263309   7.461   7.311   1.288  0.3664 -0.5665  0.4377
17364SOL     OW63310   0.316   4.904   0.590  0.1874  0.0580  0.2599
17364SOL    HW163311   0.398   4.926   0.643 -0.2246  0.4743  0.7354
17364SOL    HW263312   0.334   4.824   0.533  1.2454  0.7638 -0.4075
17365SOL     OW63313   7.039   1.211   3.939 -0.0448 -0.2048  0.0780
17365SOL    HW163314   7.001   1.193   3.848 -1.4708 -2.2787  1.0235
17365SOL    HW263315   7.042   1.125   3.990 -1.5142  1.3064  2.8212
17366SOL     OW63316   5.338   7.343   2.307  0.0819 -0.2835 -0.4067
17366SOL    HW163317   5.256   7.303   2.350 -0.7111 -0.7600 -2.2984
17366SOL    HW263318   5.413   7.345   2.373 -0.2907 -3.5884  0.1990
17367SOL     OW63319   8.259   2.304   1.527 -0.0403 -0.2096 -0.3516
17367SOL    HW163320   8.282   2.277   1.620  1.1981  1.3366 -0.1993
17367SOL    HW263321   8.201   2.386   1.529  1.0887  0.6280 -0.9523
17368SOL     OW63322   9.159   5.001   3.839 -0.2960 -0.0494 -0.0747
17368SOL    HW163323   9.189   5.017   3.745 -0.7975  1.5895  0.0302
17368SOL    HW263324   9.200   4.917   3.873  0.5393 -0.2267 -1.4812
17369SOL     OW63325   1.213   8.204   0.302  0.0669  0.3496  0.0810
17369SOL    HW163326   1.168   8.270   0.243  0.5838  1.7689  1.2448
17369SOL    HW263327   1.311   8.224   0.308  0.0121  0.2892  1.4761
17370SOL     OW63328   2.794   6.402   4.835  0.3198 -0.1541  0.0272
17370SOL    HW163329   2.714   6.343   4.824  1.2863 -1.3301 -0.7680
17370SOL    HW263330   2.825   6.433   4.745  1.2818 -0.3906  0.2797
17371SOL     OW63331   6.673   9.776   5.488 -0.4622  0.5202  0.1862
17371SOL    HW163332   6.768   9.757   5.514 -0.4147 -1.0116 -1.0139
17371SOL    HW263333   6.668   9.864   5.440  0.4739  0.2789 -0.3711
17372SOL     OW63334   8.961   2.678   5.327  0.2146 -0.1792  0.0365
17372SOL    HW163335   8.871   2.639   5.347  0.1823 -1.0368 -1.6308
17372SOL    HW263336   8.952   2.750   5.258  0.9956 -1.6171 -1.6159
17373SOL     OW63337   1.760   4.721   0.073  0.1771 -0.3330  0.6776
17373SOL    HW163338   1.830   4.671   0.021  0.0155  0.2996 -0.1611
17373SOL    HW263339   1.752   4.814   0.037 -2.1412 -0.8404 -0.2287
17374SOL     OW63340   3.389   9.125   0.602 -0.0313  0.0537  0.1294
17374SOL    HW163341   3.294   9.128   0.631 -0.2733 -2.2961 -0.2682
17374SOL    HW263342   3.393   9.131   0.502 -0.0270 -2.7949 -0.0899
17375SOL     OW63343   7.258   0.558   1.829  0.2082 -0.2726 -0.0946
17375SOL    HW163344   7.281   0.499   1.751  0.6267 -0.2700  0.0234
17375SOL    HW263345   7.196   0.510   1.890 -1.5391  0.3783 -1.3335
17376SOL     OW63346   7.001   2.101   2.978  0.4108 -0.3021  0.0649
17376SOL    HW163347   7.006   2.029   2.909 -1.0296  0.8656 -1.2922
17376SOL    HW263348   7.045   2.184   2.942  0.8128 -0.0632  1.0764
17377SOL     OW63349   4.725   0.951   3.234 -0.2199 -0.5143  0.4197
17377SOL    HW163350   4.715   0.866   3.183 -0.7145  0.4673 -1.1440
17377SOL    HW263351   4.822   0.973   3.242  0.0552 -2.3740  2.8004
17378SOL     OW63352   8.364   8.978   2.719 -0.7638  0.2056  0.2127
17378SOL    HW163353   8.404   8.938   2.637  1.3223  1.3392  0.6531
17378SOL    HW263354   8.300   9.050   2.693  0.4334  1.0463 -0.3929
17379SOL     OW63355   0.290   9.836   3.687 -0.0353 -0.0809  0.1763
17379SOL    HW163356   0.310   9.744   3.652 -0.9453 -0.0806 -0.3568
17379SOL    HW263357   0.248   9.829   3.777  0.9585 -0.1372  0.6442
17380SOL     OW63358   7.058   0.507   0.935 -0.4434  0.0336 -0.0662
17380SOL    HW163359   7.089   0.482   0.844 -0.2479  0.7545 -0.1929
17380SOL    HW263360   7.136   0.514   0.997 -0.6312 -1.0990  0.3192
17381SOL     OW63361   9.769   1.986   5.167 -0.0201 -0.2688 -0.1475
17381SOL    HW163362   9.670   1.971   5.160  0.0452 -0.0401 -1.8619
17381SOL    HW263363   9.817   1.919   5.111  0.7791 -0.0705  0.2923
17382SOL     OW63364   9.732   1.927   0.450 -0.0616 -0.1622 -0.4623
17382SOL    HW163365   9.684   1.915   0.537  1.7430 -0.2249  0.5349
17382SOL    HW263366   9.683   1.994   0.394 -0.7372  0.5494  0.9704
17383SOL     OW63367   2.709   3.655   6.458 -0.3159  0.0356 -0.1199
17383SOL    HW163368   2.727   3.732   6.520  1.1575 -0.6738  0.3711
17383SOL    HW263369   2.616   3.622   6.472 -0.8038  1.4142  0.0103
17384SOL     OW63370   5.357   1.300   0.727  0.0566  0.1511  0.0184
17384SOL    HW163371   5.330   1.333   0.637 -0.7442 -0.5765 -0.0124
17384SOL    HW263372   5.351   1.376   0.793 -0.5718  0.3757 -0.2916
17385SOL     OW63373   2.849   0.619   3.459 -1.1956 -0.1617 -0.2033
17385SOL    HW163374   2.771   0.613   3.521 -1.1129  0.7258  0.0039
17385SOL    HW263375   2.828   0.570   3.375 -0.5783 -2.9716  1.2407
17386SOL     OW63376   2.853   2.802   0.727 -0.4700 -0.5387 -0.8681
17386SOL    HW163377   2.866   2.712   0.684 -0.7504 -0.6710 -0.6732
17386SOL    HW263378   2.791   2.793   0.804 -0.8067 -0.1035 -1.0891
17387SOL     OW63379   4.751   3.299   2.002 -0.2618  0.3440 -0.0171
17387SOL    HW163380   4.846   3.271   1.986  0.3565  1.6007  1.3290
17387SOL    HW263381   4.693   3.218   2.005  1.0559 -0.5947  0.9601
17388SOL     OW63382   2.093   8.749   1.126 -0.2903 -0.0969 -0.2563
17388SOL    HW163383   2.066   8.834   1.172 -0.7105 -0.1924 -0.3292
17388SOL    HW263384   2.189   8.756   1.099 -0.0270 -0.0614  0.6838
17389SOL     OW63385   0.233   5.718   6.355  0.3501  0.3399  0.3105
17389SOL    HW163386   0.214   5.621   6.340 -2.0378  0.7201  0.7099
17389SOL    HW263387   0.331   5.731   6.370  0.3651 -2.3229  2.7705
17390SOL     OW63388   3.220   4.846   1.973  0.1908 -0.2024  0.8181
17390SOL    HW163389   3.280   4.839   1.894 -1.0098 -1.8885  0.0215
17390SOL    HW263390   3.254   4.788   2.047  0.6659  0.4531  1.1164
17391SOL     OW63391   3.049   1.234   5.593 -0.3152 -0.0862 -0.6015
17391SOL    HW163392   3.105   1.222   5.675 -2.1581  0.3598  0.7370
17391SOL    HW263393   3.109   1.243   5.513  1.5435  0.9519  0.8769
17392SOL     OW63394   1.168   2.477   3.331  0.1899  0.5032  0.0925
17392SOL    HW163395   1.251   2.427   3.306 -0.3736 -0.8427  0.8590
17392SOL    HW263396   1.193   2.571   3.355  1.3557  0.4124 -0.6974
17393SOL     OW63397   3.624   2.768   4.378  0.0989 -0.3659  0.3289
17393SOL    HW163398   3.525   2.784   4.385 -0.1453 -1.4014 -0.6040
17393SOL    HW263399   3.667   2.847   4.334 -0.3935 -0.1263  0.2702
17394SOL     OW63400   0.569   4.926   2.414 -0.3955 -0.2099 -0.5414
17394SOL    HW163401   0.547   4.905   2.319 -2.2507 -1.8759  0.2278
17394SOL    HW263402   0.485   4.947   2.464  0.3969 -0.8096  1.0783
17395SOL     OW63403   8.021   9.127   5.266  0.2020  0.6765 -0.2313
17395SOL    HW163404   8.061   9.177   5.189 -1.8055  0.7985 -1.2332
17395SOL    HW263405   7.992   9.193   5.336  2.2341  0.5517  0.7491
17396SOL     OW63406   1.410   4.634   6.195 -0.1429 -0.0129  0.5165
17396SOL    HW163407   1.322   4.614   6.153  0.0407 -1.1286  0.6551
17396SOL    HW263408   1.396   4.678   6.284 -0.5492  0.1187  0.3882
17397SOL     OW63409   0.534   2.799   0.493  0.3229  0.2054 -0.5634
17397SOL    HW163410   0.493   2.709   0.477  1.3250  0.1041 -2.6193
17397SOL    HW263411   0.462   2.864   0.518 -0.4950 -0.9819  0.2838
17398SOL     OW63412   7.536   3.501   4.388 -0.2455  0.1921  0.4270
17398SOL    HW163413   7.493   3.411   4.386  0.8181 -0.3073 -1.1174
17398SOL    HW263414   7.625   3.494   4.434  0.2137  0.2643 -0.4342
17399SOL     OW63415   1.139   4.914   2.437  0.7200 -0.7322  0.2800
17399SOL    HW163416   1.082   4.834   2.457 -0.3473  0.4205  1.9446
17399SOL    HW263417   1.082   4.995   2.430  1.9384  0.1056 -0.1560
17400SOL     OW63418   8.893   8.078   1.442  0.3517  0.1459 -0.3422
17400SOL    HW163419   8.864   7.998   1.390 -0.0869 -1.0640  1.7089
17400SOL    HW263420   8.880   8.061   1.540  3.3553  1.4454  0.3508
17401SOL     OW63421   6.796   7.180   5.141  0.1326  0.8640  0.1018
17401SOL    HW163422   6.885   7.170   5.185  0.2545 -0.8547 -0.4884
17401SOL    HW263423   6.795   7.128   5.055 -2.0172 -0.6307  0.9720
17402SOL     OW63424   3.653   9.375   3.119 -0.2005 -0.1469  0.0708
17402SOL    HW163425   3.650   9.371   3.019 -0.1396 -2.6373  0.1211
17402SOL    HW263426   3.602   9.297   3.157 -0.4603  0.9274  1.9855
17403SOL     OW63427   9.079   9.855   0.210  0.0711 -0.1776  0.0663
17403SOL    HW163428   9.104   9.795   0.134  0.6518 -0.6893  0.6536
17403SOL    HW263429   9.131   9.829   0.291 -0.5892  0.3340  0.6554
17404SOL     OW63430   0.375   5.177   2.478  0.0576 -0.7328  0.1528
17404SOL    HW163431   0.340   5.084   2.493 -0.9012 -0.3818  0.1310
17404SOL    HW263432   0.344   5.236   2.553 -1.9131  0.2626 -1.3863
17405SOL     OW63433   4.896   9.862   1.075  0.0425 -0.0443  0.3816
17405SOL    HW163434   4.879   9.927   1.149 -2.3849 -2.7615  2.3032
17405SOL    HW263435   4.837   9.883   0.997 -1.2085 -0.2981  1.2479
17406SOL     OW63436   1.934   9.511   0.234  0.0743  0.4472 -0.2589
17406SOL    HW163437   1.984   9.516   0.320 -1.6241  0.5283  0.7320
17406SOL    HW263438   1.940   9.418   0.197  1.3303  0.5722 -0.3876
17407SOL     OW63439   3.201   1.211   2.326  0.4052  0.2442  0.6131
17407SOL    HW163440   3.277   1.275   2.315  0.7693 -0.3983 -0.7315
17407SOL    HW263441   3.116   1.255   2.297  0.7066  0.0320 -0.6390
17408SOL     OW63442   3.123   5.158   3.382 -0.1375 -0.0436  0.4432
17408SOL    HW163443   3.185   5.148   3.303  1.6395  0.6531  1.7096
17408SOL    HW263444   3.038   5.200   3.352  1.1340  1.7033 -0.8603
17409SOL     OW63445   6.156   0.196   2.451  0.0558 -0.1561 -0.1314
17409SOL    HW163446   6.135   0.271   2.389  1.4840  0.8282  0.5675
17409SOL    HW263447   6.117   0.111   2.414 -0.7483  0.7446 -1.3942
17410SOL     OW63448   8.975   6.296   6.376  0.4403 -0.1546  0.6065
17410SOL    HW163449   8.894   6.354   6.362  0.3247 -0.9681 -2.3459
17410SOL    HW263450   8.950   6.200   6.364  1.5398 -0.5355  1.2841
17411SOL     OW63451   2.353   3.599   4.319  0.7539  0.1134  0.3654
17411SOL    HW163452   2.312   3.516   4.280 -1.2857  0.5878  1.4085
17411SOL    HW263453   2.350   3.672   4.252  0.8692 -0.1613  0.0588
17412SOL     OW63454   6.033   0.616   5.120  0.6300  0.3213  0.4468
17412SOL    HW163455   6.051   0.714   5.117 -0.0590  0.4626  0.9452
17412SOL    HW263456   6.031   0.580   5.026  2.8855  0.4000  0.3417
17413SOL     OW63457   0.288   1.469   2.750  0.0082  0.1315 -0.4107
17413SOL    HW163458   0.279   1.373   2.724 -1.2736  0.1709 -0.1520
17413SOL    HW263459   0.343   1.517   2.681  1.4883 -0.9774 -0.0274
17414SOL     OW63460   0.912   0.429   2.316  0.0087 -0.8671  0.2829
17414SOL    HW163461   0.838   0.406   2.379 -0.4555 -0.5318 -0.1439
17414SOL    HW263462   0.875   0.469   2.233  0.5677 -1.9895 -0.5277
17415SOL     OW63463   3.395   7.541   2.436 -0.6445 -0.0096 -0.1821
17415SOL    HW163464   3.447   7.582   2.361 -1.2991  0.9991 -0.0904
17415SOL    HW263465   3.453   7.477   2.485  0.8862  1.9238  0.6074
17416SOL     OW63466   1.253   5.139   6.483  0.2390 -0.2950  0.0322
17416SOL    HW163467   1.195   5.220   6.477  0.7134 -0.0052 -0.6927
17416SOL    HW263468   1.223   5.082   6.559  0.6041  1.1370  1.2849
17417SOL     OW63469   3.945   8.811   1.700  0.6712  1.1107 -0.5956
17417SOL    HW163470   3.888   8.885   1.663  0.3765  1.4825  0.5702
17417SOL    HW263471   4.041   8.829   1.678  0.7792  2.7294  1.1326
17418SOL     OW63472   7.304   1.057   6.679  0.0677  0.2332  0.2037
17418SOL    HW163473   7.316   1.006   6.765  1.1769  0.7764  0.3835
17418SOL    HW263474   7.392   1.063   6.632 -0.2068  1.3402 -0.1779
17419SOL     OW63475   9.263   3.237   3.578 -0.0144  0.0463 -0.4278
17419SOL    HW163476   9.289   3.300   3.504 -1.5837 -2.5098 -3.2328
17419SOL    HW263477   9.168   3.255   3.604 -0.0740 -0.3531 -0.3754
17420SOL     OW63478   0.730   3.233   1.268 -0.0110  0.2214 -0.0035
17420SOL    HW163479   0.706   3.312   1.324 -0.3894 -0.7416  1.2444
17420SOL    HW263480   0.802   3.257   1.204 -0.7590  1.8057 -0.2607
17421SOL     OW63481   0.173   8.391   0.774  0.7965 -0.3531 -0.3583
17421SOL    HW163482   0.151   8.294   0.756 -0.5926 -0.1185  0.0374
17421SOL    HW263483   0.089   8.441   0.794  1.2649  1.3264 -2.3440
17422SOL     OW63484   2.657   2.796   1.338 -0.1567  0.9107  0.0414
17422SOL    HW163485   2.706   2.883   1.325 -1.1854  1.4547 -0.2805
17422SOL    HW263486   2.562   2.808   1.310 -0.2462 -0.3988 -0.2123
17423SOL     OW63487   2.879   9.254   4.640  0.3503 -0.4715 -0.4251
17423SOL    HW163488   2.929   9.305   4.569 -2.1577  3.0084  0.1916
17423SOL    HW263489   2.916   9.278   4.730 -0.3572 -0.3064 -0.1768
17424SOL     OW63490   5.784   1.747   5.248 -0.0882  0.3247 -0.0261
17424SOL    HW163491   5.697   1.774   5.206 -0.1582 -0.1519 -0.2005
17424SOL    HW263492   5.860   1.779   5.191 -0.1808 -0.2232 -0.4689
17425SOL     OW63493   6.283   5.177   1.478 -0.4294 -0.2455 -0.0286
17425SOL    HW163494   6.232   5.095   1.454 -0.9374 -0.1565  0.7570
17425SOL    HW263495   6.235   5.258   1.443 -0.8180 -0.1642  0.6848
17426SOL     OW63496   4.567   9.243   5.781 -0.1632  0.1832  0.5612
17426SOL    HW163497   4.576   9.337   5.813 -1.3835  1.1144 -1.7046
17426SOL    HW263498   4.528   9.187   5.853  1.0667  1.2777  2.1147
17427SOL     OW63499   3.357   9.736   6.721  0.0771 -0.6689 -0.0918
17427SOL    HW163500   3.304   9.678   6.660  0.5636 -1.2608  0.0459
17427SOL    HW263501   3.331   9.832   6.707 -1.4737 -0.9984  0.4286
17428SOL     OW63502   0.818   9.584   3.910 -0.0299  0.1662 -0.3120
17428SOL    HW163503   0.729   9.538   3.900 -0.4394  0.6489  0.9424
17428SOL    HW263504   0.857   9.602   3.820 -1.0585 -0.3284 -0.8689
17429SOL     OW63505   1.449   4.061   5.865 -0.3346  0.3526 -0.4448
17429SOL    HW163506   1.351   4.046   5.857 -0.0906 -2.8038  1.7583
17429SOL    HW263507   1.471   4.087   5.959  0.9057  1.5995 -1.0552
17430SOL     OW63508   3.794   2.551   0.025 -0.3140  0.0014  0.3458
17430SOL    HW163509   3.891   2.572   0.035 -0.0927  0.4334 -2.1864
17430SOL    HW263510   3.762   2.499   0.104  1.3207  2.1275  2.4653
17431SOL     OW63511   3.583   9.648   4.232 -0.0787  0.7515  0.3164
17431SOL    HW163512   3.584   9.639   4.132  0.9521 -2.0316  0.5157
17431SOL    HW263513   3.623   9.736   4.258 -3.1063  2.8102 -1.7844
17432SOL     OW63514   2.465   9.934   1.513  0.7488 -0.2238  0.1343
17432SOL    HW163515   2.494  10.030   1.508  0.6906 -0.1671  0.8263
17432SOL    HW263516   2.539   9.879   1.550  1.1001 -0.5940 -1.1027
17433SOL     OW63517   0.397   9.489   1.162  0.2590  0.4826  0.3108
17433SOL    HW163518   0.364   9.575   1.203 -0.5587  0.5559 -0.4935
17433SOL    HW263519   0.360   9.480   1.070 -0.8220 -1.4235  0.9076
17434SOL     OW63520   9.725   0.387   4.933 -0.1673 -0.5442 -0.0909
17434SOL    HW163521   9.714   0.450   4.857  1.6360 -0.9386 -0.7103
17434SOL    HW263522   9.731   0.293   4.899  0.6600 -0.7242  0.5184
17435SOL     OW63523   1.752   8.547   4.017 -0.5528 -0.1263  0.2402
17435SOL    HW163524   1.714   8.520   3.929  1.2240 -2.1793  0.0605
17435SOL    HW263525   1.829   8.609   4.003  0.2290 -1.0721  0.2910
17436SOL     OW63526   9.056   5.354   5.942  0.4167 -0.5377  0.4274
17436SOL    HW163527   9.124   5.293   5.982 -1.6842 -2.5527  1.0174
17436SOL    HW263528   8.964   5.324   5.968 -0.6768  3.3160  1.3539
17437SOL     OW63529   9.964   9.718   0.817 -0.3914  0.3354 -0.2850
17437SOL    HW163530   9.949   9.652   0.743 -1.1012 -1.0975  1.1090
17437SOL    HW263531   9.887   9.782   0.820 -0.7467 -0.0858 -0.3087
17438SOL     OW63532   7.581   2.771   5.131  0.2248  0.6211  0.3359
17438SOL    HW163533   7.630   2.730   5.054  1.3258 -0.3688  1.5462
17438SOL    HW263534   7.564   2.868   5.113 -0.2083  0.2143 -1.4851
17439SOL     OW63535   2.528   0.710   2.902 -0.0702  0.0067  0.5038
17439SOL    HW163536   2.429   0.706   2.887 -0.2044  2.6523  0.4641
17439SOL    HW263537   2.569   0.773   2.836  1.5800 -0.7124  0.8356
17440SOL     OW63538   0.170   6.201   4.747  0.8658  0.6571  0.2833
17440SOL    HW163539   0.182   6.142   4.667  0.2686  1.4285 -0.3954
17440SOL    HW263540   0.230   6.281   4.738  1.9792 -0.0501  1.3965
17441SOL     OW63541   1.730   3.544   3.523 -0.5426 -0.2094 -0.0137
17441SOL    HW163542   1.673   3.484   3.579 -0.6546 -0.7194 -0.6696
17441SOL    HW263543   1.729   3.513   3.428  0.2596  0.1965 -0.1628
17442SOL     OW63544   5.860   1.208   1.953  0.2741 -0.3811  0.2519
17442SOL    HW163545   5.936   1.235   1.894  2.2398 -0.0482  2.8671
17442SOL    HW263546   5.879   1.118   1.993 -1.4960 -1.0476 -0.3159
17443SOL     OW63547   5.686   9.455   4.778  0.4295 -0.7683  0.6791
17443SOL    HW163548   5.642   9.545   4.773 -1.2529 -1.5253  1.4319
17443SOL    HW263549   5.707   9.423   4.685  0.3930  0.1020  0.3696
17444SOL     OW63550   4.391   0.305   0.181 -1.2879  0.0067 -0.1897
17444SOL    HW163551   4.401   0.269   0.274  0.0631  0.6298 -0.0828
17444SOL    HW263552   4.435   0.244   0.116 -1.5477 -0.0240 -0.3400
17445SOL     OW63553   8.456   1.392   1.051  0.8434 -0.8446  0.4905
17445SOL    HW163554   8.397   1.355   1.122 -0.4520 -0.5785 -0.4433
17445SOL    HW263555   8.402   1.414   0.970  1.6596  2.5251  0.7867
17446SOL     OW63556   1.269   8.622   3.489  0.2248  0.1677  0.7377
17446SOL    HW163557   1.198   8.600   3.422 -0.7144 -0.6820  2.0035
17446SOL    HW263558   1.290   8.541   3.543  1.1388  0.7978  1.3415
17447SOL     OW63559   3.660   5.451   2.669  0.6387 -0.3819 -0.1060
17447SOL    HW163560   3.587   5.520   2.675  0.2938 -0.8850  1.7938
17447SOL    HW263561   3.685   5.438   2.574 -0.6469  0.9750 -0.6541
17448SOL     OW63562   5.695   1.934   0.757 -0.4753  0.9646  0.0809
17448SOL    HW163563   5.689   1.969   0.663  0.9601  0.8353 -0.0770
17448SOL    HW263564   5.746   1.999   0.813 -0.5678  0.6226  0.5668
17449SOL     OW63565   9.850   3.057   5.276 -0.1113  0.1750 -0.4838
17449SOL    HW163566   9.768   3.113   5.272  0.1178  0.5804  0.5036
17449SOL    HW263567   9.830   2.973   5.326  0.6782  1.3157  1.7897
17450SOL     OW63568   0.158   6.506   6.006 -0.0686  0.0664 -0.3937
17450SOL    HW163569   0.070   6.524   6.049 -1.1999 -0.7557 -2.2836
17450SOL    HW263570   0.224   6.576   6.035 -2.1508  2.4925 -1.2621
17451SOL     OW63571   0.563   5.103   4.058 -0.1138  0.1580  0.0607
17451SOL    HW163572   0.524   5.049   4.132  0.6593 -1.3258 -0.5999
17451SOL    HW263573   0.593   5.043   3.984  1.5845  1.3937 -0.2993
17452SOL     OW63574   0.251   1.189   0.923 -0.7882 -0.2284 -0.6899
17452SOL    HW163575   0.325   1.235   0.973 -0.3889 -0.9531 -0.6040
17452SOL    HW263576   0.237   1.235   0.835 -1.4557  1.0209  0.0507
17453SOL     OW63577   7.694   0.775   1.309 -0.6668 -0.1199 -0.5973
17453SOL    HW163578   7.697   0.867   1.348  0.0593 -1.4637  2.7428
17453SOL    HW263579   7.779   0.727   1.332 -1.6424 -2.0831 -1.0013
17454SOL     OW63580   2.077   1.725   6.594 -0.6642  0.3561 -0.1308
17454SOL    HW163581   2.134   1.656   6.639  0.0429  0.1362 -1.3116
17454SOL    HW263582   2.038   1.786   6.662 -1.8470 -1.6100  1.0096
17455SOL     OW63583   1.068   8.021   0.454  0.1858  0.5130 -0.0345
17455SOL    HW163584   0.983   7.975   0.427 -0.6435  0.9154  1.8065
17455SOL    HW263585   1.084   8.099   0.394 -0.5346  0.1883 -0.6543
17456SOL     OW63586   0.350   3.233   5.484  0.1303 -0.4961 -0.0546
17456SOL    HW163587   0.367   3.297   5.559 -2.4175 -1.3070  1.2636
17456SOL    HW263588   0.392   3.268   5.400  3.0906  0.4001  1.7210
17457SOL     OW63589   8.266   0.692   5.041  0.2671  0.3643 -0.5314
17457SOL    HW163590   8.181   0.711   4.991  0.4374  4.1934  0.4625
17457SOL    HW263591   8.245   0.641   5.124 -0.8590 -0.1461 -1.1175
17458SOL     OW63592   0.935   0.338   3.611  0.3729  0.5696 -0.5777
17458SOL    HW163593   0.880   0.292   3.681  1.5181 -0.1057 -0.1113
17458SOL    HW263594   0.942   0.435   3.631 -1.4771  0.8545 -1.1822
17459SOL     OW63595   0.920   3.237   6.722 -0.0770  0.0347  0.0896
17459SOL    HW163596   0.884   3.235   6.629  0.1379  1.5934 -0.0475
17459SOL    HW263597   0.969   3.152   6.741 -0.6598 -0.5535 -0.9996
17460SOL     OW63598   7.703   1.689   1.074  0.0162  0.0685  0.4210
17460SOL    HW163599   7.703   1.784   1.107  0.3692  0.1589  0.1670
17460SOL    HW263600   7.791   1.669   1.031 -0.1618 -0.2865  0.2191
17461SOL     OW63601   1.507   1.211   1.315  0.0361 -0.2443 -0.7231
17461SOL    HW163602   1.520   1.173   1.407  1.4982 -0.4129 -0.9818
17461SOL    HW263603   1.485   1.308   1.322  1.6711  0.1140 -0.2188
17462SOL     OW63604   0.915   5.034   6.043 -0.3646 -0.1254  0.0672
17462SOL    HW163605   0.948   5.034   5.948  0.5562 -0.1015  0.3924
17462SOL    HW263606   0.815   5.043   6.042 -0.4415 -0.9258 -0.9260
17463SOL     OW63607   5.419   7.647   3.646  0.3561  0.9117 -0.2941
17463SOL    HW163608   5.450   7.692   3.729  0.2787  2.0322 -0.8647
17463SOL    HW263609   5.320   7.635   3.649  0.4741  0.0143  0.2234
17464SOL     OW63610   3.974   2.568   1.761  0.8212  0.0486  0.2765
17464SOL    HW163611   4.000   2.472   1.773 -0.2397 -0.1736  0.8141
17464SOL    HW263612   4.056   2.622   1.741  1.0571 -1.4406 -3.0902
17465SOL     OW63613   0.637   5.594   0.015  0.0901  0.3334  0.1963
17465SOL    HW163614   0.702   5.663   0.046 -1.2952  1.5199  0.5432
17465SOL    HW263615   0.546   5.635   0.010 -0.9239 -1.7101  1.3328
17466SOL     OW63616   6.446   2.253   4.652  0.0361  0.5159 -0.5163
17466SOL    HW163617   6.525   2.191   4.646  0.2672  0.7946 -0.3458
17466SOL    HW263618   6.387   2.239   4.573  0.1773  0.1956 -0.5656
17467SOL     OW63619   1.521   6.940   0.941  0.5744 -0.7457 -0.3032
17467SOL    HW163620   1.505   7.019   0.882 -3.5519 -0.5769  0.8431
17467SOL    HW263621   1.505   6.856   0.889  2.7602 -0.8149 -0.9208
17468SOL     OW63622   3.630   3.642   4.078  0.0103 -0.0864  0.6124
17468SOL    HW163623   3.699   3.659   4.148  1.4632 -1.2834 -0.4932
17468SOL    HW263624   3.634   3.715   4.009 -2.0761  1.6240  2.2252
17469SOL     OW63625   0.921   2.778   2.747  0.6687  0.2480  0.0169
17469SOL    HW163626   0.956   2.770   2.840 -0.7934  1.4636  0.6899
17469SOL    HW263627   0.995   2.763   2.682  1.2932 -2.6710  1.3349
17470SOL     OW63628   1.378   4.571   4.206  0.3045  0.0801 -0.1058
17470SOL    HW163629   1.287   4.535   4.228  1.3291 -1.1968  2.1763
17470SOL    HW263630   1.399   4.648   4.266  1.0712 -0.1962 -0.0102
17471SOL     OW63631   0.301   1.221   2.666  0.7041  0.1190  0.0863
17471SOL    HW163632   0.244   1.242   2.586 -0.2953 -2.5173  0.0634
17471SOL    HW263633   0.396   1.211   2.637  0.3304 -0.9577 -0.8110
17472SOL     OW63634   2.507   5.448   5.542  0.4199  0.1953  0.6142
17472SOL    HW163635   2.549   5.358   5.530 -0.0558 -0.0003  0.4038
17472SOL    HW263636   2.474   5.458   5.636 -2.0671 -0.9521 -0.0941
17473SOL     OW63637   8.444   7.286   0.772 -0.5980 -0.1451  0.0241
17473SOL    HW163638   8.481   7.195   0.756  0.7003  0.3142  0.3351
17473SOL    HW263639   8.516   7.354   0.756 -1.0174  0.6990  1.6793
17474SOL     OW63640   2.483   4.764   6.002  0.0323  0.1557  0.2072
17474SOL    HW163641   2.488   4.857   5.966  2.2054 -0.5321 -1.4289
17474SOL    HW263642   2.563   4.746   6.059 -1.0681 -0.2809  1.6216
17475SOL     OW63643   4.413   3.027   2.363 -0.3070 -0.1587  0.0899
17475SOL    HW163644   4.417   3.112   2.310  1.6469 -1.4856 -1.9677
17475SOL    HW263645   4.492   3.022   2.424  0.7798 -1.4949 -1.3954
17476SOL     OW63646   4.942   2.643   3.137  0.0809  0.6690  0.0697
17476SOL    HW163647   4.928   2.544   3.143 -0.7535  0.6228 -2.1889
17476SOL    HW263648   4.891   2.688   3.211 -2.3698 -0.3691 -0.9230
17477SOL     OW63649   2.393   7.825   4.062  0.1284  0.4980  0.2295
17477SOL    HW163650   2.408   7.887   4.140 -0.7501 -0.3815  1.1176
17477SOL    HW263651   2.458   7.847   3.989  0.8013  1.5039  1.1104
17478SOL     OW63652   8.379   2.451   6.234  0.0768 -0.1685  0.5319
17478SOL    HW163653   8.374   2.446   6.334 -1.4193  0.7275  0.5098
17478SOL    HW263654   8.472   2.428   6.205  0.4324 -0.8167  2.0990
17479SOL     OW63655   1.223   7.087   1.428  0.1298 -0.4680  0.3525
17479SOL    HW163656   1.274   7.111   1.345  1.0727  0.8144  1.2858
17479SOL    HW263657   1.285   7.082   1.506 -1.0312  0.3041  1.3609
17480SOL     OW63658   9.057   9.694   1.162 -0.5540  0.6125 -0.4230
17480SOL    HW163659   9.008   9.773   1.125 -0.4026  0.1780 -1.5795
17480SOL    HW263660   9.014   9.610   1.128  0.7130  0.2269 -1.1138
17481SOL     OW63661   2.096   6.123   1.370  0.5116  0.0296 -0.3878
17481SOL    HW163662   2.172   6.180   1.337 -0.4795  0.8343 -1.3016
17481SOL    HW263663   2.089   6.132   1.469  0.8683  0.8729 -0.4330
17482SOL     OW63664   1.866   1.174   0.338  0.1169 -0.2589  0.1956
17482SOL    HW163665   1.800   1.244   0.364 -0.3636 -0.3165 -0.8140
17482SOL    HW263666   1.841   1.087   0.381 -0.5490 -0.3076 -0.2683
17483SOL     OW63667   9.018   6.765   4.663 -0.0963  0.3163  0.2045
17483SOL    HW163668   8.966   6.707   4.725  1.3461 -0.2881  0.8694
17483SOL    HW263669   8.956   6.807   4.596 -1.4842  0.0164  1.2919
17484SOL     OW63670   6.103   5.425   0.836 -0.4257  0.3152  0.2204
17484SOL    HW163671   6.062   5.357   0.776  0.0983  0.8105 -0.7104
17484SOL    HW263672   6.040   5.503   0.846 -0.0677  0.7099 -0.5532
17485SOL     OW63673   8.788   7.568   6.112  0.1088 -0.3422 -0.3872
17485SOL    HW163674   8.823   7.527   6.028  2.1220  0.2453  0.1323
17485SOL    HW263675   8.863   7.611   6.162 -0.8781 -1.5452  2.2192
17486SOL     OW63676   1.314   4.404   3.830  0.5054 -0.1340 -0.4120
17486SOL    HW163677   1.238   4.404   3.765 -0.4154  0.9788  0.6461
17486SOL    HW263678   1.298   4.335   3.901  1.7809 -1.7410 -1.6437
17487SOL     OW63679   1.961   3.394   6.097 -0.4131 -0.0584  0.8536
17487SOL    HW163680   2.037   3.412   6.035 -0.8044 -0.1444  0.3511
17487SOL    HW263681   1.967   3.457   6.175 -0.5097  0.7510  0.2104
17488SOL     OW63682   9.653   7.111   3.814  0.7974  0.1142 -0.0090
17488SOL    HW163683   9.593   7.044   3.771  0.3621  0.0313  0.7113
17488SOL    HW263684   9.677   7.080   3.906  0.0383  1.2708  0.5821
17489SOL     OW63685   4.196   9.203   5.637 -0.1715  0.2650  0.0813
17489SOL    HW163686   4.195   9.111   5.676  0.7619  0.3782  0.3772
17489SOL    HW263687   4.110   9.250   5.661 -0.2266 -0.1762  0.7750
17490SOL     OW63688   5.574   0.719   3.970  0.0146  0.5083  0.4703
17490SOL    HW163689   5.664   0.755   3.996  0.0891  0.9209 -0.3433
17490SOL    HW263690   5.568   0.623   3.997  1.2296  0.0792 -0.7013
17491SOL     OW63691   5.332   9.340   5.492 -0.5191 -0.3272  0.0986
17491SOL    HW163692   5.289   9.346   5.403 -0.8864  1.1585  0.3701
17491SOL    HW263693   5.365   9.430   5.520  0.5512 -0.9735  0.9879
17492SOL     OW63694   2.238   5.730   4.251 -0.0109  0.2039 -0.3147
17492SOL    HW163695   2.226   5.705   4.155 -0.6876  1.5140 -0.5843
17492SOL    HW263696   2.303   5.667   4.294 -0.4727 -1.0293 -1.3604
17493SOL     OW63697   8.790   2.008   0.079  0.4308  0.3275 -0.0970
17493SOL    HW163698   8.870   1.994   0.020  1.2763  0.6344  0.9440
17493SOL    HW263699   8.707   1.986   0.029  1.2138 -0.6530 -1.0018
17494SOL     OW63700   8.886   1.719   4.590 -0.1282  0.1420 -0.5009
17494SOL    HW163701   8.852   1.741   4.681 -0.7304  0.0150 -0.6970
17494SOL    HW263702   8.835   1.772   4.522 -0.6046 -0.7848 -0.8708
17495SOL     OW63703   7.414   6.798   2.539 -0.1665  0.7000  0.0978
17495SOL    HW163704   7.482   6.759   2.477 -0.1890 -0.4135  0.7587
17495SOL    HW263705   7.337   6.834   2.487  0.8281  1.7930 -0.6476
17496SOL     OW63706   9.384   4.366   2.030  0.1573  0.2982 -0.0387
17496SOL    HW163707   9.305   4.387   2.087 -0.4431 -0.2066 -0.6794
17496SOL    HW263708   9.468   4.383   2.081 -0.3772 -0.9865  1.2850
17497SOL     OW63709   7.847   2.199   0.598  0.1110  0.0101  0.1267
17497SOL    HW163710   7.877   2.136   0.669 -2.7265  0.0476  1.4238
17497SOL    HW263711   7.920   2.265   0.579  1.6310 -1.2137  1.5609
17498SOL     OW63712   9.281   1.518   4.723  0.0103  0.6948  0.2024
17498SOL    HW163713   9.370   1.544   4.685 -0.3374  0.2082 -0.9479
17498SOL    HW263714   9.236   1.600   4.759  0.8388  0.9733  0.6307
17499SOL     OW63715   6.482   0.718   6.369  0.1492 -0.6329 -0.0295
17499SOL    HW163716   6.533   0.662   6.435 -1.1797 -1.8259  0.0120
17499SOL    HW263717   6.479   0.670   6.281 -0.3342 -0.2760 -0.2081
17500SOL     OW63718   9.738   4.288   1.365  0.2465 -0.1535 -0.0805
17500SOL    HW163719   9.695   4.315   1.452  2.2890  0.1637  0.8642
17500SOL    HW263720   9.725   4.190   1.351 -2.6873  0.2965 -0.9407
17501SOL     OW63721   7.859   2.965   1.854  0.0626 -0.1319 -0.6103
17501SOL    HW163722   7.848   3.030   1.779 -1.0914  0.0322 -0.3103
17501SOL    HW263723   7.776   2.964   1.910  0.7765 -0.5076  0.4646
17502SOL     OW63724   7.461   1.778   5.032 -0.1032  0.3824  0.7571
17502SOL    HW163725   7.537   1.717   5.056 -0.7964 -0.2630  1.3722
17502SOL    HW263726   7.429   1.757   4.940 -1.7237 -1.6692  1.7465
17503SOL     OW63727   4.695   9.327   0.741 -0.4130  0.4048 -0.1189
17503SOL    HW163728   4.772   9.343   0.679  0.4953 -2.5572  0.1431
17503SOL    HW263729   4.725   9.341   0.835 -1.3681  3.3221 -0.1810
17504SOL     OW63730   3.357   5.700   3.203  0.2763 -0.2155 -0.3699
17504SOL    HW163731   3.302   5.620   3.181  0.5756 -0.2112 -1.1607
17504SOL    HW263732   3.452   5.672   3.219  0.3995 -0.0190 -0.7297
17505SOL     OW63733   8.596   0.206   4.341 -0.2065 -0.6623  0.5348
17505SOL    HW163734   8.649   0.287   4.367 -0.3391 -0.0719 -0.9792
17505SOL    HW263735   8.562   0.217   4.248 -0.6764 -2.2401  0.5047
17506SOL     OW63736   3.696   3.300   6.305 -0.3830  0.4056 -0.2883
17506SOL    HW163737   3.629   3.240   6.263 -0.2739 -0.6087  0.9523
17506SOL    HW263738   3.650   3.381   6.342 -1.1248 -0.8163  1.5546
17507SOL     OW63739   0.871   0.111   2.967  0.1737 -0.5160  0.9610
17507SOL    HW163740   0.845   0.020   2.934  0.7310 -0.8478  1.4307
17507SOL    HW263741   0.939   0.150   2.905 -1.7129  0.5312 -0.5098
17508SOL     OW63742   9.693   6.740   5.362  0.1352  0.4708  0.0644
17508SOL    HW163743   9.715   6.799   5.440 -0.5452  1.2259 -0.3098
17508SOL    HW263744   9.600   6.759   5.331  0.8446  1.1074 -1.7534
17509SOL     OW63745   3.837   7.350   3.450  0.6644 -0.0171 -0.0379
17509SOL    HW163746   3.750   7.356   3.401  0.5135  0.3051  0.2619
17509SOL    HW263747   3.820   7.312   3.541  0.4291  2.4728  1.0017
17510SOL     OW63748   8.845   5.223   0.960 -1.0089  0.1757 -0.1918
17510SOL    HW163749   8.758   5.194   1.000 -1.3338  1.8435  0.3544
17510SOL    HW263750   8.920   5.186   1.014 -1.4005 -0.6301 -0.2062
17511SOL     OW63751   2.386   6.480   5.221  0.2517 -1.0535 -0.0258
17511SOL    HW163752   2.309   6.419   5.240 -0.2921 -0.2702  0.3388
17511SOL    HW263753   2.471   6.428   5.221  0.1577 -1.2694  3.5009
17512SOL     OW63754   1.304   3.710   5.533  0.4600  0.4059 -0.0245
17512SOL    HW163755   1.237   3.646   5.570  0.7328  1.0347  1.6152
17512SOL    HW263756   1.266   3.757   5.453  0.4425 -2.1391 -1.5520
17513SOL     OW63757   2.445   1.611   3.784  0.2405 -0.7325  0.1079
17513SOL    HW163758   2.542   1.635   3.781  0.4082 -1.4339 -0.4092
17513SOL    HW263759   2.411   1.621   3.877  0.7847 -0.3836  0.2732
17514SOL     OW63760   8.721   1.388   1.964 -0.2827  0.5134  0.1854
17514SOL    HW163761   8.777   1.307   1.975  0.0601  0.6094 -0.8115
17514SOL    HW263762   8.627   1.361   1.943  0.4470  0.3622 -3.1187
17515SOL     OW63763   3.749   1.701   4.048 -0.1840  0.2938 -0.7185
17515SOL    HW163764   3.803   1.745   3.977 -3.0100  0.6223 -2.7346
17515SOL    HW263765   3.656   1.683   4.014 -0.9100 -1.6912  2.0919
17516SOL     OW63766   4.711   4.140   2.582 -0.0281 -0.4911 -0.0044
17516SOL    HW163767   4.803   4.178   2.572  0.3275 -0.8658  1.6135
17516SOL    HW263768   4.666   4.185   2.659  0.3595 -3.2474  1.9014
17517SOL     OW63769   8.531   0.118   5.486 -0.0265  0.0682  0.5001
17517SOL    HW163770   8.438   0.098   5.458  0.0205  1.4732 -0.7240
17517SOL    HW263771   8.569   0.040   5.535 -1.0978 -1.3399 -0.8963
17518SOL     OW63772   8.756   8.879   4.827  0.0883 -0.6612  0.4679
17518SOL    HW163773   8.785   8.886   4.922  1.0916  1.9219  0.0118
17518SOL    HW263774   8.706   8.962   4.801  1.2708 -0.5936 -1.7199
17519SOL     OW63775   7.991   0.180   0.820  0.1820 -0.2999  0.1521
17519SOL    HW163776   8.064   0.138   0.766 -1.0233 -3.4540  0.8608
17519SOL    HW263777   8.026   0.262   0.865  2.6786 -0.5661 -1.2000
17520SOL     OW63778   7.705   3.447   6.526 -0.3875 -0.1045  0.2919
17520SOL    HW163779   7.648   3.366   6.536 -1.1241  0.2874 -0.6576
17520SOL    HW263780   7.723   3.464   6.429  0.8254  0.1383  0.5516
17521SOL     OW63781   0.707   1.767   1.386  0.5398 -0.5590 -0.3551
17521SOL    HW163782   0.683   1.671   1.398  0.1286 -0.3632  0.4717
17521SOL    HW263783   0.719   1.787   1.289 -0.4205 -1.1988 -0.6106
17522SOL     OW63784   1.698   2.331   6.593 -0.6206  0.2422 -0.1178
17522SOL    HW163785   1.658   2.422   6.600  0.1644  0.6059 -0.2906
17522SOL    HW263786   1.786   2.329   6.640 -0.9133 -0.5948  0.4059
17523SOL     OW63787   6.786   0.435   5.236  0.0614  0.4761 -0.2203
17523SOL    HW163788   6.859   0.462   5.173 -0.3479 -0.7933 -1.2730
17523SOL    HW263789   6.758   0.341   5.216 -0.3035  0.1650  1.6745
17524SOL     OW63790   4.298   6.219   0.583 -0.3467  0.3807  0.3140
17524SOL    HW163791   4.280   6.149   0.513 -0.4060  0.4713  0.2397
17524SOL    HW263792   4.223   6.284   0.585  0.6367  1.5764 -0.9835
17525SOL     OW63793   0.024   4.528   2.205 -0.0441  0.4736  0.3113
17525SOL    HW163794   0.008   4.625   2.189 -1.4315  0.4758  1.6605
17525SOL    HW263795  -0.025   4.474   2.137  0.8469  0.7031 -0.5295
17526SOL     OW63796   2.449   0.076   0.763  0.4349 -0.0371 -0.7811
17526SOL    HW163797   2.529   0.060   0.821  0.2787  1.1259 -0.2175
17526SOL    HW263798   2.478   0.093   0.669  1.0091  2.1339 -0.2489
17527SOL     OW63799   2.286   4.087   5.770 -0.9532 -0.3777  0.2338
17527SOL    HW163800   2.281   4.003   5.824 -0.1587 -0.9602 -0.5855
17527SOL    HW263801   2.213   4.088   5.702 -0.6983 -0.6198 -0.0473
17528SOL     OW63802   2.546   5.304   2.864  0.5463  0.2147  0.3118
17528SOL    HW163803   2.455   5.344   2.850 -0.0012 -1.1387  0.0023
17528SOL    HW263804   2.543   5.206   2.845  2.2873  0.3206 -0.6104
17529SOL     OW63805   2.923   7.841   2.104  0.3268  0.2755  0.0851
17529SOL    HW163806   2.832   7.815   2.070 -0.6226  3.4504  0.1177
17529SOL    HW263807   2.920   7.851   2.203  0.5902  0.8327  0.0372
17530SOL     OW63808   2.237   5.293   0.056  0.2321  0.3603 -0.6745
17530SOL    HW163809   2.254   5.384   0.018 -0.6263  0.1975 -1.4545
17530SOL    HW263810   2.305   5.274   0.127 -0.1648  2.0220  0.2069
17531SOL     OW63811   3.006   2.628   6.604 -0.1207 -0.1590  0.5866
17531SOL    HW163812   3.012   2.569   6.523 -2.1490 -0.5592  0.6890
17531SOL    HW263813   3.068   2.595   6.675 -1.1573 -2.1521  0.5989
17532SOL     OW63814   1.840   3.797   3.610 -0.3491 -0.1090 -0.1139
17532SOL    HW163815   1.816   3.701   3.595 -1.6799  0.0263  1.0042
17532SOL    HW263816   1.773   3.856   3.564 -1.3793  0.2803  1.8471
17533SOL     OW63817   1.653   4.342   2.959  0.4667  0.5270  0.7712
17533SOL    HW163818   1.582   4.387   3.014  0.9920  0.1393  1.7718
17533SOL    HW263819   1.725   4.308   3.019  1.5607  1.0110 -0.2509
17534SOL     OW63820   1.333   6.181   5.583 -0.2440 -0.3188 -0.1190
17534SOL    HW163821   1.309   6.248   5.512  0.1816  0.4990  0.4955
17534SOL    HW263822   1.430   6.159   5.576  0.7755  2.7780  2.6388
17535SOL     OW63823   9.904   1.218   4.794  0.5580 -0.4267  0.1689
17535SOL    HW163824   9.986   1.264   4.761  0.9354 -0.5316  0.9466
17535SOL    HW263825   9.872   1.263   4.877 -1.2221  0.7389 -1.1319
17536SOL     OW63826   7.949   2.258   2.080  0.4170  0.2262 -0.4583
17536SOL    HW163827   7.980   2.167   2.109  0.5767  0.2553 -0.5377
17536SOL    HW263828   8.027   2.310   2.045  0.0270 -0.2197 -2.0292
17537SOL     OW63829   1.936   1.089   2.726 -0.6411  0.1532 -0.6156
17537SOL    HW163830   1.969   1.114   2.817 -1.5630  2.2136 -0.8205
17537SOL    HW263831   1.903   1.171   2.679 -2.8365 -1.3328 -1.7154
17538SOL     OW63832   6.369   1.273   4.322 -0.3820  0.0497 -0.1706
17538SOL    HW163833   6.450   1.216   4.335  1.1958  2.4029  0.7119
17538SOL    HW263834   6.393   1.354   4.269 -2.3264  0.4693 -0.4614
17539SOL     OW63835   4.161   9.185   2.483 -0.6761  0.3806 -0.0864
17539SOL    HW163836   4.246   9.141   2.512 -1.2292 -0.5688  0.1146
17539SOL    HW263837   4.153   9.180   2.383 -0.4060  0.6536 -0.1245
17540SOL     OW63838   5.934   9.685   2.602 -0.5366 -0.0492 -0.2239
17540SOL    HW163839   5.845   9.726   2.623 -0.3833  0.0159  0.3062
17540SOL    HW263840   5.984   9.670   2.687  1.2968  2.9438 -0.7242
17541SOL     OW63841   0.209   8.339   2.395 -0.2729 -0.0016 -0.4285
17541SOL    HW163842   0.190   8.352   2.298  2.4267 -0.3938 -1.0418
17541SOL    HW263843   0.253   8.420   2.432 -1.0636  0.0502  0.4308
17542SOL     OW63844   3.058   4.478   0.680  0.3037  0.3818 -0.1029
17542SOL    HW163845   3.137   4.494   0.739  0.1965  0.0793  0.1242
17542SOL    HW263846   3.066   4.389   0.635 -0.2313  0.0522  0.4476
17543SOL     OW63847   1.431   7.638   5.851  0.0576 -0.1671 -0.6600
17543SOL    HW163848   1.393   7.703   5.786 -0.2622 -0.8317 -1.1426
17543SOL    HW263849   1.379   7.641   5.936  1.0006  1.3158 -0.1074
17544SOL     OW63850   8.763   4.013   1.336  0.2214  0.3410 -0.2826
17544SOL    HW163851   8.857   3.989   1.312  0.3786 -0.2432  0.8706
17544SOL    HW263852   8.700   3.955   1.285  0.5106  0.2088 -0.4894
17545SOL     OW63853   0.123   8.864   2.736  0.3065 -0.2528  0.1725
17545SOL    HW163854   0.120   8.768   2.764  0.3814 -0.5180 -0.7095
17545SOL    HW263855   0.155   8.870   2.641  0.8888  0.6857  0.4224
17546SOL     OW63856   5.089   5.139   0.118  0.1968  0.1003 -0.5845
17546SOL    HW163857   5.127   5.169   0.031  0.0515  0.2268 -0.6038
17546SOL    HW263858   4.994   5.112   0.106  0.7116 -1.6306 -0.8287
17547SOL     OW63859   8.633   0.331   2.830 -0.0085 -0.3424 -0.1710
17547SOL    HW163860   8.605   0.245   2.873  0.4376 -1.0476 -1.2388
17547SOL    HW263861   8.717   0.364   2.873 -0.1966 -0.4326  0.2652
17548SOL     OW63862   9.712   1.522   4.700 -0.4666 -0.0062  0.0407
17548SOL    HW163863   9.776   1.484   4.634 -1.5409 -3.7411  1.0044
17548SOL    HW263864   9.645   1.581   4.654  1.9096  1.6704 -1.3492
17549SOL     OW63865   7.393   1.171   4.543 -0.1732  0.6860  0.3981
17549SOL    HW163866   7.343   1.255   4.564 -1.0697 -0.0592  1.3089
17549SOL    HW263867   7.365   1.099   4.607  0.2216 -0.4428 -0.6900
17550SOL     OW63868   9.917   9.470   0.690 -0.2900 -0.0935  0.2824
17550SOL    HW163869   9.937   9.374   0.672 -2.4864 -0.4891 -0.2070
17550SOL    HW263870   9.899   9.517   0.603  1.4024  0.9385  0.4586
17551SOL     OW63871   9.464   2.363   0.736 -0.3328 -0.5329 -0.2443
17551SOL    HW163872   9.472   2.271   0.699 -0.8655 -0.3253 -0.8955
17551SOL    HW263873   9.395   2.364   0.809  0.1358 -0.7757  0.2073
17552SOL     OW63874   3.324   6.723   4.292  0.2872  0.6478  0.2908
17552SOL    HW163875   3.336   6.816   4.257 -0.6595  0.5634 -0.2751
17552SOL    HW263876   3.285   6.727   4.384 -0.1034  0.8009  0.1190
17553SOL     OW63877   9.798   9.821   1.523  0.6169 -0.2746 -0.5441
17553SOL    HW163878   9.822   9.749   1.589  0.5366  1.3202  1.2476
17553SOL    HW263879   9.707   9.802   1.485  0.3832 -0.8425  0.2943
17554SOL     OW63880   3.117   0.645   6.667  0.5178  0.2626 -0.3355
17554SOL    HW163881   3.153   0.676   6.755  0.0400  0.8648 -0.3414
17554SOL    HW263882   3.122   0.546   6.661 -1.3549  0.0406  1.2295
17555SOL     OW63883   8.629   9.684   6.559 -0.0104 -0.7800  0.1690
17555SOL    HW163884   8.602   9.759   6.619 -1.3648 -0.3473 -0.9543
17555SOL    HW263885   8.547   9.641   6.520  0.6903 -3.3006  1.3219
17556SOL     OW63886   9.835   1.069   3.104 -0.2026 -0.5549 -0.3410
17556SOL    HW163887   9.931   1.071   3.131 -0.5979  0.3876  1.0779
17556SOL    HW263888   9.816   1.144   3.041 -0.0521 -0.6375 -0.4847
17557SOL     OW63889   3.408   8.512   0.976 -0.1346  0.3766  0.3882
17557SOL    HW163890   3.433   8.537   1.069  0.3027 -1.1894  0.7084
17557SOL    HW263891   3.486   8.468   0.931 -0.4705  0.7431 -0.5850
17558SOL     OW63892   7.702   0.442   6.496  0.0663 -0.3274  0.6487
17558SOL    HW163893   7.663   0.437   6.404  1.1550 -1.0493  0.2160
17558SOL    HW263894   7.636   0.407   6.562 -0.6762  0.0695  0.1335
17559SOL     OW63895   2.650   2.243   1.521  0.6452  0.2317 -0.0375
17559SOL    HW163896   2.710   2.258   1.599  0.7652  2.5989 -0.5642
17559SOL    HW263897   2.683   2.294   1.442 -1.2951  0.4884 -0.7181
17560SOL     OW63898   9.396   3.863   4.476  0.0691 -0.3025  0.0201
17560SOL    HW163899   9.434   3.778   4.439 -2.1441 -1.0263 -0.6620
17560SOL    HW263900   9.464   3.907   4.535  1.5235 -2.1428 -0.2425
17561SOL     OW63901   6.848   8.516   4.246 -0.5210 -0.2357  0.0731
17561SOL    HW163902   6.892   8.540   4.333  0.9971 -0.5038 -0.6191
17561SOL    HW263903   6.817   8.600   4.201 -2.7427 -0.1904  1.5908
17562SOL     OW63904   0.073   7.085   4.537 -0.0797  0.1506 -0.3245
17562SOL    HW163905   0.041   7.155   4.473 -0.6009  0.1925 -0.0192
17562SOL    HW263906   0.097   7.003   4.486  0.4308  0.5161 -0.6725
17563SOL     OW63907   2.419   9.468   3.243  0.0111 -0.0377  0.1528
17563SOL    HW163908   2.451   9.548   3.193 -2.8454 -0.0612 -1.7979
17563SOL    HW263909   2.320   9.473   3.255 -0.0523 -2.6646  1.1700
17564SOL     OW63910   4.600   9.011   2.718 -0.1170 -0.3918 -0.0531
17564SOL    HW163911   4.554   8.939   2.769  0.3978 -1.5439 -1.1888
17564SOL    HW263912   4.695   9.017   2.746 -0.3793  0.4490  0.6690
17565SOL     OW63913   8.368   6.781   5.056 -0.2257 -0.2976  0.1128
17565SOL    HW163914   8.455   6.828   5.069 -0.7658  0.3162  1.7009
17565SOL    HW263915   8.297   6.847   5.032 -0.5864 -0.5775  0.3975
17566SOL     OW63916   2.643   5.939   5.202 -0.1372 -0.0981  0.2499
17566SOL    HW163917   2.562   5.913   5.149  0.0235 -0.7934  0.3397
17566SOL    HW263918   2.725   5.921   5.148 -0.0675  1.4822 -0.2084
17567SOL     OW63919   2.853   5.067   4.687 -0.0398 -0.2949 -0.3289
17567SOL    HW163920   2.792   5.039   4.760 -0.7815  0.4770 -0.6479
17567SOL    HW263921   2.887   4.986   4.639  1.2939 -0.8768  1.5178
17568SOL     OW63922   1.260   0.953   2.549  0.0759  0.0245  0.0800
17568SOL    HW163923   1.311   0.970   2.464  1.3871 -1.8925  0.4423
17568SOL    HW263924   1.163   0.943   2.527  0.5421 -1.6374 -1.4084
17569SOL     OW63925   9.932   2.946   0.314 -0.4071 -0.3169 -0.3804
17569SOL    HW163926   9.895   2.903   0.232  1.4034  0.2805 -1.5350
17569SOL    HW263927   9.860   2.997   0.361 -1.5525 -1.0508 -1.3302
17570SOL     OW63928   9.788   0.871   3.746  0.3667  0.1659  0.2070
17570SOL    HW163929   9.702   0.920   3.733  0.4720  0.2803 -0.0544
17570SOL    HW263930   9.842   0.916   3.817  1.1062  1.2918 -1.0387
17571SOL     OW63931   9.420   5.019   2.472  0.1228  0.7375 -0.4710
17571SOL    HW163932   9.516   5.034   2.448 -0.2894  2.2088 -1.2676
17571SOL    HW263933   9.405   5.052   2.565  0.2816  0.9344 -0.5140
17572SOL     OW63934   8.338   0.656   2.585  0.2353 -0.1519 -0.7869
17572SOL    HW163935   8.316   0.705   2.501 -0.2987  0.8377 -0.0687
17572SOL    HW263936   8.388   0.573   2.562 -0.5385 -0.2637 -2.1400
17573SOL     OW63937   2.814   0.014   6.156 -0.3029 -0.2413 -0.3725
17573SOL    HW163938   2.747   0.071   6.203 -2.4473 -0.3220 -3.1642
17573SOL    HW263939   2.897   0.068   6.138 -0.7583  0.7731  0.5172
17574SOL     OW63940   7.544   7.965   3.334  0.1274  0.5246 -0.1211
17574SOL    HW163941   7.625   7.922   3.295 -1.3334 -0.8362 -1.7340
17574SOL    HW263942   7.528   7.929   3.426  0.1243 -0.8214 -0.6388
17575SOL     OW63943   6.554   1.411   6.412  0.3134 -0.9367  0.1484
17575SOL    HW163944   6.489   1.472   6.457  1.1144  0.4719 -0.5494
17575SOL    HW263945   6.629   1.465   6.373  0.3488 -2.2263 -1.6709
17576SOL     OW63946   9.098   7.520   1.183 -0.1530 -0.0631  0.0423
17576SOL    HW163947   9.056   7.609   1.163 -1.2444 -0.2083  1.5929
17576SOL    HW263948   9.027   7.451   1.190  0.3424 -0.3718  2.4383
17577SOL     OW63949   3.241   2.456   5.801 -0.4248  0.8732  0.4647
17577SOL    HW163950   3.206   2.399   5.727  0.3420  0.9398  0.0452
17577SOL    HW263951   3.334   2.426   5.825 -0.3112  1.4553  0.7608
17578SOL     OW63952   4.219   1.597   1.740 -0.6885 -0.9869  0.3991
17578SOL    HW163953   4.133   1.636   1.708 -0.2929 -0.3413  0.1009
17578SOL    HW263954   4.204   1.503   1.770 -1.5883 -0.7208  0.8074
17579SOL     OW63955   9.044   6.194   0.053 -0.1225  0.3943  0.0016
17579SOL    HW163956   8.968   6.220  -0.007 -0.1475 -0.4700 -0.3583
17579SOL    HW263957   9.096   6.120   0.009  0.4669  0.4626  0.5887
17580SOL     OW63958   5.182   2.573   2.815 -0.3901 -0.0540  0.8062
17580SOL    HW163959   5.177   2.531   2.724  0.8868 -2.1770  1.6629
17580SOL    HW263960   5.135   2.661   2.814 -0.3888 -0.0411 -1.9049
17581SOL     OW63961   3.937   8.417   5.465 -0.9015 -0.5329 -1.0243
17581SOL    HW163962   4.020   8.471   5.452 -1.0576  0.1814  0.8032
17581SOL    HW263963   3.915   8.412   5.563 -0.5839 -4.4038 -1.0720
17582SOL     OW63964   0.501   8.736   4.656 -0.1557  0.2048  0.0969
17582SOL    HW163965   0.571   8.806   4.671  0.1669  0.3925 -2.1301
17582SOL    HW263966   0.412   8.771   4.686  0.4422  0.5279  1.5365
17583SOL     OW63967   1.566   7.079   0.472 -0.3505 -0.0958  0.2738
17583SOL    HW163968   1.471   7.088   0.503 -1.0680 -0.2009 -1.7903
17583SOL    HW263969   1.607   7.170   0.463 -0.9709  0.0769 -0.9059
17584SOL     OW63970   0.176   3.847   4.863  0.1505 -0.5727  0.5451
17584SOL    HW163971   0.080   3.825   4.875  0.0099  0.4512  1.3297
17584SOL    HW263972   0.186   3.944   4.840  1.1463 -0.1374  2.7175
17585SOL     OW63973   2.589   5.565   4.804 -0.2855  0.5491  0.2285
17585SOL    HW163974   2.545   5.475   4.814 -0.5646  0.5978 -0.4882
17585SOL    HW263975   2.670   5.555   4.746 -0.7821  0.8920 -0.5434
17586SOL     OW63976   1.028   6.329   6.604 -0.2239 -0.0094 -0.8735
17586SOL    HW163977   1.024   6.229   6.593  0.0209 -0.0557 -0.5451
17586SOL    HW263978   0.936   6.366   6.606 -0.3250 -0.2796 -0.5238
17587SOL     OW63979   0.125   8.086   0.760  0.1066 -0.4350  0.2921
17587SOL    HW163980   0.196   8.065   0.826  2.7785  0.1770 -2.2777
17587SOL    HW263981   0.086   8.001   0.724  0.0592 -0.7789  1.1604
17588SOL     OW63982   8.600   3.912   2.631  0.5817  0.2131 -0.2678
17588SOL    HW163983   8.693   3.950   2.636 -0.0150  1.6026  0.4943
17588SOL    HW263984   8.553   3.929   2.717 -0.0079 -1.5015 -0.2400
17589SOL     OW63985   0.156   8.578   2.793  0.2745  0.3157 -0.0140
17589SOL    HW163986   0.168   8.575   2.892  0.9563  1.3339 -0.0609
17589SOL    HW263987   0.105   8.498   2.763  1.6629 -0.9408  0.9407
17590SOL     OW63988   8.326   6.690   6.146  0.5129  0.1286  0.5291
17590SOL    HW163989   8.405   6.635   6.121 -0.3397 -1.2861  0.8822
17590SOL    HW263990   8.290   6.736   6.064  2.2003  1.4728  0.5297
17591SOL     OW63991   3.240   4.002   3.972  0.2634 -0.2697 -0.1689
17591SOL    HW163992   3.297   4.084   3.975  0.3851 -0.3512 -0.2089
17591SOL    HW263993   3.227   3.974   3.877 -1.8620  1.1343 -0.3018
17592SOL     OW63994   0.153   2.556   4.051  0.8147  0.1510  0.0476
17592SOL    HW163995   0.169   2.488   3.980 -1.0332 -0.0787 -0.1639
17592SOL    HW263996   0.169   2.516   4.141  2.3144  0.1984 -0.1953
17593SOL     OW63997   8.527   6.690   6.370 -0.6711  0.3563 -0.6266
17593SOL    HW163998   8.486   6.709   6.281 -2.5813  0.5275  0.2693
17593SOL    HW263999   8.501   6.762   6.434 -0.7909 -0.7240  0.5442
17594SOL     OW64000   7.220   0.087   6.263 -0.4407 -0.0259  0.2937
17594SOL    HW164001   7.138   0.078   6.207 -0.0180  0.7973 -0.4748
17594SOL    HW264002   7.281   0.010   6.246 -0.0168  0.5619 -0.8797
17595SOL     OW64003   8.495   1.464   5.488  0.0408 -0.0364 -0.5306
17595SOL    HW164004   8.491   1.471   5.388  0.6131 -1.8732 -0.7205
17595SOL    HW264005   8.500   1.367   5.514 -1.3848  0.3729  1.3466
17596SOL     OW64006   4.325   2.513   2.734  0.1297 -0.0724 -0.2964
17596SOL    HW164007   4.364   2.580   2.797 -1.2934  0.6407 -0.1580
17596SOL    HW264008   4.377   2.513   2.649  0.3622  0.9420 -0.1534
17597SOL     OW64009   8.749   2.425   4.877  0.4381 -0.2266 -0.3764
17597SOL    HW164010   8.718   2.517   4.851  1.9756  0.1768 -0.8688
17597SOL    HW264011   8.749   2.366   4.796 -1.4235 -0.9422  0.1141
17598SOL     OW64012   6.665   0.044   4.639 -0.1691 -0.3305 -0.2158
17598SOL    HW164013   6.757   0.020   4.670 -0.1517 -1.0150 -0.7762
17598SOL    HW264014   6.671   0.097   4.555 -0.2059  1.7986  1.1060
17599SOL     OW64015   4.763   4.909   4.589 -0.0306 -0.1135 -0.3750
17599SOL    HW164016   4.799   4.877   4.501  0.6976  0.1701 -0.1812
17599SOL    HW264017   4.772   4.837   4.658 -0.9264 -0.4632 -0.6094
17600SOL     OW64018   2.135   7.534   0.037  0.1281 -0.0660  0.2437
17600SOL    HW164019   2.058   7.549  -0.026  0.2232 -1.3300 -0.1840
17600SOL    HW264020   2.146   7.436   0.053  1.9343  0.0734 -0.0560
17601SOL     OW64021   1.400   9.657   2.199 -0.2760  0.0771  0.2763
17601SOL    HW164022   1.478   9.663   2.261 -0.7581 -1.6684  1.0742
17601SOL    HW264023   1.326   9.715   2.232 -0.2193 -0.1875  0.8668
17602SOL     OW64024   8.437   8.332   6.399  0.5764  0.0714 -0.4542
17602SOL    HW164025   8.425   8.233   6.393 -0.9431  0.3056 -1.5629
17602SOL    HW264026   8.352   8.374   6.431  1.0997  1.0425 -0.3225
17603SOL     OW64027   7.886   0.216   5.917 -0.2863 -0.3783 -0.1793
17603SOL    HW164028   7.933   0.159   5.850  0.4927 -1.4138  1.2382
17603SOL    HW264029   7.790   0.189   5.921 -0.3037 -0.4153 -0.7572
17604SOL     OW64030   3.104   7.602   3.782  0.0468 -0.0284 -0.1166
17604SOL    HW164031   3.143   7.690   3.756 -0.9025  0.6850  0.7877
17604SOL    HW264032   3.114   7.537   3.707  1.5931  0.5731 -0.4480
17605SOL     OW64033   3.551   9.480   2.692 -0.2674 -0.2337  0.0244
17605SOL    HW164034   3.478   9.442   2.635 -0.1869 -0.9995  0.4308
17605SOL    HW264035   3.592   9.558   2.645 -1.2304  0.0950 -0.2835
17606SOL     OW64036   0.790   4.251   4.423 -0.6208 -0.1087 -0.5726
17606SOL    HW164037   0.827   4.329   4.372  0.9167 -0.2014  0.3456
17606SOL    HW264038   0.702   4.276   4.462 -0.0387  1.2761 -0.0833
17607SOL     OW64039   6.481   1.206   1.714  0.0280 -0.0233  0.2031
17607SOL    HW164040   6.499   1.294   1.670 -1.1381  1.5415  2.7195
17607SOL    HW264041   6.529   1.133   1.664  0.8754  1.9880 -2.0273
17608SOL     OW64042   9.205   6.534   3.495  0.5668 -0.3461  0.0185
17608SOL    HW164043   9.136   6.490   3.553 -0.4291  0.7961 -0.2718
17608SOL    HW264044   9.250   6.465   3.439  1.2502 -1.4077  1.8345
17609SOL     OW64045   2.788   7.831   1.006  0.0849  0.2649 -0.4231
17609SOL    HW164046   2.751   7.739   1.022 -0.8153  0.4157 -1.5692
17609SOL    HW264047   2.787   7.851   0.908  2.3798  0.6443 -0.3999
17610SOL     OW64048   9.383   9.479   4.160 -1.0837 -0.0654 -0.7939
17610SOL    HW164049   9.321   9.516   4.228  2.0001  1.5558  1.2605
17610SOL    HW264050   9.416   9.389   4.189  0.1357  0.5719 -0.1479
17611SOL     OW64051   7.283   9.233   5.735 -0.6243  0.6513  0.1017
17611SOL    HW164052   7.217   9.293   5.781 -1.4629 -1.2962  1.5577
17611SOL    HW264053   7.372   9.240   5.780 -1.1580 -0.4100  1.3854
17612SOL     OW64054   4.802   3.014   3.774  0.0396 -0.5794  0.2061
17612SOL    HW164055   4.901   3.026   3.786 -0.0043 -0.5780  0.5677
17612SOL    HW264056   4.757   3.014   3.863 -0.2438 -0.9662  0.0654
17613SOL     OW64057   2.495   3.080   5.688  0.2125  0.2350 -0.4222
17613SOL    HW164058   2.418   3.058   5.629 -1.0643  2.9043  0.1827
17613SOL    HW264059   2.489   3.175   5.716  1.3463 -0.7016  3.2207
17614SOL     OW64060   4.810   0.553   5.546  0.3366  0.0395 -0.4059
17614SOL    HW164061   4.758   0.608   5.481  2.5255  2.1425 -0.4694
17614SOL    HW264062   4.886   0.508   5.499  0.4824 -0.4034  0.2441
17615SOL     OW64063   9.914   1.907   6.374 -0.3769  0.0149  0.1645
17615SOL    HW164064   9.916   1.903   6.274 -3.4296  1.7916 -0.0050
17615SOL    HW264065   9.853   1.836   6.409 -0.9663  0.7753  0.6711
17616SOL     OW64066   9.330   7.063   1.698 -0.1193 -0.4524 -0.3532
17616SOL    HW164067   9.394   7.140   1.693  0.0837 -0.5166  1.0512
17616SOL    HW264068   9.238   7.098   1.714 -0.3514 -0.3932 -1.7884
17617SOL     OW64069   3.180   8.812   5.692  0.4619 -0.1482 -0.0762
17617SOL    HW164070   3.199   8.800   5.594  1.5972 -0.7064  0.1941
17617SOL    HW264071   3.259   8.857   5.735 -0.5152  1.1758  0.3767
17618SOL     OW64072   7.251   8.080   2.542 -0.2234  0.3414  0.4476
17618SOL    HW164073   7.243   8.075   2.442 -1.6093 -0.2305  0.5715
17618SOL    HW264074   7.242   8.175   2.571 -1.9585  0.2775  0.1786
17619SOL     OW64075   5.917   8.794   4.198 -0.5584  0.0697 -0.1231
17619SOL    HW164076   6.009   8.829   4.177 -0.8764  0.3460 -1.1080
17619SOL    HW264077   5.885   8.835   4.283  0.4002 -0.3439  0.4394
17620SOL     OW64078   3.674   4.828   2.013  0.1107  0.3252  0.1514
17620SOL    HW164079   3.718   4.847   1.925  0.9140  1.3948  0.7657
17620SOL    HW264080   3.728   4.760   2.062 -0.9631 -1.1288 -0.6541
17621SOL     OW64081   2.959   2.710   3.071  0.1976  0.1483  0.2511
17621SOL    HW164082   3.022   2.724   2.994 -0.3860 -1.9641 -0.6402
17621SOL    HW264083   2.960   2.791   3.130  3.2779  0.3924 -0.0825
17622SOL     OW64084   6.724   2.534   4.082 -0.1552  0.4472  0.2058
17622SOL    HW164085   6.759   2.627   4.091 -0.0963  0.3689  0.7818
17622SOL    HW264086   6.788   2.479   4.028  1.0954  0.0364  2.0787
17623SOL     OW64087   8.456   2.325   1.319 -0.6606 -0.2689  0.3989
17623SOL    HW164088   8.378   2.334   1.380 -2.0922 -0.4686 -1.3421
17623SOL    HW264089   8.487   2.416   1.290  0.8722 -0.1158  2.4271
17624SOL     OW64090   4.381   5.746   1.492  0.1049  0.7420 -0.3009
17624SOL    HW164091   4.281   5.737   1.494 -0.2465  3.7007 -1.2037
17624SOL    HW264092   4.408   5.796   1.409  2.3855 -0.4639 -0.3148
17625SOL     OW64093   3.640   9.708   5.824 -0.0249 -0.3509  0.4738
17625SOL    HW164094   3.561   9.688   5.882  0.0957 -0.1433  0.7120
17625SOL    HW264095   3.619   9.685   5.729  0.0109 -1.3410  0.6979
17626SOL     OW64096   9.697   6.575   2.109  0.1415 -0.0570  0.2842
17626SOL    HW164097   9.707   6.665   2.067 -0.9170 -0.2693 -0.4369
17626SOL    HW264098   9.692   6.505   2.037 -0.0253 -0.5977  0.8136
17627SOL     OW64099   1.179   6.721   0.281  0.1179 -0.0451 -0.4436
17627SOL    HW164100   1.200   6.819   0.275  0.5301 -0.0793  0.3249
17627SOL    HW264101   1.122   6.694   0.204 -2.4587  1.4312  0.8691
17628SOL     OW64102   3.699   5.913   2.359  1.0845  0.7700  0.0332
17628SOL    HW164103   3.693   5.934   2.261  2.3870  1.2355  0.0412
17628SOL    HW264104   3.789   5.873   2.379  1.7189  2.7838  1.4037
17629SOL     OW64105   3.135   6.477   2.259  0.7309  0.4900  0.3542
17629SOL    HW164106   3.175   6.568   2.270  1.4884  0.3155 -0.7988
17629SOL    HW264107   3.079   6.476   2.176 -2.8692  1.1285  2.6604
17630SOL     OW64108   5.985   9.084   2.299  0.3383  0.4966  0.2689
17630SOL    HW164109   5.901   9.031   2.314  0.4078 -0.1373 -1.4906
17630SOL    HW264110   6.060   9.039   2.348  0.3172 -0.8345 -0.8837
17631SOL     OW64111   3.251   2.896   2.656 -0.2162 -0.2156  0.0349
17631SOL    HW164112   3.267   2.993   2.638  1.7640 -0.4681  0.3587
17631SOL    HW264113   3.336   2.846   2.645 -1.1361 -1.8591  0.3177
17632SOL     OW64114   1.871   8.017   4.486 -0.2545  0.4491 -0.0432
17632SOL    HW164115   1.923   8.102   4.476  1.5513 -0.6986 -0.4984
17632SOL    HW264116   1.872   7.966   4.400 -2.1462  0.3929 -0.0633
17633SOL     OW64117   6.879   1.134   5.416 -0.0068  0.4771 -0.0583
17633SOL    HW164118   6.899   1.036   5.417 -0.6679  0.3402  0.6915
17633SOL    HW264119   6.938   1.180   5.482  0.1429  0.5427 -0.2409
17634SOL     OW64120   3.239   1.675   3.251 -0.0730  0.6047 -0.3980
17634SOL    HW164121   3.161   1.645   3.196  0.0520  0.5233 -0.5313
17634SOL    HW264122   3.323   1.665   3.198  0.1074  0.0394 -0.0094
17635SOL     OW64123   9.638   1.414   5.974 -0.2625 -0.3188  0.0727
17635SOL    HW164124   9.679   1.397   5.885 -0.2357  0.0002  0.0229
17635SOL    HW264125   9.592   1.331   6.007 -1.5463 -0.0149 -0.9083
17636SOL     OW64126   2.050   3.508   4.572  0.5778 -0.3599  0.3410
17636SOL    HW164127   2.084   3.456   4.650  0.0115  0.1865  0.9620
17636SOL    HW264128   1.951   3.496   4.565  0.5443  0.0579  0.0606
17637SOL     OW64129   5.217   1.820   2.979 -0.1535 -0.0904  0.2047
17637SOL    HW164130   5.245   1.785   2.890 -1.0103 -0.3613  0.0332
17637SOL    HW264131   5.271   1.776   3.051  0.2802 -0.1484 -0.1581
17638SOL     OW64132   5.793   6.114   0.353 -0.1805  0.5879  0.0349
17638SOL    HW164133   5.769   6.024   0.390  2.8064 -0.8335 -1.3093
17638SOL    HW264134   5.803   6.179   0.428 -2.5468 -0.1194  1.0100
17639SOL     OW64135   4.121   5.131   4.647 -0.7523 -0.0417 -0.4520
17639SOL    HW164136   4.144   5.058   4.583  0.9679  0.9697 -1.0277
17639SOL    HW264137   4.023   5.147   4.646 -0.9022 -0.9992 -1.7933
17640SOL     OW64138   9.665   9.865   2.658  0.3288 -0.2142  0.3350
17640SOL    HW164139   9.576   9.907   2.670  0.4151  0.3899 -1.0821
17640SOL    HW264140   9.724   9.888   2.736  0.1162  1.6210 -0.0217
17641SOL     OW64141   1.849   5.541   0.065 -0.0057  0.1766  0.2157
17641SOL    HW164142   1.931   5.558   0.010  1.0631  0.1619  1.7714
17641SOL    HW264143   1.808   5.629   0.091 -0.9790  0.1742 -1.2672
17642SOL     OW64144   8.341   4.145   0.794 -0.5082 -0.2259 -0.8290
17642SOL    HW164145   8.262   4.184   0.747 -0.8099  0.2856  0.0868
17642SOL    HW264146   8.348   4.047   0.773 -1.9540 -0.4936 -0.1637
17643SOL     OW64147   9.510   2.284   1.180 -0.2161  0.4008 -0.3737
17643SOL    HW164148   9.554   2.369   1.150 -2.2630  2.2594  1.7240
17643SOL    HW264149   9.416   2.303   1.206  0.1749 -1.9508  3.0311
17644SOL     OW64150   4.507   0.033   0.270  0.1878 -0.0939  0.8005
17644SOL    HW164151   4.521   0.116   0.324 -0.4686 -0.3735  1.3946
17644SOL    HW264152   4.536   0.050   0.175  0.9373  0.5211  1.1352
17645SOL     OW64153   1.744   4.369   0.424  0.0926 -0.1362 -0.1172
17645SOL    HW164154   1.720   4.276   0.395  3.2772 -0.2455 -2.7113
17645SOL    HW264155   1.711   4.435   0.356  1.7116  0.2052 -0.6056
17646SOL     OW64156   0.973   9.366   0.791  0.1703 -0.2298 -0.0092
17646SOL    HW164157   0.926   9.287   0.751 -1.6630  1.1907 -0.7458
17646SOL    HW264158   0.979   9.355   0.890  0.0158 -1.3340 -0.1156
17647SOL     OW64159   1.549   7.714   0.709 -0.1885  0.3186  0.2283
17647SOL    HW164160   1.506   7.705   0.799 -2.0656  0.4897 -0.6365
17647SOL    HW264161   1.490   7.768   0.649  0.1120 -1.4502 -1.7093
17648SOL     OW64162   4.442   0.658   3.999  0.1889 -0.6288  0.0632
17648SOL    HW164163   4.361   0.626   4.048  0.4180 -1.3433 -0.0327
17648SOL    HW264164   4.413   0.714   3.921 -0.2720 -2.4825 -1.1292
17649SOL     OW64165   4.136   8.975   4.664  0.1251  0.0947  0.4288
17649SOL    HW164166   4.212   8.980   4.730 -0.4919  1.0985  1.0626
17649SOL    HW264167   4.116   8.879   4.646  1.3339 -0.1882  0.5087
17650SOL     OW64168   1.661   1.884   2.481  0.0681 -0.0321  0.2421
17650SOL    HW164169   1.646   1.965   2.424 -0.7833 -0.0894  0.3729
17650SOL    HW264170   1.599   1.887   2.559  0.8866 -0.2073  0.8973
17651SOL     OW64171   9.492   4.463   6.477 -0.0265  0.1637  0.3044
17651SOL    HW164172   9.484   4.363   6.470  0.0437  0.1071  0.9854
17651SOL    HW264173   9.420   4.506   6.423 -1.1412 -0.2819  1.3984
17652SOL     OW64174   2.940   0.985   4.855 -0.0652 -0.0111 -0.6333
17652SOL    HW164175   3.029   0.948   4.826 -0.7757 -0.8650 -1.7766
17652SOL    HW264176   2.890   0.915   4.906  0.8038  1.1995  1.9167
17653SOL     OW64177   3.627   0.696   4.485 -0.1180  0.2181  0.3969
17653SOL    HW164178   3.536   0.657   4.492 -0.0471 -0.0789 -0.3212
17653SOL    HW264179   3.681   0.669   4.565 -0.6076  0.2836  0.7553
17654SOL     OW64180   8.793   8.305   4.705 -0.1076  0.2371  0.1707
17654SOL    HW164181   8.782   8.340   4.612  2.4866 -0.6658 -0.5044
17654SOL    HW264182   8.725   8.233   4.722 -0.6229  0.4460 -0.9841
17655SOL     OW64183   7.988   6.784   1.698  0.0304  0.5364 -0.2241
17655SOL    HW164184   7.914   6.746   1.642 -0.2439  0.0857  0.4429
17655SOL    HW264185   8.034   6.711   1.748  0.8404  0.8345 -0.5227
17656SOL     OW64186   8.109   3.751   2.530  0.0433 -0.7410  0.3646
17656SOL    HW164187   8.048   3.673   2.534 -0.0211 -0.6134  2.1174
17656SOL    HW264188   8.117   3.793   2.620  2.1192 -0.3029  0.0253
17657SOL     OW64189   5.090   2.055   2.956 -0.4606 -0.0220  0.4916
17657SOL    HW164190   5.009   2.015   2.914 -0.6860  0.4880  0.4353
17657SOL    HW264191   5.159   1.984   2.971  0.4062  0.0736 -2.5705
17658SOL     OW64192   0.719   1.929   6.576  0.5480 -0.6993  0.5413
17658SOL    HW164193   0.805   1.890   6.611  1.5038  0.6421 -0.2854
17658SOL    HW264194   0.739   2.009   6.520 -1.2522 -0.4421  0.2442
17659SOL     OW64195   2.635   5.085   6.499  0.9775  0.3775 -0.1252
17659SOL    HW164196   2.682   5.123   6.579  1.8793 -0.8974 -0.0454
17659SOL    HW264197   2.665   4.991   6.483 -0.2732  0.1235 -1.1082
17660SOL     OW64198   3.940   0.592   0.091 -0.1722  0.1025  0.1445
17660SOL    HW164199   3.993   0.517   0.130  1.2276  1.1762  0.3725
17660SOL    HW264200   3.986   0.679   0.110 -0.1311  0.7793 -2.7109
17661SOL     OW64201   0.418   4.551   3.356  0.4708  0.0992  0.0272
17661SOL    HW164202   0.322   4.542   3.379  1.1908  0.0313  3.2432
17661SOL    HW264203   0.436   4.643   3.321 -0.6198  0.3482  0.1204
17662SOL     OW64204   9.109   7.977   5.081  0.4107 -0.9656 -0.5757
17662SOL    HW164205   9.013   7.982   5.106  0.1326 -1.6435 -1.4744
17662SOL    HW264206   9.118   7.950   4.985  1.4919 -0.8064 -0.5336
17663SOL     OW64207   8.540   4.961   0.643  0.3289 -0.3613  0.4635
17663SOL    HW164208   8.459   4.918   0.605  0.0226  0.2352  0.4264
17663SOL    HW264209   8.599   4.892   0.685 -0.0072 -0.8427  0.1413
17664SOL     OW64210   1.488   0.795   1.386  0.4407 -0.0395  0.0536
17664SOL    HW164211   1.556   0.723   1.400 -0.1600 -0.3594  1.3913
17664SOL    HW264212   1.437   0.809   1.471  0.8745  2.2914 -0.0424
17665SOL     OW64213   0.186   9.581   0.282  0.1491 -0.0173  0.7365
17665SOL    HW164214   0.246   9.650   0.243 -0.1136 -0.0175  0.3267
17665SOL    HW264215   0.169   9.509   0.214  0.5967 -0.6000  1.2303
17666SOL     OW64216   3.956   1.749   1.608 -0.3982 -0.4034  0.5199
17666SOL    HW164217   3.934   1.738   1.705 -1.3863  2.2654  0.6354
17666SOL    HW264218   3.880   1.795   1.561  0.4976 -0.7392 -1.3174
17667SOL     OW64219   2.850   1.599   6.639 -0.2644  0.6268  0.3266
17667SOL    HW164220   2.861   1.685   6.590  1.0076  0.6372  0.6082
17667SOL    HW264221   2.935   1.547   6.634 -0.5915 -0.0223  1.2917
17668SOL     OW64222   2.833   6.171   2.751 -0.2815 -0.0682 -0.0288
17668SOL    HW164223   2.781   6.233   2.692  0.3623 -0.2179 -0.7599
17668SOL    HW264224   2.797   6.175   2.844 -3.0223 -1.7712 -0.9552
17669SOL     OW64225   3.443   2.171   4.618  0.4542 -0.8187  0.7268
17669SOL    HW164226   3.519   2.130   4.668  0.8121 -1.5772 -0.4336
17669SOL    HW264227   3.478   2.240   4.555  0.0722 -0.4480  0.9102
17670SOL     OW64228   0.275   9.471   0.906 -0.0497 -0.2530 -0.6412
17670SOL    HW164229   0.187   9.486   0.950  0.2885  0.2660 -0.1439
17670SOL    HW264230   0.287   9.537   0.832  0.6506  0.7777  0.3800
17671SOL     OW64231   5.494   9.089   2.700  0.0285  0.0286  0.1118
17671SOL    HW164232   5.489   8.999   2.744  0.8052  0.2150  0.5748
17671SOL    HW264233   5.564   9.144   2.744  1.9371 -0.3264 -2.3476
17672SOL     OW64234   4.489   0.005   2.885 -0.1632 -0.7254 -0.3178
17672SOL    HW164235   4.532   0.052   2.961 -2.9011 -0.0170  0.8421
17672SOL    HW264236   4.543   0.020   2.802  2.4815 -0.9470  1.2985
17673SOL     OW64237   2.262   3.344   1.377  0.0900 -0.2001  0.3303
17673SOL    HW164238   2.296   3.438   1.379  0.2965 -0.2612 -0.1181
17673SOL    HW264239   2.260   3.307   1.469  4.1894 -1.2565  0.1021
17674SOL     OW64240   8.541   8.997   0.394  0.4717  0.4458 -0.2632
17674SOL    HW164241   8.516   9.083   0.438  2.1220  0.2908  1.0220
17674SOL    HW264242   8.569   8.931   0.464 -0.3567 -1.0031 -1.2674
17675SOL     OW64243   2.251   4.545   3.045  0.2682 -0.2764 -0.2205
17675SOL    HW164244   2.158   4.564   3.012  0.6118  1.8309 -0.0583
17675SOL    HW264245   2.310   4.525   2.966  0.5622  2.4534 -0.7614
17676SOL     OW64246   2.989   2.861   4.580  0.3703 -0.5344  0.9441
17676SOL    HW164247   3.005   2.874   4.482  2.2472 -4.1425  0.7129
17676SOL    HW264248   3.053   2.918   4.632 -1.5994  2.5237  0.1730
17677SOL     OW64249   4.130   2.232   6.436 -0.9170  0.0159 -0.4102
17677SOL    HW164250   4.058   2.169   6.406 -0.7270 -0.1903 -0.4350
17677SOL    HW264251   4.212   2.179   6.460 -0.9821  0.1980  0.2226
17678SOL     OW64252   2.614   3.320   4.560 -0.1985  0.6551 -0.0853
17678SOL    HW164253   2.645   3.390   4.624 -1.2092 -1.3572  2.7045
17678SOL    HW264254   2.643   3.230   4.592 -0.3623 -0.3884 -2.7146
17679SOL     OW64255   8.747   7.218   6.562 -0.0121  0.0259  0.5333
17679SOL    HW164256   8.846   7.215   6.576  0.1708  1.1137 -0.4697
17679SOL    HW264257   8.719   7.312   6.544 -1.1913 -0.3230  0.5278
17680SOL     OW64258   2.964   0.098   2.515  0.4469  0.3468 -0.2870
17680SOL    HW164259   3.056   0.111   2.480  1.8225 -1.3491  2.5052
17680SOL    HW264260   2.948   0.160   2.592  0.1534 -1.0439  0.7949
17681SOL     OW64261   0.599   7.788   2.103  0.3906 -0.1963  0.1279
17681SOL    HW164262   0.569   7.799   2.198 -1.4449 -0.2461 -0.4246
17681SOL    HW264263   0.596   7.691   2.079  2.1792 -0.3402  0.4245
17682SOL     OW64264   8.085   8.591   4.677  0.5975  0.1288 -0.3583
17682SOL    HW164265   8.024   8.513   4.659  0.6063  0.3004 -1.1612
17682SOL    HW264266   8.030   8.674   4.689  0.5165 -0.2098  1.7050
17683SOL     OW64267   5.747   0.470   1.707  0.8863  0.0009  0.0478
17683SOL    HW164268   5.793   0.517   1.632  3.7687 -0.7160  1.3117
17683SOL    HW264269   5.729   0.534   1.781 -0.8120  0.4290 -0.7144
17684SOL     OW64270   0.549   5.481   2.697 -0.1857  0.2522 -0.5417
17684SOL    HW164271   0.543   5.383   2.713 -0.5353  0.6174  1.7940
17684SOL    HW264272   0.566   5.499   2.600  2.6276 -2.1863 -0.5551
17685SOL     OW64273   0.431   4.494   2.198 -0.1276  0.0295  0.1164
17685SOL    HW164274   0.353   4.553   2.175  0.2352  0.0236 -1.1174
17685SOL    HW264275   0.406   4.398   2.186  0.2090  0.0441 -0.7101
17686SOL     OW64276   9.148   8.623   0.724  0.0909  0.1281  0.0670
17686SOL    HW164277   9.150   8.585   0.816  0.0122  0.0375  0.0319
17686SOL    HW264278   9.221   8.581   0.669  0.2951  0.3642  0.1591
17687SOL     OW64279   2.892   3.146   5.888  0.0266  0.0642  0.2420
17687SOL    HW164280   2.949   3.155   5.806  0.8497  0.3151  0.8265
17687SOL    HW264281   2.943   3.180   5.968 -1.0976  0.6742  0.7202
17688SOL     OW64282   4.891   9.034   2.879  0.4964 -0.2942  0.0279
17688SOL    HW164283   4.849   9.119   2.912 -0.6928 -0.9655  0.2651
17688SOL    HW264284   4.990   9.043   2.884  0.4153  1.4963 -0.9701
17689SOL     OW64285   3.546   9.321   5.569  0.3624  0.1823 -0.8574
17689SOL    HW164286   3.618   9.312   5.638  0.3885  0.5951 -0.8323
17689SOL    HW264287   3.580   9.285   5.481 -0.1238 -1.5716 -0.3448
17690SOL     OW64288   1.472   6.481   3.962  0.1756  0.7352 -0.2571
17690SOL    HW164289   1.411   6.472   3.884 -1.3256 -0.0995  0.9871
17690SOL    HW264290   1.560   6.438   3.940 -0.8409 -1.1073 -0.8649
17691SOL     OW64291   2.461   3.498   0.476 -0.2249  0.5412  0.2076
17691SOL    HW164292   2.447   3.484   0.574  1.6376  1.5015  0.6349
17691SOL    HW264293   2.483   3.411   0.432 -1.1195  0.1008  0.6121
17692SOL     OW64294   9.570   5.089   5.884  0.2319 -0.4723  0.5961
17692SOL    HW164295   9.617   5.143   5.814  1.4839  0.0252  1.7965
17692SOL    HW264296   9.517   5.150   5.944 -0.0341 -0.7872  0.6824
17693SOL     OW64297   0.292   1.702   6.121 -0.8178  0.0300 -0.6549
17693SOL    HW164298   0.376   1.708   6.175 -0.4574  0.0220 -1.2106
17693SOL    HW264299   0.265   1.607   6.110 -0.8232  0.0250 -0.6004
17694SOL     OW64300   4.482   0.039   1.388  0.4151  0.3974 -0.0212
17694SOL    HW164301   4.452   0.095   1.466  0.2124  0.0865  0.1265
17694SOL    HW264302   4.507  -0.052   1.421 -0.3994  0.0194 -0.4214
17695SOL     OW64303   7.521   9.353   2.445  0.0153 -0.7286  0.2576
17695SOL    HW164304   7.562   9.371   2.534 -0.5239  0.5003  0.2690
17695SOL    HW264305   7.559   9.416   2.377  0.6194 -1.8315 -0.4514
17696SOL     OW64306   5.380   0.058   2.669  0.0192  0.5178 -0.0023
17696SOL    HW164307   5.354  -0.038   2.659 -1.5953  0.8709  0.6821
17696SOL    HW264308   5.455   0.065   2.735 -1.0719 -0.0958  1.3080
17697SOL     OW64309   8.016   2.304   0.911  0.1883 -0.1726  0.2960
17697SOL    HW164310   7.970   2.393   0.907 -1.5238 -1.0499  0.2096
17697SOL    HW264311   8.115   2.318   0.917  0.0084  1.7146 -0.8686
17698SOL     OW64312   3.309   8.545   5.841  0.4356 -0.4496 -0.3706
17698SOL    HW164313   3.399   8.511   5.814  0.2089 -0.6704 -0.8458
17698SOL    HW264314   3.320   8.610   5.916  0.7404 -2.9041  1.7901
17699SOL     OW64315   8.250   9.022   3.351  0.1525 -0.2986  0.5986
17699SOL    HW164316   8.167   8.967   3.358  0.1498 -0.2048  1.3416
17699SOL    HW264317   8.225   9.119   3.353  0.1266 -0.2699 -1.0775
17700SOL     OW64318   7.458   2.065   3.629 -0.0163 -0.6435 -0.3755
17700SOL    HW164319   7.447   1.989   3.565  0.3810 -1.2003  0.2011
17700SOL    HW264320   7.469   2.028   3.722  0.9081  0.0866 -0.1859
17701SOL     OW64321   9.539   6.921   1.312  0.6574  0.0095  0.6180
17701SOL    HW164322   9.562   6.853   1.242  2.0076 -0.7599  1.7809
17701SOL    HW264323   9.594   7.003   1.297 -0.2861  0.4924 -0.2238
17702SOL     OW64324   7.241   4.894   6.079 -0.7435  0.8971  0.2908
17702SOL    HW164325   7.148   4.883   6.115 -0.7730 -2.0476 -0.5372
17702SOL    HW264326   7.242   4.971   6.014 -2.1768  2.0755  1.6258
17703SOL     OW64327   0.531   1.031   5.323 -0.1575  0.0983  0.5792
17703SOL    HW164328   0.574   0.942   5.307 -1.0432 -0.3288  0.5201
17703SOL    HW264329   0.445   1.018   5.372 -0.3498  0.9099  0.4643
17704SOL     OW64330   0.813   3.633   0.191  0.1454  0.0317 -0.3431
17704SOL    HW164331   0.807   3.587   0.102  1.4899  0.7664 -0.8300
17704SOL    HW264332   0.896   3.689   0.194  1.2575 -1.6543  2.1623
17705SOL     OW64333   2.018   3.774   4.666  0.7457  0.1662  0.2749
17705SOL    HW164334   2.020   3.690   4.611  0.4167  0.3264  0.0180
17705SOL    HW264335   2.111   3.810   4.673  0.8572 -0.0988  0.1965
17706SOL     OW64336   1.599   1.197   3.202 -0.0161  0.2125  0.0964
17706SOL    HW164337   1.631   1.247   3.122  1.6255  1.4622  1.4756
17706SOL    HW264338   1.616   1.099   3.190  1.1522  0.4953 -0.6680
17707SOL     OW64339   4.602   0.088   2.277  0.2973 -0.1635  0.1687
17707SOL    HW164340   4.623   0.143   2.196  0.2296 -1.5067 -0.7923
17707SOL    HW264341   4.556   0.144   2.345 -0.2047  0.8439 -0.9894
17708SOL     OW64342   5.171   0.573   2.522 -0.7973  0.0436  0.0163
17708SOL    HW164343   5.206   0.511   2.592 -0.5565  1.0953  0.8417
17708SOL    HW264344   5.145   0.520   2.442  0.6781 -0.9907  0.1816
17709SOL     OW64345   3.398   9.857   2.625 -0.1245 -0.5401 -0.1929
17709SOL    HW164346   3.486   9.893   2.593 -0.7060  0.5720 -0.5793
17709SOL    HW264347   3.336   9.847   2.547 -0.7185 -0.2133  0.2306
17710SOL     OW64348   2.123   1.073   2.376  0.0338  0.8001  0.6699
17710SOL    HW164349   2.198   1.111   2.430  0.6049  2.1989 -1.0866
17710SOL    HW264350   2.105   1.131   2.297 -1.4184 -0.7182 -0.1549
17711SOL     OW64351   9.712   7.199   1.772  0.4388  0.2250 -0.0817
17711SOL    HW164352   9.786   7.138   1.801  0.4140  0.1689 -0.1362
17711SOL    HW264353   9.629   7.176   1.822  0.5260  0.4626  0.1759
17712SOL     OW64354   9.331   1.670   4.436  0.0221 -0.1297  0.1170
17712SOL    HW164355   9.279   1.746   4.476  0.8158  0.1912  0.5619
17712SOL    HW264356   9.309   1.661   4.339 -1.6250 -0.6519  0.5201
17713SOL     OW64357   3.455   3.559   0.404 -0.5245  0.0526 -0.5043
17713SOL    HW164358   3.458   3.628   0.331 -1.7904  0.6626  0.0137
17713SOL    HW264359   3.361   3.533   0.422 -0.1524 -0.7865  0.2874
17714SOL     OW64360   1.485   6.493   0.750  0.3455 -0.5998  0.5877
17714SOL    HW164361   1.480   6.593   0.752 -3.2243 -0.7336  0.5039
17714SOL    HW264362   1.476   6.461   0.656  1.7596 -1.0238  0.5820
17715SOL     OW64363   4.189   8.913   6.026  0.3602 -0.4134 -0.0162
17715SOL    HW164364   4.137   8.892   6.108  0.5510 -1.9847 -0.2877
17715SOL    HW264365   4.178   8.840   5.959 -0.5457  1.2902 -1.7770
17716SOL     OW64366   2.704   1.137   4.875  0.2636  0.0285  0.3819
17716SOL    HW164367   2.708   1.201   4.951 -2.1646 -0.7977  1.2440
17716SOL    HW264368   2.783   1.076   4.878  0.3152  0.1739  2.0910
17717SOL     OW64369   7.938   2.497   2.975 -0.3581  0.2051 -0.5437
17717SOL    HW164370   7.962   2.533   3.065 -1.6273  0.5277 -0.3275
17717SOL    HW264371   7.867   2.428   2.984 -0.5476  0.2963 -1.3044
17718SOL     OW64372   3.282   2.918   1.843 -0.0191  0.1744  0.1110
17718SOL    HW164373   3.306   3.005   1.802  1.2317 -0.6096 -0.8646
17718SOL    HW264374   3.330   2.907   1.930  2.0256 -0.7022 -1.0801
17719SOL     OW64375   2.368   7.712   1.496  0.0441  0.2992  0.1835
17719SOL    HW164376   2.433   7.772   1.543 -0.4995  1.7057 -0.7960
17719SOL    HW264377   2.275   7.742   1.518 -0.2241  1.1186 -1.9026
17720SOL     OW64378   9.881   1.322   1.058  0.3688  0.4429 -0.1495
17720SOL    HW164379   9.803   1.300   1.116  0.9795 -0.4838  0.3296
17720SOL    HW264380   9.927   1.237   1.029 -0.6443  0.7933 -2.9964
17721SOL     OW64381   9.691   7.912   3.377  0.5114 -0.6189  0.1691
17721SOL    HW164382   9.649   7.851   3.310 -1.2635  1.8565 -1.0892
17721SOL    HW264383   9.686   7.871   3.468 -3.2185 -1.1356 -0.2085
17722SOL     OW64384   0.693   8.948   0.543  0.0494 -0.1139 -0.5962
17722SOL    HW164385   0.744   8.864   0.524  0.5325  0.3587 -1.4146
17722SOL    HW264386   0.600   8.939   0.509  0.0537 -0.3792 -0.5393
17723SOL     OW64387   5.912   2.030   2.304  0.0948  0.1670  0.5359
17723SOL    HW164388   5.833   2.078   2.266 -0.4730 -1.2329 -0.0773
17723SOL    HW264389   5.991   2.091   2.305 -0.5856  1.0764 -0.3433
17724SOL     OW64390   0.648   8.115   5.371 -0.4743 -0.0180  0.1575
17724SOL    HW164391   0.654   8.198   5.315 -0.1966 -0.2743 -0.1956
17724SOL    HW264392   0.629   8.036   5.311 -0.8866 -0.1876  0.5051
17725SOL     OW64393   1.442   6.006   3.262 -0.4055 -0.0650  0.1888
17725SOL    HW164394   1.460   6.025   3.165 -1.9370  0.0513 -0.0919
17725SOL    HW264395   1.389   5.921   3.270 -0.4580  0.0311  0.9017
17726SOL     OW64396   8.246   1.799   2.506 -0.5842  0.5311  0.2989
17726SOL    HW164397   8.304   1.743   2.448  0.5702  1.2706  0.7145
17726SOL    HW264398   8.204   1.742   2.577 -3.2792 -0.6758 -2.1761
17727SOL     OW64399   1.425   5.045   0.327 -0.5688  0.6760 -0.1943
17727SOL    HW164400   1.361   4.974   0.357 -1.4752  1.1072 -1.0724
17727SOL    HW264401   1.452   5.028   0.232  0.5584  0.5483  0.1409
17728SOL     OW64402   2.203   2.012   4.852  0.2838 -0.2652 -0.2769
17728SOL    HW164403   2.302   2.025   4.859  0.3339  0.4778 -2.1084
17728SOL    HW264404   2.158   2.102   4.856 -0.1445 -0.3965 -1.7429
17729SOL     OW64405   4.014   9.089   5.856 -0.0809 -0.0054 -0.2498
17729SOL    HW164406   4.014   9.150   5.936  1.3123  0.2327 -0.4263
17729SOL    HW264407   4.079   9.015   5.871  1.2088  0.8179 -1.7571
17730SOL     OW64408   9.569   3.388   0.364 -0.3688 -0.0968 -0.7957
17730SOL    HW164409   9.589   3.302   0.317 -1.5750 -0.1999 -1.1515
17730SOL    HW264410   9.643   3.453   0.349  0.7448 -1.1992 -0.1953
17731SOL     OW64411   7.985   1.534   1.942 -0.4073 -0.1089  0.2947
17731SOL    HW164412   7.902   1.480   1.938 -0.8909  0.5274  1.4460
17731SOL    HW264413   7.994   1.589   1.859 -1.0327 -0.3109  0.0952
17732SOL     OW64414   2.609   0.097   2.533  0.2667  0.2034 -0.6224
17732SOL    HW164415   2.629   0.123   2.627  1.1405 -0.6671 -0.5665
17732SOL    HW264416   2.517   0.129   2.509 -0.1646 -0.0204  0.6859
17733SOL     OW64417   1.538   0.665   0.277 -0.3737  0.0631  0.6241
17733SOL    HW164418   1.637   0.669   0.290  0.0140  0.4445 -2.0612
17733SOL    HW264419   1.512   0.573   0.247 -0.8672 -0.0808  1.4741
17734SOL     OW64420   2.390   8.126   1.104  0.3699  0.2563  0.0824
17734SOL    HW164421   2.332   8.204   1.124  1.5393  1.2146 -0.1807
17734SOL    HW264422   2.408   8.122   1.006  0.6930 -0.0566  0.1509
17735SOL     OW64423   8.042   5.036   4.775  0.4185 -0.1255 -0.1719
17735SOL    HW164424   8.109   5.012   4.704  1.5523 -0.2382  0.9128
17735SOL    HW264425   7.962   5.078   4.732  0.9848 -0.4031 -1.5400
17736SOL     OW64426   3.576   4.162   5.331 -0.5827 -0.3252  0.1119
17736SOL    HW164427   3.515   4.139   5.407 -1.7372 -0.5732 -0.8780
17736SOL    HW264428   3.644   4.089   5.319  1.1907  0.8421  2.4599
17737SOL     OW64429   2.938   5.107   2.804 -0.0678  0.2224 -0.4877
17737SOL    HW164430   2.965   5.067   2.891 -1.3026  1.2473  0.3751
17737SOL    HW264431   2.847   5.074   2.778 -0.4491  1.2625 -0.5187
17738SOL     OW64432   4.572   4.151   1.018  0.5162  0.5779  0.0491
17738SOL    HW164433   4.563   4.054   1.041 -0.2213  0.3927 -0.9778
17738SOL    HW264434   4.651   4.163   0.958  1.4697  0.8261  1.3425
17739SOL     OW64435   9.967   9.889   1.908 -0.0614 -0.3570  0.2412
17739SOL    HW164436  10.012   9.855   1.990  2.0241 -1.6443 -1.4060
17739SOL    HW264437   9.955   9.988   1.915  1.6243 -0.2161  1.3869
17740SOL     OW64438   4.210   1.098   2.160  0.0138  0.3594  0.7502
17740SOL    HW164439   4.114   1.076   2.143  0.2538  0.0900 -0.2515
17740SOL    HW264440   4.228   1.193   2.133  0.8335 -0.6267 -2.3159
17741SOL     OW64441   0.691   1.380   4.440 -0.0225  0.0770 -0.9666
17741SOL    HW164442   0.680   1.325   4.523  0.3239 -0.5264 -1.3170
17741SOL    HW264443   0.644   1.335   4.364 -0.1494  0.5152 -1.1469
17742SOL     OW64444   3.216   3.199   0.925  0.1006 -0.2352  0.4109
17742SOL    HW164445   3.231   3.295   0.900 -0.1428 -0.4160 -0.4487
17742SOL    HW264446   3.283   3.141   0.879 -1.9247 -0.8358 -1.8778
17743SOL     OW64447   0.014   8.233   5.971  0.0294  0.9979 -0.0322
17743SOL    HW164448   0.034   8.298   5.899 -2.0838  0.1512 -1.4280
17743SOL    HW264449  -0.012   8.145   5.931  0.7572 -0.0860  1.7830
17744SOL     OW64450   6.745   0.863   4.351 -0.3460 -0.0843  0.2131
17744SOL    HW164451   6.707   0.787   4.405 -0.5325 -0.6242 -0.6619
17744SOL    HW264452   6.714   0.949   4.390  0.1184 -0.4439  1.4065
17745SOL     OW64453   7.813   9.475   2.434 -0.0182 -0.3240  0.1888
17745SOL    HW164454   7.850   9.440   2.520 -0.7033 -1.9097 -0.1375
17745SOL    HW264455   7.845   9.417   2.358 -1.0111 -0.1210 -0.3923
17746SOL     OW64456   4.734   8.837   4.802 -0.3265 -0.6496 -0.3135
17746SOL    HW164457   4.693   8.753   4.836 -0.1519  0.6474  3.2820
17746SOL    HW264458   4.749   8.901   4.878  1.2949  1.8991 -2.6575
17747SOL     OW64459   1.917   1.881   4.827  0.1579  0.2009 -0.1593
17747SOL    HW164460   1.978   1.839   4.760  1.0495  0.1348  0.6761
17747SOL    HW264461   1.899   1.975   4.801 -2.1029 -0.7627 -2.2101
17748SOL     OW64462   0.020   2.169   5.711 -0.1029 -0.0496  0.1128
17748SOL    HW164463  -0.005   2.126   5.624 -1.0119 -0.1609  0.4324
17748SOL    HW264464   0.074   2.251   5.692 -0.6339  0.1489 -0.5794
17749SOL     OW64465   7.750   8.174   4.524  0.1590  0.3335 -0.2218
17749SOL    HW164466   7.669   8.152   4.469 -0.1990  0.6882  0.1526
17749SOL    HW264467   7.816   8.099   4.518  0.0917  0.3400 -1.0694
17750SOL     OW64468   0.730   3.797   4.313 -0.5972 -0.3367  0.5101
17750SOL    HW164469   0.750   3.746   4.397  0.0597 -0.2763  0.3906
17750SOL    HW264470   0.693   3.886   4.336 -0.0149 -0.1541  0.7462
17751SOL     OW64471   3.614   0.857   4.792  0.6551  0.0029 -0.1914
17751SOL    HW164472   3.593   0.901   4.705  0.9336  0.1240 -0.1994
17751SOL    HW264473   3.677   0.781   4.777 -1.1905 -1.5150 -0.3996
17752SOL     OW64474   2.460   2.173   4.748 -0.1877  0.3574 -0.2819
17752SOL    HW164475   2.448   2.213   4.839 -0.0397  2.9628 -1.3793
17752SOL    HW264476   2.547   2.125   4.744 -0.8445 -1.0274  1.3762
17753SOL     OW64477   8.700   7.734   0.106  0.4634  0.4459 -0.2691
17753SOL    HW164478   8.612   7.701   0.140  1.5967 -1.6247  0.7461
17753SOL    HW264479   8.696   7.739   0.006 -0.1242 -1.7964 -0.3936
17754SOL     OW64480   1.910   2.451   3.781 -0.6344 -0.1535  0.2667
17754SOL    HW164481   1.907   2.435   3.683 -0.1457  2.0203 -0.1325
17754SOL    HW264482   2.002   2.433   3.816 -1.3965 -3.3144  0.8048
17755SOL     OW64483   2.991   7.330   4.403  0.4241  0.4079  0.4222
17755SOL    HW164484   3.018   7.380   4.321 -1.8530  1.7771  0.4571
17755SOL    HW264485   2.960   7.394   4.473 -0.0056 -0.8897  1.4527
17756SOL     OW64486   6.836   2.482   2.073 -0.2358  0.0621  0.0449
17756SOL    HW164487   6.857   2.398   2.024 -1.1027  0.2310 -0.6446
17756SOL    HW264488   6.849   2.469   2.171 -0.3708 -0.8715 -0.0615
17757SOL     OW64489   4.765   8.161   4.126 -0.1867 -0.3162 -0.0309
17757SOL    HW164490   4.798   8.103   4.201 -0.0932  2.5097  2.1813
17757SOL    HW264491   4.843   8.206   4.082 -0.4066 -0.5334 -0.6532
17758SOL     OW64492   9.596   4.924   3.770 -0.5547 -0.2739 -0.0292
17758SOL    HW164493   9.551   5.013   3.779 -0.9253 -0.4621  0.0176
17758SOL    HW264494   9.694   4.937   3.760 -0.8090  0.2591 -2.1636
17759SOL     OW64495   7.584   0.810   3.299 -0.1530 -0.1295  0.1543
17759SOL    HW164496   7.544   0.852   3.218 -1.3198  0.0319  0.8089
17759SOL    HW264497   7.649   0.873   3.341  1.5898 -0.7823 -1.4809
17760SOL     OW64498   9.174   2.465   3.307  0.1168  0.3426  0.2768
17760SOL    HW164499   9.219   2.539   3.257 -1.1398 -0.0855 -1.5623
17760SOL    HW264500   9.081   2.492   3.330  0.5106  0.3204  1.9206
17761SOL     OW64501   2.310   8.499   2.406  0.4415  0.0449 -1.1115
17761SOL    HW164502   2.279   8.499   2.310 -2.1153  1.9097 -0.3354
17761SOL    HW264503   2.309   8.405   2.440 -2.8554 -0.1954 -1.6706
17762SOL     OW64504   2.861   4.542   2.314  0.5530 -0.3964  0.4073
17762SOL    HW164505   2.835   4.561   2.219  1.6617  1.0445  0.3823
17762SOL    HW264506   2.952   4.579   2.332  1.6476 -3.3064  1.1703
17763SOL     OW64507   6.433   1.220   1.981 -0.2320 -0.7658 -0.0754
17763SOL    HW164508   6.455   1.203   1.885 -2.2380  0.1367 -0.7197
17763SOL    HW264509   6.379   1.144   2.017 -2.4177  0.4514 -0.6819
17764SOL     OW64510   3.038   2.821   5.726 -0.3734 -0.5948 -0.0129
17764SOL    HW164511   3.085   2.781   5.804  1.5486  0.4500 -0.5892
17764SOL    HW264512   2.957   2.766   5.703 -0.7919 -1.0638  2.4972
17765SOL     OW64513   7.849   1.945   3.819  0.3465  0.0021 -0.6652
17765SOL    HW164514   7.753   1.953   3.844  0.7323 -0.4187  1.0225
17765SOL    HW264515   7.857   1.915   3.723 -1.1902 -0.1749 -0.7385
17766SOL     OW64516   2.684   8.621   0.437 -0.2216 -0.0802 -0.1049
17766SOL    HW164517   2.683   8.694   0.505 -0.8281 -1.5413  1.4902
17766SOL    HW264518   2.734   8.542   0.473 -1.5850 -1.3239 -0.8315
17767SOL     OW64519   7.725   6.704   2.972  0.1229  0.2162 -0.0234
17767SOL    HW164520   7.666   6.740   2.899 -0.2719 -0.3599  0.0089
17767SOL    HW264521   7.757   6.779   3.029  0.0097  0.6136 -0.4777
17768SOL     OW64522   3.810   5.167   3.404  0.3204  0.6453 -0.1960
17768SOL    HW164523   3.733   5.182   3.342  0.7551 -0.4152 -1.0067
17768SOL    HW264524   3.790   5.209   3.492 -2.0686 -1.3335  0.2543
17769SOL     OW64525   1.763   1.770   3.376  0.3024 -0.0551 -0.1870
17769SOL    HW164526   1.747   1.868   3.365  0.5164 -0.0991 -0.8776
17769SOL    HW264527   1.714   1.738   3.458 -2.2265  0.0398 -1.6204
17770SOL     OW64528   7.800   9.909   5.515 -0.6281 -0.4083  0.1455
17770SOL    HW164529   7.704   9.895   5.537 -0.6418 -1.1830 -0.3902
17770SOL    HW264530   7.808   9.980   5.445 -0.8439 -0.6483 -0.1264
17771SOL     OW64531   0.355   0.667   0.228 -0.0836 -0.2030  0.3176
17771SOL    HW164532   0.255   0.658   0.232 -0.0954  0.2462  1.2209
17771SOL    HW264533   0.397   0.604   0.293  0.2935 -1.3606 -1.0193
17772SOL     OW64534   2.509   1.925   5.061 -0.2448  0.3095 -0.3202
17772SOL    HW164535   2.409   1.925   5.071 -0.3873  0.0168 -1.6230
17772SOL    HW264536   2.539   1.838   5.021  0.4191  0.7959 -0.9028
17773SOL     OW64537   8.688   2.945   1.663  0.6152 -0.1533 -0.2394
17773SOL    HW164538   8.776   2.901   1.675  0.1594 -0.9337  0.2753
17773SOL    HW264539   8.615   2.881   1.686 -0.0723  0.6515 -0.1452
17774SOL     OW64540   3.414   3.798   3.607  0.0824 -0.1791 -0.0167
17774SOL    HW164541   3.457   3.879   3.568  1.6767  0.3381  2.7038
17774SOL    HW264542   3.451   3.716   3.563  1.5052  0.3999  0.0815
17775SOL     OW64543   7.233   1.460   4.685  0.1907 -0.2924 -0.0875
17775SOL    HW164544   7.324   1.492   4.711 -0.7621  2.5322 -0.0157
17775SOL    HW264545   7.215   1.483   4.590 -1.0503  0.6363  0.3557
17776SOL     OW64546   1.372   7.986   1.101  0.4779 -0.5409 -0.5148
17776SOL    HW164547   1.363   8.038   1.016  0.2910 -1.5879 -1.1325
17776SOL    HW264548   1.310   8.025   1.170  0.3058  0.0305 -0.9844
17777SOL     OW64549   9.787   9.593   5.991 -0.4630  0.2015  0.2318
17777SOL    HW164550   9.735   9.520   6.037 -0.5116 -0.5012 -0.9215
17777SOL    HW264551   9.832   9.650   6.060  0.4934 -1.5941  1.1280
17778SOL     OW64552   0.737   4.155   2.800 -0.7374  0.8599 -0.5585
17778SOL    HW164553   0.836   4.142   2.807 -0.6698  0.7659 -1.6692
17778SOL    HW264554   0.690   4.081   2.848 -0.2771  0.9908  0.1063
17779SOL     OW64555   5.124   9.543   2.670  0.1316  0.4692 -0.1922
17779SOL    HW164556   5.194   9.537   2.741 -0.4052  1.8765  0.4675
17779SOL    HW264557   5.131   9.463   2.610  1.5222 -0.0040  0.5731
17780SOL     OW64558   8.926   6.395   1.128 -0.0408 -0.2348  0.2308
17780SOL    HW164559   8.972   6.420   1.213 -0.3772 -0.7172  0.5527
17780SOL    HW264560   8.903   6.478   1.077  1.2434  0.0100  0.0334
17781SOL     OW64561   6.474   7.452   3.673 -0.8387 -0.4524  0.1822
17781SOL    HW164562   6.506   7.357   3.669 -1.7753 -0.7495 -0.4192
17781SOL    HW264563   6.551   7.514   3.663  0.1102 -1.1331  2.7661
17782SOL     OW64564   2.379   6.510   0.219  0.3089 -0.3899 -0.1095
17782SOL    HW164565   2.314   6.462   0.160 -0.9207 -0.1100  0.9841
17782SOL    HW264566   2.466   6.521   0.172 -1.2911  1.7315 -2.6966
17783SOL     OW64567   4.076   9.256   6.062  0.1847 -0.0037 -0.1401
17783SOL    HW164568   4.089   9.232   6.158  1.1683 -0.9763 -0.5124
17783SOL    HW264569   4.148   9.319   6.033 -0.2249  0.4452 -0.1967
17784SOL     OW64570   4.151   8.297   1.190  0.3539  0.0340 -0.7209
17784SOL    HW164571   4.164   8.320   1.093  0.0884  0.1771 -0.7237
17784SOL    HW264572   4.054   8.281   1.207  0.2925  0.8516 -0.2946
17785SOL     OW64573   1.284   1.810   5.521 -0.2554  0.0985 -0.4680
17785SOL    HW164574   1.298   1.839   5.426  1.3594  0.3698 -0.1604
17785SOL    HW264575   1.334   1.725   5.537 -3.2026 -1.7727 -0.7628
17786SOL     OW64576   1.208   9.861   0.548  0.2075  0.3064 -0.1274
17786SOL    HW164577   1.291   9.903   0.512 -1.3254  1.4961 -2.4361
17786SOL    HW264578   1.194   9.772   0.504 -0.0932  0.4217 -0.2713
17787SOL     OW64579   2.311   2.985   3.552 -0.7227 -0.2907 -0.2249
17787SOL    HW164580   2.383   2.967   3.484 -0.5173 -2.2144  0.4777
17787SOL    HW264581   2.314   3.081   3.579  0.6870 -0.0379 -1.2367
17788SOL     OW64582   4.808   1.789   6.562  0.1446 -0.2323  0.2934
17788SOL    HW164583   4.875   1.739   6.507  1.0730 -0.8485  1.9467
17788SOL    HW264584   4.802   1.748   6.653 -1.5306  0.6342  0.6035
17789SOL     OW64585   8.108   9.926   1.724 -0.1973  0.1719 -0.2900
17789SOL    HW164586   8.207   9.926   1.716  0.0086 -0.8602  1.7914
17789SOL    HW264587   8.076   9.834   1.746 -1.1771  1.2783  3.3300
17790SOL     OW64588   0.646   7.670   0.083  0.0131  0.2302  0.4990
17790SOL    HW164589   0.645   7.609   0.162 -1.9503  1.3851  1.4174
17790SOL    HW264590   0.673   7.619   0.001  0.1274 -1.4476  1.5623
17791SOL     OW64591   7.308   8.792   4.357  0.3042 -0.1499  0.4476
17791SOL    HW164592   7.222   8.785   4.307  1.0587  0.4349 -0.9798
17791SOL    HW264593   7.375   8.729   4.317  0.6942 -0.2205  1.2069
17792SOL     OW64594   7.833   6.280   0.967  0.0430 -0.0011 -0.2157
17792SOL    HW164595   7.804   6.349   1.033  0.6928 -0.1132  0.1794
17792SOL    HW264596   7.788   6.298   0.879 -0.6486  0.2713  0.1899
17793SOL     OW64597   9.026   9.144   4.301 -0.3011 -0.1773  0.5166
17793SOL    HW164598   8.991   9.204   4.228  1.0731 -0.4176 -0.3396
17793SOL    HW264599   9.021   9.193   4.388 -0.9981  0.4758  0.1229
17794SOL     OW64600   5.905   7.929   4.665  0.0929 -0.1982 -0.1657
17794SOL    HW164601   5.951   7.982   4.736 -1.8167  3.3761 -1.4466
17794SOL    HW264602   5.941   7.955   4.575 -1.2675 -0.6155 -0.8515
17795SOL     OW64603   2.322   3.074   0.189 -0.4400  0.2589 -0.5863
17795SOL    HW164604   2.420   3.086   0.209 -0.3083  0.1732 -1.1823
17795SOL    HW264605   2.271   3.152   0.224  0.0082  0.9490 -1.4525
17796SOL     OW64606   8.793   9.527   2.115 -0.2174 -0.0894  0.4913
17796SOL    HW164607   8.778   9.428   2.112  0.2067 -0.1587  0.6347
17796SOL    HW264608   8.736   9.567   2.186  0.3325 -0.3637  1.0930
17797SOL     OW64609   2.889   3.858   4.405 -0.1929 -0.5534 -0.2034
17797SOL    HW164610   2.860   3.763   4.415 -0.4268 -0.4388  0.2415
17797SOL    HW264611   2.963   3.864   4.338 -0.0662 -1.0705 -0.1121
17798SOL     OW64612   3.504   4.775   6.425  0.5919 -0.4846  0.4402
17798SOL    HW164613   3.430   4.782   6.492  1.3827 -0.7682  1.3536
17798SOL    HW264614   3.572   4.709   6.456  1.5160  0.1813 -0.1115
17799SOL     OW64615   2.898   1.009   1.536 -0.7143  0.7357 -0.1299
17799SOL    HW164616   2.883   0.927   1.591 -1.3434  0.0576 -1.2934
17799SOL    HW264617   2.851   1.087   1.578 -0.4602  0.4202  0.7513
17800SOL     OW64618   8.013   8.799   2.967  0.0062  0.0069  0.2603
17800SOL    HW164619   7.984   8.873   3.028 -0.1840  1.3883 -1.4505
17800SOL    HW264620   8.112   8.787   2.973 -0.1302 -0.5076  1.5299
17801SOL     OW64621   7.230   7.468   3.525 -0.5743 -0.1326 -0.0802
17801SOL    HW164622   7.273   7.414   3.596 -0.4137  1.0842  0.7588
17801SOL    HW264623   7.298   7.528   3.482 -1.1713  0.9328  0.4421
17802SOL     OW64624   0.006   8.332   0.250  0.6107 -0.0119 -0.1807
17802SOL    HW164625  -0.015   8.359   0.343  1.2061  0.2404 -0.1180
17802SOL    HW264626  -0.019   8.236   0.236  1.0272 -0.1982  0.3916
17803SOL     OW64627   7.643   8.749   4.504 -0.8478 -0.2536 -0.3422
17803SOL    HW164628   7.609   8.837   4.536 -1.7487  0.1367 -2.2800
17803SOL    HW264629   7.720   8.763   4.441 -0.2697 -0.9129  0.2001
17804SOL     OW64630   8.447   7.546   3.425 -0.3620 -0.1522 -0.4404
17804SOL    HW164631   8.398   7.541   3.512 -1.3578 -1.7552 -1.0569
17804SOL    HW264632   8.543   7.521   3.440 -0.9941 -2.5481 -0.1176
17805SOL     OW64633   1.152   4.915   3.474 -0.1236  0.4313 -0.6528
17805SOL    HW164634   1.159   5.000   3.525 -2.7563  0.6131 -0.5106
17805SOL    HW264635   1.151   4.935   3.376  0.9389  0.4041 -0.6774
17806SOL     OW64636   1.864   5.347   0.710  0.0939  0.3837 -0.3648
17806SOL    HW164637   1.866   5.389   0.619 -0.7658  0.1578 -0.4966
17806SOL    HW264638   1.891   5.415   0.778 -3.1394  1.7934 -0.3550
17807SOL     OW64639   9.907   8.928   0.448 -0.2540  0.0181 -0.2210
17807SOL    HW164640   9.942   9.015   0.412 -0.1260  0.3348  0.6450
17807SOL    HW264641   9.980   8.860   0.448 -0.4147 -0.1470 -1.1070
17808SOL     OW64642   4.780   1.242   5.368  0.2340 -0.0153  0.2239
17808SOL    HW164643   4.742   1.333   5.349  1.4079  0.2170 -1.1321
17808SOL    HW264644   4.760   1.216   5.462  0.0738  1.7471  0.6870
17809SOL     OW64645   1.139   7.376   1.163  0.2789 -0.5611 -0.5373
17809SOL    HW164646   1.155   7.405   1.257 -1.2783  0.0758 -0.4680
17809SOL    HW264647   1.167   7.280   1.152  2.5594  0.0060 -0.0053
17810SOL     OW64648   1.292   6.760   2.906  0.0110 -0.8620 -0.1357
17810SOL    HW164649   1.276   6.674   2.857  0.3934 -0.3768 -1.1300
17810SOL    HW264650   1.390   6.776   2.915 -0.0501  0.2780 -1.4173
17811SOL     OW64651   0.983   2.223   4.643 -0.0292 -0.4235 -0.5435
17811SOL    HW164652   0.998   2.304   4.699  0.0655  0.8514 -2.3734
17811SOL    HW264653   0.939   2.152   4.698  0.1671  0.7494  1.1618
17812SOL     OW64654   5.763   0.193   4.513  0.4122  1.1184  0.1585
17812SOL    HW164655   5.845   0.249   4.525  1.5241 -0.5150  0.3771
17812SOL    HW264656   5.688   0.232   4.565  2.1949  0.2932  3.5119
17813SOL     OW64657   7.766   2.518   1.545  0.1788  0.1059  0.3038
17813SOL    HW164658   7.837   2.507   1.476 -0.3356  1.8523 -0.5577
17813SOL    HW264659   7.676   2.510   1.502 -0.1496  1.3387  0.7130
17814SOL     OW64660   6.798   9.161   4.135 -0.0356 -0.1102 -0.0000
17814SOL    HW164661   6.803   9.100   4.055 -0.9804 -1.0903  0.6774
17814SOL    HW264662   6.719   9.222   4.125 -1.9549 -2.2305  1.5347
17815SOL     OW64663   5.301   8.974   2.038 -0.2996 -0.4682  0.0691
17815SOL    HW164664   5.275   9.033   2.114  0.3644  0.7876 -0.6610
17815SOL    HW264665   5.247   8.890   2.041 -2.1853  0.7288  0.3776
17816SOL     OW64666   2.526   9.519   1.843 -0.1059  0.1150  0.4463
17816SOL    HW164667   2.617   9.560   1.850  0.3192 -0.7706  0.3062
17816SOL    HW264668   2.511   9.459   1.922 -0.7532  0.6206  0.7054
17817SOL     OW64669   6.032   9.187   1.804  0.1601 -0.2576 -0.8460
17817SOL    HW164670   5.946   9.221   1.843  1.6952  2.0968  0.5243
17817SOL    HW264671   6.048   9.094   1.837 -0.1979  0.5080  1.6001
17818SOL     OW64672   6.746   1.896   0.878 -0.2400  0.0443  0.0407
17818SOL    HW164673   6.774   1.848   0.796 -0.0751  0.3128 -0.0621
17818SOL    HW264674   6.650   1.923   0.870  0.0342  0.8935 -0.4659
17819SOL     OW64675   7.436   5.566   5.576  0.2670  0.4486 -0.5516
17819SOL    HW164676   7.409   5.486   5.523  0.7576  0.7858 -1.3097
17819SOL    HW264677   7.389   5.564   5.665  0.0332 -0.5085 -0.6882
17820SOL     OW64678   7.153   9.739   4.872 -0.0564 -0.2304  0.3103
17820SOL    HW164679   7.165   9.817   4.933 -1.1169 -1.0713  1.6458
17820SOL    HW264680   7.180   9.764   4.779 -2.1849  2.3462  0.3063
17821SOL     OW64681   8.599   3.386   1.926 -0.1123  0.0627 -0.1468
17821SOL    HW164682   8.520   3.422   1.977 -0.4408 -0.9379  0.0608
17821SOL    HW264683   8.594   3.287   1.923  0.3384  0.0712 -1.4470
17822SOL     OW64684   8.104   7.400   5.316  0.3396 -0.1268  0.2906
17822SOL    HW164685   8.066   7.458   5.388 -0.0358  2.1054 -1.6509
17822SOL    HW264686   8.040   7.397   5.239  1.3716 -1.3386 -0.5307
17823SOL     OW64687   0.211   1.069   5.010  0.4581  0.1755  0.3988
17823SOL    HW164688   0.251   1.066   4.918 -1.6490  0.0927 -0.5484
17823SOL    HW264689   0.188   1.163   5.034  0.1088  0.0891  0.4175
17824SOL     OW64690   1.484   7.976   6.454 -0.1419  0.3997  1.1843
17824SOL    HW164691   1.508   8.048   6.519  0.1149  1.6432 -0.2536
17824SOL    HW264692   1.384   7.967   6.449 -0.1653  0.4129  1.6333
17825SOL     OW64693   1.844   6.140   2.621  0.1952  0.7644 -0.7235
17825SOL    HW164694   1.934   6.172   2.591  0.8855  2.3871  2.7397
17825SOL    HW264695   1.804   6.209   2.681 -2.6587 -0.6818 -0.9145
17826SOL     OW64696   2.413   2.047   0.628 -0.4847 -0.8414 -0.2226
17826SOL    HW164697   2.446   2.015   0.717 -2.3487 -2.8663 -0.2355
17826SOL    HW264698   2.443   1.984   0.556 -0.9240 -0.4710 -0.7396
17827SOL     OW64699   3.277   0.795   1.772  0.2705  0.4246 -0.2967
17827SOL    HW164700   3.232   0.850   1.702  1.7121 -1.1273 -2.4947
17827SOL    HW264701   3.368   0.768   1.741  1.2918  0.3927  2.5309
17828SOL     OW64702   0.877   0.846   3.317  0.1249 -0.0767  0.3204
17828SOL    HW164703   0.791   0.811   3.353 -0.3593 -0.9322 -1.6355
17828SOL    HW264704   0.860   0.900   3.235  1.0857  3.0487  2.0731
17829SOL     OW64705   2.771   5.565   2.337  0.2364 -0.1495  0.1701
17829SOL    HW164706   2.750   5.572   2.240 -0.5815 -1.7682  0.2078
17829SOL    HW264707   2.705   5.618   2.390  0.2497  0.1538 -0.1199
17830SOL     OW64708   0.467   3.992   4.691  0.0921  0.0535 -0.3330
17830SOL    HW164709   0.426   3.908   4.725 -0.6826  0.8988  0.8715
17830SOL    HW264710   0.552   3.971   4.642 -1.1610 -1.6244 -1.8753
17831SOL     OW64711   0.039   9.876   1.437 -0.4903  0.2843 -0.0513
17831SOL    HW164712  -0.049   9.846   1.475 -0.0120 -1.7043 -0.4258
17831SOL    HW264713   0.082   9.941   1.500 -1.8100  0.5815  0.5655
17832SOL     OW64714   3.020   3.887   2.535 -0.1522 -0.1469 -0.6540
17832SOL    HW164715   3.072   3.916   2.455 -1.1155 -0.0126 -1.2294
17832SOL    HW264716   2.953   3.957   2.559 -0.0102 -0.2745  0.1545
17833SOL     OW64717   3.882   4.210   3.997 -0.8976  0.0028 -0.1161
17833SOL    HW164718   3.938   4.212   4.080 -2.3001  0.3839  0.8579
17833SOL    HW264719   3.827   4.294   3.993  0.1649  0.6264 -2.1673
17834SOL     OW64720   3.130   7.003   6.679  0.2411 -0.2678  0.0379
17834SOL    HW164721   3.134   7.100   6.704  1.0303 -0.3228  0.1339
17834SOL    HW264722   3.189   6.950   6.739  0.3615 -0.7121 -0.4646
17835SOL     OW64723   9.470   7.301   3.826 -0.1110 -0.0956 -0.2364
17835SOL    HW164724   9.553   7.249   3.806 -0.2216  0.0977 -1.2317
17835SOL    HW264725   9.395   7.265   3.770 -0.2863  0.8516 -0.6221
17836SOL     OW64726   0.424   2.009   4.721 -0.2120  0.1408 -0.5808
17836SOL    HW164727   0.412   2.025   4.819  0.1572 -0.0326 -0.5066
17836SOL    HW264728   0.471   2.088   4.680  0.9286 -0.4165 -0.3523
17837SOL     OW64729   1.292   2.880   1.662  0.0828 -0.0307  0.1822
17837SOL    HW164730   1.214   2.907   1.605 -2.0191 -1.1900  2.4501
17837SOL    HW264731   1.260   2.853   1.752  3.2481  0.5118  1.5358
17838SOL     OW64732   2.149   2.596   3.601 -0.1063 -0.2187 -0.0476
17838SOL    HW164733   2.075   2.624   3.663 -0.9581 -0.5505 -0.8995
17838SOL    HW264734   2.115   2.597   3.507  1.3553  0.9322 -0.5904
17839SOL     OW64735   3.568   7.119   2.906  0.0820 -0.2911 -0.4395
17839SOL    HW164736   3.619   7.186   2.960  0.3613  0.0652 -1.1365
17839SOL    HW264737   3.589   7.027   2.937 -0.4391 -0.0474  0.6467
17840SOL     OW64738   1.095   9.588   3.490 -0.0306  0.7010  0.2019
17840SOL    HW164739   1.097   9.673   3.437  0.3909  0.0211 -0.8889
17840SOL    HW264740   1.045   9.603   3.576 -1.0549  1.7260 -0.5588
17841SOL     OW64741   5.859   8.650   3.606  0.3634  0.3130 -0.4645
17841SOL    HW164742   5.768   8.661   3.568  0.3475 -0.7223 -0.7677
17841SOL    HW264743   5.897   8.562   3.576  0.4172 -0.4607  1.7914
17842SOL     OW64744   9.477   8.885   0.225 -0.1802 -0.3517 -0.3848
17842SOL    HW164745   9.410   8.884   0.151  0.0711 -0.2771 -0.6178
17842SOL    HW264746   9.490   8.793   0.260  0.3302 -0.5195 -1.0108
17843SOL     OW64747   5.780   8.578   4.164 -0.2809 -0.2638  0.5867
17843SOL    HW164748   5.861   8.636   4.168 -0.0291 -0.6858  2.4057
17843SOL    HW264749   5.785   8.519   4.084 -0.5946  2.2547 -1.3591
17844SOL     OW64750   6.953   0.273   3.568 -0.8513  0.1699  0.3746
17844SOL    HW164751   7.030   0.299   3.626 -1.8472 -0.0074  1.8050
17844SOL    HW264752   6.894   0.209   3.617  0.2127 -2.9242 -2.1679
17845SOL     OW64753   1.412   5.924   1.950  0.1166 -0.7797 -0.7702
17845SOL    HW164754   1.337   5.941   1.887 -0.8593 -1.9703  0.0465
17845SOL    HW264755   1.498   5.924   1.900 -0.3632  1.0188 -1.6485
17846SOL     OW64756   2.758   8.325   3.503 -0.2835 -0.3561 -0.1956
17846SOL    HW164757   2.674   8.349   3.551 -0.8365 -1.3268 -0.6555
17846SOL    HW264758   2.758   8.367   3.412  0.2192  0.5114  0.2020
17847SOL     OW64759   4.364   0.999   1.926 -0.4823  0.1279 -0.1278
17847SOL    HW164760   4.425   1.074   1.903  0.3683  0.1141  1.9718
17847SOL    HW264761   4.317   1.019   2.012 -2.6947 -0.3188 -1.1861
17848SOL     OW64762   5.692   1.746   3.975 -0.1520 -0.2409  0.1190
17848SOL    HW164763   5.721   1.755   4.071  0.0769 -0.4346  0.0690
17848SOL    HW264764   5.770   1.765   3.915 -0.8299  2.0970 -0.0745
17849SOL     OW64765   9.617   0.673   3.304 -0.0505 -0.1828  0.3280
17849SOL    HW164766   9.588   0.607   3.234 -0.9036  0.0239  0.4929
17849SOL    HW264767   9.554   0.670   3.381 -1.0104  1.9531 -0.3335
17850SOL     OW64768   8.640   6.000   4.861  0.2456  0.2124 -0.5730
17850SOL    HW164769   8.647   5.903   4.838 -1.2693  0.5401 -2.4739
17850SOL    HW264770   8.633   6.010   4.960  0.8671 -1.5868 -0.3335
17851SOL     OW64771   1.936   6.492   4.042  0.1535 -0.2695 -0.2021
17851SOL    HW164772   1.904   6.525   3.953  1.2955  1.8014  0.1122
17851SOL    HW264773   2.014   6.431   4.029  1.7806  1.8010 -0.5835
17852SOL     OW64774   4.080   4.599   1.396 -0.0214  0.5822  0.2886
17852SOL    HW164775   4.120   4.578   1.307  0.1270  3.1536 -0.3037
17852SOL    HW264776   4.011   4.530   1.420  1.8443 -1.6052 -0.5646
17853SOL     OW64777   9.901   2.170   4.424  0.7512 -0.2065 -0.6835
17853SOL    HW164778   9.835   2.103   4.392  2.2467 -2.0692  0.0286
17853SOL    HW264779   9.926   2.231   4.349  1.0369 -1.8511 -1.9590
17854SOL     OW64780   0.379   6.747   3.377  0.2947 -0.0152 -0.0543
17854SOL    HW164781   0.451   6.713   3.437  0.2211  0.2329  0.1769
17854SOL    HW264782   0.290   6.725   3.417  0.2451  1.5590  0.7425
17855SOL     OW64783   9.652   8.496   3.308 -0.2220 -0.1903 -0.5827
17855SOL    HW164784   9.750   8.487   3.293 -0.1610  1.8834 -1.6075
17855SOL    HW264785   9.602   8.477   3.223 -0.6347 -0.0113 -0.3858
17856SOL     OW64786   8.469   9.365   4.669 -0.5694 -0.6396  0.0408
17856SOL    HW164787   8.415   9.322   4.741  0.4134 -0.0416  1.1567
17856SOL    HW264788   8.413   9.377   4.587 -1.7054 -1.3060  0.7190
17857SOL     OW64789   1.035   0.773   5.339 -0.0119  0.9543 -0.0172
17857SOL    HW164790   0.983   0.724   5.269  1.0246  2.1716 -1.6887
17857SOL    HW264791   1.083   0.850   5.297  1.6836  0.9409  1.8073
17858SOL     OW64792   0.096   8.774   4.562  0.1807 -0.3374  0.1302
17858SOL    HW164793   0.098   8.777   4.662  1.8609 -1.8905  0.1861
17858SOL    HW264794   0.180   8.814   4.526  1.0311 -2.6376 -0.5260
17859SOL     OW64795   9.403   3.402   5.640 -0.1097  0.2035  0.0156
17859SOL    HW164796   9.497   3.386   5.667  0.2571 -0.3899 -1.5503
17859SOL    HW264797   9.365   3.478   5.692  1.2496  0.4607  0.6240
17860SOL     OW64798   4.080   3.143   4.637 -0.1595  0.2513  1.0744
17860SOL    HW164799   4.082   3.115   4.541  2.0735  2.6887  0.3514
17860SOL    HW264800   3.999   3.200   4.654 -0.9319 -0.7625  0.8247
17861SOL     OW64801   5.805   1.286   1.073  0.0238  0.0314  0.3446
17861SOL    HW164802   5.724   1.229   1.064  0.2406 -0.1069 -0.8757
17861SOL    HW264803   5.885   1.229   1.088  0.0016  0.1223  0.8176
17862SOL     OW64804   6.390   5.544   1.139 -0.2909  0.5000  0.6410
17862SOL    HW164805   6.326   5.584   1.204 -0.4838  0.8465  0.2428
17862SOL    HW264806   6.451   5.481   1.187 -3.3669 -2.7912  0.4083
17863SOL     OW64807   3.972   6.482   0.332 -0.4669 -0.2032  0.0148
17863SOL    HW164808   3.887   6.535   0.319 -0.0118  0.5672  0.1342
17863SOL    HW264809   3.989   6.426   0.252 -0.9438 -0.1503 -0.1272
17864SOL     OW64810   7.384   2.970   0.499  0.0071  0.0539  0.0934
17864SOL    HW164811   7.295   2.996   0.463 -0.9702  0.3379  2.6407
17864SOL    HW264812   7.395   2.871   0.492 -0.4344  0.0343 -0.3593
17865SOL     OW64813   2.041   9.824   1.792  0.3989 -0.0866 -0.6000
17865SOL    HW164814   2.102   9.886   1.743  2.2906 -0.9596  0.5555
17865SOL    HW264815   2.089   9.738   1.810 -1.4886 -1.1182 -0.4087
17866SOL     OW64816   9.382   1.483   4.103 -0.6413 -0.0941 -0.4603
17866SOL    HW164817   9.353   1.389   4.090 -0.0049 -0.2779 -0.5706
17866SOL    HW264818   9.479   1.485   4.129 -0.5544  0.5476 -0.8160
17867SOL     OW64819   6.756   1.149   1.130  0.0283 -0.1569  0.3367
17867SOL    HW164820   6.714   1.235   1.159  0.3427  0.3757 -0.7532
17867SOL    HW264821   6.689   1.095   1.080  0.6260  0.7318 -1.4800
17868SOL     OW64822   2.760   2.372   1.790  0.8313  0.0969 -0.1680
17868SOL    HW164823   2.810   2.330   1.866  2.0316  1.0887 -0.4046
17868SOL    HW264824   2.792   2.465   1.776 -1.2917  0.8721 -0.1335
17869SOL     OW64825   0.888   9.710   0.413 -0.1473  0.6204 -0.4367
17869SOL    HW164826   0.918   9.683   0.504 -0.1203 -2.0700 -1.2189
17869SOL    HW264827   0.858   9.630   0.362 -0.1102  2.0760 -2.8256
17870SOL     OW64828   9.297   4.065   4.249 -0.3472  0.0555 -0.2293
17870SOL    HW164829   9.294   4.143   4.313 -2.0406 -0.9926  0.9846
17870SOL    HW264830   9.320   3.982   4.299 -0.4001 -0.5577 -1.2126
17871SOL     OW64831   2.931   5.511   5.903  0.4394 -0.0664  0.0417
17871SOL    HW164832   2.896   5.524   5.810  2.5043  0.2305 -0.7072
17871SOL    HW264833   2.864   5.459   5.956 -2.0704  2.2391 -0.7537
17872SOL     OW64834   2.015   2.776   3.079  0.3544  0.0214 -0.1559
17872SOL    HW164835   1.920   2.790   3.105  0.2610 -0.6174 -0.1550
17872SOL    HW264836   2.041   2.843   3.009 -0.4613 -0.6088 -1.0690
17873SOL     OW64837   0.471   3.139   6.672 -0.0429  0.4259  0.2573
17873SOL    HW164838   0.443   3.063   6.731 -0.8256  0.3680 -0.1827
17873SOL    HW264839   0.490   3.104   6.580  0.6429  0.6011  0.3302
17874SOL     OW64840   9.665   3.973   3.370  0.6106 -0.5254  0.0439
17874SOL    HW164841   9.726   3.920   3.311  1.3507  3.1667 -2.7349
17874SOL    HW264842   9.571   3.944   3.355  1.2520 -3.2700  1.0837
17875SOL     OW64843   1.753   5.958   5.712 -0.4240 -0.4356 -0.0379
17875SOL    HW164844   1.679   5.891   5.716  0.2445 -1.1148  1.1709
17875SOL    HW264845   1.766   5.999   5.802  0.1157  0.2863 -0.4360
17876SOL     OW64846   2.519   8.352   5.464  0.0139 -0.0846  0.2734
17876SOL    HW164847   2.447   8.287   5.441 -1.5193  1.9907 -0.9498
17876SOL    HW264848   2.534   8.351   5.563 -0.7909 -1.4425  0.3941
17877SOL     OW64849   3.105   5.833   3.543  0.4546 -0.6683 -0.1411
17877SOL    HW164850   3.103   5.733   3.540  0.6391 -0.6548 -0.7160
17877SOL    HW264851   3.046   5.870   3.472  0.6270 -0.3645 -0.1269
17878SOL     OW64852   9.205   4.190   6.147 -0.2183 -0.6168 -0.4801
17878SOL    HW164853   9.301   4.206   6.122 -0.5630 -0.3590 -1.6738
17878SOL    HW264854   9.202   4.138   6.233  1.0489 -2.7923 -1.6939
17879SOL     OW64855   1.425   5.639   4.740 -0.1613 -0.1028 -0.0552
17879SOL    HW164856   1.519   5.630   4.772 -0.4498 -0.8497  0.5953
17879SOL    HW264857   1.379   5.711   4.792 -0.3768 -0.7332  0.6339
17880SOL     OW64858   0.676   8.481   4.470 -0.4642 -0.3090 -0.3511
17880SOL    HW164859   0.649   8.538   4.548 -0.2092  0.5452 -0.8703
17880SOL    HW264860   0.662   8.533   4.385 -0.1742 -1.0083 -0.8262
17881SOL     OW64861   9.503   5.472   6.533  0.6723 -0.0757  0.5647
17881SOL    HW164862   9.432   5.504   6.596  2.8273 -0.8852  3.5120
17881SOL    HW264863   9.520   5.375   6.548  0.4566 -0.5583 -2.0895
17882SOL     OW64864   7.424   6.467   2.863  0.1359 -0.6236 -0.7494
17882SOL    HW164865   7.420   6.387   2.922 -0.8719 -0.3369 -0.4245
17882SOL    HW264866   7.332   6.504   2.850  0.4146 -0.3794 -2.0834
17883SOL     OW64867   7.623   1.654   3.270  0.7119 -0.0274 -0.1239
17883SOL    HW164868   7.640   1.560   3.298  0.4471 -0.0987 -0.1996
17883SOL    HW264869   7.535   1.659   3.222  0.7701  0.2399 -0.2038
17884SOL     OW64870   0.801   0.547   2.113 -0.2105  0.2793 -0.0214
17884SOL    HW164871   0.791   0.513   2.020  0.3936 -1.8476  0.6740
17884SOL    HW264872   0.798   0.647   2.112  1.4573  0.3476 -2.5214
17885SOL     OW64873   3.547   5.577   1.636  0.0053  0.2166  0.0172
17885SOL    HW164874   3.628   5.610   1.586  1.0299 -2.2950 -0.0745
17885SOL    HW264875   3.560   5.593   1.734  0.8436 -0.6144  0.0487
17886SOL     OW64876   0.172   7.679   2.334  0.5296  0.6169  0.3442
17886SOL    HW164877   0.167   7.744   2.410  0.0472  0.6465  0.2864
17886SOL    HW264878   0.214   7.724   2.255 -1.0731  1.2958 -0.1478
17887SOL     OW64879   2.355   8.584   4.004  0.7753 -0.1784 -0.6882
17887SOL    HW164880   2.452   8.566   3.990  0.9901  0.0492  0.4368
17887SOL    HW264881   2.317   8.631   3.925  1.6855  0.1193 -0.9457
17888SOL     OW64882   5.575   0.141   1.037 -1.0561  0.4838 -0.2165
17888SOL    HW164883   5.595   0.106   0.946  3.4363 -2.5779  1.7415
17888SOL    HW264884   5.629   0.224   1.054  1.0634 -1.0665  0.8831
17889SOL     OW64885   3.359   9.980   6.016  0.0477  0.0562 -0.5364
17889SOL    HW164886   3.311   9.897   6.043 -1.6299  1.7181  1.8275
17889SOL    HW264887   3.458   9.967   6.026 -0.2786 -1.1189  1.3485
17890SOL     OW64888   0.856   7.117   6.723  0.4282 -0.5278  0.1870
17890SOL    HW164889   0.908   7.075   6.649 -3.5275 -1.9529 -1.9160
17890SOL    HW264890   0.789   7.180   6.686  1.1309  1.9573  2.9003
17891SOL     OW64891   1.280   3.486   2.621 -0.1934  0.2082  0.0257
17891SOL    HW164892   1.316   3.463   2.531  0.4041 -0.3070  0.3864
17891SOL    HW264893   1.284   3.585   2.634 -0.1137  0.2674 -0.4492
17892SOL     OW64894   7.353   9.996   2.082 -0.0418  0.2217  0.0750
17892SOL    HW164895   7.367  10.090   2.114 -0.2480  0.9587 -1.9364
17892SOL    HW264896   7.255   9.977   2.078 -0.0031 -0.0253  0.3612
17893SOL     OW64897   1.621   1.059   2.661  0.4412 -0.5835  0.4422
17893SOL    HW164898   1.611   1.102   2.571  1.1785 -0.2784  0.5013
17893SOL    HW264899   1.595   1.125   2.732 -0.2525 -0.8625  0.4469
17894SOL     OW64900   2.417   3.781   2.120 -0.5115 -0.0166 -0.3095
17894SOL    HW164901   2.350   3.707   2.110  2.3931 -2.9616  1.3363
17894SOL    HW264902   2.462   3.774   2.208  1.9767  1.9425 -1.3740
17895SOL     OW64903   4.156   2.808   5.489  0.2822 -0.0901  0.0851
17895SOL    HW164904   4.253   2.827   5.472 -0.3540  2.3833 -0.9808
17895SOL    HW264905   4.109   2.799   5.401 -0.5383 -0.9577  0.6091
  10.00000  10.00000   6.75964
