chitosan Film  in water:acetic acid 2% t= 2000.00000 step= 2000000
14447
    1CHTO  H203    1   5.447   6.985   1.767 -3.6973 -0.2231 -1.2627
    1CHTO   O82    2   5.426   6.919   1.830  0.3435 -0.5729 -0.1532
    1CHTO  C123    3   5.552   6.874   1.889 -0.5836 -0.3653 -0.0228
    1CHTO  H227    4   5.594   6.960   1.944  0.4509  0.3214 -1.8186
    1CHTO   O77    5   5.508   6.761   1.967 -0.4442  0.3546 -0.9542
    1CHTO  C118    6   5.611   6.701   2.047  0.5306 -0.8224 -0.0133
    1CHTO  H222    7   5.651   6.761   2.130  0.6114 -0.8268 -0.0481
    1CHTO  C125    8   5.566   6.564   2.097  0.4552 -0.0975 -0.2517
    1CHTO   O84    9   5.480   6.569   2.214 -0.3756 -0.0325  0.0561
    1CHTO  H205   10   5.467   6.490   2.263  0.7560 -1.0154 -1.1792
    1CHTO  C114   11   5.730   6.664   1.953 -0.3108 -0.2713  0.3319
    1CHTO  H218   12   5.700   6.578   1.892 -0.7984  0.9972 -1.2480
    1CHTO  C116   13   5.781   6.779   1.860  0.1379 -0.1815  0.1405
    1CHTO  H220   14   5.810   6.870   1.916  1.7096 -0.5051 -0.1359
    1CHTO   O79   15   5.892   6.731   1.788  0.0509 -0.0705 -0.3460
    1CHTO  H201   16   5.969   6.725   1.842  0.6109  0.7470 -1.0485
    1CHTO  C120   17   5.652   6.822   1.776 -0.2960  0.4649 -0.1209
    1CHTO  H224   18   5.606   6.731   1.733  0.1597  1.2518 -2.3728
    1CHTO   N21   19   5.691   6.916   1.672  0.3030 -0.3159  0.1757
    1CHTO  H211   20   5.781   6.901   1.614 -1.3983 -2.5881 -2.0135
    1CHTO  H212   21   5.605   6.938   1.610  0.9687  0.2289 -0.5716
    1CHTO   O75   22   5.840   6.630   2.045  0.0246 -0.3021 -0.5407
    1CHTO  C112   23   5.927   6.498   1.998  0.3502 -0.6419 -0.2416
    1CHTO  H216   24   5.949   6.493   1.890  2.3330 -0.0797  0.1297
    1CHTO   O73   25   5.848   6.383   2.033 -0.1090  0.1252  0.0886
    1CHTO  C113   26   5.896   6.251   2.001 -0.2610 -0.1183 -0.3081
    1CHTO  H217   27   5.912   6.246   1.891 -2.8325  1.3973 -0.7978
    1CHTO  C124   28   5.788   6.153   2.052  0.2443  0.4104  0.1461
    1CHTO   O83   29   5.673   6.165   1.974  0.2440  0.2547  0.7858
    1CHTO  H204   30   5.607   6.101   1.992  1.0995 -1.3339 -1.5827
    1CHTO  C109   31   6.015   6.235   2.093 -0.4012  0.6765 -0.4992
    1CHTO  H213   32   5.976   6.229   2.196  2.2813  0.4035  0.5541
    1CHTO  C110   33   6.114   6.356   2.071 -0.7054  0.0832 -0.1597
    1CHTO  H214   34   6.154   6.353   1.970 -0.2882 -1.8009  0.0542
    1CHTO   O78   35   6.224   6.336   2.167  0.3513  0.9009  0.4853
    1CHTO  H200   36   6.277   6.265   2.136  0.5310  2.3457 -2.6547
    1CHTO  C111   37   6.051   6.492   2.088 -0.2372 -0.2671  0.6567
    1CHTO  H215   38   6.018   6.502   2.192 -0.2333 -1.9465  0.8284
    1CHTO   N19   39   6.138   6.610   2.056  0.4460  0.2667  0.5462
    1CHTO  H207   40   6.223   6.620   2.121 -0.9841  1.9244  2.2307
    1CHTO  H208   41   6.185   6.602   1.959  0.1804  2.4784  0.1943
    1CHTO   O74   42   6.079   6.104   2.058 -0.1600 -0.3963  0.1129
    1CHTO  C115   43   6.193   6.024   2.167  0.2693 -0.2494  0.4471
    1CHTO  H219   44   6.190   6.069   2.266 -1.0991  1.9047 -0.5224
    1CHTO   O76   45   6.149   5.880   2.195 -0.0864 -0.5892 -0.5183
    1CHTO  C122   46   6.127   5.801   2.079 -0.5374 -0.0553  0.8453
    1CHTO  H226   47   6.041   5.839   2.024  1.0480  0.9380 -0.9860
    1CHTO  C126   48   6.092   5.662   2.126 -0.2976 -0.1178  0.6507
    1CHTO   O85   49   5.994   5.649   2.225  0.0328  0.6488 -0.2358
    1CHTO  H206   50   6.002   5.566   2.269  0.3745  1.0102  0.3787
    1CHTO  C121   51   6.250   5.810   1.989 -0.8890  0.1106 -1.0161
    1CHTO  H225   52   6.283   5.708   1.960 -1.6021 -0.5892  0.6154
    1CHTO   O81   53   6.205   5.883   1.874 -0.1333  0.2915 -1.2049
    1CHTO  H202   54   6.268   5.888   1.805 -0.2030 -2.2125 -1.5246
    1CHTO  C119   55   6.369   5.893   2.039 -0.0467 -0.0390  0.4634
    1CHTO  H223   56   6.415   5.830   2.115  4.5205 -0.2109 -2.2780
    1CHTO  C117   57   6.336   6.035   2.108 -0.7926 -0.2116 -0.3678
    1CHTO  H221   58   6.322   6.124   2.047 -1.8031 -0.4714 -0.5319
    1CHTO   N20   59   6.443   6.072   2.206  0.4852  0.2310  0.0344
    1CHTO  H209   60   6.424   6.171   2.245 -1.3654 -1.1239  2.7867
    1CHTO  H210   61   6.539   6.072   2.156  0.9251 -1.5239  0.8088
    1CHTO   O80   62   6.498   5.902   1.934 -0.0267  0.3718  0.3514
    1CHTO  C103   63   6.609   5.784   1.933  1.3600 -0.4302 -0.3779
    1CHTO  H190   64   6.617   5.747   2.035 -1.6923  0.6322  0.2979
    1CHTO  C101   65   6.573   5.671   1.830  0.0681 -0.0676  0.5875
    1CHTO  H188   66   6.550   5.724   1.738 -0.0278 -0.5011  0.3592
    1CHTO   O68   67   6.455   5.588   1.887  0.5812 -0.5211  0.6403
    1CHTO  H168   68   6.421   5.525   1.827 -0.8902  0.9442 -0.1327
    1CHTO   C99   69   6.700   5.578   1.801  0.1018 -0.9173  0.4949
    1CHTO  H186   70   6.718   5.510   1.887  1.3096  1.1204  1.8901
    1CHTO   N17   71   6.686   5.487   1.677 -0.5873  0.2145  0.6229
    1CHTO  H174   72   6.660   5.541   1.587  0.6975  2.9718  1.8454
    1CHTO  H175   73   6.625   5.400   1.699  1.2507 -1.6817 -1.5175
    1CHTO   C97   74   6.828   5.665   1.785 -0.2582  0.2920 -0.0678
    1CHTO  H184   75   6.834   5.711   1.685 -0.1500 -0.4021 -0.3845
    1CHTO   O64   76   6.852   5.759   1.888 -0.0242 -0.1665 -0.3079
    1CHTO  C104   77   6.747   5.859   1.893 -0.7462 -0.7195  0.2057
    1CHTO  H191   78   6.736   5.919   1.803 -1.7897 -1.7605 -0.3800
    1CHTO  C108   79   6.786   5.957   2.003 -0.1217  0.0130  0.1878
    1CHTO   O71   80   6.705   6.081   1.996  0.1770 -0.0584  0.1748
    1CHTO  H171   81   6.708   6.105   1.905  2.4011 -1.1053 -0.0607
    1CHTO   O62   82   6.945   5.588   1.816  0.0623  0.4033 -0.2868
    1CHTO   C91   83   7.068   5.586   1.737 -0.0607 -0.8882  0.4572
    1CHTO  H178   84   7.046   5.578   1.630 -0.1412  0.0239  0.4032
    1CHTO   C92   85   7.144   5.454   1.782  0.1210  0.9787  0.2578
    1CHTO  H179   86   7.144   5.442   1.891  1.6769 -1.2408  0.0358
    1CHTO   O66   87   7.059   5.347   1.730 -0.5657 -0.0593  0.1559
    1CHTO  H166   88   7.028   5.297   1.803 -0.7339  1.4307  1.1024
    1CHTO   C93   89   7.290   5.438   1.733 -0.1395 -0.2364  0.1552
    1CHTO  H180   90   7.294   5.428   1.623  0.9883  3.7520 -0.2272
    1CHTO   N16   91   7.354   5.320   1.802 -0.0505 -0.0185  0.2462
    1CHTO  H172   92   7.319   5.219   1.787  0.2266  0.0299 -0.7152
    1CHTO  H173   93   7.461   5.327   1.785 -0.1184  0.3353 -0.0385
    1CHTO   C94   94   7.365   5.574   1.766  0.4228  0.1915  0.0329
    1CHTO  H181   95   7.368   5.588   1.874 -1.1494 -1.6431  0.3500
    1CHTO   O61   96   7.299   5.690   1.711  0.3397 -0.0135 -0.3051
    1CHTO   C95   97   7.165   5.705   1.758 -0.3943 -0.5219 -0.0426
    1CHTO  H182   98   7.163   5.715   1.867  1.3878  1.1307 -0.1117
    1CHTO  C106   99   7.110   5.840   1.703  0.7265  0.2931  0.1907
    1CHTO   O69  100   7.100   5.833   1.562  0.0672 -0.3131 -0.6848
    1CHTO  H169  101   7.014   5.808   1.535  1.3076 -2.9739 -2.3989
    1CHTO   O63  102   7.524   5.568   1.702 -0.9038  0.6409 -0.0973
    1CHTO   C96  103   7.621   5.630   1.786  0.3292 -0.0587  0.0237
    1CHTO  H183  104   7.570   5.705   1.846 -0.6669  0.0127 -0.8904
    1CHTO   C98  105   7.732   5.708   1.713  0.3309  0.4222  0.0131
    1CHTO  H185  106   7.685   5.783   1.647 -1.0897  0.8778  1.4983
    1CHTO   O67  107   7.812   5.783   1.807  0.1790 -0.2915  0.2947
    1CHTO  H167  108   7.767   5.860   1.835 -0.6045 -0.8235  0.4950
    1CHTO  C102  109   7.841   5.611   1.634 -0.3321  0.7128 -0.4506
    1CHTO  H189  110   7.933   5.670   1.620 -0.7470  1.3187 -0.6485
    1CHTO   N18  111   7.789   5.590   1.497 -0.1801 -0.6639 -1.1895
    1CHTO  H176  112   7.843   5.647   1.422 -1.9862 -1.4006 -3.1201
    1CHTO  H177  113   7.804   5.487   1.470  0.3334 -1.5145  2.2429
    1CHTO  C105  114   7.857   5.474   1.711  0.9398  1.3096  0.1599
    1CHTO  H192  115   7.786   5.402   1.670  2.0317 -0.5341  1.4578
    1CHTO   O65  116   7.824   5.490   1.850  0.4445  0.2951 -0.4034
    1CHTO  C100  117   7.689   5.526   1.882  0.1436  0.8036  0.7920
    1CHTO  H187  118   7.622   5.439   1.882  0.0312  0.8711 -1.2647
    1CHTO  C107  119   7.685   5.561   2.037 -0.1167 -0.4531  0.4770
    1CHTO   O70  120   7.552   5.591   2.093 -0.2493  0.1385  0.5226
    1CHTO  H170  121   7.548   5.577   2.186  0.9781 -0.7252  0.4530
    1CHTO   O57  122   8.001   5.440   1.696 -0.6446 -0.4342 -0.3868
    1CHTO   C85  123   8.037   5.310   1.641 -0.0909  0.2853 -0.3047
    1CHTO  H157  124   7.953   5.258   1.590 -0.3623  0.6667 -0.2408
    1CHTO   C83  125   8.062   5.209   1.756  0.1531 -0.2314 -0.3966
    1CHTO  H155  126   7.976   5.213   1.823  0.6288 -0.3362  0.2256
    1CHTO   O56  127   8.171   5.250   1.835 -0.4104  0.1922  0.1428
    1CHTO  H135  128   8.234   5.180   1.839  1.5996  1.9690  1.3037
    1CHTO   C81  129   8.070   5.069   1.690  0.5005  0.2839 -0.3733
    1CHTO  H153  130   7.976   5.054   1.636  0.8186 -0.4363 -0.7303
    1CHTO   N14  131   8.072   4.960   1.785 -0.0249  0.5343 -0.1080
    1CHTO  H141  132   8.147   4.888   1.759  2.0227  1.3440  3.2346
    1CHTO  H142  133   7.976   4.912   1.778  1.3586 -2.4775  0.7038
    1CHTO   C79  134   8.191   5.063   1.589 -0.1973 -0.1688  0.1808
    1CHTO  H151  135   8.176   4.976   1.525 -1.3760 -1.8775  2.6989
    1CHTO   O52  136   8.179   5.175   1.499 -0.3983  0.7899  0.3596
    1CHTO   C86  137   8.166   5.310   1.553  0.0976 -0.1170  0.0843
    1CHTO  H158  138   8.263   5.327   1.603  0.1772 -0.0190 -0.1047
    1CHTO   C90  139   8.153   5.419   1.441  0.4010  0.3123 -0.1681
    1CHTO   O60  140   8.162   5.556   1.489  0.3033  0.1872  0.1210
    1CHTO  H138  141   8.249   5.589   1.493 -0.0405  1.3278 -1.4455
    1CHTO   O50  142   8.321   5.056   1.653  0.2442 -0.5367  0.1364
    1CHTO   C73  143   8.453   5.004   1.613 -0.3088 -0.4049 -0.4406
    1CHTO  H145  144   8.454   5.001   1.503 -0.0663  1.0915 -0.4840
    1CHTO   C74  145   8.478   4.863   1.667  0.3612  0.6600  0.5445
    1CHTO  H146  146   8.390   4.801   1.642  0.5839  1.4905 -2.5204
    1CHTO   O54  147   8.586   4.809   1.590 -0.5817  0.4086  0.2450
    1CHTO  H133  148   8.561   4.730   1.547 -2.4814  1.9357 -1.5535
    1CHTO   C75  149   8.504   4.863   1.820 -0.7719  0.1666 -0.7382
    1CHTO  H147  150   8.408   4.893   1.865  0.8031  1.5287  1.8827
    1CHTO   N13  151   8.536   4.732   1.870  0.2617  0.4689  0.4432
    1CHTO  H139  152   8.455   4.669   1.839 -0.0236  0.5511  1.0280
    1CHTO  H140  153   8.631   4.705   1.825 -0.0986 -1.3219  0.7352
    1CHTO   C76  154   8.601   4.977   1.864 -0.4924  0.4388 -0.4281
    1CHTO  H148  155   8.704   4.949   1.839 -1.3099  0.1122 -3.5982
    1CHTO   O49  156   8.574   5.108   1.802 -0.0411 -0.6571 -0.5319
    1CHTO   C77  157   8.568   5.101   1.653 -0.5940 -0.3325 -0.5058
    1CHTO  H149  158   8.663   5.060   1.619  0.0811 -0.4026  1.3853
    1CHTO   C88  159   8.560   5.242   1.592 -0.7245 -0.0489 -0.1705
    1CHTO   O58  160   8.684   5.317   1.605 -0.4207 -0.7625  0.0128
    1CHTO  H136  161   8.695   5.354   1.691 -0.5757  1.3337 -0.8538
    1CHTO   O51  162   8.567   4.993   2.037 -0.1594 -0.0109  0.0281
    1CHTO   C78  163   8.508   5.133   2.106 -0.1422 -0.3780  0.5426
    1CHTO  H150  164   8.467   5.199   2.027  0.5209 -0.7102 -0.0972
    1CHTO   C80  165   8.618   5.207   2.184  0.4409  0.6026 -0.5703
    1CHTO  H152  166   8.651   5.140   2.266  2.2034 -0.2666 -1.9389
    1CHTO   O55  167   8.735   5.219   2.103 -0.5285  0.1547  0.1152
    1CHTO  H134  168   8.793   5.150   2.130 -0.6943  0.7327  2.0726
    1CHTO   C84  169   8.562   5.340   2.246 -0.5404 -0.1191  1.1642
    1CHTO  H156  170   8.532   5.410   2.167  0.3903  0.1042  1.0044
    1CHTO   N15  171   8.663   5.417   2.334 -0.4283 -0.1662  0.3675
    1CHTO  H143  172   8.711   5.358   2.410  0.1404  0.0794  0.2030
    1CHTO  H144  173   8.614   5.501   2.378 -0.5462  0.3241 -0.6860
    1CHTO   C87  174   8.433   5.309   2.325 -0.4697 -0.5136  0.8609
    1CHTO  H159  175   8.461   5.254   2.415  1.5024  0.8132  1.0840
    1CHTO   O53  176   8.332   5.223   2.244  0.1960  0.1801 -0.5655
    1CHTO   C82  177   8.401   5.102   2.207 -0.5351  0.0610  0.3538
    1CHTO  H154  178   8.434   5.054   2.299  0.8559  0.7128  0.2168
    1CHTO   C89  179   8.303   5.002   2.136 -0.0933 -1.0398  0.3264
    1CHTO   O59  180   8.346   4.864   2.132 -0.1158 -0.5844 -0.7814
    1CHTO  H137  181   8.438   4.850   2.120 -0.3066 -2.2917 -0.3643
    1CHTO   O45  182   8.354   5.438   2.368  0.6709 -0.0816  0.5580
    1CHTO   C67  183   8.288   5.514   2.260 -0.2029  0.2587  0.4012
    1CHTO  H124  184   8.346   5.512   2.168 -0.9786  0.1264 -0.0888
    1CHTO   C65  185   8.135   5.470   2.225 -0.2755 -0.6302  0.6171
    1CHTO  H122  186   8.122   5.363   2.239 -0.0771 -0.6806  0.4247
    1CHTO   O44  187   8.117   5.513   2.087  0.1441 -0.4094  0.4436
    1CHTO  H102  188   8.176   5.457   2.040 -0.1985  0.9622 -1.6654
    1CHTO   C63  189   8.029   5.538   2.324  0.9815  0.2449 -0.1146
    1CHTO  H120  190   8.069   5.525   2.424  1.3068 -1.0290 -0.3895
    1CHTO   N11  191   7.896   5.475   2.342 -0.0634 -0.0308  0.2709
    1CHTO  H108  192   7.917   5.375   2.373  1.3511  0.1571 -0.0461
    1CHTO  H109  193   7.848   5.466   2.246 -0.4318 -0.2119  0.4682
    1CHTO   C61  194   8.034   5.690   2.305  0.1851 -0.8508  0.1662
    1CHTO  H118  195   8.015   5.733   2.405  0.9145  0.9518 -0.4392
    1CHTO   O40  196   8.164   5.744   2.266 -0.7215 -0.2325  0.4233
    1CHTO   C68  197   8.280   5.662   2.301  0.4084 -0.7476 -0.1190
    1CHTO  H125  198   8.290   5.661   2.411 -1.6634 -1.4801  0.0928
    1CHTO   C72  199   8.404   5.746   2.253  0.6291  0.1384  0.2168
    1CHTO   O48  200   8.434   5.859   2.338 -0.1144  0.1222 -0.2557
    1CHTO  H105  201   8.483   5.837   2.415 -1.9894 -1.7802  0.4380
    1CHTO   O38  202   7.951   5.754   2.210 -0.3060  0.3869 -0.6252
    1CHTO   C55  203   7.908   5.885   2.261 -0.7234 -0.2559  0.0652
    1CHTO  H112  204   7.966   5.926   2.344 -0.2176  0.1164 -0.4672
    1CHTO   C56  205   7.758   5.864   2.303  0.3347 -0.6539 -0.3376
    1CHTO  H113  206   7.700   5.821   2.220  1.6795 -1.2393 -0.9994
    1CHTO   O42  207   7.747   5.767   2.417  0.1787 -0.3675  0.8354
    1CHTO  H100  208   7.685   5.794   2.481 -0.4268  1.6942 -0.5448
    1CHTO   C57  209   7.690   6.004   2.342  0.6379 -0.5703  0.4996
    1CHTO  H114  210   7.751   6.042   2.424 -1.2459  0.5510  1.4072
    1CHTO   N10  211   7.544   6.002   2.394 -0.1225 -0.0355 -0.1239
    1CHTO  H106  212   7.476   6.030   2.315  0.4890 -1.3116 -1.1150
    1CHTO  H107  213   7.541   6.075   2.473  0.7598 -2.3568  2.1056
    1CHTO   C58  214   7.707   6.102   2.225  0.5768  0.5027 -0.5758
    1CHTO  H115  215   7.650   6.071   2.134 -1.7224 -1.9470  1.6072
    1CHTO   O37  216   7.847   6.109   2.189  0.1783 -0.0633 -0.6374
    1CHTO   C59  217   7.912   5.990   2.142  0.7484 -0.6169 -0.4629
    1CHTO  H116  218   7.854   5.948   2.060 -0.2050 -0.6457  0.2171
    1CHTO   C70  219   8.059   6.022   2.126 -0.4121 -0.2742 -0.4311
    1CHTO   O46  220   8.075   6.130   2.030 -0.0119  0.3799  0.0023
    1CHTO  H103  221   8.147   6.186   2.052  1.5717 -1.6977  0.3618
    1CHTO   O39  222   7.669   6.250   2.267 -0.4064  0.0730  0.0962
    1CHTO   C60  223   7.598   6.330   2.163  0.0668  0.7172 -0.0917
    1CHTO  H117  224   7.646   6.304   2.069 -0.2658  1.6017 -0.5056
    1CHTO   C62  225   7.447   6.289   2.167  0.5178 -0.3909 -0.1472
    1CHTO  H119  226   7.442   6.182   2.137 -0.9712 -0.8216  1.5693
    1CHTO   O43  227   7.398   6.308   2.300 -0.1198  0.2694 -0.4887
    1CHTO  H101  228   7.436   6.251   2.364  1.5589  0.6584 -1.1192
    1CHTO   C66  229   7.383   6.381   2.050 -0.0265 -0.4515  0.4203
    1CHTO  H123  230   7.422   6.353   1.952  1.8068  4.6930 -0.4897
    1CHTO   N12  231   7.236   6.365   2.055 -0.5892 -0.0611 -0.8838
    1CHTO  H110  232   7.191   6.321   1.968  0.8633 -1.6851 -0.8472
    1CHTO  H111  233   7.194   6.325   2.147 -0.7947  2.6168  0.2364
    1CHTO   C69  234   7.419   6.525   2.065 -0.0430 -0.5131  0.8662
    1CHTO  H126  235   7.386   6.569   2.161 -0.4365 -0.0762  0.5337
    1CHTO   O41  236   7.554   6.545   2.059 -0.1304 -0.2739  0.1877
    1CHTO   C64  237   7.626   6.480   2.173  0.6954  0.5446 -0.8169
    1CHTO  H121  238   7.595   6.513   2.274 -2.9313  0.1035 -1.7421
    1CHTO   C71  239   7.780   6.508   2.161 -0.2031 -0.7350 -0.5009
    1CHTO   O47  240   7.796   6.648   2.175 -0.0398  0.5969 -1.2253
    1CHTO  H104  241   7.888   6.667   2.167  0.0005  1.8802  1.5299
    1CHTO   O34  242   7.366   6.608   1.929 -0.0398  0.0517 -0.0496
    1CHTO   C49  243   7.288   6.721   1.941  0.0255  1.0625  0.0125
    1CHTO   H91  244   7.195   6.701   1.888  0.4083 -2.0688  0.4337
    1CHTO   C47  245   7.356   6.841   1.881  0.1944 -0.1460  0.3672
    1CHTO   H89  246   7.276   6.918   1.883 -1.7528 -1.9326 -2.8147
    1CHTO   O33  247   7.387   6.824   1.741 -0.2364  0.4500 -0.3891
    1CHTO   H70  248   7.371   6.903   1.693  0.3951  0.8663  0.0997
    1CHTO   C45  249   7.484   6.883   1.979  0.1575  0.2513  0.0715
    1CHTO   H87  250   7.539   6.789   1.994  1.1467  0.8399  0.1533
    1CHTO    N8  251   7.576   6.985   1.920 -0.1521 -0.3839  0.5578
    1CHTO   H75  252   7.524   7.073   1.887 -1.2220 -0.6750  1.4268
    1CHTO   H76  253   7.633   6.927   1.849  0.0785  0.8632 -0.3000
    1CHTO   C43  254   7.418   6.929   2.120 -0.2901 -0.0414  0.4582
    1CHTO   H85  255   7.503   6.951   2.184 -0.4170 -1.0719  0.9843
    1CHTO   O29  256   7.339   6.822   2.172 -0.2046 -0.1715 -0.3037
    1CHTO   C50  257   7.237   6.763   2.082  0.4393 -0.0244 -0.1751
    1CHTO   H92  258   7.203   6.671   2.132  2.7535 -2.5705 -3.0872
    1CHTO   C54  259   7.103   6.850   2.074  0.0376  0.3618  0.2513
    1CHTO   O36  260   7.002   6.781   2.006 -0.7972  0.3264 -0.0760
    1CHTO   H72  261   7.032   6.763   1.918  2.0029  2.4782  0.3887
    1CHTO   O27  262   7.348   7.061   2.121 -0.0285 -0.0206 -0.0322
    1CHTO   C37  263   7.367   7.175   2.208  0.4802 -0.1432  0.2175
    1CHTO   H79  264   7.410   7.137   2.301  0.3612  0.7092  0.6248
    1CHTO   C38  265   7.476   7.274   2.157 -0.2863  0.1412  0.3032
    1CHTO   H80  266   7.457   7.301   2.052 -0.0189 -1.5494 -0.1987
    1CHTO   O31  267   7.606   7.211   2.169 -0.1146  0.9647  0.1315
    1CHTO   H68  268   7.612   7.135   2.114  1.1717  0.7078  0.5962
    1CHTO   C39  269   7.478   7.408   2.238  0.0957  0.7535 -0.0894
    1CHTO   H81  270   7.507   7.395   2.342 -0.6225  1.6334  0.2306
    1CHTO    N7  271   7.584   7.505   2.195 -0.4919 -0.2956 -0.4749
    1CHTO   H73  272   7.598   7.579   2.272 -2.9546 -1.3440  1.0704
    1CHTO   H74  273   7.545   7.552   2.106  0.7336  0.6687 -0.5098
    1CHTO   C40  274   7.330   7.462   2.231  0.2907  0.6300  0.6071
    1CHTO   H82  275   7.313   7.462   2.123  0.4586 -2.2649  0.5499
    1CHTO   O26  276   7.241   7.372   2.300  0.3375  0.6422  0.3057
    1CHTO   C41  277   7.226   7.236   2.240 -0.3622  0.0101 -0.1248
    1CHTO   H83  278   7.165   7.240   2.148  0.6442 -0.8954 -0.8355
    1CHTO   C52  279   7.156   7.150   2.342 -0.0785 -0.4511  0.1924
    1CHTO   O35  280   7.219   7.141   2.479  0.7275  0.1661 -0.3192
    1CHTO   H71  281   7.312   7.134   2.476  0.7089 -1.5036  1.8435
    1CHTO   O28  282   7.307   7.593   2.291  0.8765 -0.3301  0.4877
    1CHTO   C42  283   7.220   7.690   2.226 -0.1208  0.8094 -0.2498
    1CHTO   H84  284   7.232   7.679   2.118  1.0412 -1.5233  0.1069
    1CHTO   C44  285   7.283   7.827   2.256  0.1260  0.1779  0.4129
    1CHTO   H86  286   7.293   7.834   2.365 -2.7424  2.0782  0.5907
    1CHTO   O32  287   7.414   7.843   2.196  0.3544 -0.3784  0.1450
    1CHTO   H69  288   7.436   7.933   2.180  1.3974 -0.8686 -1.2816
    1CHTO   C48  289   7.193   7.949   2.207  0.3388  0.2562 -0.1004
    1CHTO   H90  290   7.215   7.957   2.100  1.0863 -1.2770 -0.0793
    1CHTO    N9  291   7.239   8.086   2.257 -0.1159  0.6732  0.1950
    1CHTO   H77  292   7.347   8.083   2.255  0.0082  3.0559  1.3773
    1CHTO   H78  293   7.211   8.088   2.361 -2.8311 -2.4209 -0.3821
    1CHTO   C51  294   7.034   7.928   2.217  0.5321  0.2890  0.1118
    1CHTO   H93  295   7.003   7.944   2.320 -1.1993 -0.4009 -0.2762
    1CHTO   O30  296   6.996   7.798   2.168  0.0545  0.0834 -0.7449
    1CHTO   C46  297   7.067   7.687   2.255 -0.4717 -0.8633 -0.4100
    1CHTO   H88  298   7.063   7.713   2.361 -1.3370  0.1181 -0.6836
    1CHTO   C53  299   7.003   7.558   2.208 -0.3754  0.0957 -0.5473
    1CHTO   O72  300   6.861   7.563   2.240  0.4491  0.9081  0.3403
    1CHTO  H199  301   6.852   7.489   2.297  1.8347 -0.3973 -1.0753
    1CHTO   O22  302   6.952   8.015   2.135 -0.4163 -0.5282  0.2574
    1CHTO   C31  303   6.909   8.015   1.996 -1.1200 -0.3515  0.5297
    1CHTO   H59  304   6.855   8.111   1.978 -0.2125 -0.3996 -2.6864
    1CHTO   C29  305   7.022   8.010   1.893 -0.6897  0.0836  0.5209
    1CHTO   H57  306   7.081   7.919   1.910 -1.0883 -0.2528  0.1141
    1CHTO   O21  307   7.112   8.123   1.920  0.3414 -0.0324 -0.5462
    1CHTO   H37  308   7.158   8.122   2.002 -1.0146  0.6479  0.2462
    1CHTO   C27  309   6.972   8.006   1.743 -0.5675  0.2843 -0.4929
    1CHTO   H55  310   6.927   8.104   1.723 -2.9417 -0.7877 -0.6271
    1CHTO    N5  311   7.077   7.984   1.647 -0.4190  0.1272  0.2340
    1CHTO   H43  312   7.104   7.882   1.626  0.9663  0.7652 -1.1722
    1CHTO   H44  313   7.058   8.040   1.556 -0.9259  0.0403  0.2815
    1CHTO   C25  314   6.858   7.892   1.737  0.0798 -0.0046  0.3222
    1CHTO   H53  315   6.894   7.789   1.753  1.8348  0.4368 -0.5709
    1CHTO   O17  316   6.758   7.922   1.834 -0.8097 -0.0892 -0.1291
    1CHTO   C32  317   6.803   7.902   1.965 -0.1995  0.2318 -0.6144
    1CHTO   H60  318   6.853   7.807   1.984  0.3872  0.4973 -0.8411
    1CHTO   C36  319   6.695   7.912   2.074  0.6022  0.1007  0.0215
    1CHTO   O25  320   6.605   8.022   2.056  0.0535 -0.0785  0.6781
    1CHTO   H40  321   6.535   8.022   2.119  0.6155 -1.4554  1.3178
    1CHTO   O15  322   6.787   7.882   1.611  0.0811  0.1017 -0.0460
    1CHTO   C19  323   6.738   7.863   1.479 -0.0140 -0.6598 -0.3538
    1CHTO   H47  324   6.638   7.907   1.492  0.3511 -0.4798  2.1070
    1CHTO   C20  325   6.813   7.943   1.373 -0.4504 -0.0897 -0.1806
    1CHTO   H48  326   6.920   7.918   1.372  0.0360  1.8990  0.0235
    1CHTO   O19  327   6.796   8.083   1.408 -0.2300 -0.9096 -0.3079
    1CHTO   H35  328   6.747   8.124   1.339 -0.5749 -0.8950 -0.0559
    1CHTO   C21  329   6.761   7.916   1.228  0.2099 -0.6407  0.0660
    1CHTO   H49  330   6.661   7.959   1.219  0.3986 -0.3282 -0.5972
    1CHTO    N4  331   6.841   7.984   1.117 -0.2164 -0.0501 -0.8162
    1CHTO   H41  332   6.834   8.092   1.125 -0.3464 -0.1280  0.2065
    1CHTO   H42  333   6.944   7.954   1.131 -0.4164 -0.2734  0.2367
    1CHTO   C22  334   6.745   7.761   1.213 -0.2164  0.3904 -0.5167
    1CHTO   H50  335   6.840   7.710   1.220  0.2143  1.1433 -0.7895
    1CHTO   O14  336   6.661   7.714   1.322 -0.1450 -0.7399  0.3789
    1CHTO   C23  337   6.731   7.715   1.445  0.5106 -0.3014 -0.5509
    1CHTO   H51  338   6.829   7.670   1.425 -0.0365 -1.0553 -1.6245
    1CHTO   C34  339   6.659   7.628   1.548  0.8630 -0.0602  0.0738
    1CHTO   O23  340   6.533   7.672   1.598 -0.4286 -0.3561  0.7506
    1CHTO   H38  341   6.474   7.677   1.525  1.0897  0.6548 -0.4386
    1CHTO   O16  342   6.667   7.721   1.100  0.2633 -0.4646  0.4691
    1CHTO   C24  343   6.752   7.624   1.006 -0.5245  0.0046  0.2422
    1CHTO   H52  344   6.859   7.640   1.020 -0.1570 -2.0756  0.0453
    1CHTO   C26  345   6.723   7.665   0.861 -0.7675  0.2258 -0.1288
    1CHTO   H54  346   6.614   7.658   0.841 -0.5369  0.5487 -1.5306
    1CHTO   O20  347   6.766   7.800   0.840 -0.0299  0.0612  0.1813
    1CHTO   H36  348   6.860   7.791   0.841 -0.0421 -0.5657 -1.4382
    1CHTO   C30  349   6.797   7.566   0.762 -0.3027  0.2978 -0.3238
    1CHTO   H58  350   6.904   7.591   0.757 -0.6706  1.8991 -0.4129
    1CHTO    N6  351   6.749   7.585   0.622  0.5175 -0.7603 -0.5982
    1CHTO   H45  352   6.812   7.526   0.557  2.4161  3.1759 -2.4617
    1CHTO   H46  353   6.740   7.685   0.584 -0.4473 -1.6046 -2.6403
    1CHTO   C33  354   6.785   7.413   0.804  0.5232  0.6169 -0.3063
    1CHTO   H61  355   6.682   7.376   0.797  1.0275 -0.5795 -1.7790
    1CHTO   O18  356   6.822   7.405   0.947 -0.0622 -0.4874  0.2119
    1CHTO   C28  357   6.730   7.472   1.035  0.1738 -0.7017 -0.4645
    1CHTO   H56  358   6.626   7.443   1.018  0.4956 -1.8715 -0.4576
    1CHTO   C35  359   6.772   7.431   1.183  0.0815 -0.1128 -0.3028
    1CHTO   O24  360   6.767   7.293   1.199 -0.4154  0.2099  0.0497
    1CHTO   H39  361   6.857   7.270   1.186 -0.5989 -1.3923  1.4638
    1CHTO    O9  362   6.860   7.318   0.722  0.1453  0.7232  0.1493
    1CHTO   C13  363   6.841   7.159   0.762  0.0035 -0.3271 -0.1473
    1CHTO   H26  364   6.735   7.140   0.788 -0.3343 -0.0463 -1.2682
    1CHTO   C11  365   6.935   7.126   0.884  0.1936 -0.2523  0.5195
    1CHTO   H24  366   6.903   7.169   0.980  0.7542  1.3589 -0.0008
    1CHTO    O8  367   7.066   7.182   0.859 -0.1090  0.7640 -0.0624
    1CHTO    H3  368   7.102   7.198   0.945 -2.2747 -0.9987  1.2337
    1CHTO    C9  369   6.944   6.973   0.905 -0.1415  0.1082  0.0304
    1CHTO   H22  370   6.840   6.937   0.907 -0.5604  1.1783 -1.3924
    1CHTO    N2  371   7.003   6.925   1.031  0.1682 -0.9960 -0.5659
    1CHTO   H10  372   7.111   6.933   1.028  0.0772  0.8224  0.2146
    1CHTO   H11  373   6.977   6.982   1.119  0.8976  0.4495 -1.2684
    1CHTO    C7  374   7.021   6.914   0.775  0.2790  0.4033  0.0235
    1CHTO   H20  375   6.995   6.806   0.776  0.0404  0.4640  0.6478
    1CHTO    O4  376   7.000   6.990   0.653 -0.3388 -0.3860 -0.3993
    1CHTO   C14  377   6.870   7.056   0.642  0.1043 -0.6597 -0.5396
    1CHTO   H27  378   6.788   6.981   0.643  1.4908 -2.2297 -0.6380
    1CHTO   C18  379   6.868   7.124   0.509  0.0735 -0.1553  0.1784
    1CHTO   O13  380   6.742   7.177   0.474  0.3199 -0.5161  0.5770
    1CHTO    H7  381   6.675   7.111   0.478 -1.1787  0.8791 -0.9679
    1CHTO    O2  382   7.187   6.902   0.808  0.1175 -0.7265  1.0055
    1CHTO    C1  383   7.250   6.784   0.765  0.0213  0.0806  0.5158
    1CHTO   H14  384   7.182   6.730   0.695  0.4433  1.2983 -0.8654
    1CHTO    C2  385   7.288   6.680   0.881  0.1532  0.5234  0.6653
    1CHTO   H15  386   7.345   6.746   0.947  2.2063  0.9303 -1.4477
    1CHTO    O6  387   7.168   6.627   0.942 -0.2680 -0.2830  0.3734
    1CHTO    H1  388   7.121   6.693   0.991 -1.7349 -1.1589  0.1882
    1CHTO    C3  389   7.388   6.556   0.838  0.5437 -0.6322 -0.0296
    1CHTO   H16  390   7.332   6.482   0.780  0.1295 -0.2627 -0.1039
    1CHTO    N1  391   7.432   6.480   0.960 -0.0488  1.0954 -0.0958
    1CHTO    H8  392   7.386   6.510   1.053 -0.3383  1.1591 -0.2622
    1CHTO    H9  393   7.406   6.376   0.943 -1.1107  1.3968 -0.3277
    1CHTO    C4  394   7.502   6.611   0.742  0.3555 -0.4114  0.4382
    1CHTO   H17  395   7.573   6.668   0.803 -0.3564 -2.4388  3.2782
    1CHTO    O1  396   7.442   6.681   0.636 -0.4675  0.2712 -0.3620
    1CHTO    C5  397   7.381   6.811   0.687 -0.7479 -0.0918 -0.2639
    1CHTO   H18  398   7.450   6.862   0.754  0.8504 -1.4987 -0.7810
    1CHTO   C16  399   7.358   6.899   0.563  0.5425  0.0656 -0.0438
    1CHTO   O11  400   7.331   7.036   0.600  0.4146 -0.0950  0.0211
    1CHTO    H5  401   7.242   7.049   0.573  0.9118 -1.9811 -2.6717
    1CHTO    O3  402   7.578   6.498   0.688  0.1057  0.5662  0.1509
    1CHTO    C6  403   7.691   6.534   0.601 -0.6905  0.2236  0.1697
    1CHTO   H19  404   7.666   6.616   0.535  0.4191 -0.5724 -1.2645
    1CHTO    C8  405   7.822   6.579   0.678  0.1473  0.1005  0.1970
    1CHTO   H21  406   7.837   6.510   0.761 -0.8122 -1.6191 -1.0421
    1CHTO    O7  407   7.802   6.711   0.730  0.0303  0.2914 -0.4642
    1CHTO    H2  408   7.807   6.717   0.824  0.4775  0.5775 -0.5072
    1CHTO   C12  409   7.953   6.579   0.585 -0.2491 -0.6155 -0.2206
    1CHTO   H25  410   7.941   6.666   0.516 -0.6040  0.3251  1.0090
    1CHTO    N3  411   8.075   6.601   0.662 -0.1416  0.0585 -0.1510
    1CHTO   H12  412   8.162   6.610   0.600 -0.9655  0.4725 -1.2779
    1CHTO   H13  413   8.051   6.695   0.710 -0.1593  0.1109 -0.2624
    1CHTO   C15  414   7.955   6.448   0.501 -0.3981  0.4310 -0.8262
    1CHTO   H28  415   7.964   6.365   0.570  1.2362  0.7805 -0.6016
    1CHTO   O10  416   8.059   6.444   0.381  0.1534  0.0842 -0.5336
    1CHTO    H4  417   8.137   6.485   0.413 -0.4693  1.4916 -0.7608
    1CHTO    O5  418   7.834   6.434   0.423  0.4197 -0.1378  0.0727
    1CHTO   C10  419   7.719   6.412   0.510 -0.2497 -0.2334 -0.3746
    1CHTO   H23  420   7.724   6.321   0.570  2.1121  1.9214  2.8930
    1CHTO   C17  421   7.604   6.392   0.415 -0.3285  0.8996 -0.3081
    1CHTO   O12  422   7.578   6.479   0.306 -0.0547  1.4201  0.7765
    1CHTO    H6  423   7.496   6.460   0.267  1.3797 -0.3339 -1.5325
    2CHTO  H203  424   6.750   4.694   1.891 -1.6367 -0.4136 -1.0593
    2CHTO   O82  425   6.728   4.623   1.949  0.0743  0.0882  0.2371
    2CHTO  C123  426   6.619   4.671   2.027 -0.0763 -0.0300 -0.0767
    2CHTO  H227  427   6.645   4.767   2.073 -2.8019  1.0029 -0.6056
    2CHTO   O77  428   6.516   4.692   1.920 -0.5733 -0.2252 -0.6805
    2CHTO  C118  429   6.399   4.758   1.965  0.1689 -0.5897 -0.2121
    2CHTO  H222  430   6.418   4.855   2.013 -1.7970 -0.3341  0.0656
    2CHTO  C125  431   6.308   4.786   1.842 -0.0522  0.1143  0.0730
    2CHTO   O84  432   6.264   4.673   1.779  0.2246  0.1410 -0.4028
    2CHTO  H205  433   6.201   4.699   1.714 -0.8504 -0.3078  0.4308
    2CHTO  C114  434   6.336   4.670   2.075 -0.3488 -0.9103  0.4900
    2CHTO  H218  435   6.318   4.572   2.032  2.1379 -2.3326  2.5183
    2CHTO  C116  436   6.432   4.631   2.189  0.3662 -0.4192  0.1017
    2CHTO  H220  437   6.445   4.716   2.260  0.7412 -0.1382 -0.3075
    2CHTO   O79  438   6.350   4.535   2.258  0.1000  0.7717  0.2610
    2CHTO  H201  439   6.393   4.471   2.312 -2.3577  0.4126  1.8665
    2CHTO  C120  440   6.566   4.573   2.141  0.2854  0.0987  0.5393
    2CHTO  H224  441   6.547   4.474   2.094  2.5028 -0.6283  1.1567
    2CHTO   N21  442   6.655   4.550   2.258  0.6230 -0.0926  1.1660
    2CHTO  H211  443   6.720   4.633   2.282  0.6051  0.2880 -0.0881
    2CHTO  H212  444   6.724   4.474   2.224 -2.2023 -2.4600  0.6016
    2CHTO   O75  445   6.210   4.740   2.112  0.2191  0.0531  0.9770
    2CHTO  C112  446   6.085   4.646   2.159 -0.0676 -0.6268 -0.0588
    2CHTO  H216  447   6.118   4.576   2.238  2.6510  0.9447  0.2665
    2CHTO   O73  448   6.033   4.582   2.037 -0.0039  0.0321  0.3840
    2CHTO  C113  449   5.914   4.499   2.055 -0.0801 -0.5632  1.2394
    2CHTO  H217  450   5.934   4.416   2.125  0.3653 -1.9195 -0.4703
    2CHTO  C124  451   5.884   4.443   1.911 -0.4987  0.6389 -0.0010
    2CHTO   O83  452   5.995   4.404   1.828 -0.1772 -0.1363  0.7459
    2CHTO  H204  453   5.982   4.322   1.785  0.6176  0.1940 -0.1630
    2CHTO  C109  454   5.799   4.582   2.121 -0.3046  0.3484  0.9260
    2CHTO  H213  455   5.766   4.659   2.050  1.1753  0.9866  0.9135
    2CHTO  C110  456   5.854   4.651   2.253  0.0656 -0.3426  0.5423
    2CHTO  H214  457   5.884   4.574   2.324  2.8604  0.5044  0.3490
    2CHTO   O78  458   5.748   4.729   2.318 -0.2463 -0.5305  0.0097
    2CHTO  H200  459   5.691   4.770   2.256 -0.1926 -1.4111 -0.6338
    2CHTO  C111  460   5.982   4.739   2.225 -0.6201  0.0137  0.3022
    2CHTO  H215  461   5.949   4.813   2.151 -0.1639 -0.4780 -0.4004
    2CHTO   N19  462   6.033   4.814   2.340  0.5951 -0.0775 -0.2758
    2CHTO  H207  463   6.084   4.742   2.402 -1.2490 -1.0548  0.1528
    2CHTO  H208  464   5.955   4.875   2.383  1.9766  0.6961  1.1754
    2CHTO   O74  465   5.689   4.491   2.139  0.0158 -0.0379  0.4325
    2CHTO  C115  466   5.552   4.540   2.053 -0.2136  0.4609 -0.1918
    2CHTO  H219  467   5.542   4.649   2.060 -1.4786  0.2108  3.0089
    2CHTO   O76  468   5.567   4.506   1.900 -0.5260  0.1029  0.1805
    2CHTO  C122  469   5.519   4.377   1.856  0.0666 -0.4115 -0.8490
    2CHTO  H226  470   5.587   4.299   1.891  1.2047  0.0541 -1.9781
    2CHTO  C126  471   5.537   4.371   1.693 -0.0283  0.2646  0.4548
    2CHTO   O85  472   5.594   4.242   1.658  0.2162  0.0551  0.4508
    2CHTO  H206  473   5.686   4.257   1.660  0.0073  1.3664  0.3447
    2CHTO  C121  474   5.374   4.347   1.891 -0.5257 -0.0005  0.0835
    2CHTO  H225  475   5.305   4.349   1.804 -0.5346 -1.3243  0.0427
    2CHTO   O81  476   5.354   4.209   1.936 -0.5645  0.1992  0.3685
    2CHTO  H202  477   5.372   4.188   2.025  2.0208  2.0284  0.3579
    2CHTO  C119  478   5.327   4.454   1.997  0.9630  1.0316  0.5656
    2CHTO  H223  479   5.333   4.546   1.939  0.3354  1.6558  1.4895
    2CHTO  C117  480   5.427   4.470   2.117  0.6657 -0.4211  0.4887
    2CHTO  H221  481   5.466   4.380   2.165  0.0585  0.2501  2.2506
    2CHTO   N20  482   5.377   4.554   2.227  0.3389  0.4199 -0.4167
    2CHTO  H209  483   5.302   4.628   2.203 -0.8680 -0.7611 -0.3173
    2CHTO  H210  484   5.353   4.493   2.313 -1.9939  1.9302  0.0645
    2CHTO   O80  485   5.170   4.440   2.016 -0.1622  0.1980 -0.0389
    2CHTO  C103  486   5.080   4.557   1.972  0.1263  0.3863 -0.1107
    2CHTO  H190  487   5.122   4.655   1.995  0.4567  0.4335 -0.8827
    2CHTO  C101  488   5.057   4.553   1.818 -0.3169 -0.6150  0.3994
    2CHTO  H188  489   5.023   4.453   1.791  0.4991 -0.8953  0.3757
    2CHTO   O68  490   5.191   4.590   1.734 -0.8001 -0.5630 -0.3238
    2CHTO  H168  491   5.185   4.556   1.647 -1.9674  1.4760 -1.0685
    2CHTO   C99  492   4.934   4.663   1.783 -0.4653  0.0962  0.5080
    2CHTO  H186  493   4.968   4.763   1.817  1.2945 -0.7039  1.1900
    2CHTO   N17  494   4.906   4.672   1.633  1.0292  0.2236  0.5077
    2CHTO  H174  495   4.874   4.574   1.598  1.2095  0.7704 -1.2557
    2CHTO  H175  496   4.996   4.709   1.587  0.0288  0.2937 -1.4530
    2CHTO   C97  497   4.809   4.631   1.871 -0.0296  0.1690 -0.2635
    2CHTO  H184  498   4.766   4.534   1.843 -1.0628  0.6430 -0.3213
    2CHTO   O64  499   4.844   4.632   2.012 -0.2061 -0.0115 -0.1293
    2CHTO  C104  500   4.948   4.547   2.059 -0.5600  0.4993  0.3743
    2CHTO  H191  501   4.905   4.448   2.047  0.0193  0.2360  0.4692
    2CHTO  C108  502   4.983   4.563   2.207 -0.7792 -0.0322  0.6257
    2CHTO   O71  503   5.016   4.701   2.236 -0.1097 -0.4953 -0.2114
    2CHTO  H171  504   4.941   4.745   2.271  0.2315 -1.8203  2.3723
    2CHTO   O62  505   4.713   4.737   1.854  0.4748 -0.6149  0.6378
    2CHTO   C91  506   4.590   4.707   1.920 -0.1487 -0.1047 -0.0585
    2CHTO  H178  507   4.590   4.608   1.965 -1.5559 -0.7372 -1.4014
    2CHTO   C92  508   4.484   4.683   1.804  0.0712 -0.5874 -0.3087
    2CHTO  H179  509   4.536   4.615   1.735 -0.0567 -0.2354 -0.7593
    2CHTO   O66  510   4.376   4.606   1.855  0.2467  1.1058  0.5265
    2CHTO  H166  511   4.347   4.633   1.940 -2.0904  2.1730 -0.5433
    2CHTO   C93  512   4.430   4.815   1.740  0.0050  0.2128  0.0263
    2CHTO  H180  513   4.328   4.790   1.705  0.2564  0.3297 -0.8149
    2CHTO   N16  514   4.510   4.844   1.619 -0.2044  0.0070 -0.3258
    2CHTO  H172  515   4.446   4.829   1.533  0.1254 -3.5957  0.0184
    2CHTO  H173  516   4.545   4.945   1.633 -0.8545  0.2313 -0.2731
    2CHTO   C94  517   4.417   4.937   1.848 -0.1077  0.2350 -0.3276
    2CHTO  H181  518   4.503   5.004   1.849  0.4728 -0.4478 -2.4671
    2CHTO   O61  519   4.413   4.873   1.976  0.5296 -0.5104 -0.6209
    2CHTO   C95  520   4.545   4.830   2.016 -0.3718 -0.3672 -0.4931
    2CHTO  H182  521   4.615   4.914   2.009 -1.3588  0.5248  0.2592
    2CHTO  C106  522   4.529   4.796   2.163  0.5708  0.6224  0.5889
    2CHTO   O69  523   4.647   4.781   2.232 -0.3551  0.0191  0.5567
    2CHTO  H169  524   4.665   4.825   2.313  0.7420  0.5664  0.0305
    2CHTO   O63  525   4.270   5.019   1.821 -0.0665  0.0729  0.1715
    2CHTO   C96  526   4.265   5.155   1.872  0.1559  0.1797 -0.2372
    2CHTO  H183  527   4.360   5.173   1.922  0.5921 -3.0382  0.1721
    2CHTO   C98  528   4.156   5.185   1.980 -0.2963 -0.4707  0.5994
    2CHTO  H185  529   4.061   5.144   1.943 -1.1041 -0.4968  2.6363
    2CHTO   O67  530   4.189   5.104   2.095 -0.4273  0.0946 -0.5733
    2CHTO  H167  531   4.119   5.075   2.151  1.0533  0.2537  1.4202
    2CHTO  C102  532   4.159   5.335   2.026 -0.3853 -0.7418 -0.2386
    2CHTO  H189  533   4.261   5.344   2.067 -0.7590 -2.1799  1.0612
    2CHTO   N18  534   4.074   5.391   2.133  0.1912 -0.1244 -0.1645
    2CHTO  H176  535   4.108   5.373   2.234 -0.8012  0.7775  0.3378
    2CHTO  H177  536   3.972   5.361   2.115  0.4202  0.2501 -2.1138
    2CHTO  C105  537   4.140   5.415   1.898  0.2294 -0.2137 -0.0471
    2CHTO  H192  538   4.042   5.388   1.858  0.4019 -1.3452  0.2762
    2CHTO   O65  539   4.239   5.392   1.802 -0.0973 -0.5862  0.1546
    2CHTO  C100  540   4.239   5.258   1.750 -0.4515  0.6356  0.4443
    2CHTO  H187  541   4.140   5.232   1.710 -0.6573  2.7617 -0.4626
    2CHTO  C107  542   4.350   5.230   1.641 -0.6972  0.6718 -0.2228
    2CHTO   O70  543   4.310   5.257   1.505  0.1592 -0.4269  0.0960
    2CHTO  H170  544   4.368   5.205   1.453  0.2275 -0.9097  0.6513
    2CHTO   O57  545   4.139   5.586   1.940 -0.1839  0.1318  0.4678
    2CHTO   C85  546   4.084   5.675   1.840 -0.6621  0.0633 -0.2339
    2CHTO  H157  547   3.989   5.631   1.804 -0.9696 -0.1386  0.8061
    2CHTO   C83  548   4.184   5.672   1.717  0.2744 -0.2512  0.5913
    2CHTO  H155  549   4.185   5.571   1.675  1.7566 -0.1048  0.2299
    2CHTO   O56  550   4.311   5.708   1.766 -0.3347 -0.6863 -0.1663
    2CHTO  H135  551   4.309   5.794   1.802 -0.3402  0.5334 -2.9155
    2CHTO   C81  552   4.137   5.776   1.611  0.1130  0.0221 -0.3884
    2CHTO  H153  553   4.043   5.741   1.569  0.4901 -1.6089  0.0813
    2CHTO   N14  554   4.231   5.785   1.496  0.2665 -0.0572  0.7551
    2CHTO  H141  555   4.189   5.741   1.408 -0.6209  1.4330  0.4207
    2CHTO  H142  556   4.250   5.888   1.474  2.1098 -0.0407  2.3166
    2CHTO   C79  557   4.114   5.918   1.680  0.7403  0.6866 -0.1322
    2CHTO  H151  558   4.060   5.986   1.614  2.5249  2.3025  0.0426
    2CHTO   O52  559   4.035   5.917   1.804  0.2897  0.3891  0.5348
    2CHTO   C86  560   4.056   5.821   1.903 -0.6566 -0.3786 -0.0952
    2CHTO  H158  561   4.144   5.871   1.949  0.0650 -0.6373 -1.1656
    2CHTO   C90  562   3.947   5.821   2.017  0.4471  0.3177 -0.3121
    2CHTO   O60  563   3.943   5.952   2.074  0.2938  0.5121  0.0374
    2CHTO  H138  564   4.023   5.972   2.119  0.5857 -0.7569  0.1108
    2CHTO   O50  565   4.244   5.964   1.715 -0.1347 -0.2615 -0.4797
    2CHTO   C73  566   4.330   6.082   1.736 -0.3613  0.4341 -0.2585
    2CHTO  H145  567   4.279   6.143   1.812  1.5432  1.2378  0.3850
    2CHTO   C74  568   4.359   6.160   1.597 -0.0608 -0.1411  0.1226
    2CHTO  H146  569   4.256   6.154   1.559 -0.0657 -2.9112  0.4751
    2CHTO   O54  570   4.395   6.297   1.618  0.0745 -0.4399  0.4155
    2CHTO  H133  571   4.381   6.342   1.537 -1.2128 -0.3905  0.6525
    2CHTO   C75  572   4.462   6.072   1.507  0.4787 -0.8038  0.5460
    2CHTO  H147  573   4.409   5.988   1.461  1.0739 -0.9220  0.0787
    2CHTO   N13  574   4.513   6.148   1.388  0.9691 -0.2211 -0.4417
    2CHTO  H139  575   4.574   6.224   1.434  0.3438 -0.3414  0.6285
    2CHTO  H140  576   4.577   6.085   1.330  1.0717  0.3390 -0.9446
    2CHTO   C76  577   4.580   6.004   1.593 -0.4121  0.4632 -0.0137
    2CHTO  H148  578   4.657   6.076   1.618  0.9467 -0.8420 -0.3511
    2CHTO   O49  579   4.524   5.940   1.712  0.1161 -0.0669  0.5207
    2CHTO   C77  580   4.459   6.027   1.796 -0.2642 -0.4869 -0.1262
    2CHTO  H149  581   4.524   6.112   1.812  0.3886 -0.9176 -0.4515
    2CHTO   C88  582   4.442   5.956   1.931  0.2298  0.0018  0.0151
    2CHTO   O58  583   4.379   6.033   2.023  0.0743 -0.0163 -0.3371
    2CHTO  H136  584   4.293   5.995   2.029  0.8550 -1.8601 -0.2332
    2CHTO   O51  585   4.649   5.884   1.501  0.0172  0.6214  0.1471
    2CHTO   C78  586   4.745   5.786   1.597 -0.0353 -0.2623 -0.3333
    2CHTO  H150  587   4.711   5.782   1.703 -0.9136 -1.9822 -0.6549
    2CHTO   C80  588   4.893   5.847   1.587 -0.5200  0.1371 -0.1181
    2CHTO  H152  589   4.935   5.831   1.486  0.2780  1.8176 -0.0702
    2CHTO   O55  590   4.890   5.984   1.606  0.0559 -0.3380 -0.0996
    2CHTO  H134  591   4.898   6.035   1.528  0.2705 -2.0774 -1.2404
    2CHTO   C84  592   4.988   5.767   1.682 -0.0686 -0.4965 -0.5570
    2CHTO  H156  593   4.954   5.783   1.785 -0.3798  0.4915 -0.8043
    2CHTO   N15  594   5.127   5.824   1.677 -0.4628  0.4901  0.2509
    2CHTO  H143  595   5.131   5.913   1.737 -0.0544 -0.3999  1.5467
    2CHTO  H144  596   5.210   5.761   1.700 -0.6068 -0.0530 -0.6955
    2CHTO   C87  597   4.982   5.622   1.644  0.0158  0.3904 -0.1947
    2CHTO  H159  598   5.034   5.594   1.552 -1.5210 -0.4826 -0.8121
    2CHTO   O53  599   4.837   5.568   1.628 -0.0641 -0.0709 -0.2211
    2CHTO   C82  600   4.749   5.642   1.541 -0.4227 -0.0671 -0.1494
    2CHTO  H154  601   4.771   5.635   1.435  0.9335 -2.1097  0.2333
    2CHTO   C89  602   4.608   5.581   1.561 -0.1209  0.4606  0.1196
    2CHTO   O59  603   4.601   5.442   1.533 -0.8119  0.0875  0.1266
    2CHTO  H137  604   4.524   5.417   1.485 -1.2010 -3.4729  2.4683
    2CHTO   O45  605   5.052   5.531   1.758 -0.0396  0.1637  0.1077
    2CHTO   C67  606   4.963   5.503   1.867 -0.0905  0.3442  0.2298
    2CHTO  H124  607   4.876   5.568   1.866  2.2861  3.6629 -0.7986
    2CHTO   C65  608   4.916   5.351   1.856 -0.2259 -0.0625 -0.0131
    2CHTO  H122  609   4.986   5.300   1.791 -1.0093 -2.1170  0.7120
    2CHTO   O44  610   4.784   5.345   1.796 -0.3789  0.4019 -0.3321
    2CHTO  H102  611   4.762   5.400   1.723 -1.1767  1.1321  0.4517
    2CHTO   C63  612   4.931   5.276   1.992 -0.0134  0.5156 -0.2674
    2CHTO  H120  613   5.038   5.276   2.015  0.5222  1.4678 -2.6119
    2CHTO   N11  614   4.895   5.128   1.983 -0.3155  0.0951  0.1053
    2CHTO  H108  615   4.974   5.065   1.947 -0.5472 -0.6762  0.8996
    2CHTO  H109  616   4.869   5.089   2.079  0.0454 -0.4283 -0.0071
    2CHTO   C61  617   4.879   5.364   2.110 -0.2032  0.1678 -0.0777
    2CHTO  H118  618   4.910   5.313   2.202  0.9025 -0.6988 -0.9188
    2CHTO   O40  619   4.940   5.498   2.113 -0.0869  0.0997 -0.1897
    2CHTO   C68  620   5.037   5.531   2.005  0.6305  0.5251 -0.4946
    2CHTO  H125  621   5.127   5.469   2.027  0.9587  1.4308  0.8190
    2CHTO   C72  622   5.083   5.684   2.020  0.1264  0.1142 -0.0434
    2CHTO   O48  623   5.078   5.724   2.156 -0.2288 -0.6087  0.1610
    2CHTO  H105  624   5.130   5.672   2.215  0.5003  0.7994  0.7905
    2CHTO   O38  625   4.738   5.381   2.104  0.8217 -0.4362 -0.1383
    2CHTO   C55  626   4.667   5.459   2.203  0.3928  0.1308 -0.1023
    2CHTO  H112  627   4.745   5.511   2.260  0.8037 -2.2630  1.5895
    2CHTO   C56  628   4.586   5.362   2.292  0.4592  0.2553  0.2020
    2CHTO  H113  629   4.532   5.302   2.217  0.7864 -2.9055  2.3644
    2CHTO   O42  630   4.674   5.266   2.358 -0.0824 -0.0929 -0.7561
    2CHTO  H100  631   4.711   5.197   2.307  1.9462  0.5026 -0.1176
    2CHTO   C57  632   4.498   5.438   2.394  0.0049 -0.2765 -0.3376
    2CHTO  H114  633   4.572   5.486   2.459 -3.0977  2.6456  1.1923
    2CHTO   N10  634   4.396   5.357   2.471  0.3452 -0.0273 -0.0220
    2CHTO  H106  635   4.435   5.328   2.568  0.1539  2.4953  0.8495
    2CHTO  H107  636   4.294   5.389   2.482  0.1061 -1.2756  1.6513
    2CHTO   C58  637   4.418   5.546   2.321 -0.4381  0.0127  0.0751
    2CHTO  H115  638   4.335   5.504   2.261 -0.0719 -0.7690  0.1136
    2CHTO   O37  639   4.500   5.631   2.235 -0.5322 -0.2164 -0.1685
    2CHTO   C59  640   4.571   5.558   2.140  0.2786  0.4274 -0.1156
    2CHTO  H116  641   4.503   5.505   2.073  1.3324 -1.8090  0.5649
    2CHTO   C70  642   4.654   5.654   2.049 -0.3194 -0.2246  0.3875
    2CHTO   O46  643   4.733   5.748   2.127  0.2020  0.3562 -0.2376
    2CHTO  H103  644   4.815   5.764   2.085  0.2720  0.8412  0.0676
    2CHTO   O39  645   4.351   5.647   2.423  0.0087  0.2513  0.2386
    2CHTO   C60  646   4.209   5.682   2.405 -0.3649  0.3965 -0.6305
    2CHTO  H117  647   4.192   5.677   2.297 -0.7956  0.2186 -0.5542
    2CHTO   C62  648   4.112   5.581   2.466  0.2964  0.0026 -0.5817
    2CHTO  H119  649   4.139   5.482   2.423  1.3213 -0.8272  1.8777
    2CHTO   O43  650   4.138   5.564   2.607 -0.3048  0.7441 -0.4076
    2CHTO  H101  651   4.123   5.478   2.642 -3.3083  1.9230  1.4260
    2CHTO   C66  652   3.960   5.622   2.440 -0.5446  0.1335  0.1812
    2CHTO  H123  653   3.956   5.637   2.333 -0.9542 -0.0715  0.1671
    2CHTO   N12  654   3.869   5.511   2.466  0.5230 -0.0507 -0.0825
    2CHTO  H110  655   3.809   5.484   2.380  2.6877  0.1720 -1.6971
    2CHTO  H111  656   3.822   5.500   2.563  2.2308 -2.0929  0.5734
    2CHTO   C69  657   3.927   5.759   2.502 -0.2202  0.3070 -0.3920
    2CHTO  H126  658   3.933   5.757   2.613  0.2787  0.7052 -0.4044
    2CHTO   O41  659   4.018   5.853   2.441 -0.6003  0.7232  0.8009
    2CHTO   C64  660   4.176   5.827   2.454 -0.1792  0.0053  0.4817
    2CHTO  H121  661   4.211   5.837   2.559  1.4004 -0.5296  0.0315
    2CHTO   C71  662   4.251   5.937   2.377  0.5516  0.4223  0.3551
    2CHTO   O47  663   4.385   5.956   2.412 -1.0739 -0.2442 -0.6733
    2CHTO  H104  664   4.400   6.040   2.451  3.1808 -1.5032  0.7141
    2CHTO   O34  665   3.756   5.801   2.455 -0.3895 -0.3979 -0.1273
    2CHTO   C49  666   3.673   5.920   2.493  0.9624  0.3625  0.1499
    2CHTO   H91  667   3.604   5.877   2.566 -1.2361  0.8982 -1.5466
    2CHTO   C47  668   3.608   5.979   2.369 -0.2773  0.3270  0.6157
    2CHTO   H89  669   3.539   6.062   2.393  0.3181  1.6939 -2.1264
    2CHTO   O33  670   3.525   5.875   2.308  0.9980 -0.3106 -0.2292
    2CHTO   H70  671   3.441   5.867   2.349  0.2847 -1.0272 -1.7860
    2CHTO   C45  672   3.716   6.056   2.271 -0.4375 -0.1482  0.3634
    2CHTO   H87  673   3.808   5.995   2.263 -0.4302 -0.2175  0.9456
    2CHTO    N8  674   3.672   6.095   2.137 -0.3797 -0.9722 -0.1547
    2CHTO   H75  675   3.570   6.063   2.123 -1.4292  1.3906  1.8321
    2CHTO   H76  676   3.675   6.202   2.137  4.4027 -0.9647  2.2449
    2CHTO   C43  677   3.783   6.173   2.353  0.4543 -0.5049  0.0489
    2CHTO   H85  678   3.858   6.224   2.291 -2.1015  0.2011 -2.5611
    2CHTO   O29  679   3.836   6.129   2.480  0.0136 -0.1391  1.1261
    2CHTO   C50  680   3.742   6.044   2.558  0.3730 -0.4677  0.3211
    2CHTO   H92  681   3.810   6.005   2.636  1.9915  0.4793 -0.5995
    2CHTO   C54  682   3.638   6.131   2.635 -0.1070 -0.0467 -0.1989
    2CHTO   O36  683   3.710   6.213   2.735 -0.9274  0.0110 -0.0351
    2CHTO   H72  684   3.661   6.216   2.816 -2.2384  0.1643 -0.8127
    2CHTO   O27  685   3.690   6.278   2.376  0.3574 -0.2531 -0.6107
    2CHTO   C37  686   3.637   6.406   2.336  0.2783 -0.0774 -0.1271
    2CHTO   H79  687   3.674   6.430   2.235 -0.4185 -0.1325 -0.3952
    2CHTO   C38  688   3.479   6.406   2.336 -1.0471 -0.0235  0.0225
    2CHTO   H80  689   3.445   6.387   2.439  0.8071 -1.6954  0.3648
    2CHTO   O31  690   3.446   6.304   2.236  0.2880 -0.3567 -0.5750
    2CHTO   H68  691   3.451   6.330   2.146 -2.6194 -0.0895 -0.7119
    2CHTO   C39  692   3.433   6.552   2.294  0.4606 -0.3455 -0.3239
    2CHTO   H81  693   3.472   6.574   2.195 -0.7254  1.5643 -0.3947
    2CHTO    N7  694   3.282   6.567   2.284 -0.2228  0.2488  0.7673
    2CHTO   H73  695   3.225   6.492   2.337 -2.5145  0.5915 -1.0754
    2CHTO   H74  696   3.237   6.663   2.306 -0.4128  0.4466 -0.3994
    2CHTO   C40  697   3.491   6.655   2.403 -0.2191 -0.2945 -0.4354
    2CHTO   H82  698   3.440   6.629   2.495  0.4222 -1.0025 -0.2721
    2CHTO   O26  699   3.630   6.637   2.412 -0.4279 -0.0405 -0.1417
    2CHTO   C41  700   3.698   6.513   2.434  0.5017 -0.0544  0.1175
    2CHTO   H83  701   3.663   6.487   2.535 -0.2461 -0.4269 -0.2352
    2CHTO   C52  702   3.851   6.543   2.425  0.2727  0.9340  0.2199
    2CHTO   O35  703   3.892   6.602   2.305  0.3811 -0.0876  0.1829
    2CHTO   H71  704   3.972   6.561   2.276 -0.5127 -2.5118  1.0404
    2CHTO   O28  705   3.463   6.791   2.367  0.3149 -0.0419  0.0221
    2CHTO   C42  706   3.487   6.907   2.450 -0.0315  0.0062  0.1895
    2CHTO   H84  707   3.434   6.985   2.396 -1.8668 -0.3740  1.3842
    2CHTO   C44  708   3.638   6.958   2.456  0.3281 -0.1265 -0.3842
    2CHTO   H86  709   3.705   6.875   2.478  1.0352  0.8872  1.4528
    2CHTO   O32  710   3.681   6.996   2.322  0.4279 -0.7043  0.5389
    2CHTO   H69  711   3.744   7.065   2.330  2.2460 -2.1354 -0.9084
    2CHTO   C48  712   3.668   7.061   2.564 -0.3988 -0.1610 -0.6397
    2CHTO   H90  713   3.635   7.156   2.523 -0.5655  0.2605  0.4604
    2CHTO    N9  714   3.812   7.092   2.593 -0.1673  0.0523  0.1210
    2CHTO   H77  715   3.853   7.028   2.670  0.3956 -0.3914 -0.5447
    2CHTO   H78  716   3.872   7.081   2.505 -0.8729  3.4672 -0.8488
    2CHTO   C51  717   3.587   7.027   2.701 -0.5906 -0.3255  0.3771
    2CHTO   H93  718   3.626   6.932   2.738 -1.6701 -0.8607  0.1445
    2CHTO   O30  719   3.451   7.021   2.671  0.6846  0.3838 -0.3295
    2CHTO   C46  720   3.412   6.889   2.590 -0.3514 -0.1391 -0.2319
    2CHTO   H88  721   3.452   6.801   2.640 -1.3334 -0.2957  0.2861
    2CHTO   C53  722   3.255   6.885   2.573  0.0939 -0.3069  0.0007
    2CHTO   O72  723   3.184   6.869   2.696  0.6156  0.2586  0.5438
    2CHTO  H199  724   3.093   6.871   2.670  0.6812  0.5359  0.3299
    2CHTO   O22  725   3.593   7.125   2.807  0.4831  0.2833 -0.1677
    2CHTO   C31  726   3.598   7.077   2.947 -0.4973 -0.0273  0.1421
    2CHTO   H59  727   3.574   7.166   3.008  0.0388  0.9824 -1.1007
    2CHTO   C29  728   3.496   6.966   2.982  0.6320  0.5150  0.7254
    2CHTO   H57  729   3.506   6.876   2.919 -0.3188  0.8127  0.1525
    2CHTO   O21  730   3.365   7.020   2.969  0.5508 -0.0696 -0.6952
    2CHTO   H37  731   3.350   7.050   2.881 -0.9442  2.6683  0.4215
    2CHTO   C27  732   3.518   6.919   3.132  0.5492  0.2316 -0.2225
    2CHTO   H55  733   3.487   7.001   3.198  0.8965  0.1069  0.0919
    2CHTO    N5  734   3.444   6.799   3.174  0.1742  0.9354 -0.3570
    2CHTO   H43  735   3.496   6.712   3.137  0.4246  0.7889  0.3339
    2CHTO   H44  736   3.342   6.795   3.140  0.3474  0.5137 -0.8497
    2CHTO   C25  737   3.671   6.897   3.171 -0.8618  0.1505  0.1906
    2CHTO   H53  738   3.717   6.810   3.122 -1.3191 -0.7758  1.3787
    2CHTO   O17  739   3.752   7.004   3.127 -0.4262  0.2878  0.1169
    2CHTO   C32  740   3.741   7.032   2.988 -0.1186 -0.6357 -0.1823
    2CHTO   H60  741   3.776   6.943   2.936 -1.1084 -1.0077 -0.2298
    2CHTO   C36  742   3.830   7.152   2.970 -0.1019 -0.1064 -0.5043
    2CHTO   O25  743   3.967   7.115   2.955 -0.1992  0.4422  0.0920
    2CHTO   H40  744   3.989   7.105   2.864  0.3698  1.0650  0.1613
    2CHTO   O15  745   3.682   6.860   3.328 -0.6800  0.4096 -0.1281
    2CHTO   C19  746   3.639   6.858   3.471 -0.2672 -0.3556  0.8995
    2CHTO   H47  747   3.529   6.862   3.475 -0.2217  1.7963  0.5790
    2CHTO   C20  748   3.679   6.730   3.539  0.0177 -0.1479  0.1326
    2CHTO   H48  749   3.788   6.719   3.546  0.0390  0.5670  0.9393
    2CHTO   O19  750   3.629   6.625   3.452 -0.0931  0.4404 -0.4480
    2CHTO   H35  751   3.676   6.543   3.459 -0.9466 -0.0930 -0.8522
    2CHTO   C21  752   3.616   6.719   3.686  0.4117  0.0278  0.4704
    2CHTO   H49  753   3.508   6.717   3.676  0.5533 -2.3151 -0.7815
    2CHTO    N4  754   3.658   6.589   3.744 -0.1464  0.2054 -0.1838
    2CHTO   H41  755   3.649   6.600   3.851 -1.0663  5.1029 -0.6422
    2CHTO   H42  756   3.764   6.577   3.723  0.1230 -1.5704  1.9654
    2CHTO   C22  757   3.646   6.850   3.771  0.3097  0.1607  0.5804
    2CHTO   H50  758   3.751   6.846   3.803  0.5487 -0.8374 -0.2716
    2CHTO   O14  759   3.621   6.972   3.692  0.6289 -0.0420 -0.9022
    2CHTO   C23  760   3.687   6.979   3.564 -0.4296 -0.0697  0.2902
    2CHTO   H51  761   3.795   6.973   3.584  0.0706 -2.4048 -2.7288
    2CHTO   C34  762   3.652   7.117   3.498  0.7610  0.0722  0.4809
    2CHTO   O23  763   3.743   7.162   3.400  0.0276  0.1750 -0.3788
    2CHTO   H38  764   3.704   7.227   3.345  0.2365  1.0657  0.5086
    2CHTO   O16  765   3.564   6.850   3.885 -0.0129  0.7101  0.5067
    2CHTO   C24  766   3.599   6.945   4.004  0.1303  0.4248  0.4494
    2CHTO   H52  767   3.675   7.018   3.976  1.7650 -0.9891  1.1071
    2CHTO   C26  768   3.629   6.857   4.123 -0.4479 -0.8980 -0.2999
    2CHTO   H54  769   3.536   6.800   4.141  0.5299 -2.3246  0.2613
    2CHTO   O20  770   3.737   6.767   4.086 -0.0175  0.0822  0.1607
    2CHTO   H36  771   3.746   6.702   4.152 -1.1889  0.8828  1.1298
    2CHTO   C30  772   3.659   6.956   4.237 -0.0754 -0.2139 -0.3531
    2CHTO   H58  773   3.745   7.022   4.217 -2.7748  2.6058 -3.2250
    2CHTO    N6  774   3.690   6.883   4.358 -0.0553  0.4085  0.7559
    2CHTO   H45  775   3.705   6.958   4.435 -0.5898  1.6299 -0.3237
    2CHTO   H46  776   3.616   6.809   4.386  1.2376 -0.8213  1.0105
    2CHTO   C33  777   3.527   7.049   4.261 -0.0581  0.3618  0.7963
    2CHTO   H61  778   3.443   6.988   4.298 -0.5752 -0.2897 -1.3741
    2CHTO   O18  779   3.481   7.112   4.133  0.8573  0.6545  0.5366
    2CHTO   C28  780   3.462   7.022   4.025 -0.0240 -0.1880 -0.1417
    2CHTO   H56  781   3.382   6.951   4.044  1.2140 -2.2221 -2.3137
    2CHTO   C35  782   3.416   7.112   3.904  0.2123 -0.3991  0.3512
    2CHTO   O24  783   3.335   7.032   3.814  0.2524 -0.1498  0.5824
    2CHTO   H39  784   3.365   6.943   3.804 -2.8901 -1.1973 -0.2802
    2CHTO    O9  785   3.559   7.149   4.360  0.0920  0.9754 -0.7745
    2CHTO   C13  786   3.469   7.182   4.477  0.0704  0.6349  1.2299
    2CHTO   H26  787   3.395   7.100   4.486  1.2524 -0.5503  0.3293
    2CHTO   C11  788   3.396   7.331   4.470 -0.1557  0.6611 -0.4867
    2CHTO   H24  789   3.319   7.325   4.393  0.2156  2.2603 -1.0032
    2CHTO    O8  790   3.500   7.433   4.435 -0.0168  0.1787  0.0235
    2CHTO    H3  791   3.460   7.517   4.421  1.6158  1.2684  1.7283
    2CHTO    C9  792   3.326   7.360   4.603 -0.5530  0.7133 -0.0632
    2CHTO   H22  793   3.259   7.275   4.624 -1.2330  0.7576 -1.9219
    2CHTO    N2  794   3.248   7.485   4.605 -0.2616  0.2239 -0.2188
    2CHTO   H10  795   3.312   7.570   4.624  0.5685 -0.3239 -0.5283
    2CHTO   H11  796   3.168   7.476   4.678  0.9265  0.7338  1.1755
    2CHTO    C7  797   3.427   7.355   4.714 -0.0597 -0.4488 -1.0208
    2CHTO   H20  798   3.373   7.377   4.808  1.1594 -0.2790 -0.3412
    2CHTO    O4  799   3.486   7.232   4.729  0.1728  0.9580 -0.2086
    2CHTO   C14  800   3.549   7.165   4.612 -0.2158 -0.0124  0.0216
    2CHTO   H27  801   3.535   7.059   4.639 -2.1320  0.1626 -0.2018
    2CHTO   C18  802   3.701   7.195   4.609 -0.1750  0.1767 -0.1154
    2CHTO   O13  803   3.771   7.147   4.728 -0.0650 -0.6657  0.0539
    2CHTO    H7  804   3.770   7.054   4.740  0.1335 -0.4265  2.1355
    2CHTO    O2  805   3.551   7.475   4.697  0.2328  0.6107  0.0433
    2CHTO    C1  806   3.553   7.570   4.806 -0.8366  0.6970  0.0214
    2CHTO   H14  807   3.457   7.560   4.862 -2.8190  0.3625 -3.3179
    2CHTO    C2  808   3.562   7.721   4.755 -0.3300  0.2416 -0.2777
    2CHTO   H15  809   3.650   7.721   4.688 -1.3089  1.2576 -1.5782
    2CHTO    O6  810   3.440   7.752   4.696  0.1285  0.3299  0.6944
    2CHTO    H1  811   3.381   7.789   4.758  0.1183  0.7882  0.4169
    2CHTO    C3  812   3.597   7.827   4.881 -0.3845  0.3323  0.3476
    2CHTO   H16  813   3.511   7.832   4.949  2.2361  1.0152  3.7511
    2CHTO    N1  814   3.623   7.959   4.829  0.0325 -0.2232 -0.3349
    2CHTO    H8  815   3.665   7.956   4.730 -0.7014 -0.5405 -0.6456
    2CHTO    H9  816   3.690   8.018   4.890 -0.5533 -0.8247  0.9059
    2CHTO    C4  817   3.715   7.769   4.972  0.2834 -0.2535 -0.1984
    2CHTO   H17  818   3.805   7.778   4.910 -0.4467  1.7919 -1.0206
    2CHTO    O1  819   3.687   7.635   5.002 -0.0597  0.1242 -0.6515
    2CHTO    C5  820   3.675   7.537   4.897  0.2148 -0.5246 -0.5566
    2CHTO   H18  821   3.762   7.543   4.832  0.3799 -0.3070 -0.3152
    2CHTO   C16  822   3.675   7.391   4.966 -0.0808  0.0927  0.1503
    2CHTO   O11  823   3.561   7.350   5.043  0.1721  0.0170  0.2349
    2CHTO    H5  824   3.534   7.261   5.033  4.4333 -1.7132  2.5215
    2CHTO    O3  825   3.730   7.837   5.096  0.2411  0.1390  0.2659
    2CHTO    C6  826   3.850   7.818   5.173 -0.7165 -0.1298  0.0358
    2CHTO   H19  827   3.926   7.753   5.130 -2.7406 -2.2054 -0.5343
    2CHTO    C8  828   3.922   7.955   5.200 -0.1703  0.1687  0.2317
    2CHTO   H21  829   3.862   8.021   5.263  0.2924  0.3901  0.4472
    2CHTO    O7  830   3.957   8.018   5.075  0.3677  0.5007 -0.0357
    2CHTO    H2  831   3.914   8.101   5.071 -1.6646 -0.6196 -1.9828
    2CHTO   C12  832   4.051   7.930   5.289 -0.1394  1.1621  0.5435
    2CHTO   H25  833   4.120   7.870   5.226 -0.3024  2.1014 -0.5506
    2CHTO    N3  834   4.119   8.058   5.318 -0.0268  0.2034 -0.2856
    2CHTO   H12  835   4.194   8.061   5.396 -2.2787 -0.9339  1.9982
    2CHTO   H13  836   4.156   8.095   5.224 -0.9179 -1.4322 -1.2995
    2CHTO   C15  837   4.012   7.852   5.417  0.1353  0.0894 -0.1108
    2CHTO   H28  838   3.961   7.918   5.488  0.5922  0.0089  0.2969
    2CHTO   O10  839   4.107   7.792   5.470 -0.4490 -0.8325 -0.1574
    2CHTO    H4  840   4.170   7.846   5.513 -1.6995 -1.0296  2.0121
    2CHTO    O5  841   3.942   7.733   5.385  0.1651  0.5534 -0.0971
    2CHTO   C10  842   3.817   7.761   5.319  0.2326 -0.4094 -0.2439
    2CHTO   H23  843   3.760   7.829   5.383 -2.7224 -0.8891 -2.2680
    2CHTO   C17  844   3.748   7.624   5.313  0.7012 -0.2809 -0.2446
    2CHTO   O12  845   3.828   7.522   5.236 -0.4102 -0.3526  0.2190
    2CHTO    H6  846   3.917   7.506   5.262  0.0967 -1.3029 -1.9676
    3CHTO  H203  847   8.062   1.528   1.062  0.6611  1.9803  2.4387
    3CHTO   O82  848   8.074   1.449   1.111  0.0026  0.3655  0.0730
    3CHTO  C123  849   7.952   1.415   1.176 -0.0745  0.5751 -0.3895
    3CHTO  H227  850   7.957   1.455   1.278 -0.8122  0.4289 -0.2952
    3CHTO   O77  851   7.841   1.463   1.100 -0.3710 -0.7479 -0.5363
    3CHTO  C118  852   7.710   1.427   1.145  0.1994  0.1786  0.4994
    3CHTO  H222  853   7.707   1.467   1.247  0.3862  1.4092  0.0236
    3CHTO  C125  854   7.608   1.511   1.047 -0.2124 -0.0200  0.0676
    3CHTO   O84  855   7.612   1.477   0.907 -0.7802  0.1679 -0.4573
    3CHTO  H205  856   7.536   1.507   0.861 -0.4850  0.4199 -0.7895
    3CHTO  C114  857   7.695   1.274   1.148 -0.7489  0.2049  0.3747
    3CHTO  H218  858   7.706   1.238   1.046 -1.9130  0.3613  0.1903
    3CHTO  C116  859   7.804   1.217   1.245  0.1141 -0.0678  0.3770
    3CHTO  H220  860   7.792   1.256   1.348 -1.2208 -0.0756  0.2331
    3CHTO   O79  861   7.769   1.073   1.245 -0.3009 -0.4489 -0.6959
    3CHTO  H201  862   7.837   1.010   1.236 -2.5195 -2.5266 -4.2531
    3CHTO  C120  863   7.944   1.258   1.184 -0.3015  0.5368  0.9057
    3CHTO  H224  864   7.937   1.214   1.083 -0.3788  1.4136  0.5250
    3CHTO   N21  865   8.051   1.199   1.268  0.0596  0.4567  0.2194
    3CHTO  H211  866   8.018   1.210   1.370  1.8565  0.0286  0.8643
    3CHTO  H212  867   8.146   1.249   1.250 -1.3107  2.2510 -2.4527
    3CHTO   O75  868   7.563   1.240   1.199  0.1790 -0.4911  0.1856
    3CHTO  C112  869   7.457   1.207   1.085 -0.5680 -0.2336 -0.5158
    3CHTO  H216  870   7.511   1.181   0.993  1.8623  0.2460  0.7266
    3CHTO   O73  871   7.375   1.326   1.064  0.0739  0.1164 -0.1857
    3CHTO  C113  872   7.269   1.325   0.973  0.0737 -0.3244 -0.0641
    3CHTO  H217  873   7.320   1.304   0.877  0.8998  1.0761  0.0524
    3CHTO  C124  874   7.197   1.459   0.962 -0.3693 -0.2830  0.6929
    3CHTO   O83  875   7.171   1.491   0.825  0.0627  0.2529  0.2581
    3CHTO  H204  876   7.247   1.487   0.770  1.4967 -1.7252  2.2683
    3CHTO  C109  877   7.164   1.221   1.014 -0.1409  0.4637 -0.2929
    3CHTO  H213  878   7.118   1.249   1.110 -3.0506 -1.9155 -0.8959
    3CHTO  C110  879   7.237   1.088   1.039 -1.2515  0.1522  1.2065
    3CHTO  H214  880   7.268   1.059   0.938  2.2132  2.6707  1.4590
    3CHTO   O78  881   7.144   0.996   1.094  0.4777  0.3465 -0.7228
    3CHTO  H200  882   7.177   0.908   1.087 -2.0780 -0.6946 -0.1240
    3CHTO  C111  883   7.361   1.090   1.130  0.3824 -0.3644 -0.0445
    3CHTO  H215  884   7.320   1.122   1.227 -5.1897 -1.5445 -1.8155
    3CHTO   N19  885   7.432   0.959   1.149  0.5662  0.4104  0.7196
    3CHTO  H207  886   7.475   0.922   1.057  0.8924  0.2240  0.9440
    3CHTO  H208  887   7.363   0.886   1.187  1.7342 -0.1340  1.8450
    3CHTO   O74  888   7.051   1.198   0.913 -0.2333 -0.4929 -0.5880
    3CHTO  C115  889   6.904   1.230   0.962 -0.8895 -0.7202  0.0948
    3CHTO  H219  890   6.897   1.233   1.071 -1.0009  0.2533  0.0616
    3CHTO   O76  891   6.863   1.359   0.919  0.0099 -0.4574  0.0876
    3CHTO  C122  892   6.735   1.414   0.965 -0.2590  0.0714  0.6002
    3CHTO  H226  893   6.711   1.510   0.920  1.1984  1.4633  2.7066
    3CHTO  C126  894   6.746   1.454   1.124 -0.7597 -0.1275  0.3800
    3CHTO   O85  895   6.867   1.528   1.147  0.0378  0.3918  0.7579
    3CHTO  H206  896   6.924   1.522   1.073 -1.9288 -4.0254 -0.5774
    3CHTO  C121  897   6.618   1.312   0.945 -0.3256  0.0798  0.2571
    3CHTO  H225  898   6.538   1.346   1.015 -0.6962  0.0673 -0.1582
    3CHTO   O81  899   6.558   1.316   0.810 -0.1400 -0.4186  0.0122
    3CHTO  H202  900   6.467   1.294   0.806  0.1610 -1.5021 -1.6024
    3CHTO  C119  901   6.658   1.164   0.992  0.4256  0.7393  0.8528
    3CHTO  H223  902   6.662   1.170   1.101 -0.3826 -1.8996  1.0500
    3CHTO  C117  903   6.795   1.125   0.919 -0.4104  0.8478  0.0526
    3CHTO  H221  904   6.800   1.139   0.811  0.1608 -2.6368 -0.4229
    3CHTO   N20  905   6.834   0.984   0.940 -0.4954 -0.0424 -0.4159
    3CHTO  H209  906   6.765   0.903   0.928  0.7639 -1.2816  0.6417
    3CHTO  H210  907   6.889   0.972   1.032 -1.2445  0.6911  0.1402
    3CHTO   O80  908   6.554   1.058   0.976  0.1876 -0.2610  0.8588
    3CHTO  C103  909   6.411   1.065   1.067 -0.6968 -0.1739  0.4445
    3CHTO  H190  910   6.440   1.121   1.156 -0.9204  0.3895  0.1632
    3CHTO  C101  911   6.282   1.131   0.994 -0.4556  0.5214  0.0101
    3CHTO  H188  912   6.284   1.089   0.893 -1.0347  0.6556 -0.0622
    3CHTO   O68  913   6.302   1.292   0.987  0.0065 -0.3112  0.7760
    3CHTO  H168  914   6.370   1.333   0.936 -0.9911  0.1151 -0.2333
    3CHTO   C99  915   6.143   1.085   1.059 -0.0431 -0.1180 -0.2507
    3CHTO  H186  916   6.138   1.131   1.160  0.0623 -0.3345 -0.1471
    3CHTO   N17  917   6.022   1.122   0.982  0.0731  0.7188 -0.2831
    3CHTO  H174  918   6.044   1.197   0.907 -0.7275  2.0072  0.7497
    3CHTO  H175  919   5.953   1.161   1.056 -0.3607  1.2345 -0.9524
    3CHTO   C97  920   6.145   0.933   1.087 -0.1279 -0.2766  1.0466
    3CHTO  H184  921   6.158   0.883   0.989  1.8573 -0.1225  1.2181
    3CHTO   O64  922   6.262   0.907   1.175 -0.0726  0.0875 -0.4546
    3CHTO  C104  923   6.387   0.918   1.108  0.6470  0.1677 -1.2097
    3CHTO  H191  924   6.394   0.856   1.018  2.5084  0.6965 -1.4666
    3CHTO  C108  925   6.505   0.875   1.195  0.2799  0.2893  0.2302
    3CHTO   O71  926   6.469   0.752   1.268  0.2502 -0.2084  0.4439
    3CHTO  H171  927   6.540   0.706   1.307  0.5371 -0.5821 -0.4999
    3CHTO   O62  928   6.035   0.882   1.169  0.0217 -0.6999 -0.0111
    3CHTO   C91  929   5.960   0.771   1.113  0.0171  0.1931  0.0575
    3CHTO  H178  930   5.971   0.776   1.005 -3.5538 -0.0706 -0.3918
    3CHTO   C92  931   5.804   0.789   1.129  0.0848  0.3890  0.7741
    3CHTO  H179  932   5.783   0.806   1.236 -0.7107  1.4463  0.4574
    3CHTO   O66  933   5.777   0.913   1.068 -0.3666  0.0424  0.2697
    3CHTO  H166  934   5.684   0.920   1.058 -0.3448 -2.3865 -2.7222
    3CHTO   C93  935   5.721   0.666   1.080  0.0896  0.6163  0.0444
    3CHTO  H180  936   5.756   0.653   0.977  3.1787 -1.6937  1.3023
    3CHTO   N16  937   5.577   0.695   1.073  0.1822 -0.3891  0.6958
    3CHTO  H172  938   5.542   0.759   1.152 -1.5522 -0.4367 -0.0110
    3CHTO  H173  939   5.517   0.605   1.068  0.1786 -0.2997 -1.5275
    3CHTO   C94  940   5.769   0.533   1.158  0.5087 -0.2993 -0.8311
    3CHTO  H181  941   5.702   0.515   1.242 -1.4100  0.6334 -2.1235
    3CHTO   O61  942   5.895   0.552   1.230 -0.0328  1.0410  0.4069
    3CHTO   C95  943   6.003   0.623   1.168  0.4194  0.6634 -0.0970
    3CHTO  H182  944   6.074   0.639   1.249 -0.2235 -1.6709  0.9651
    3CHTO  C106  945   6.091   0.546   1.062 -0.3389  0.1007  0.4460
    3CHTO   O69  946   6.214   0.619   1.030  0.0156  0.4362 -0.2878
    3CHTO  H169  947   6.194   0.690   0.971  0.2562  0.0599 -0.8242
    3CHTO   O63  948   5.778   0.414   1.062  0.0076  0.0489 -0.1476
    3CHTO   C96  949   5.688   0.280   1.110 -0.3196  0.1203  0.8556
    3CHTO  H183  950   5.708   0.191   1.050 -0.1099 -0.6679  2.0780
    3CHTO   C98  951   5.537   0.313   1.098 -0.3192  0.0317  0.6115
    3CHTO  H185  952   5.512   0.389   1.174 -1.1790 -0.1179  0.4816
    3CHTO   O67  953   5.511   0.370   0.969 -0.6798 -0.0502  0.1781
    3CHTO  H167  954   5.476   0.457   0.972  0.4623  0.4054  0.5891
    3CHTO  C102  955   5.451   0.181   1.138 -0.3562  0.4595  0.0219
    3CHTO  H189  956   5.459   0.107   1.057 -1.2103 -1.0647  1.2959
    3CHTO   N18  957   5.306   0.219   1.133 -0.1911  0.5291  0.0748
    3CHTO  H176  958   5.230   0.143   1.145  0.9873 -0.8678 -1.1544
    3CHTO  H177  959   5.292   0.293   1.211  1.0878  0.1731  0.6520
    3CHTO  C105  960   5.492   0.124   1.276  0.1903  0.2709 -0.2245
    3CHTO  H192  961   5.449   0.185   1.355 -0.8848  0.2319 -0.7843
    3CHTO   O65  962   5.636   0.130   1.294  0.5604  0.5483 -0.7103
    3CHTO  C100  963   5.717   0.242   1.262  0.9995 -0.6944  0.4569
    3CHTO  H187  964   5.685   0.324   1.327 -1.5492  0.0014 -1.6109
    3CHTO  C107  965   5.858   0.198   1.289  0.2961 -0.4068  0.0853
    3CHTO   O70  966   5.957   0.280   1.224 -0.2605 -0.4994 -0.6280
    3CHTO  H170  967   5.941   0.372   1.232  2.0184 -0.0961 -0.2478
    3CHTO   O57  968   5.430  -0.028   1.284  0.1730 -0.2533  0.0827
    3CHTO   C85  969   5.403  -0.087   1.413  0.3995  0.7496 -0.3101
    3CHTO  H157  970   5.385  -0.191   1.380  0.6597  0.1751  1.2975
    3CHTO   C83  971   5.258  -0.043   1.468 -0.7580  0.0142 -0.1861
    3CHTO  H155  972   5.184  -0.095   1.407  0.2461 -2.6168  0.7579
    3CHTO   O56  973   5.231   0.104   1.456 -0.3256 -0.4682  0.3598
    3CHTO  H135  974   5.261   0.155   1.529  0.2142 -0.8977  0.4428
    3CHTO   C81  975   5.240  -0.099   1.611  0.1149  0.0187 -0.1941
    3CHTO  H153  976   5.251  -0.207   1.604 -2.1745 -0.1280 -1.8876
    3CHTO   N14  977   5.103  -0.078   1.668 -0.4426 -0.1889 -0.1764
    3CHTO  H141  978   5.058   0.011   1.629  1.1937  0.1413 -1.3534
    3CHTO  H142  979   5.110  -0.078   1.775 -0.0251 -2.5971 -0.1879
    3CHTO   C79  980   5.352  -0.042   1.706  0.4251  0.0018 -0.5173
    3CHTO  H151  981   5.339  -0.077   1.808 -1.2573 -1.4535 -1.2074
    3CHTO   O52  982   5.490  -0.083   1.666  0.6661  0.4051  0.2879
    3CHTO   C86  983   5.525  -0.078   1.522 -0.0129  0.0632  0.0313
    3CHTO  H158  984   5.580   0.018   1.515  0.2783 -0.0226  1.1036
    3CHTO   C90  985   5.626  -0.191   1.488 -0.0043  0.0987 -0.2607
    3CHTO   O60  986   5.570  -0.311   1.535  0.2523  0.1690  0.0006
    3CHTO  H138  987   5.478  -0.327   1.525 -0.0357  2.6976 -1.8402
    3CHTO   O50  988   5.350   0.099   1.724 -1.0625 -0.3483  0.0883
    3CHTO   C73  989   5.394   0.198   1.817 -0.1454  0.3354 -0.0753
    3CHTO  H145  990   5.468   0.158   1.887  0.8740 -0.7742 -1.7598
    3CHTO   C74  991   5.282   0.260   1.907 -0.0467  0.1060  0.6389
    3CHTO  H146  992   5.241   0.175   1.963 -0.0278  0.5706  1.3606
    3CHTO   O54  993   5.348   0.336   2.006  0.3728  0.3802  0.5931
    3CHTO  H133  994   5.393   0.407   1.964  0.0144  0.5478  0.4901
    3CHTO   C75  995   5.171   0.330   1.814  0.3114  0.5349  0.1519
    3CHTO  H147  996   5.137   0.255   1.741  0.0994 -2.1866  2.9387
    3CHTO   N13  997   5.053   0.380   1.893 -0.0169  0.0487 -0.1663
    3CHTO  H139  998   5.033   0.485   1.873 -4.2016 -0.6488 -0.0616
    3CHTO  H140  999   4.972   0.316   1.861  0.7508 -1.2404  0.4696
    3CHTO   C76 1000   5.245   0.444   1.732 -0.2256 -0.1330 -0.3211
    3CHTO  H148 1001   5.262   0.530   1.798  1.2683 -1.2104  0.7175
    3CHTO   O49 1002   5.361   0.393   1.659  0.3335  0.4676  0.3995
    3CHTO   C77 1003   5.459   0.316   1.736  0.0336  0.4439  0.4557
    3CHTO  H149 1004   5.510   0.381   1.806 -2.6587  2.4676  0.6292
    3CHTO   C88 1005   5.566   0.274   1.634  0.7901  0.2468 -0.5541
    3CHTO   O58 1006   5.640   0.398   1.583 -0.5024  0.1444  0.1961
    3CHTO  H136 1007   5.697   0.433   1.649  0.5577  0.4327 -0.8581
    3CHTO   O51 1008   5.158   0.488   1.606 -0.2526  0.5101 -0.2427
    3CHTO   C78 1009   5.180   0.630   1.577 -0.1983  0.4978  0.4569
    3CHTO  H150 1010   5.281   0.661   1.611  1.4505 -2.4113 -1.4658
    3CHTO   C80 1011   5.076   0.716   1.636 -0.2058 -0.5819 -0.0303
    3CHTO  H152 1012   4.976   0.690   1.595  0.5325 -1.7294 -1.1646
    3CHTO   O55 1013   5.080   0.703   1.780  0.0415  0.0305  0.6518
    3CHTO  H134 1014   5.163   0.682   1.820  1.0875  1.9057 -0.4941
    3CHTO   C84 1015   5.080   0.871   1.606  0.2103  0.0373  0.0949
    3CHTO  H156 1016   5.167   0.913   1.658  0.8503  1.5396 -2.1079
    3CHTO   N15 1017   4.962   0.946   1.661 -0.0101  0.3359  0.4870
    3CHTO  H143 1018   4.987   1.047   1.633  0.2632 -0.5415 -2.6823
    3CHTO  H144 1019   4.957   0.934   1.767  0.5150  0.2362  0.5053
    3CHTO   C87 1020   5.087   0.884   1.452  0.0839 -0.6321 -0.2832
    3CHTO  H159 1021   4.991   0.864   1.404  0.4028 -1.0952 -0.7428
    3CHTO   O53 1022   5.200   0.785   1.389  0.3418  0.0281  0.5901
    3CHTO   C82 1023   5.178   0.647   1.423 -0.1629 -0.3265  1.1858
    3CHTO  H154 1024   5.084   0.615   1.378  1.0994  0.6639 -2.3477
    3CHTO   C89 1025   5.292   0.562   1.355 -0.8068  0.6038  0.8076
    3CHTO   O59 1026   5.248   0.545   1.220 -0.4810 -0.1617 -0.6970
    3CHTO  H137 1027   5.326   0.542   1.168  1.9351 -0.2130  2.7611
    3CHTO   O45 1028   5.151   1.058   1.418 -0.1412  0.8661  0.0620
    3CHTO   C67 1029   5.297   1.069   1.416 -0.0672 -0.3357 -0.7241
    3CHTO  H124 1030   5.337   0.982   1.468 -0.2672  0.0287  0.0473
    3CHTO   C65 1031   5.343   1.060   1.267 -0.8069 -0.2671 -0.3852
    3CHTO  H122 1032   5.258   1.083   1.203  0.1161 -0.0707 -1.5561
    3CHTO   O44 1033   5.385   0.923   1.251 -0.4972 -0.5781  0.0134
    3CHTO  H102 1034   5.437   0.918   1.173  0.9158 -1.8579  1.0110
    3CHTO   C63 1035   5.451   1.171   1.237 -0.6829  0.3783  0.4855
    3CHTO  H120 1036   5.404   1.268   1.229 -0.9350  0.1228 -1.3255
    3CHTO   N11 1037   5.518   1.155   1.104 -0.4045  0.3691  0.1155
    3CHTO  H108 1038   5.450   1.136   1.024 -1.5539 -0.3817  1.2557
    3CHTO  H109 1039   5.587   1.073   1.098 -0.4101  0.4676 -1.5469
    3CHTO   C61 1040   5.558   1.179   1.353  0.3374  0.5454 -0.2829
    3CHTO  H118 1041   5.631   1.260   1.344  0.6360  0.3670  0.4990
    3CHTO   O40 1042   5.495   1.200   1.485  0.5883 -0.0730 -0.0435
    3CHTO   C68 1043   5.353   1.195   1.497  0.3945 -0.2612 -0.4613
    3CHTO  H125 1044   5.303   1.282   1.450  0.7508  0.4608  0.5017
    3CHTO   C72 1045   5.320   1.197   1.648 -0.5352 -0.0941 -0.4896
    3CHTO   O48 1046   5.339   1.327   1.700  0.4193  0.1129  0.2542
    3CHTO  H105 1047   5.299   1.330   1.785  1.7280 -2.1737  0.9950
    3CHTO   O38 1048   5.621   1.051   1.362 -0.0108  0.1217 -0.1354
    3CHTO   C55 1049   5.715   1.024   1.467 -1.2138 -0.0892 -0.2510
    3CHTO  H112 1050   5.692   1.076   1.560  0.3920  2.3061 -1.1411
    3CHTO   C56 1051   5.861   1.066   1.417  0.3825 -0.0485 -0.1721
    3CHTO  H113 1052   5.869   1.020   1.317  1.1602 -1.7533  0.6525
    3CHTO   O42 1053   5.867   1.211   1.410  0.6980 -0.0302  0.5561
    3CHTO  H100 1054   5.867   1.251   1.494 -1.7427  0.6250  0.2643
    3CHTO   C57 1055   5.971   1.009   1.505  0.4864  0.9269  0.0600
    3CHTO  H114 1056   5.965   1.057   1.603 -1.4443 -0.0301  0.4556
    3CHTO   N10 1057   6.107   1.018   1.442  0.8037  0.6249 -0.6419
    3CHTO  H106 1058   6.159   1.107   1.472  0.1427  0.3903  1.2602
    3CHTO  H107 1059   6.103   1.015   1.334 -2.6215  0.4045 -0.5484
    3CHTO   C58 1060   5.932   0.861   1.536 -0.1046  0.8585  0.0660
    3CHTO  H115 1061   5.933   0.805   1.440 -1.2812 -0.2846  0.7108
    3CHTO   O37 1062   5.800   0.852   1.594 -0.3722  0.1106  0.2150
    3CHTO   C59 1063   5.697   0.873   1.496 -0.4439 -0.5072 -0.3252
    3CHTO  H116 1064   5.717   0.815   1.406  0.4690 -1.4610  0.4798
    3CHTO   C70 1065   5.559   0.837   1.545  0.0098 -0.0895 -0.6106
    3CHTO   O46 1066   5.528   0.697   1.529  0.0378 -0.4515  0.3718
    3CHTO  H103 1067   5.435   0.696   1.539 -0.4011  1.8504 -2.6536
    3CHTO   O39 1068   6.020   0.794   1.635 -0.3377 -0.4507  0.6196
    3CHTO   C60 1069   6.022   0.656   1.625  0.3429 -0.3073  0.7670
    3CHTO  H117 1070   5.931   0.627   1.573 -0.8141 -0.9125  3.0317
    3CHTO   C62 1071   6.145   0.611   1.546  0.1320  0.0661  0.3098
    3CHTO  H119 1072   6.136   0.648   1.441 -0.5052  0.7811  0.6144
    3CHTO   O43 1073   6.266   0.661   1.601 -0.2317 -0.3070 -0.0583
    3CHTO  H101 1074   6.342   0.618   1.565 -0.7574 -0.1755 -1.3384
    3CHTO   C66 1075   6.145   0.454   1.537 -0.6748 -0.0491  0.6557
    3CHTO  H123 1076   6.053   0.423   1.487 -1.1364  3.0571 -0.5323
    3CHTO   N12 1077   6.256   0.406   1.446 -0.2458 -0.1388  0.2088
    3CHTO  H110 1078   6.243   0.433   1.343  0.5399 -1.2272 -0.1888
    3CHTO  H111 1079   6.262   0.298   1.458  1.7626  0.2025  2.7324
    3CHTO   C69 1080   6.146   0.382   1.674  0.7154 -1.2878 -0.1286
    3CHTO  H126 1081   6.243   0.404   1.723  1.2007 -0.3084 -1.4778
    3CHTO   O41 1082   6.014   0.441   1.759 -0.1057  0.5535 -0.2006
    3CHTO   C64 1083   6.003   0.596   1.771  0.1297 -0.0922  0.2002
    3CHTO  H121 1084   6.087   0.623   1.838  1.3121 -1.8140 -0.5682
    3CHTO   C71 1085   5.879   0.639   1.846  0.0851  0.1802 -0.3507
    3CHTO   O47 1086   5.754   0.601   1.787 -0.2163  0.0848 -0.0087
    3CHTO  H104 1087   5.698   0.677   1.786  0.7818  0.8261  0.2545
    3CHTO   O34 1088   6.151   0.221   1.667 -0.2839  0.0110 -0.0130
    3CHTO   C49 1089   6.226   0.099   1.606 -0.3109  0.4289  0.4067
    3CHTO   H91 1090   6.295   0.144   1.534 -1.2995  2.1635  0.5172
    3CHTO   C47 1091   6.134   0.005   1.517  0.4792  0.0672 -0.0831
    3CHTO   H89 1092   6.115   0.061   1.424  0.1343  1.6793  0.9355
    3CHTO   O33 1093   6.014  -0.015   1.591 -0.0822  0.0858 -0.8188
    3CHTO   H70 1094   5.993  -0.107   1.591 -2.8814  0.6567 -1.9425
    3CHTO   C45 1095   6.200  -0.132   1.480 -0.1030  0.0836 -0.3204
    3CHTO   H87 1096   6.169  -0.195   1.564 -0.4757  1.2402  0.4221
    3CHTO    N8 1097   6.146  -0.191   1.351 -0.5632 -0.0759  0.0759
    3CHTO   H75 1098   6.038  -0.199   1.352 -0.5281 -0.5880 -0.0498
    3CHTO   H76 1099   6.174  -0.294   1.332  1.1624  0.6685 -1.4959
    3CHTO   C43 1100   6.359  -0.132   1.507  0.3256  0.3703  0.1020
    3CHTO   H85 1101   6.395  -0.231   1.481 -2.7726 -0.5043 -1.1227
    3CHTO   O29 1102   6.376  -0.105   1.646 -0.0594 -1.0249 -0.3563
    3CHTO   C50 1103   6.318   0.017   1.706 -0.0599 -0.2718  0.1686
    3CHTO   H92 1104   6.259  -0.011   1.795 -0.7223  1.7166  0.3873
    3CHTO   C54 1105   6.428   0.116   1.760  0.2911  0.2192 -0.1346
    3CHTO   O36 1106   6.490   0.063   1.880 -0.8419 -0.8901 -0.4643
    3CHTO   H72 1107   6.448   0.104   1.954  0.1898  0.1376 -0.4177
    3CHTO   O27 1108   6.424  -0.032   1.423 -0.2557  0.8407  0.4740
    3CHTO   C37 1109   6.537   0.050   1.399  0.0183  0.1715 -0.1012
    3CHTO   H79 1110   6.522   0.148   1.447 -2.4115 -0.1661 -0.1087
    3CHTO   C38 1111   6.670  -0.029   1.449  0.5253  0.4925  0.2353
    3CHTO   H80 1112   6.657  -0.134   1.422 -1.1087  1.0662 -1.3644
    3CHTO   O31 1113   6.679  -0.033   1.591 -0.3096 -0.2329  0.8388
    3CHTO   H68 1114   6.606  -0.071   1.636 -0.6883  0.0553  0.4681
    3CHTO   C39 1115   6.809   0.017   1.383 -0.7093 -0.0728 -0.2744
    3CHTO   H81 1116   6.841   0.103   1.443  2.7983 -0.6940 -1.1454
    3CHTO    N7 1117   6.927  -0.080   1.382 -0.0773 -0.2980 -0.1542
    3CHTO   H73 1118   6.924  -0.148   1.298 -1.1923 -0.3347 -0.0868
    3CHTO   H74 1119   7.020  -0.026   1.394 -1.1641  2.0030 -1.7119
    3CHTO   C40 1120   6.784   0.065   1.236 -0.5210 -0.3368 -0.1649
    3CHTO   H82 1121   6.765  -0.017   1.167 -0.0504  1.0272 -1.9723
    3CHTO   O26 1122   6.675   0.155   1.237  0.6207  0.5694  0.0626
    3CHTO   C41 1123   6.550   0.078   1.248 -1.1405 -0.6249  0.2706
    3CHTO   H83 1124   6.558  -0.018   1.196  2.4357 -1.5475  2.3389
    3CHTO   C52 1125   6.427   0.153   1.187  0.4866  0.3427  0.2923
    3CHTO   O35 1126   6.453   0.182   1.040  0.3295  0.1050  0.7944
    3CHTO   H71 1127   6.479   0.271   1.030  0.4321 -0.0155 -0.1272
    3CHTO   O28 1128   6.894   0.139   1.172 -0.0136 -0.0811  0.4808
    3CHTO   C42 1129   6.892   0.257   1.092  0.7823 -0.1362 -0.5237
    3CHTO   H84 1130   6.989   0.261   1.043 -0.4131  1.4770 -2.9200
    3CHTO   C44 1131   6.881   0.393   1.176  0.3275 -0.1713 -0.3556
    3CHTO   H86 1132   6.796   0.385   1.243 -0.5840  0.9461 -1.3493
    3CHTO   O32 1133   7.002   0.404   1.262  0.6685 -0.2657 -0.1173
    3CHTO   H69 1134   7.075   0.418   1.204  1.3760  0.5846  0.9570
    3CHTO   C48 1135   6.872   0.526   1.089 -0.1206 -0.5758 -0.1613
    3CHTO   H90 1136   6.969   0.541   1.041 -0.6110  2.0897 -0.4364
    3CHTO    N9 1137   6.845   0.650   1.171 -0.0237  0.5901  0.3248
    3CHTO   H77 1138   6.749   0.629   1.216 -0.2139 -0.9269 -0.7655
    3CHTO   H78 1139   6.836   0.729   1.097  0.6411 -0.1556 -0.5568
    3CHTO   C51 1140   6.765   0.512   0.977  0.3851 -0.7316 -0.5011
    3CHTO   H93 1141   6.677   0.491   1.037  1.3499 -3.7111 -0.0660
    3CHTO   O30 1142   6.809   0.399   0.902  0.4975 -0.4214 -0.2510
    3CHTO   C46 1143   6.795   0.269   0.976  0.2489 -0.3900  0.2344
    3CHTO   H88 1144   6.691   0.256   1.005 -0.2062  0.8402 -0.7657
    3CHTO   C53 1145   6.835   0.160   0.880 -0.8144  0.7539 -0.2216
    3CHTO   O72 1146   6.768   0.184   0.755  0.0031  0.1529  0.2844
    3CHTO  H199 1147   6.757   0.277   0.745 -2.3651 -0.1797 -0.5575
    3CHTO   O22 1148   6.759   0.625   0.888 -0.0890  0.2578  0.7323
    3CHTO   C31 1149   6.658   0.658   0.782 -0.1052  0.2541 -0.8369
    3CHTO   H59 1150   6.637   0.560   0.734 -0.5467 -1.3572  2.5171
    3CHTO   C29 1151   6.523   0.716   0.829 -0.6751  0.1909  0.3176
    3CHTO   H57 1152   6.542   0.812   0.879  0.9366  0.7412 -1.3176
    3CHTO   O21 1153   6.467   0.626   0.932 -0.4795 -0.2268  0.0781
    3CHTO   H37 1154   6.509   0.644   1.014  0.3774  2.0393 -0.8121
    3CHTO   C27 1155   6.429   0.735   0.708 -0.0450  0.1344  0.5492
    3CHTO   H55 1156   6.397   0.636   0.670 -1.3171  1.6496 -2.4894
    3CHTO    N5 1157   6.309   0.811   0.743  0.0924  0.7202  0.4762
    3CHTO   H43 1158   6.254   0.752   0.814  2.5957 -0.2967  1.6464
    3CHTO   H44 1159   6.243   0.823   0.660 -1.6992  1.3723  1.9640
    3CHTO   C25 1160   6.510   0.816   0.596  0.1795  0.7904  0.3382
    3CHTO   H53 1161   6.535   0.914   0.638 -2.6230  2.5064 -1.8027
    3CHTO   O17 1162   6.638   0.765   0.559 -0.2474 -0.3146 -0.2194
    3CHTO   C32 1163   6.723   0.738   0.675 -0.0927 -0.4493  0.1611
    3CHTO   H60 1164   6.774   0.825   0.717  1.0472 -0.1454 -1.8274
    3CHTO   C36 1165   6.847   0.662   0.617  0.0373  0.0176  0.2720
    3CHTO   O25 1166   6.911   0.742   0.517  0.0684  0.0739  0.4819
    3CHTO   H40 1167   6.985   0.691   0.488 -0.3966  0.3015 -1.1427
    3CHTO   O15 1168   6.431   0.828   0.459 -0.3965  0.1576  0.0842
    3CHTO   C19 1169   6.418   0.937   0.371 -0.2614  0.2537  0.3930
    3CHTO   H47 1170   6.342   0.895   0.304 -1.6656  2.4201  0.5852
    3CHTO   C20 1171   6.353   1.061   0.434 -0.9062  0.7243  0.0419
    3CHTO   H48 1172   6.418   1.099   0.514 -1.4475 -0.5555  1.1113
    3CHTO   O19 1173   6.230   1.020   0.493  0.1002 -0.5315  0.3403
    3CHTO   H35 1174   6.254   0.977   0.572  0.4726  0.4630  0.7849
    3CHTO   C21 1175   6.342   1.183   0.335 -0.0715 -0.3344  0.1431
    3CHTO   H49 1176   6.264   1.157   0.263  1.0223  1.1262 -1.6099
    3CHTO    N4 1177   6.300   1.307   0.403  0.0055 -0.4974 -0.5289
    3CHTO   H41 1178   6.376   1.332   0.475  0.0973  0.4725 -0.9531
    3CHTO   H42 1179   6.203   1.296   0.451  0.4190 -1.1111  0.1825
    3CHTO   C22 1180   6.465   1.202   0.248 -0.3961  0.4544 -0.1624
    3CHTO   H50 1181   6.549   1.253   0.295 -0.1064 -0.1511 -0.0144
    3CHTO   O14 1182   6.516   1.077   0.198 -0.6047  0.0951  0.6573
    3CHTO   C23 1183   6.546   0.974   0.293  0.2749 -0.6381 -0.1018
    3CHTO   H51 1184   6.620   1.027   0.355  1.2907 -0.2073 -1.6476
    3CHTO   C34 1185   6.611   0.858   0.222  0.2507 -0.4512 -0.3849
    3CHTO   O23 1186   6.746   0.877   0.202 -0.4667  0.2520  0.0054
    3CHTO   H38 1187   6.801   0.855   0.275 -0.2948 -0.4041 -0.3163
    3CHTO   O16 1188   6.434   1.257   0.114  0.4238  0.1670 -0.3150
    3CHTO   C24 1189   6.525   1.370   0.064  0.3370  0.6516 -0.1001
    3CHTO   H52 1190   6.588   1.410   0.143  2.2228  0.2729 -1.3952
    3CHTO   C26 1191   6.434   1.478   0.006 -0.3725 -0.1782 -0.0917
    3CHTO   H54 1192   6.373   1.435  -0.077 -1.1818  3.6186 -1.5936
    3CHTO   O20 1193   6.351   1.528   0.115  0.1975  0.3010  0.0458
    3CHTO   H36 1194   6.395   1.538   0.198  0.1233  2.6770 -0.1596
    3CHTO   C30 1195   6.509   1.592  -0.065  0.3436 -0.0262  0.1658
    3CHTO   H58 1196   6.568   1.655   0.002 -0.0060  0.1843  0.2753
    3CHTO    N6 1197   6.409   1.686  -0.136  0.5246  0.0437  0.2883
    3CHTO   H45 1198   6.452   1.785  -0.137 -1.0764  0.7519 -1.4065
    3CHTO   H46 1199   6.312   1.691  -0.090  0.6316  0.6063  0.4499
    3CHTO   C33 1200   6.626   1.537  -0.156 -0.4672 -0.0239 -0.2907
    3CHTO   H61 1201   6.587   1.501  -0.253 -1.2829 -0.5330  0.2222
    3CHTO   O18 1202   6.701   1.433  -0.094 -0.1358  0.2540 -0.1004
    3CHTO   C28 1203   6.615   1.322  -0.050  0.1138 -0.3101 -0.1348
    3CHTO   H56 1204   6.555   1.287  -0.134 -1.4524  1.0825  0.3863
    3CHTO   C35 1205   6.719   1.212  -0.014 -1.0210  0.1372  0.3104
    3CHTO   O24 1206   6.803   1.240   0.093 -0.3120 -0.0606 -0.2976
    3CHTO   H39 1207   6.884   1.274   0.059  0.6485 -0.7993  1.2061
    3CHTO    O9 1208   6.714   1.646  -0.197 -0.5713 -0.0408  0.5379
    3CHTO   C13 1209   6.825   1.699  -0.069 -0.0475 -0.3999  0.5588
    3CHTO   H26 1210   6.768   1.689   0.025 -0.0229  0.7787  0.7093
    3CHTO   C11 1211   6.876   1.846  -0.097 -0.5678 -0.4438  0.2717
    3CHTO   H24 1212   6.784   1.906  -0.091 -0.7817 -0.5867 -1.4863
    3CHTO    O8 1213   6.924   1.856  -0.230 -0.1548 -0.0181  0.0741
    3CHTO    H3 1214   7.016   1.874  -0.226 -0.0129 -0.7771  0.3487
    3CHTO    C9 1215   6.979   1.878   0.019  0.4605 -0.1068 -0.0301
    3CHTO   H22 1216   6.930   1.847   0.112  1.6728 -0.9353  0.3569
    3CHTO    N2 1217   7.003   2.023   0.036  0.1302  0.6257  0.4374
    3CHTO   H10 1218   6.988   2.079  -0.055 -0.1956 -0.3146 -0.0949
    3CHTO   H11 1219   6.928   2.050   0.109  1.1541  1.2518  1.2895
    3CHTO    C7 1220   7.109   1.789  -0.005  0.5008  0.3554 -0.5562
    3CHTO   H20 1221   7.163   1.802   0.091 -1.9506  0.7043  0.8322
    3CHTO    O4 1222   7.076   1.652  -0.015 -0.0340  0.0955  0.0163
    3CHTO   C14 1223   6.950   1.598  -0.067 -0.2934 -0.0534 -0.1296
    3CHTO   H27 1224   6.928   1.513   0.002 -0.2947 -0.1252 -0.2193
    3CHTO   C18 1225   6.983   1.534  -0.206  0.0958 -0.2592 -0.2928
    3CHTO   O13 1226   7.054   1.618  -0.297 -0.0849 -0.1553  0.1471
    3CHTO    H7 1227   7.141   1.629  -0.266 -0.5224  2.8159  0.3972
    3CHTO    O2 1228   7.212   1.831  -0.132  0.4642  0.0378 -0.2518
    3CHTO    C1 1229   7.332   1.741  -0.133  0.3050  0.1324 -0.9751
    3CHTO   H14 1230   7.306   1.640  -0.171  0.0194 -0.4057  0.5905
    3CHTO    C2 1231   7.419   1.730   0.008 -0.1592 -0.3623  0.0512
    3CHTO   H15 1232   7.420   1.824   0.066  0.0147 -0.7661  0.7127
    3CHTO    O6 1233   7.348   1.627   0.079  0.4225 -0.3746 -0.1109
    3CHTO    H1 1234   7.359   1.616   0.172  0.6275  1.4930  0.1024
    3CHTO    C3 1235   7.567   1.683  -0.009 -0.4342  0.5922  0.1739
    3CHTO   H16 1236   7.563   1.579  -0.043 -0.4351  1.1088 -1.4435
    3CHTO    N1 1237   7.645   1.684   0.117  0.6332 -0.1646 -0.2487
    3CHTO    H8 1238   7.576   1.689   0.201 -1.0158 -1.4936 -1.4813
    3CHTO    H9 1239   7.722   1.759   0.126  1.4735 -0.9784 -0.6316
    3CHTO    C4 1240   7.624   1.765  -0.126  0.0961 -0.1229  0.1947
    3CHTO   H17 1241   7.621   1.871  -0.100 -0.3548 -0.5478  1.9344
    3CHTO    O1 1242   7.547   1.735  -0.241  0.0709  0.1192  0.3628
    3CHTO    C5 1243   7.420   1.787  -0.252 -0.2713 -0.4828 -0.2530
    3CHTO   H18 1244   7.425   1.896  -0.249  0.0156 -0.5276  3.5420
    3CHTO   C16 1245   7.383   1.736  -0.395 -0.7057  0.2853 -0.2286
    3CHTO   O11 1246   7.256   1.793  -0.432  0.2456 -0.2943  0.0880
    3CHTO    H5 1247   7.271   1.795  -0.525  0.9141  2.8148  0.2124
    3CHTO    O3 1248   7.752   1.727  -0.161 -0.2617 -0.1591 -0.2753
    3CHTO    C6 1249   7.824   1.815  -0.256  0.3664  0.4861 -0.1110
    3CHTO   H19 1250   7.758   1.884  -0.308  0.5234 -0.1893 -1.2262
    3CHTO    C8 1251   7.931   1.901  -0.184 -0.3968 -0.1949 -0.1589
    3CHTO   H21 1252   7.993   1.838  -0.121 -1.3244  1.0077  1.9854
    3CHTO    O7 1253   7.861   1.996  -0.096 -0.4605 -0.3704 -0.3099
    3CHTO    H2 1254   7.821   1.961  -0.018 -1.9757  1.1793 -0.3588
    3CHTO   C12 1255   8.021   1.965  -0.294 -0.2223 -0.2889  0.3679
    3CHTO   H25 1256   7.952   2.028  -0.355 -2.2038 -0.4224  2.4375
    3CHTO    N3 1257   8.133   2.046  -0.240 -0.2721  0.4963 -0.2817
    3CHTO   H12 1258   8.211   1.986  -0.197 -0.8328 -0.1398 -0.1406
    3CHTO   H13 1259   8.089   2.124  -0.179 -3.1487 -0.8143 -0.6093
    3CHTO   C15 1260   8.075   1.856  -0.388  0.2713 -0.2224 -0.0980
    3CHTO   H28 1261   8.146   1.789  -0.339 -1.2180 -1.4395  0.4102
    3CHTO   O10 1262   8.160   1.909  -0.513  0.2867  0.6974  0.2299
    3CHTO    H4 1263   8.216   1.976  -0.479 -0.6985  0.7958  1.6776
    3CHTO    O5 1264   7.971   1.798  -0.462  0.2590 -0.0584 -0.0853
    3CHTO   C10 1265   7.886   1.723  -0.367 -0.0530  0.0670 -0.2416
    3CHTO   H23 1266   7.947   1.649  -0.315  0.2120  0.7790  0.4585
    3CHTO   C17 1267   7.787   1.644  -0.444  0.2717  0.2426  0.4948
    3CHTO   O12 1268   7.851   1.559  -0.532 -0.3059  0.0046 -0.0663
    3CHTO    H6 1269   7.890   1.613  -0.597 -1.0249  0.9946  0.3196
    4CHTO  H203 1270   5.999   7.044   1.728  1.6548  0.4509 -2.9474
    4CHTO   O82 1271   6.062   7.100   1.769  0.7125 -0.7647  0.2573
    4CHTO  C123 1272   6.012   7.231   1.774 -0.9266 -0.6208  0.1128
    4CHTO  H227 1273   5.924   7.233   1.839 -1.1581  1.9056 -0.2238
    4CHTO   O77 1274   6.121   7.302   1.833 -0.5726  0.0993  0.5012
    4CHTO  C118 1275   6.081   7.439   1.867  0.4289 -0.1845  0.0043
    4CHTO  H222 1276   6.009   7.440   1.949  0.5702  1.6707  0.1190
    4CHTO  C125 1277   6.213   7.496   1.927  0.2052 -0.8512 -0.1296
    4CHTO   O84 1278   6.313   7.514   1.831 -0.2471 -0.3206  0.4547
    4CHTO  H205 1279   6.363   7.588   1.862  0.2670 -1.0237  1.3107
    4CHTO  C114 1280   6.035   7.526   1.748  0.4102 -0.2271 -0.5676
    4CHTO  H218 1281   6.121   7.562   1.690 -0.9618 -0.0403 -2.5465
    4CHTO  C116 1282   5.940   7.443   1.654 -0.8412  0.4240 -0.1684
    4CHTO  H220 1283   5.839   7.439   1.700 -0.1584 -0.9834  1.2986
    4CHTO   O79 1284   5.915   7.519   1.536 -0.0032  0.0467  0.1086
    4CHTO  H201 1285   5.965   7.491   1.463  0.0747  0.0557  0.1592
    4CHTO  C120 1286   5.996   7.300   1.633 -0.1247  0.4967  0.2361
    4CHTO  H224 1287   6.097   7.316   1.591 -0.8838 -0.4093 -1.9602
    4CHTO   N21 1288   5.922   7.214   1.534  0.1152 -0.4591  0.0364
    4CHTO  H211 1289   5.847   7.144   1.568  0.0178  0.7369  2.4101
    4CHTO  H212 1290   5.874   7.273   1.457 -1.6481 -0.9949  0.7004
    4CHTO   O75 1291   5.956   7.636   1.797 -0.2632 -0.4239  0.0156
    4CHTO  C112 1292   5.981   7.767   1.722 -0.7110 -0.6046 -0.8237
    4CHTO  H216 1293   5.984   7.740   1.616  0.8238 -0.2445 -0.8879
    4CHTO   O73 1294   6.108   7.813   1.766  0.6811  0.0249  0.0089
    4CHTO  C113 1295   6.159   7.936   1.721 -0.0931 -0.4534  0.2245
    4CHTO  H217 1296   6.187   7.925   1.614  1.1161 -0.9062  0.5906
    4CHTO  C124 1297   6.295   7.964   1.790 -0.2077 -0.0019  0.5085
    4CHTO   O83 1298   6.391   7.877   1.739  0.6792  0.5270  0.1015
    4CHTO  H204 1299   6.406   7.893   1.648 -1.0869  2.0172  0.0401
    4CHTO  C109 1300   6.061   8.057   1.734 -0.1582 -0.3427  0.3405
    4CHTO  H213 1301   6.069   8.092   1.838 -2.3458  4.1018 -0.8767
    4CHTO  C110 1302   5.917   8.021   1.704 -0.0844  0.3373  1.0206
    4CHTO  H214 1303   5.915   8.017   1.595 -0.4832 -0.3646  1.0534
    4CHTO   O78 1304   5.825   8.123   1.737  0.2029  0.9334  0.2377
    4CHTO  H200 1305   5.805   8.119   1.829  1.8148 -2.3815  0.4982
    4CHTO  C111 1306   5.875   7.878   1.756 -0.2832  0.5345  0.6373
    4CHTO  H215 1307   5.860   7.887   1.864  0.3882 -0.0721  0.7802
    4CHTO   N19 1308   5.745   7.835   1.699  0.4826  0.0747  0.4321
    4CHTO  H207 1309   5.748   7.853   1.592 -2.0875 -1.0231  0.1199
    4CHTO  H208 1310   5.713   7.733   1.715  0.0480  0.0278 -0.6452
    4CHTO   O74 1311   6.104   8.173   1.648  0.1277 -0.1795 -0.5114
    4CHTO  C115 1312   6.150   8.301   1.732 -0.2432  0.5430  0.6248
    4CHTO  H219 1313   6.085   8.318   1.818 -2.8702 -1.3983 -0.9029
    4CHTO   O76 1314   6.308   8.288   1.786 -0.2059 -0.0889  0.3629
    4CHTO  C122 1315   6.398   8.308   1.665  0.0701  0.1187  0.2909
    4CHTO  H226 1316   6.373   8.235   1.588  0.1511  1.2424 -0.8187
    4CHTO  C126 1317   6.549   8.277   1.712  0.7090 -0.0214 -0.0530
    4CHTO   O85 1318   6.558   8.140   1.740  0.5062 -0.2839  0.4497
    4CHTO  H206 1319   6.506   8.094   1.678 -2.4186  1.2785  1.6581
    4CHTO  C121 1320   6.386   8.455   1.602 -0.3424 -0.6854  0.2321
    4CHTO  H225 1321   6.470   8.510   1.649 -1.3019 -0.4215  1.6621
    4CHTO   O81 1322   6.403   8.452   1.461  0.3711 -0.0284  0.8565
    4CHTO  H202 1323   6.376   8.377   1.411  1.4618  0.0170  0.1752
    4CHTO  C119 1324   6.252   8.518   1.654  0.7039 -0.2368  0.2886
    4CHTO  H223 1325   6.269   8.543   1.759 -0.4969  1.8277  0.0279
    4CHTO  C117 1326   6.135   8.424   1.635 -0.4176  0.1466 -0.4173
    4CHTO  H221 1327   6.129   8.369   1.540  1.8562  2.1460 -1.7664
    4CHTO   N20 1328   5.999   8.498   1.654 -0.1837 -0.0682 -0.4927
    4CHTO  H209 1329   5.963   8.485   1.755  0.6396  1.8242  0.0742
    4CHTO  H210 1330   5.921   8.449   1.598  0.1229  0.8765 -1.7646
    4CHTO   O80 1331   6.241   8.672   1.583  0.3499 -0.0670 -0.3450
    4CHTO  C103 1332   6.274   8.787   1.661  0.6632  0.3169 -0.2150
    4CHTO  H190 1333   6.196   8.795   1.736  1.4824 -0.0703  0.6948
    4CHTO  C101 1334   6.417   8.799   1.728  1.0995 -0.4419  0.3912
    4CHTO  H188 1335   6.492   8.765   1.656  1.9456  0.2199  0.9497
    4CHTO   O68 1336   6.415   8.703   1.845  0.1607 -0.1016 -0.0135
    4CHTO  H168 1337   6.418   8.730   1.934  1.0881 -0.5802  0.1130
    4CHTO   C99 1338   6.451   8.947   1.771  0.1585 -0.3950  0.1108
    4CHTO  H186 1339   6.369   8.982   1.837 -0.0106  0.9181 -0.7673
    4CHTO   N17 1340   6.583   8.976   1.839 -0.3741  0.3231 -0.0108
    4CHTO  H174 1341   6.649   8.894   1.815  1.8047  1.7752  0.8328
    4CHTO  H175 1342   6.613   9.079   1.830  0.9316  0.0384  0.9940
    4CHTO   C97 1343   6.427   9.040   1.651  0.4747  0.1850  0.3079
    4CHTO  H184 1344   6.483   9.014   1.560 -1.4767 -2.1431 -0.2773
    4CHTO   O64 1345   6.290   9.033   1.623  0.0644  0.3818  0.4205
    4CHTO  C104 1346   6.259   8.910   1.559 -0.4086 -0.0912  0.3813
    4CHTO  H191 1347   6.320   8.890   1.471  1.1490  0.8705  1.2218
    4CHTO  C108 1348   6.120   8.926   1.511  0.9236  0.0595 -0.6835
    4CHTO   O71 1349   6.087   9.026   1.414 -0.3634  0.2849  0.3043
    4CHTO  H171 1350   6.019   9.077   1.454 -1.8565 -0.3334 -1.3795
    4CHTO   O62 1351   6.440   9.178   1.699 -0.2066  0.5774  0.1796
    4CHTO   C91 1352   6.469   9.274   1.598 -0.3881 -0.6916 -0.0875
    4CHTO  H178 1353   6.430   9.232   1.505 -1.4314  0.8892 -0.3949
    4CHTO   C92 1354   6.622   9.284   1.573 -0.6960 -0.2048 -0.0455
    4CHTO  H179 1355   6.680   9.309   1.663 -0.8517 -0.3546  0.0971
    4CHTO   O66 1356   6.674   9.156   1.528 -0.3941  0.4289 -0.0293
    4CHTO  H166 1357   6.722   9.115   1.597 -0.1075 -1.2827 -1.2027
    4CHTO   C93 1358   6.660   9.391   1.457 -0.3804  0.8655  0.9381
    4CHTO  H180 1359   6.658   9.337   1.361 -0.0260  2.2195  0.1504
    4CHTO   N16 1360   6.798   9.438   1.468 -0.2705  0.1574 -0.0743
    4CHTO  H172 1361   6.860   9.378   1.403 -2.0051 -0.5979 -1.0564
    4CHTO  H173 1362   6.836   9.425   1.568 -2.0826 -3.7170  0.2001
    4CHTO   C94 1363   6.556   9.508   1.449  0.5005 -0.1116  0.8415
    4CHTO  H181 1364   6.602   9.606   1.434  1.1085 -0.1963  2.0752
    4CHTO   O61 1365   6.479   9.529   1.571  1.0260 -0.3921 -0.3603
    4CHTO   C95 1366   6.404   9.421   1.630 -0.2379 -0.0120 -0.0797
    4CHTO  H182 1367   6.396   9.438   1.737  1.6602 -2.2995  0.4792
    4CHTO  C106 1368   6.256   9.427   1.574  0.2754 -0.5378  0.1037
    4CHTO   O69 1369   6.185   9.542   1.622 -0.8451 -0.3170 -0.1551
    4CHTO  H169 1370   6.098   9.513   1.644 -0.7177 -1.1664 -0.7401
    4CHTO   O63 1371   6.486   9.474   1.317  0.3843  0.0619 -0.9879
    4CHTO   C96 1372   6.551   9.489   1.177  0.9176 -1.1953  0.5555
    4CHTO  H183 1373   6.655   9.456   1.182  1.2364 -0.3822 -0.4181
    4CHTO   C98 1374   6.545   9.641   1.130 -0.9751  0.1774 -0.8290
    4CHTO  H185 1375   6.444   9.682   1.143 -0.0563  1.3354  3.6823
    4CHTO   O67 1376   6.625   9.721   1.218  0.4604 -0.4157  0.2259
    4CHTO  H167 1377   6.696   9.681   1.265  1.3146 -0.4520 -1.0698
    4CHTO  C102 1378   6.583   9.660   0.975  0.0430 -0.5269 -0.0811
    4CHTO  H189 1379   6.690   9.637   0.963  0.3789  0.1278  1.5073
    4CHTO   N18 1380   6.566   9.798   0.923 -0.3412 -0.0633  0.2859
    4CHTO  H176 1381   6.604   9.864   0.999  0.1507  0.4908 -0.4298
    4CHTO  H177 1382   6.638   9.824   0.846 -0.3148  1.5107  0.8378
    4CHTO  C105 1383   6.499   9.556   0.895 -0.1948  0.0699  0.1968
    4CHTO  H192 1384   6.396   9.593   0.889 -0.1498 -0.0015 -1.0396
    4CHTO   O65 1385   6.498   9.423   0.946  0.8000 -0.2202 -0.2207
    4CHTO  C100 1386   6.464   9.398   1.081 -0.2092 -0.2869  0.1635
    4CHTO  H187 1387   6.357   9.423   1.096 -0.0830  0.0411  0.5198
    4CHTO  C107 1388   6.478   9.247   1.110  0.0939  0.0084 -0.2461
    4CHTO   O70 1389   6.454   9.205   1.241 -0.1698 -0.1526  0.2686
    4CHTO  H170 1390   6.517   9.244   1.298 -1.0188  1.2262  0.2646
    4CHTO   O57 1391   6.574   9.555   0.747  0.2607  0.4224 -0.1785
    4CHTO   C85 1392   6.535   9.479   0.628  0.3802  0.7621 -0.4820
    4CHTO  H157 1393   6.425   9.462   0.625  0.7236 -1.7792  0.3133
    4CHTO   C83 1394   6.586   9.325   0.633 -0.5603  0.2930  0.1871
    4CHTO  H155 1395   6.513   9.285   0.704 -0.8663  1.5306  0.5859
    4CHTO   O56 1396   6.720   9.314   0.688 -0.4725 -0.2657  0.7133
    4CHTO  H135 1397   6.739   9.388   0.742  3.8253 -0.9636  0.3556
    4CHTO   C81 1398   6.562   9.261   0.496 -0.3531 -0.2145  0.1638
    4CHTO  H153 1399   6.457   9.275   0.472 -0.5394  0.7070  1.4346
    4CHTO   N14 1400   6.579   9.113   0.481  0.0030  0.0771 -1.1484
    4CHTO  H141 1401   6.512   9.066   0.549 -1.0115  0.6277 -1.7576
    4CHTO  H142 1402   6.678   9.078   0.502  0.7878  1.7295 -1.9599
    4CHTO   C79 1403   6.655   9.349   0.398 -0.0165 -0.0456  0.5223
    4CHTO  H151 1404   6.649   9.304   0.298 -0.6105  3.3405 -1.0324
    4CHTO   O52 1405   6.605   9.486   0.380  0.5864 -0.2810 -0.4726
    4CHTO   C86 1406   6.591   9.558   0.505  0.0607 -0.2149 -0.8444
    4CHTO  H158 1407   6.694   9.590   0.529 -0.4196  1.3744 -0.8580
    4CHTO   C90 1408   6.512   9.693   0.479  0.1534  0.5476  0.2169
    4CHTO   O60 1409   6.484   9.764   0.596 -0.1342  0.0193  0.0653
    4CHTO  H138 1410   6.562   9.808   0.622  1.0276 -1.1948 -1.3293
    4CHTO   O50 1411   6.794   9.335   0.437  0.2211  0.3923 -0.1594
    4CHTO   C73 1412   6.922   9.403   0.423 -0.8087  0.4494  0.4007
    4CHTO  H145 1413   6.920   9.492   0.487 -1.4662  1.2276 -0.6924
    4CHTO   C74 1414   6.933   9.450   0.276 -0.0846 -0.4379 -0.6044
    4CHTO  H146 1415   6.847   9.517   0.260 -0.2215 -0.4069  0.2347
    4CHTO   O54 1416   7.049   9.533   0.270  0.1790 -0.1242  0.1632
    4CHTO  H133 1417   7.036   9.617   0.230  3.0312 -0.2286 -1.1760
    4CHTO   C75 1418   6.937   9.330   0.181  0.4750  0.7017  0.5762
    4CHTO  H147 1419   6.838   9.281   0.185 -0.0385  1.4761 -1.5386
    4CHTO   N13 1420   6.956   9.373   0.039  0.2417  0.2877  0.4137
    4CHTO  H139 1421   6.927   9.295  -0.029 -1.2632  0.9126  0.3167
    4CHTO  H140 1422   7.063   9.390   0.039  0.5160 -1.4284  0.2809
    4CHTO   C76 1423   7.039   9.221   0.234 -0.3732  0.3273  0.2737
    4CHTO  H148 1424   7.142   9.251   0.218 -0.2109 -0.2946  0.1713
    4CHTO   O49 1425   7.025   9.192   0.378  0.5829  0.0551  0.0177
    4CHTO   C77 1426   7.039   9.312   0.459 -0.2752  0.2182 -0.2106
    4CHTO  H149 1427   7.131   9.365   0.437 -0.0378  0.6219  1.6600
    4CHTO   C88 1428   7.039   9.267   0.605 -0.1454 -0.0213 -0.0181
    4CHTO   O58 1429   7.072   9.375   0.699  0.0178 -0.3290  0.3532
    4CHTO  H136 1430   7.084   9.456   0.653  1.4713 -0.9878 -0.4494
    4CHTO   O51 1431   7.015   9.070   0.162 -0.0774  0.1052 -0.0777
    4CHTO   C78 1432   7.088   8.945   0.247 -0.9461 -0.6395  0.5300
    4CHTO  H150 1433   7.090   8.962   0.357  0.7178 -1.4958  0.6516
    4CHTO   C80 1434   7.238   8.929   0.202  0.0790  0.3814  0.2599
    4CHTO  H152 1435   7.230   8.920   0.091 -0.7285  3.9111 -0.0518
    4CHTO   O55 1436   7.312   9.044   0.237  0.9350 -0.3394 -0.1172
    4CHTO  H134 1437   7.315   9.066   0.328 -1.0192  0.9884 -0.3462
    4CHTO   C84 1438   7.311   8.797   0.252  0.1817  0.3917  0.4327
    4CHTO  H156 1439   7.343   8.812   0.355  0.7610  1.8252  0.0657
    4CHTO   N15 1440   7.447   8.764   0.186  0.0698 -0.0800 -0.2018
    4CHTO  H143 1441   7.521   8.837   0.213  0.5196 -0.6580  0.1391
    4CHTO  H144 1442   7.492   8.668   0.202 -0.0726 -0.0197  0.5979
    4CHTO   C87 1443   7.219   8.676   0.248  0.1403  0.6379  0.2337
    4CHTO  H159 1444   7.206   8.640   0.146  1.9267  1.5581 -0.3348
    4CHTO   O53 1445   7.085   8.719   0.315  0.0624  0.2106 -0.0717
    4CHTO   C82 1446   7.006   8.819   0.240 -0.4515  0.2614  0.5622
    4CHTO  H154 1447   6.984   8.796   0.136 -1.4303  2.2688  0.3020
    4CHTO   C89 1448   6.872   8.833   0.305 -0.5636 -0.2007  0.4338
    4CHTO   O59 1449   6.791   8.929   0.234 -0.2304  0.0553  0.0275
    4CHTO  H137 1450   6.707   8.938   0.276 -0.5667  2.3603 -1.0648
    4CHTO   O45 1451   7.274   8.555   0.355  0.3135  0.2139 -0.0217
    4CHTO   C67 1452   7.251   8.419   0.317  0.3697  0.0740  0.0479
    4CHTO  H124 1453   7.158   8.414   0.261 -0.6219 -0.9946  1.7749
    4CHTO   C65 1454   7.376   8.381   0.222  0.8348  0.1797  0.4526
    4CHTO  H122 1455   7.427   8.467   0.180 -2.8189  0.9305 -2.7751
    4CHTO   O44 1456   7.322   8.316   0.104 -0.7225  0.1592 -0.5070
    4CHTO  H102 1457   7.391   8.298   0.043 -0.4977 -1.4331  0.1806
    4CHTO   C63 1458   7.480   8.308   0.307  0.3748  0.3759  0.6370
    4CHTO  H120 1459   7.494   8.361   0.402  2.2758 -0.9326  1.1130
    4CHTO   N11 1460   7.630   8.311   0.261  0.1641  0.7730 -0.1745
    4CHTO  H108 1461   7.684   8.375   0.327  1.8053 -0.1235 -0.6131
    4CHTO  H109 1462   7.656   8.331   0.159  3.3217 -1.8301  0.0558
    4CHTO   C61 1463   7.419   8.171   0.357 -0.3746  0.0868  0.3677
    4CHTO  H118 1464   7.476   8.142   0.446 -0.5495 -1.8599 -0.1264
    4CHTO   O40 1465   7.277   8.193   0.400  0.3287 -0.0995  0.4805
    4CHTO   C68 1466   7.229   8.326   0.441 -0.8002  0.1030  0.3053
    4CHTO  H125 1467   7.294   8.354   0.527 -1.2913  0.1171  0.6793
    4CHTO   C72 1468   7.093   8.319   0.491 -0.4163  0.2191  0.4525
    4CHTO   O48 1469   7.039   8.444   0.532 -0.3460 -0.4909  0.0196
    4CHTO  H105 1470   6.946   8.432   0.527 -0.3120 -0.1257 -1.6038
    4CHTO   O38 1471   7.430   8.063   0.260 -0.2247 -0.2482  0.0133
    4CHTO   C55 1472   7.381   7.930   0.284  0.8358  0.6422 -0.4136
    4CHTO  H112 1473   7.292   7.931   0.348  0.2823  1.6057 -1.1813
    4CHTO   C56 1474   7.502   7.848   0.357 -0.4312 -0.3138 -0.6286
    4CHTO  H113 1475   7.595   7.888   0.315  0.7186 -0.9305  1.2827
    4CHTO   O42 1476   7.499   7.889   0.494  0.3443  0.2411  0.1379
    4CHTO  H100 1477   7.505   7.982   0.498 -0.0377  0.2423  0.6417
    4CHTO   C57 1478   7.498   7.690   0.336  0.0604 -0.1390  0.3636
    4CHTO  H114 1479   7.442   7.640   0.415  0.0085 -1.3367 -0.4017
    4CHTO   N10 1480   7.630   7.624   0.351 -0.5036 -0.1293 -0.2947
    4CHTO  H106 1481   7.647   7.617   0.457  0.6008 -0.5481 -0.5040
    4CHTO  H107 1482   7.653   7.529   0.306 -1.7862 -0.1895 -0.8714
    4CHTO   C58 1483   7.440   7.656   0.198  0.1293 -0.1437  1.0386
    4CHTO  H115 1484   7.512   7.679   0.118 -0.9007  1.8410  0.6426
    4CHTO   O37 1485   7.323   7.735   0.174  0.3398 -0.1839 -0.2519
    4CHTO   C59 1486   7.338   7.868   0.149 -0.2098 -0.8466 -0.0751
    4CHTO  H116 1487   7.421   7.876   0.080  0.1830 -2.8954  0.1449
    4CHTO   C70 1488   7.204   7.918   0.092 -0.9143 -0.6006  0.6178
    4CHTO   O46 1489   7.166   7.850  -0.033 -0.1579  0.0299 -0.1601
    4CHTO  H103 1490   7.245   7.823  -0.075 -1.7339 -0.6777 -2.7530
    4CHTO   O39 1491   7.386   7.508   0.198  0.0050 -0.3303  0.0556
    4CHTO   C60 1492   7.476   7.413   0.131  0.1329  0.4264 -0.0852
    4CHTO  H117 1493   7.569   7.456   0.095 -0.0505  1.1181  0.2546
    4CHTO   C62 1494   7.514   7.303   0.232  1.1043 -0.3638  0.0574
    4CHTO  H119 1495   7.563   7.361   0.313  2.9993 -1.4558 -0.2906
    4CHTO   O43 1496   7.395   7.256   0.282 -0.4406  0.0352  0.2772
    4CHTO  H101 1497   7.333   7.246   0.212  0.9018  1.1466 -1.1022
    4CHTO   C66 1498   7.616   7.203   0.157  0.1300 -0.0267  0.0916
    4CHTO  H123 1499   7.704   7.259   0.127 -1.4611  0.6736 -3.4752
    4CHTO   N12 1500   7.661   7.093   0.250  0.2179  0.2560 -0.0457
    4CHTO  H110 1501   7.590   7.063   0.326 -0.2944 -2.5093 -1.5609
    4CHTO  H111 1502   7.699   7.008   0.196  0.5597 -0.6829  1.6487
    4CHTO   C69 1503   7.551   7.145   0.023  0.3862 -0.4510 -0.9489
    4CHTO  H126 1504   7.473   7.067   0.037  0.7541 -0.0207  4.3814
    4CHTO   O41 1505   7.498   7.248  -0.060  0.0142  0.4756 -0.4289
    4CHTO   C64 1506   7.405   7.359   0.004  0.1370 -0.3872  0.1718
    4CHTO  H121 1507   7.311   7.308   0.034  1.0501 -1.3503  1.4607
    4CHTO   C71 1508   7.376   7.474  -0.095  0.3875  0.3145  0.0115
    4CHTO   O47 1509   7.268   7.565  -0.066 -0.1139  0.1111  0.2963
    4CHTO  H104 1510   7.262   7.582   0.026  1.8498 -1.4266  0.7396
    4CHTO   O34 1511   7.658   7.073  -0.065  0.0856 -0.1594 -0.5114
    4CHTO   C49 1512   7.693   6.964  -0.182  0.3559  0.3781 -0.0081
    4CHTO   H91 1513   7.705   7.018  -0.276 -0.7379 -0.0819 -0.4177
    4CHTO   C47 1514   7.567   6.869  -0.194  0.0295  0.6265  0.1875
    4CHTO   H89 1515   7.585   6.804  -0.282  0.6094 -1.3626  1.7285
    4CHTO   O33 1516   7.448   6.953  -0.213  0.9403 -0.3829 -0.1204
    4CHTO   H70 1517   7.443   7.000  -0.131  1.9666 -0.3295 -0.0841
    4CHTO   C45 1518   7.560   6.770  -0.067  0.9466  0.4618  0.0135
    4CHTO   H87 1519   7.545   6.837   0.019 -2.3477  0.2773 -0.3600
    4CHTO    N8 1520   7.437   6.685  -0.084  0.3097  0.1691 -0.1289
    4CHTO   H75 1521   7.352   6.745  -0.114 -1.2334 -1.3879  1.0210
    4CHTO   H76 1522   7.455   6.611  -0.160  3.4729  0.7600 -0.0066
    4CHTO   C43 1523   7.699   6.687  -0.031 -0.3487  0.2868 -0.9356
    4CHTO   H85 1524   7.680   6.640   0.065  0.0383  1.4922 -0.2532
    4CHTO   O29 1525   7.808   6.791  -0.023  0.0176  0.2776  0.3793
    4CHTO   C50 1526   7.828   6.887  -0.122  0.8206 -0.7376  0.5877
    4CHTO   H92 1527   7.892   6.966  -0.079 -1.9128  1.9251 -0.0588
    4CHTO   C54 1528   7.915   6.836  -0.247 -0.7828 -0.1858  0.2970
    4CHTO   O36 1529   8.050   6.817  -0.201 -0.7339  0.3330  0.1341
    4CHTO   H72 1530   8.060   6.742  -0.146 -0.2809 -0.9459 -1.6399
    4CHTO   O27 1531   7.740   6.582  -0.126  0.2645 -0.3045 -0.1154
    4CHTO   C37 1532   7.781   6.445  -0.136  0.1505 -0.5401 -0.6835
    4CHTO   H79 1533   7.751   6.412  -0.237 -0.8298  1.2818 -1.0177
    4CHTO   C38 1534   7.943   6.429  -0.123 -0.4501  0.2405 -0.1483
    4CHTO   H80 1535   7.972   6.469  -0.025  2.2029 -0.2422 -0.6895
    4CHTO   O31 1536   8.001   6.501  -0.233  0.1165  0.0658 -0.5544
    4CHTO   H68 1537   8.052   6.573  -0.201  0.2719  0.3107 -1.3231
    4CHTO   C39 1538   7.982   6.277  -0.138  0.2695  0.0301 -0.1265
    4CHTO   H81 1539   7.947   6.244  -0.236 -0.4688  1.9064 -0.5171
    4CHTO    N7 1540   8.130   6.262  -0.132  0.3125  0.4786  0.2629
    4CHTO   H73 1541   8.162   6.239  -0.232 -0.5911 -0.0567  0.0904
    4CHTO   H74 1542   8.174   6.356  -0.102 -0.4443  1.4211 -1.5289
    4CHTO   C40 1543   7.905   6.197  -0.033  0.2030 -0.3056  0.1119
    4CHTO   H82 1544   7.933   6.222   0.069  0.3786 -0.0750  0.0084
    4CHTO   O26 1545   7.765   6.208  -0.055  0.3116  0.3440 -0.4232
    4CHTO   C41 1546   7.717   6.345  -0.032  0.0993  0.0055  0.5145
    4CHTO   H83 1547   7.750   6.377   0.068  1.1539  1.1047 -0.1707
    4CHTO   C52 1548   7.560   6.331  -0.028 -0.1404 -0.5188 -0.2723
    4CHTO   O35 1549   7.510   6.223   0.082  0.3183 -0.1928  0.1137
    4CHTO   H71 1550   7.417   6.219   0.069  0.1823  2.5956  0.0258
    4CHTO   O28 1551   7.900   6.055  -0.058 -0.9041 -0.0678  0.0023
    4CHTO   C42 1552   7.969   5.956   0.023  0.1204  0.6288  0.1899
    4CHTO   H84 1553   8.045   6.015   0.075  1.0773  1.5496 -2.1741
    4CHTO   C44 1554   8.055   5.845  -0.054  0.0814 -0.4086  0.0483
    4CHTO   H86 1555   7.984   5.782  -0.108  0.0220  0.3196 -0.7407
    4CHTO   O32 1556   8.137   5.896  -0.152  0.2910 -0.4926  0.5534
    4CHTO   H69 1557   8.210   5.939  -0.111 -2.5510  2.0207  3.2516
    4CHTO   C48 1558   8.128   5.752   0.051  0.0902  0.1148 -0.3100
    4CHTO   H90 1559   8.209   5.805   0.099  1.8883 -1.5215 -1.4751
    4CHTO    N9 1560   8.191   5.631  -0.011  0.1862  0.0988 -0.7343
    4CHTO   H77 1561   8.295   5.640   0.016 -0.0712 -1.2564  0.8850
    4CHTO   H78 1562   8.169   5.639  -0.116  1.9391  0.0705 -1.1174
    4CHTO   C51 1563   8.021   5.704   0.156 -0.0212  0.3721 -0.1583
    4CHTO   H93 1564   7.951   5.641   0.102  1.6959 -0.2728 -1.6813
    4CHTO   O30 1565   7.956   5.810   0.215  0.6022  0.1454 -0.6770
    4CHTO   C46 1566   7.871   5.888   0.123  0.7940 -0.0677 -0.2469
    4CHTO   H88 1567   7.801   5.818   0.077 -0.7831  1.4076 -0.1188
    4CHTO   C53 1568   7.800   5.992   0.214 -0.3662  0.7912  1.3261
    4CHTO   O72 1569   7.894   6.074   0.284 -0.0147 -0.4297  0.5930
    4CHTO  H199 1570   7.869   6.105   0.369  0.5863  1.6118  0.0516
    4CHTO   O22 1571   8.082   5.625   0.260  0.5924 -0.0552 -0.0314
    4CHTO   C31 1572   8.073   5.658   0.407  0.5821 -0.9109  0.4457
    4CHTO   H59 1573   8.046   5.765   0.416  0.2936 -1.1189  2.0630
    4CHTO   C29 1574   7.966   5.581   0.484 -0.3548  0.1475  0.0503
    4CHTO   H57 1575   7.990   5.473   0.483 -0.8382  0.0423 -0.2905
    4CHTO   O21 1576   7.845   5.586   0.414  0.5550  0.5386  0.1069
    4CHTO   H37 1577   7.779   5.524   0.439  0.4593  0.0125 -1.4223
    4CHTO   C27 1578   7.963   5.628   0.634  0.0342 -0.0063 -0.8207
    4CHTO   H55 1579   7.929   5.732   0.643  0.8439  0.0996  1.6492
    4CHTO    N5 1580   7.877   5.544   0.718 -0.3613 -0.3648 -0.0598
    4CHTO   H43 1581   7.782   5.588   0.743 -0.2901  1.0826 -2.2200
    4CHTO   H44 1582   7.931   5.517   0.808 -2.5282 -0.3451  1.2811
    4CHTO   C25 1583   8.114   5.621   0.688  0.2961  0.1583 -0.6649
    4CHTO   H53 1584   8.140   5.515   0.700  1.6692  0.3815 -1.5600
    4CHTO   O17 1585   8.201   5.699   0.609 -0.1776 -0.3193  0.2124
    4CHTO   C32 1586   8.217   5.654   0.477 -0.2579  0.5298  0.2899
    4CHTO   H60 1587   8.253   5.551   0.470 -0.3638  0.5672 -0.9133
    4CHTO   C36 1588   8.314   5.736   0.398 -0.0478  0.5774  0.3387
    4CHTO   O25 1589   8.296   5.878   0.407  0.3005  0.0221  0.2347
    4CHTO   H40 1590   8.376   5.904   0.451  1.1110 -2.3492  0.2278
    4CHTO   O15 1591   8.124   5.687   0.828  0.0167  0.0650 -0.5184
    4CHTO   C19 1592   8.051   5.792   0.895 -0.0436  0.3158  0.1594
    4CHTO   H47 1593   7.945   5.774   0.871 -0.2040  0.8513  0.4317
    4CHTO   C20 1594   8.067   5.779   1.051  0.0908 -0.4552 -0.1816
    4CHTO   H48 1595   8.173   5.767   1.077  0.1682 -1.0224 -0.7342
    4CHTO   O19 1596   8.003   5.653   1.083 -0.1707  0.6021  0.2325
    4CHTO   H35 1597   8.015   5.636   1.175  2.2056 -1.2307 -0.3420
    4CHTO   C21 1598   7.994   5.894   1.132  0.5094 -0.8356 -0.9888
    4CHTO   H49 1599   7.885   5.891   1.125  0.2169  2.6347  0.9430
    4CHTO    N4 1600   8.022   5.884   1.282 -0.0121  0.6191 -0.0864
    4CHTO   H41 1601   7.934   5.894   1.343 -0.7817 -0.8805 -0.9399
    4CHTO   H42 1602   8.058   5.784   1.299 -1.7823  0.1740  1.1328
    4CHTO   C22 1603   8.020   6.033   1.068  0.0433  0.0633 -0.0308
    4CHTO   H50 1604   8.120   6.065   1.097 -0.2769  0.0024  1.1617
    4CHTO   O14 1605   8.018   6.031   0.926 -0.1241 -0.4837 -0.0637
    4CHTO   C23 1606   8.090   5.935   0.852 -0.1880  0.1424  0.2120
    4CHTO   H51 1607   8.198   5.952   0.868 -0.0724 -0.7558  0.3650
    4CHTO   C34 1608   8.051   5.965   0.701 -0.2329 -0.3550  0.1540
    4CHTO   O23 1609   8.071   6.098   0.661  0.0742 -0.0312 -0.1154
    4CHTO   H38 1610   8.147   6.109   0.608 -0.3542 -0.5965 -0.8631
    4CHTO   O16 1611   7.922   6.131   1.114  0.0603  0.1899  0.2602
    4CHTO   C24 1612   7.956   6.281   1.071 -0.2862 -0.0181  0.0808
    4CHTO   H52 1613   8.017   6.282   0.981  2.0005 -1.5380  1.5531
    4CHTO   C26 1614   8.019   6.365   1.185 -0.9427  0.6159  0.2144
    4CHTO   H54 1615   7.960   6.345   1.277 -0.5612  1.7283  0.7089
    4CHTO   O20 1616   8.158   6.322   1.202 -0.6051 -0.5034  0.5435
    4CHTO   H36 1617   8.170   6.257   1.268  0.5192 -1.8703 -0.9797
    4CHTO   C30 1618   8.025   6.522   1.161 -0.4805  0.1807  0.1776
    4CHTO   H58 1619   8.090   6.548   1.076 -0.6613  1.9689  0.5604
    4CHTO    N6 1620   8.081   6.596   1.283 -0.1043  0.4965  0.0876
    4CHTO   H45 1621   8.188   6.581   1.287 -0.5938 -2.9320  2.5498
    4CHTO   H46 1622   8.056   6.701   1.290  0.8597  0.6942  0.6980
    4CHTO   C33 1623   7.879   6.573   1.121  0.1421  0.1733  0.4563
    4CHTO   H61 1624   7.813   6.551   1.206  0.9749 -0.0004  1.0629
    4CHTO   O18 1625   7.836   6.492   1.011 -0.0160  0.3841 -0.4897
    4CHTO   C28 1626   7.822   6.352   1.037  0.0294  0.0172  1.2904
    4CHTO   H56 1627   7.754   6.343   1.122  0.4338 -0.3295  1.5842
    4CHTO   C35 1628   7.761   6.285   0.915  0.8212 -0.3181  0.1162
    4CHTO   O24 1629   7.849   6.262   0.804 -0.1233  0.1874  0.0715
    4CHTO   H39 1630   7.798   6.236   0.730 -1.9082  2.1242  0.5818
    4CHTO    O9 1631   7.873   6.710   1.094  0.3265  0.2064  0.2189
    4CHTO   C13 1632   7.726   6.773   1.110 -0.0515 -0.0791 -0.1740
    4CHTO   H26 1633   7.646   6.701   1.079  0.7700 -0.8564 -0.5054
    4CHTO   C11 1634   7.725   6.903   1.010 -0.7625 -0.1641  1.1731
    4CHTO   H24 1635   7.728   6.880   0.902 -1.3560  2.4286  0.5567
    4CHTO    O8 1636   7.842   6.995   1.029  0.1907 -0.7856  0.0629
    4CHTO    H3 1637   7.929   6.959   1.032  0.6612  0.2899 -0.3813
    4CHTO    C9 1638   7.581   6.967   1.033  0.2695  0.5321  0.5821
    4CHTO   H22 1639   7.509   6.888   1.008  0.9532  0.0281  0.1719
    4CHTO    N2 1640   7.546   7.074   0.928  0.7400  0.2878  0.0497
    4CHTO   H10 1641   7.636   7.110   0.882 -0.0918  1.6834 -0.5163
    4CHTO   H11 1642   7.480   7.147   0.972  0.4323 -0.3240  0.6227
    4CHTO    C7 1643   7.555   7.004   1.181 -0.1367 -0.1348  0.2735
    4CHTO   H20 1644   7.447   7.029   1.192  0.1593  0.4038  2.2012
    4CHTO    O4 1645   7.579   6.891   1.264  0.0829 -0.2650  0.1146
    4CHTO   C14 1646   7.704   6.818   1.262 -0.6710  0.6469  0.2670
    4CHTO   H27 1647   7.683   6.725   1.320  3.6213 -1.0629 -0.7257
    4CHTO   C18 1648   7.830   6.880   1.322  0.5723  0.3899  0.7168
    4CHTO   O13 1649   7.818   6.868   1.467 -0.7016  0.3316 -0.2972
    4CHTO    H7 1650   7.901   6.878   1.511 -1.5049 -1.2450  1.6694
    4CHTO    O2 1651   7.646   7.122   1.245 -0.0205  0.6776 -0.0512
    4CHTO    C1 1652   7.590   7.235   1.317 -0.3797  0.6503  0.4260
    4CHTO   H14 1653   7.479   7.233   1.313 -0.3410 -3.4687 -1.0851
    4CHTO    C2 1654   7.647   7.375   1.265  0.3181  0.2520  0.3348
    4CHTO   H15 1655   7.757   7.366   1.261  0.3002 -0.1219  0.7068
    4CHTO    O6 1656   7.616   7.397   1.128  0.3604  0.3944  0.0695
    4CHTO    H1 1657   7.689   7.433   1.082  1.3760 -0.8766  0.6785
    4CHTO    C3 1658   7.605   7.501   1.349  0.2937  0.5507 -0.2512
    4CHTO   H16 1659   7.498   7.522   1.332  0.1016 -1.0732 -1.1429
    4CHTO    N1 1660   7.671   7.630   1.307 -0.1604  0.0558 -0.4703
    4CHTO    H8 1661   7.738   7.658   1.387  1.4810 -1.3573 -1.2997
    4CHTO    H9 1662   7.740   7.619   1.224  1.2214 -0.1181  0.6785
    4CHTO    C4 1663   7.626   7.463   1.501  0.0167  0.1217  0.1500
    4CHTO   H17 1664   7.732   7.459   1.527 -0.2359  1.4701  1.4454
    4CHTO    O1 1665   7.572   7.334   1.537  0.4462 -0.2836 -0.3933
    4CHTO    C5 1666   7.620   7.220   1.473  0.0171 -0.7576  0.3710
    4CHTO   H18 1667   7.728   7.211   1.481  0.1312 -0.3409 -0.5543
    4CHTO   C16 1668   7.553   7.099   1.538 -0.0074  0.2546  0.0315
    4CHTO   O11 1669   7.419   7.071   1.487 -0.0796 -0.5574 -0.3107
    4CHTO    H5 1670   7.415   7.049   1.396 -0.1548  0.7043 -0.6256
    4CHTO    O3 1671   7.554   7.544   1.594 -0.0171  0.7277  0.2269
    4CHTO    C6 1672   7.614   7.651   1.662 -0.5358 -0.3554  0.2981
    4CHTO   H19 1673   7.703   7.683   1.608 -1.8755  0.1240 -1.6810
    4CHTO    C8 1674   7.515   7.772   1.662  0.0740 -0.3560  0.7551
    4CHTO   H21 1675   7.414   7.735   1.677 -0.3833  0.3438 -0.4923
    4CHTO    O7 1676   7.532   7.834   1.525 -0.3815 -0.3368 -0.3932
    4CHTO    H2 1677   7.466   7.898   1.509  0.6684  0.9105  0.1699
    4CHTO   C12 1678   7.539   7.895   1.762 -0.4007  0.1907 -0.7539
    4CHTO   H25 1679   7.621   7.962   1.731  1.6813 -2.3319 -0.9080
    4CHTO    N3 1680   7.413   7.978   1.772 -0.3238  0.1827 -0.1993
    4CHTO   H12 1681   7.410   8.030   1.678  1.4918  1.9902  0.6999
    4CHTO   H13 1682   7.326   7.916   1.787  0.7227 -2.0134 -2.8741
    4CHTO   C15 1683   7.585   7.832   1.902  0.0165 -0.0741  0.0965
    4CHTO   H28 1684   7.508   7.779   1.957  1.5791  0.3755  2.7735
    4CHTO   O10 1685   7.646   7.948   1.993  0.0489 -0.6482  0.5358
    4CHTO    H4 1686   7.593   8.025   2.001  2.1650  1.2396 -2.3114
    4CHTO    O5 1687   7.694   7.739   1.879 -0.4301 -0.2711 -0.1207
    4CHTO   C10 1688   7.652   7.620   1.810 -0.3933  0.2993 -0.9186
    4CHTO   H23 1689   7.569   7.580   1.868 -1.4097 -0.9981 -3.2205
    4CHTO   C17 1690   7.774   7.527   1.817  0.1236  0.5894 -0.0511
    4CHTO   O12 1691   7.893   7.581   1.765 -0.8152  0.2275  0.5645
    4CHTO    H6 1692   7.899   7.577   1.671 -1.1513 -0.1798  0.5596
    5CHTO  H203 1693   8.510   3.368   0.413  0.4973  0.2258  0.9033
    5CHTO   O82 1694   8.437   3.422   0.435 -0.3780 -0.4575 -0.2963
    5CHTO  C123 1695   8.404   3.376   0.572 -0.7038  0.3893  0.4411
    5CHTO  H227 1696   8.480   3.302   0.602 -2.1563 -1.3271  0.0184
    5CHTO   O77 1697   8.412   3.499   0.650 -0.4258  0.3059  0.3061
    5CHTO  C118 1698   8.426   3.459   0.786  0.9737  0.0235  0.2655
    5CHTO  H222 1699   8.496   3.374   0.790 -0.5090 -1.3262 -1.5587
    5CHTO  C125 1700   8.478   3.585   0.865  0.1470  0.1972 -0.3403
    5CHTO   O84 1701   8.563   3.550   0.976  0.4588 -0.3149 -0.0125
    5CHTO  H205 1702   8.527   3.481   1.028 -0.6712  0.2880  0.0249
    5CHTO  C114 1703   8.283   3.418   0.822  0.8293  0.4685 -0.1846
    5CHTO  H218 1704   8.214   3.499   0.797  2.0766  1.6667  0.1862
    5CHTO  C116 1705   8.236   3.298   0.734 -0.0662  0.0120  0.1536
    5CHTO  H220 1706   8.290   3.208   0.771 -0.0877  0.2853  0.8402
    5CHTO   O79 1707   8.099   3.259   0.759  0.1486  0.2320 -0.2178
    5CHTO  H201 1708   8.026   3.297   0.715 -0.0934 -2.1308 -1.9318
    5CHTO  C120 1709   8.258   3.305   0.584 -0.4314  0.6913  0.4492
    5CHTO  H224 1710   8.180   3.372   0.541  0.1980 -0.0108 -1.8127
    5CHTO   N21 1711   8.249   3.164   0.529  0.5104 -0.3333 -0.0916
    5CHTO  H211 1712   8.220   3.165   0.424 -0.2848 -1.2438  0.1097
    5CHTO  H212 1713   8.184   3.102   0.589 -1.0869  1.4285  0.0395
    5CHTO   O75 1714   8.295   3.391   0.968 -0.4633 -0.4254  0.1718
    5CHTO  C112 1715   8.150   3.400   1.056  0.0373  0.5179 -0.5545
    5CHTO  H216 1716   8.062   3.394   0.991 -0.1838  0.4010 -0.2434
    5CHTO   O73 1717   8.156   3.522   1.129  0.2962 -0.1794  0.3117
    5CHTO  C113 1718   8.049   3.540   1.223  0.0225 -0.3305  0.7050
    5CHTO  H217 1719   7.960   3.535   1.157  0.1122  1.6973  0.4178
    5CHTO  C124 1720   8.061   3.672   1.290 -0.1060  0.0350  0.1681
    5CHTO   O83 1721   8.022   3.774   1.208 -0.0566 -0.4169 -0.4633
    5CHTO  H204 1722   7.929   3.784   1.213 -0.2391 -0.4596 -3.0784
    5CHTO  C109 1723   8.042   3.439   1.340 -1.0935 -0.0700 -0.1739
    5CHTO  H213 1724   8.136   3.451   1.398 -1.0050  1.7051 -0.6373
    5CHTO  C110 1725   8.029   3.297   1.269 -0.5847  0.5752 -0.7481
    5CHTO  H214 1726   7.929   3.287   1.225 -0.5707  0.3378 -0.7302
    5CHTO   O78 1727   8.030   3.193   1.364  0.6851  0.6717 -0.0295
    5CHTO  H200 1728   8.029   3.109   1.322  1.3783  1.3816 -1.5029
    5CHTO  C111 1729   8.138   3.281   1.164 -0.4736 -0.0241 -0.0503
    5CHTO  H215 1730   8.238   3.276   1.209 -0.1522 -0.4686 -0.8075
    5CHTO   N19 1731   8.123   3.155   1.084  0.0763 -0.6351  0.1733
    5CHTO  H207 1732   8.207   3.137   1.019 -0.0804 -2.6578  0.5018
    5CHTO  H208 1733   8.081   3.064   1.125  2.4033 -0.3406  3.3435
    5CHTO   O74 1734   7.928   3.456   1.423  0.5193 -0.3440  0.3049
    5CHTO  C115 1735   7.927   3.403   1.552  0.2428 -0.2143 -0.9663
    5CHTO  H219 1736   8.008   3.333   1.571  0.5959  0.5420  0.3794
    5CHTO   O76 1737   7.945   3.507   1.660 -0.3560 -0.7108  0.1797
    5CHTO  C122 1738   7.855   3.621   1.644  0.2973  0.5025  0.7909
    5CHTO  H226 1739   7.911   3.676   1.568  0.9335 -0.3288  0.6524
    5CHTO  C126 1740   7.856   3.717   1.770  0.3234 -0.2481 -0.1125
    5CHTO   O85 1741   7.985   3.783   1.797 -0.6786  0.1811 -0.2163
    5CHTO  H206 1742   7.983   3.872   1.828 -1.5702  0.2609 -0.5152
    5CHTO  C121 1743   7.706   3.572   1.600 -0.7076  0.5525  0.4194
    5CHTO  H225 1744   7.623   3.630   1.645 -1.6821  0.8127 -1.6511
    5CHTO   O81 1745   7.690   3.608   1.465 -0.0368 -0.3572  1.1218
    5CHTO  H202 1746   7.739   3.549   1.410  0.4030  0.0196  1.1099
    5CHTO  C119 1747   7.689   3.422   1.637 -0.3507 -0.1204 -0.3687
    5CHTO  H223 1748   7.719   3.430   1.741 -1.1054  0.4056 -0.1884
    5CHTO  C117 1749   7.791   3.324   1.569 -0.8466  0.0701  0.4261
    5CHTO  H221 1750   7.766   3.289   1.469  0.1193 -1.4916  0.7256
    5CHTO   N20 1751   7.806   3.192   1.643  0.1439  0.2437 -0.6524
    5CHTO  H209 1752   7.800   3.104   1.581  0.4359  0.4029 -0.9091
    5CHTO  H210 1753   7.893   3.190   1.707 -0.7106  0.7025  0.5429
    5CHTO   O80 1754   7.536   3.373   1.651  0.1340 -0.4665  0.2452
    5CHTO  C103 1755   7.436   3.370   1.522  0.8541 -0.6932 -0.2156
    5CHTO  H190 1756   7.450   3.466   1.470 -0.0877  1.4782  3.3854
    5CHTO  C101 1757   7.449   3.246   1.430  0.4442  0.1698  0.5454
    5CHTO  H188 1758   7.454   3.161   1.498  1.8000 -0.2717 -0.1066
    5CHTO   O68 1759   7.564   3.267   1.337  0.3210 -0.6001  0.4712
    5CHTO  H168 1760   7.641   3.225   1.372  1.6347  0.5618 -0.9521
    5CHTO   C99 1761   7.318   3.215   1.345  0.6108  0.1757 -0.1936
    5CHTO  H186 1762   7.308   3.297   1.271  0.2393 -0.8304 -1.2821
    5CHTO   N17 1763   7.320   3.079   1.278  0.0580  0.0147 -0.1025
    5CHTO  H174 1764   7.226   3.027   1.286  0.5311 -0.9751 -0.8769
    5CHTO  H175 1765   7.360   3.070   1.178 -0.6182  2.3047 -0.6298
    5CHTO   C97 1766   7.189   3.228   1.429 -0.0961  0.5098 -0.4174
    5CHTO  H184 1767   7.185   3.147   1.503  0.8770 -0.1186 -1.0458
    5CHTO   O64 1768   7.181   3.361   1.495 -0.2019 -0.6634  0.5083
    5CHTO  C104 1769   7.289   3.376   1.592  0.0476 -0.2583 -0.3237
    5CHTO  H191 1770   7.291   3.300   1.670 -0.0833 -0.4841 -0.5391
    5CHTO  C108 1771   7.278   3.509   1.661  0.6279  0.3574  0.3845
    5CHTO   O71 1772   7.151   3.537   1.721 -0.0572 -0.0473 -0.3434
    5CHTO  H171 1773   7.152   3.511   1.811  0.3802 -2.5658 -1.0254
    5CHTO   O62 1774   7.069   3.216   1.353 -0.4863 -0.5244  0.2071
    5CHTO   C91 1775   6.948   3.188   1.431 -0.1236 -0.7897  0.0696
    5CHTO  H178 1776   6.978   3.183   1.536  2.4291  1.6453 -0.4884
    5CHTO   C92 1777   6.904   3.042   1.389  0.8436  0.4633 -0.2079
    5CHTO  H179 1778   6.914   3.026   1.281 -2.1130 -0.6094 -0.3745
    5CHTO   O66 1779   7.012   2.949   1.432  0.2011 -0.2304  0.1445
    5CHTO  H166 1780   7.017   2.960   1.525 -0.1695  3.3266 -0.1774
    5CHTO   C93 1781   6.763   3.009   1.455 -0.5631  0.6384  0.3980
    5CHTO  H180 1782   6.779   3.020   1.563  0.2799 -0.4720  0.4056
    5CHTO   N16 1783   6.730   2.869   1.420  0.1710 -0.5448  0.5871
    5CHTO  H172 1784   6.634   2.860   1.371  0.5996 -3.9664  0.2221
    5CHTO  H173 1785   6.735   2.820   1.516  0.0086 -1.8617 -0.0533
    5CHTO   C94 1786   6.657   3.110   1.408 -0.5440 -0.0940 -0.0355
    5CHTO  H181 1787   6.664   3.122   1.300  0.6812  3.6750  0.3789
    5CHTO   O61 1788   6.706   3.237   1.466  0.4007  0.6641 -0.0188
    5CHTO   C95 1789   6.832   3.290   1.412 -0.6470 -0.4371  0.9944
    5CHTO  H182 1790   6.831   3.309   1.304 -0.8572  1.7345  1.3447
    5CHTO  C106 1791   6.852   3.434   1.481  0.0203  0.3310  0.1340
    5CHTO   O69 1792   6.876   3.420   1.624  0.4665  0.7138 -0.2122
    5CHTO  H169 1793   6.856   3.500   1.667  0.9341 -0.0335  1.4098
    5CHTO   O63 1794   6.505   3.083   1.454  0.3121  0.0147  0.1055
    5CHTO   C96 1795   6.403   3.061   1.320  0.4031  0.9266  0.2928
    5CHTO  H183 1796   6.465   3.002   1.252 -0.2657  0.8600 -0.2693
    5CHTO   C98 1797   6.354   3.194   1.256 -0.8656 -0.2114 -0.7644
    5CHTO  H185 1798   6.334   3.258   1.343 -1.7099 -0.4403 -0.7838
    5CHTO   O67 1799   6.462   3.261   1.187  0.0229 -0.9003  0.2749
    5CHTO  H167 1800   6.546   3.225   1.208  0.7679  0.6885  0.0595
    5CHTO  C102 1801   6.226   3.186   1.154  0.0124  0.3564  1.1457
    5CHTO  H189 1802   6.274   3.170   1.056 -1.5401 -0.3467  0.4794
    5CHTO   N18 1803   6.141   3.310   1.131 -0.4521  0.6612 -0.4996
    5CHTO  H176 1804   6.102   3.349   1.224  2.6591  0.4354  0.9484
    5CHTO  H177 1805   6.210   3.386   1.097  0.7853 -0.0815  0.3523
    5CHTO  C105 1806   6.136   3.058   1.173 -0.4603 -0.0119  0.2026
    5CHTO  H192 1807   6.058   3.084   1.244 -2.3120 -3.5762 -0.4529
    5CHTO   O65 1808   6.214   2.950   1.235  0.3018  0.4433  0.5048
    5CHTO  C100 1809   6.287   2.963   1.355  0.3214  1.2032  0.4454
    5CHTO  H187 1810   6.222   3.006   1.433 -0.8117 -0.9565  0.7220
    5CHTO  C107 1811   6.339   2.818   1.404  0.1153 -0.0473  0.1118
    5CHTO   O70 1812   6.399   2.820   1.533  0.5844  0.0150  0.1546
    5CHTO  H170 1813   6.434   2.739   1.564  1.5244  0.1118 -0.6494
    5CHTO   O57 1814   6.086   3.015   1.015  0.5832 -0.4508 -0.1497
    5CHTO   C85 1815   5.971   2.941   0.981 -0.3392 -0.3545 -0.1226
    5CHTO  H157 1816   5.882   3.006   0.998 -0.9082 -0.8376 -1.2296
    5CHTO   C83 1817   5.963   2.816   1.075 -0.4315 -0.7188 -0.3944
    5CHTO  H155 1818   5.950   2.838   1.181 -0.2702 -0.4360 -0.4338
    5CHTO   O56 1819   6.090   2.745   1.066  0.0246 -0.5379  0.0487
    5CHTO  H135 1820   6.071   2.654   1.067  0.8048 -0.7060  0.5035
    5CHTO   C81 1821   5.843   2.729   1.022 -0.2734  0.1587 -0.0640
    5CHTO  H153 1822   5.753   2.789   1.021 -1.0542 -0.9721 -3.3336
    5CHTO   N14 1823   5.806   2.623   1.120 -0.4255 -0.0146 -0.8616
    5CHTO  H141 1824   5.774   2.532   1.074  0.9675 -0.6066 -0.6689
    5CHTO  H142 1825   5.886   2.607   1.190 -2.5538 -1.3719  1.3490
    5CHTO   C79 1826   5.868   2.683   0.882 -0.0319  0.3394 -1.0053
    5CHTO  H151 1827   5.780   2.626   0.853  0.2524 -0.0706 -1.0789
    5CHTO   O52 1828   5.875   2.806   0.799  0.7304  0.0413  0.1839
    5CHTO   C86 1829   5.981   2.895   0.834  0.4179  0.3738  0.1899
    5CHTO  H158 1830   6.076   2.842   0.814  0.3469  0.2266  0.2403
    5CHTO   C90 1831   5.983   3.019   0.744  0.4321 -0.1765 -0.1455
    5CHTO   O60 1832   6.023   2.985   0.612 -0.0674 -0.4463 -0.1108
    5CHTO  H138 1833   5.954   2.952   0.558  0.9150 -2.5957 -0.1315
    5CHTO   O50 1834   5.983   2.603   0.857  0.6071 -0.0013  0.3264
    5CHTO   C73 1835   6.013   2.514   0.752  0.8257 -0.1001  0.1659
    5CHTO  H145 1836   5.940   2.531   0.671  0.8409 -0.4722  0.0718
    5CHTO   C74 1837   6.002   2.370   0.802 -0.4907  0.2042 -0.8428
    5CHTO  H146 1838   5.907   2.362   0.857  0.3247 -0.7225  0.4523
    5CHTO   O54 1839   5.989   2.287   0.689 -0.4043  0.5786  0.0177
    5CHTO  H133 1840   6.040   2.314   0.616 -1.9900 -0.5258 -1.5435
    5CHTO   C75 1841   6.125   2.338   0.897  0.2490  0.0193 -0.1741
    5CHTO  H147 1842   6.100   2.390   0.990 -1.1750 -0.3533 -0.3321
    5CHTO   N13 1843   6.123   2.200   0.948 -0.2753 -0.1956  0.9757
    5CHTO  H139 1844   6.044   2.139   0.906  0.7994 -1.4065  0.6689
    5CHTO  H140 1845   6.211   2.152   0.908  0.2134  1.3193  0.1907
    5CHTO   C76 1846   6.268   2.382   0.841  0.5464 -0.8795 -0.1362
    5CHTO  H148 1847   6.305   2.313   0.765 -1.1691 -0.7740 -1.0913
    5CHTO   O49 1848   6.256   2.525   0.797 -0.1982 -0.2156 -0.6794
    5CHTO   C77 1849   6.156   2.539   0.697  0.1962 -0.0724  0.0823
    5CHTO  H149 1850   6.176   2.468   0.617  1.2198 -1.8466  1.8668
    5CHTO   C88 1851   6.168   2.678   0.641 -0.6104  0.1624  0.0275
    5CHTO   O58 1852   6.069   2.701   0.537 -0.2648 -0.4089  0.2537
    5CHTO  H136 1853   5.995   2.742   0.577  0.9323 -0.8728  3.0661
    5CHTO   O51 1854   6.358   2.382   0.964  0.2216 -0.3663 -0.1439
    5CHTO   C78 1855   6.503   2.423   0.937  0.5941 -0.3160  0.7747
    5CHTO  H150 1856   6.512   2.491   0.849 -0.6486 -0.5705  0.4497
    5CHTO   C80 1857   6.606   2.305   0.914  0.3161  0.1002 -0.4166
    5CHTO  H152 1858   6.592   2.235   0.999  1.6254 -0.1879 -0.4300
    5CHTO   O55 1859   6.563   2.242   0.788  0.2064  0.8440 -0.1117
    5CHTO  H134 1860   6.605   2.158   0.780 -0.0979  0.8441 -1.8050
    5CHTO   C84 1861   6.756   2.358   0.899 -0.6676 -0.2530 -0.2046
    5CHTO  H156 1862   6.767   2.420   0.810  3.3859  0.6610  0.8582
    5CHTO   N15 1863   6.864   2.249   0.900  0.2641  0.0615  0.5370
    5CHTO  H143 1864   6.944   2.260   0.971  1.8272  0.8837 -1.2985
    5CHTO  H144 1865   6.825   2.151   0.916  1.1363 -0.0639  2.0569
    5CHTO   C87 1866   6.782   2.453   1.022 -0.2394  1.1810  0.5128
    5CHTO  H159 1867   6.782   2.389   1.110  0.2328 -1.1162 -1.1086
    5CHTO   O53 1868   6.669   2.566   1.034 -0.3969 -0.4990 -0.2072
    5CHTO   C82 1869   6.544   2.505   1.058 -0.1213 -0.7750  0.1191
    5CHTO  H154 1870   6.555   2.443   1.147  3.6362 -0.7605 -0.2595
    5CHTO   C89 1871   6.443   2.618   1.095  0.5194 -0.4522  0.1286
    5CHTO   O59 1872   6.387   2.681   0.981 -0.8750  0.5007  0.0704
    5CHTO  H137 1873   6.335   2.622   0.930  0.3046 -0.8576  0.4002
    5CHTO   O45 1874   6.944   2.532   0.991 -0.9239 -0.2960  0.0683
    5CHTO   C67 1875   7.030   2.523   1.112 -0.2646 -0.2160 -0.5858
    5CHTO  H124 1876   6.974   2.526   1.205 -0.6354  0.4096 -0.8267
    5CHTO   C65 1877   7.118   2.394   1.111  0.1179  0.2953 -0.4240
    5CHTO  H122 1878   7.119   2.367   1.005  0.8951  3.3425 -1.2419
    5CHTO   O44 1879   7.031   2.299   1.173 -0.4120  0.1625  0.0898
    5CHTO  H102 1880   6.974   2.251   1.115 -0.0194  0.0563 -0.2071
    5CHTO   C63 1881   7.262   2.416   1.165 -0.0528 -0.4985  0.2834
    5CHTO  H120 1882   7.321   2.457   1.084 -0.1410 -0.2399  0.3490
    5CHTO   N11 1883   7.331   2.284   1.194  0.4790 -0.4283 -0.3580
    5CHTO  H108 1884   7.433   2.282   1.160  1.0157 -0.5667  1.2264
    5CHTO  H109 1885   7.271   2.203   1.160 -1.4170  0.2652  1.2482
    5CHTO   C61 1886   7.270   2.532   1.272 -0.3001 -0.1490 -0.8924
    5CHTO  H118 1887   7.379   2.537   1.282 -0.3981 -0.9597  0.6851
    5CHTO   O40 1888   7.222   2.656   1.211  0.0806 -0.5499 -0.7277
    5CHTO   C68 1889   7.118   2.657   1.113 -0.8396 -0.0864  0.1244
    5CHTO  H125 1890   7.182   2.676   1.025 -0.9672  0.0167  0.0534
    5CHTO   C72 1891   7.037   2.779   1.145  0.1757 -0.1291  0.0012
    5CHTO   O48 1892   7.099   2.904   1.128 -0.5132  0.6236  0.3175
    5CHTO  H105 1893   7.038   2.975   1.116 -0.5201  1.0424  2.5755
    5CHTO   O38 1894   7.212   2.507   1.400 -0.0618 -0.0765  0.4977
    5CHTO   C55 1895   7.159   2.607   1.480  0.6922 -0.1461  0.3787
    5CHTO  H112 1896   7.103   2.682   1.422 -0.1546 -0.6289  0.5582
    5CHTO   C56 1897   7.277   2.669   1.567  0.1647  0.7120 -0.4350
    5CHTO  H113 1898   7.310   2.580   1.623 -1.1456  0.2529 -0.3710
    5CHTO   O42 1899   7.382   2.714   1.476  0.1596 -0.2082  0.1228
    5CHTO  H100 1900   7.441   2.642   1.476 -0.0773 -0.4029 -0.8012
    5CHTO   C57 1901   7.221   2.787   1.662 -0.2173  0.2413  0.5953
    5CHTO  H114 1902   7.162   2.849   1.596 -1.4043 -0.2318  1.1989
    5CHTO   N10 1903   7.324   2.864   1.735 -0.1324  0.2763 -0.2349
    5CHTO  H106 1904   7.422   2.848   1.692  0.0087  2.3132 -0.7290
    5CHTO  H107 1905   7.303   2.970   1.730  0.8124  0.5371  1.0336
    5CHTO   C58 1906   7.123   2.715   1.758 -0.5672 -0.7770 -0.0912
    5CHTO  H115 1907   7.181   2.633   1.805  1.6088 -0.5635 -2.3449
    5CHTO   O37 1908   7.022   2.645   1.687 -0.4290  0.5937 -0.0803
    5CHTO   C59 1909   7.066   2.550   1.590 -0.2780  0.3846  0.1029
    5CHTO  H116 1910   7.108   2.461   1.635  0.4264 -0.7224 -2.6732
    5CHTO   C70 1911   6.937   2.514   1.526  0.7935  0.1287 -0.0034
    5CHTO   O46 1912   6.934   2.403   1.433  0.2652 -0.0511 -0.5154
    5CHTO  H103 1913   6.993   2.333   1.453 -0.9180 -0.6230  0.9864
    5CHTO   O39 1914   7.037   2.825   1.874  0.1810 -0.5269  0.1043
    5CHTO   C60 1915   6.933   2.899   1.819  0.2485  1.0292  0.0410
    5CHTO  H117 1916   6.943   2.891   1.711 -0.4837 -0.0946  0.0485
    5CHTO   C62 1917   6.800   2.837   1.868  0.2207  0.1402 -0.3364
    5CHTO  H119 1918   6.787   2.740   1.816  0.1694  0.9760 -1.9158
    5CHTO   O43 1919   6.797   2.808   2.011 -0.1204  0.1791  0.0706
    5CHTO  H101 1920   6.864   2.747   2.032 -1.5930 -1.6592 -0.4648
    5CHTO   C66 1921   6.682   2.937   1.816  0.5471 -0.2477 -0.0919
    5CHTO  H123 1922   6.680   2.933   1.707 -0.0657 -1.1102 -0.0579
    5CHTO   N12 1923   6.545   2.887   1.850  0.2945 -0.5206 -0.0147
    5CHTO  H110 1924   6.462   2.932   1.798  0.1936 -0.1479  0.4588
    5CHTO  H111 1925   6.546   2.782   1.828 -1.1402 -0.9918  2.0293
    5CHTO   C69 1926   6.692   3.092   1.857 -0.5180  0.2807  0.4594
    5CHTO  H126 1927   6.686   3.103   1.968 -0.7276 -1.0891  0.5961
    5CHTO   O41 1928   6.835   3.139   1.805  0.0654  0.1096  0.0263
    5CHTO   C64 1929   6.948   3.047   1.859  0.5947 -0.4739  0.2581
    5CHTO  H121 1930   6.940   3.036   1.969  4.0572  1.1060  0.7411
    5CHTO   C71 1931   7.074   3.123   1.818 -0.0368  0.2547  0.0684
    5CHTO   O47 1932   7.079   3.259   1.874  0.3071 -0.2506  0.6197
    5CHTO  H104 1933   7.064   3.254   1.966  0.2515 -2.6695  0.5252
    5CHTO   O34 1934   6.567   3.189   1.795 -0.1087 -0.2465  0.4700
    5CHTO   C49 1935   6.522   3.327   1.756 -0.0616 -0.1857  0.3429
    5CHTO   H91 1936   6.584   3.358   1.673 -0.8952 -2.3504 -1.1235
    5CHTO   C47 1937   6.564   3.415   1.872  0.3811  0.0251 -0.3365
    5CHTO   H89 1938   6.519   3.516   1.864  0.6265  0.3214  1.7438
    5CHTO   O33 1939   6.701   3.427   1.885 -0.6427 -0.0398  0.0058
    5CHTO   H70 1940   6.751   3.352   1.913  1.7178  0.6516 -2.2086
    5CHTO   C45 1941   6.479   3.365   2.003  0.0032  0.2829 -0.2248
    5CHTO   H87 1942   6.482   3.256   2.009 -0.4422  0.3352  1.1641
    5CHTO    N8 1943   6.516   3.420   2.136 -0.8330 -0.1706 -0.2367
    5CHTO   H75 1944   6.616   3.388   2.162 -0.7536  0.1099 -0.2028
    5CHTO   H76 1945   6.450   3.381   2.212 -0.3100 -0.2313  0.1867
    5CHTO   C43 1946   6.322   3.391   1.971 -0.4817  0.1107  0.6351
    5CHTO   H85 1947   6.264   3.352   2.055  2.0532  0.0192  2.4056
    5CHTO   O29 1948   6.286   3.327   1.847  0.0440 -0.4238  0.4357
    5CHTO   C50 1949   6.373   3.329   1.728  0.6319 -0.4309  0.1155
    5CHTO   H92 1950   6.348   3.235   1.677  1.9027 -0.8979  0.3296
    5CHTO   C54 1951   6.327   3.439   1.628 -0.0164  1.1336 -0.0456
    5CHTO   O36 1952   6.342   3.568   1.683  0.1432  0.9591 -0.3480
    5CHTO   H72 1953   6.433   3.589   1.688  0.0120  2.0082 -1.8954
    5CHTO   O27 1954   6.292   3.531   1.964  0.0046  0.2357  0.0466
    5CHTO   C37 1955   6.192   3.615   2.020  0.0782  0.3834  0.2320
    5CHTO   H79 1956   6.175   3.706   1.960  3.3815  1.2370  0.4619
    5CHTO   C38 1957   6.056   3.542   2.023  1.0192  0.4848  0.0478
    5CHTO   H80 1958   6.072   3.438   2.056  1.4312  0.4776 -0.1655
    5CHTO   O31 1959   5.996   3.538   1.890  0.9012 -0.0913  0.0718
    5CHTO   H68 1960   6.017   3.456   1.849  1.6244 -0.4190  1.0634
    5CHTO   C39 1961   5.957   3.622   2.115  0.5759 -0.4976  1.0816
    5CHTO   H81 1962   5.924   3.704   2.050  2.3445 -0.4950  0.1461
    5CHTO    N7 1963   5.829   3.544   2.149  0.4764  0.3799 -0.7529
    5CHTO   H73 1964   5.733   3.593   2.136 -0.7777 -2.2357 -1.7973
    5CHTO   H74 1965   5.829   3.452   2.093  3.1213  0.7726 -1.4569
    5CHTO   C40 1966   6.014   3.689   2.243  0.0117  0.3677  0.0415
    5CHTO   H82 1967   6.021   3.614   2.322 -2.0767  0.1483  0.0715
    5CHTO   O26 1968   6.139   3.757   2.216 -0.1946 -0.4404  0.2872
    5CHTO   C41 1969   6.236   3.667   2.159 -0.8184  0.9420 -0.6652
    5CHTO   H83 1970   6.252   3.583   2.228 -3.7561  1.4322  0.6673
    5CHTO   C52 1971   6.367   3.745   2.147 -0.1882  0.2706 -0.1055
    5CHTO   O35 1972   6.436   3.793   2.294 -0.0445 -0.1061 -0.9264
    5CHTO   H71 1973   6.487   3.871   2.288  0.8624 -0.4992  1.2380
    5CHTO   O28 1974   5.937   3.804   2.286 -0.2498 -0.6447  0.5180
    5CHTO   C42 1975   5.910   3.853   2.415  0.0397 -0.7440  0.8947
    5CHTO   H84 1976   5.841   3.935   2.396 -0.3336 -0.8230  1.8603
    5CHTO   C44 1977   6.022   3.931   2.500  0.0122  0.2253  0.4989
    5CHTO   H86 1978   6.098   3.972   2.433 -0.0264  2.4072  1.7658
    5CHTO   O32 1979   5.974   4.050   2.561 -0.2727  0.2017  0.0391
    5CHTO   H69 1980   5.932   4.115   2.508 -0.6306  1.0090  1.2913
    5CHTO   C48 1981   6.096   3.839   2.613 -1.0316  0.0092  0.1596
    5CHTO   H90 1982   6.047   3.852   2.709  1.2494  0.7007  1.2783
    5CHTO    N9 1983   6.231   3.893   2.634  0.0704  0.4141 -0.5202
    5CHTO   H77 1984   6.271   3.839   2.719 -0.0315  2.0189  0.5734
    5CHTO   H78 1985   6.226   3.997   2.662 -2.1230  0.6213 -1.6489
    5CHTO   C51 1986   6.086   3.687   2.575  0.0593  0.1590  0.0348
    5CHTO   H93 1987   6.133   3.681   2.477  1.4809 -1.3305  0.7676
    5CHTO   O30 1988   5.951   3.642   2.575  0.2360  0.0220 -0.6458
    5CHTO   C46 1989   5.836   3.749   2.503  0.5378 -0.4662 -0.5870
    5CHTO   H88 1990   5.786   3.681   2.435  0.8174 -0.3968 -0.8651
    5CHTO   C53 1991   5.737   3.813   2.609  0.0261  0.0213 -0.3552
    5CHTO   O72 1992   5.655   3.914   2.538  0.1651  0.7373 -0.2272
    5CHTO  H199 1993   5.685   3.996   2.572 -2.2789  1.1208  1.1738
    5CHTO   O22 1994   6.147   3.594   2.676 -0.1849  0.2798  0.0073
    5CHTO   C31 1995   6.178   3.456   2.637  0.0789  0.5468 -0.4766
    5CHTO   H59 1996   6.223   3.405   2.725  0.7806  2.2068  0.1489
    5CHTO   C29 1997   6.046   3.379   2.594 -0.3158 -0.3822  0.0842
    5CHTO   H57 1998   6.012   3.441   2.510  4.0582  0.6507 -1.0291
    5CHTO   O21 1999   5.941   3.384   2.699 -0.3591  0.3783 -0.0624
    5CHTO   H37 2000   5.927   3.301   2.742  0.9971 -0.5136 -1.2917
    5CHTO   C27 2001   6.079   3.232   2.545  0.4307  0.7342 -0.3939
    5CHTO   H55 2002   6.116   3.172   2.630 -2.5995  2.4981  2.2752
    5CHTO    N5 2003   5.963   3.164   2.487  0.4460  0.2465  0.2897
    5CHTO   H43 2004   5.899   3.115   2.560  2.9939 -2.3038  0.9432
    5CHTO   H44 2005   5.911   3.241   2.433 -0.6490  0.7259  1.9941
    5CHTO   C25 2006   6.196   3.239   2.438  0.3811 -0.4419 -0.5893
    5CHTO   H53 2007   6.159   3.297   2.352 -0.2012  1.5595  0.9752
    5CHTO   O17 2008   6.307   3.315   2.495  0.0358  0.9575 -0.5340
    5CHTO   C32 2009   6.281   3.451   2.530  0.4092  0.0301  1.4378
    5CHTO   H60 2010   6.245   3.508   2.445 -1.7513  0.1987  2.4163
    5CHTO   C36 2011   6.415   3.506   2.576 -0.1113  1.0492 -0.4449
    5CHTO   O25 2012   6.491   3.533   2.459  0.1408 -0.4360 -0.2778
    5CHTO   H40 2013   6.556   3.594   2.488 -0.7558  0.2005  0.3889
    5CHTO   O15 2014   6.237   3.094   2.398  0.2028 -0.0330 -0.3950
    5CHTO   C19 2015   6.325   2.986   2.452  0.2548  0.4136  0.5108
    5CHTO   H47 2016   6.370   3.041   2.536 -0.8354  2.4316 -0.1847
    5CHTO   C20 2017   6.251   2.863   2.512  0.1527 -0.2197  0.2733
    5CHTO   H48 2018   6.183   2.815   2.440  0.8908  0.9007 -1.1981
    5CHTO   O19 2019   6.176   2.912   2.624  0.3662  0.0724  0.8093
    5CHTO   H35 2020   6.097   2.862   2.624  0.8931 -0.8049 -0.7347
    5CHTO   C21 2021   6.342   2.751   2.571  0.4249 -0.5762  0.9695
    5CHTO   H49 2022   6.389   2.789   2.661  0.8516  1.1513  0.0265
    5CHTO    N4 2023   6.268   2.623   2.607 -0.2446 -0.1762 -0.5049
    5CHTO   H41 2024   6.290   2.580   2.703  0.4261 -0.6035 -0.8419
    5CHTO   H42 2025   6.162   2.623   2.590 -0.2368  2.3289 -0.7218
    5CHTO   C22 2026   6.453   2.718   2.469  0.4680  0.3884 -0.5798
    5CHTO   H50 2027   6.417   2.660   2.384  1.0432 -0.4241 -0.2759
    5CHTO   O14 2028   6.514   2.838   2.420  0.4784 -0.1419  1.1383
    5CHTO   C23 2029   6.432   2.935   2.359 -0.2292 -0.0855 -0.3082
    5CHTO   H51 2030   6.388   2.880   2.275  1.4779 -2.3134  0.2036
    5CHTO   C34 2031   6.512   3.059   2.302 -0.5271 -0.3009  0.8277
    5CHTO   O23 2032   6.596   3.032   2.184 -0.2184 -0.2095  0.1929
    5CHTO   H38 2033   6.668   3.092   2.175 -0.6391  0.0682 -1.4244
    5CHTO   O16 2034   6.573   2.666   2.533  0.1561  0.5884  0.3493
    5CHTO   C24 2035   6.660   2.579   2.440  0.3840  0.3359 -0.0750
    5CHTO   H52 2036   6.625   2.585   2.337  0.4163  1.4518 -0.0280
    5CHTO   C26 2037   6.642   2.431   2.489  0.3316 -0.3788 -0.9490
    5CHTO   H54 2038   6.683   2.432   2.592  0.9244  1.2676 -1.1944
    5CHTO   O20 2039   6.502   2.392   2.495  0.5111  0.2637  0.3436
    5CHTO   H36 2040   6.464   2.403   2.410  1.4032 -0.8676 -0.2249
    5CHTO   C30 2041   6.740   2.336   2.409  0.0788  0.9383  0.3116
    5CHTO   H58 2042   6.700   2.321   2.307 -0.9796 -0.8115  0.9641
    5CHTO    N6 2043   6.737   2.200   2.462  0.1983 -0.7419 -0.1339
    5CHTO   H45 2044   6.756   2.199   2.569 -1.4931  0.4467  0.1937
    5CHTO   H46 2045   6.795   2.131   2.404 -1.5464 -3.2490  1.0424
    5CHTO   C33 2046   6.881   2.390   2.398  0.3162 -0.1363 -0.7309
    5CHTO   H61 2047   6.927   2.381   2.498 -3.4212 -0.9591  1.0028
    5CHTO   O18 2048   6.880   2.529   2.360  0.0466  0.3613 -0.2924
    5CHTO   C28 2049   6.811   2.630   2.439  0.0651 -0.1086  0.4942
    5CHTO   H56 2050   6.846   2.630   2.542  0.1173  1.1571  0.4762
    5CHTO   C35 2051   6.829   2.771   2.383  0.0808  0.2068  0.2906
    5CHTO   O24 2052   6.775   2.865   2.476 -0.1174  0.0157 -0.3151
    5CHTO   H39 2053   6.812   2.951   2.484  0.9128 -0.5988  2.0822
    5CHTO    O9 2054   6.963   2.317   2.312 -0.2373 -0.2582 -0.0924
    5CHTO   C13 2055   6.933   2.322   2.150  0.1529 -0.1644 -0.3754
    5CHTO   H26 2056   6.825   2.336   2.129  0.2645  0.9357 -0.2701
    5CHTO   C11 2057   6.987   2.189   2.104  0.7368  0.2072 -0.0348
    5CHTO   H24 2058   6.923   2.115   2.153  0.1922  1.9071  1.9189
    5CHTO    O8 2059   7.122   2.156   2.145  0.3782 -0.1963 -0.1146
    5CHTO    H3 2060   7.185   2.200   2.092 -0.7549  0.2654 -1.1104
    5CHTO    C9 2061   6.962   2.175   1.953 -0.2385  0.5562 -0.3481
    5CHTO   H22 2062   6.856   2.190   1.930 -0.4772 -0.0011  0.3654
    5CHTO    N2 2063   6.988   2.043   1.901  0.0398  0.5684  0.0990
    5CHTO   H10 2064   6.918   1.976   1.950 -1.2097  1.5405 -0.3146
    5CHTO   H11 2065   7.092   2.026   1.921  0.0764 -0.3039 -0.7800
    5CHTO    C7 2066   7.053   2.295   1.892  0.0891  0.0283 -1.1792
    5CHTO   H20 2067   7.022   2.286   1.785  4.1577 -1.8868 -2.3031
    5CHTO    O4 2068   7.025   2.426   1.947 -0.0756 -0.4167  0.2107
    5CHTO   C14 2069   7.000   2.445   2.084 -0.2284 -0.0391 -0.7490
    5CHTO   H27 2070   6.930   2.532   2.086 -0.9912 -0.6500 -0.3781
    5CHTO   C18 2071   7.129   2.488   2.146  0.6092 -0.4886  0.1479
    5CHTO   O13 2072   7.146   2.627   2.143  0.2451  0.2411 -0.3897
    5CHTO    H7 2073   7.233   2.646   2.171 -0.2018 -1.0839  2.0800
    5CHTO    O2 2074   7.205   2.259   1.911  0.1102 -1.3284 -0.6746
    5CHTO    C1 2075   7.282   2.287   1.792  0.0305 -1.5797 -0.2115
    5CHTO   H14 2076   7.246   2.388   1.763 -0.7055 -1.1099  2.2690
    5CHTO    C2 2077   7.259   2.177   1.678  0.8451  0.0850 -0.8161
    5CHTO   H15 2078   7.240   2.083   1.731  1.7415 -0.1500 -0.9040
    5CHTO    O6 2079   7.150   2.211   1.601  0.1364  0.4873 -0.0496
    5CHTO    H1 2080   7.136   2.147   1.533  0.0067  0.2015  0.2417
    5CHTO    C3 2081   7.383   2.159   1.572 -0.4175 -0.4789 -0.0202
    5CHTO   H16 2082   7.371   2.237   1.495  2.0322 -0.7349 -0.7018
    5CHTO    N1 2083   7.381   2.030   1.498 -0.1946  0.0559 -0.0855
    5CHTO    H8 2084   7.352   1.960   1.575 -1.1622 -1.7168 -2.0307
    5CHTO    H9 2085   7.295   2.036   1.434  0.4898 -0.9596 -1.1163
    5CHTO    C4 2086   7.524   2.186   1.642  0.3211 -0.0289  0.3931
    5CHTO   H17 2087   7.541   2.114   1.722 -2.1405 -1.1886 -0.0678
    5CHTO    O1 2088   7.511   2.308   1.704  0.1788  0.1275  0.1034
    5CHTO    C5 2089   7.432   2.312   1.821  1.0289 -0.2622  0.5140
    5CHTO   H18 2090   7.470   2.236   1.890  0.2151 -0.8732  0.2969
    5CHTO   C16 2091   7.451   2.452   1.890  0.4327 -0.3305 -0.9027
    5CHTO   O11 2092   7.582   2.512   1.886 -0.3642  0.2347  0.5101
    5CHTO    H5 2093   7.598   2.562   1.963 -1.0762  0.3221  0.6026
    5CHTO    O3 2094   7.636   2.200   1.548 -0.1948  0.4420  0.1759
    5CHTO    C6 2095   7.761   2.153   1.591  0.5760  0.1743 -0.4879
    5CHTO   H19 2096   7.763   2.131   1.698 -1.3025  0.3235 -0.4024
    5CHTO    C8 2097   7.788   2.020   1.512 -0.8047  0.4415 -0.7996
    5CHTO   H21 2098   7.772   2.040   1.406  0.6361  1.0063 -0.9221
    5CHTO    O7 2099   7.689   1.926   1.553  0.2402 -0.1162  0.3601
    5CHTO    H2 2100   7.730   1.852   1.593  0.5156 -0.3682 -0.3821
    5CHTO   C12 2101   7.927   1.977   1.533 -0.0992  0.3355 -0.2789
    5CHTO   H25 2102   7.929   1.938   1.637 -1.2821 -0.5701 -0.5892
    5CHTO    N3 2103   7.973   1.856   1.458  0.3050 -0.1512 -0.0424
    5CHTO   H12 2104   7.887   1.791   1.445 -1.2048  1.8764 -0.4182
    5CHTO   H13 2105   8.042   1.800   1.519  0.3495  0.8466  0.8341
    5CHTO   C15 2106   8.034   2.098   1.515  0.2931 -0.0883  0.3892
    5CHTO   H28 2107   8.056   2.117   1.410  0.9992 -0.6430  0.4325
    5CHTO   O10 2108   8.166   2.053   1.580  0.1575  0.0562  0.0282
    5CHTO    H4 2109   8.155   2.023   1.668 -0.3426 -2.1713 -0.7481
    5CHTO    O5 2110   7.996   2.211   1.588  0.1748  0.1701  0.0632
    5CHTO   C10 2111   7.862   2.265   1.568 -0.0165  0.2541 -0.5462
    5CHTO   H23 2112   7.858   2.307   1.467 -1.5808 -0.9046 -0.9783
    5CHTO   C17 2113   7.840   2.377   1.667 -1.1560 -0.5336 -0.4027
    5CHTO   O12 2114   7.871   2.503   1.602  0.3148 -0.6275  0.1511
    5CHTO    H6 2115   7.962   2.528   1.601  0.7624 -2.1899 -0.3718
    6CHTO  H203 2116   7.131   4.682  -0.524  0.3796  1.9272 -1.8519
    6CHTO   O82 2117   7.042   4.699  -0.499  0.1931 -0.5964 -0.6779
    6CHTO  C123 2118   7.013   4.817  -0.418  0.0695 -0.0891  0.0120
    6CHTO  H227 2119   7.080   4.900  -0.445  0.7994 -0.2496  1.2849
    6CHTO   O77 2120   6.874   4.847  -0.449  0.2968 -0.4666  0.2803
    6CHTO  C118 2121   6.836   4.978  -0.402  0.4425  0.2304 -0.1367
    6CHTO  H222 2122   6.912   5.050  -0.435  1.1560 -1.6185 -2.6309
    6CHTO  C125 2123   6.700   5.017  -0.461  0.0185 -0.8303 -0.5190
    6CHTO   O84 2124   6.596   4.923  -0.452  0.2774 -0.1390  0.4646
    6CHTO  H205 2125   6.609   4.841  -0.496 -2.6604  0.2555 -1.2070
    6CHTO  C114 2126   6.835   4.987  -0.245 -0.1651  0.2328 -0.0079
    6CHTO  H218 2127   6.754   4.926  -0.204  0.1270 -0.3315 -0.2569
    6CHTO  C116 2128   6.969   4.930  -0.191 -0.3582  0.0191 -0.2904
    6CHTO  H220 2129   7.039   5.014  -0.208  0.0613  0.1744  2.1093
    6CHTO   O79 2130   6.952   4.922  -0.050 -0.9655  0.8424  0.0913
    6CHTO  H201 2131   7.015   4.979  -0.009  0.9954  0.0605 -1.7339
    6CHTO  C120 2132   7.016   4.790  -0.263  0.3654 -0.1266 -0.6246
    6CHTO  H224 2133   6.951   4.711  -0.220 -0.5719  1.1541  0.3503
    6CHTO   N21 2134   7.151   4.758  -0.212 -0.4450 -0.0913  0.0692
    6CHTO  H211 2135   7.203   4.713  -0.296  0.0580 -0.3378  0.5141
    6CHTO  H212 2136   7.212   4.828  -0.159  2.4367 -0.7207 -2.2465
    6CHTO   O75 2137   6.803   5.120  -0.202  0.0649 -0.0968 -0.1745
    6CHTO  C112 2138   6.685   5.112  -0.085 -0.0870  0.4840  0.8484
    6CHTO  H216 2139   6.715   5.046  -0.002  1.9171 -0.2596 -0.4124
    6CHTO   O73 2140   6.564   5.061  -0.143  0.1103 -0.7047  0.0437
    6CHTO  C113 2141   6.452   5.044  -0.058  0.9292  0.1238  0.3267
    6CHTO  H217 2142   6.482   4.985   0.032  1.6875  1.5499  1.0298
    6CHTO  C124 2143   6.346   4.968  -0.144 -0.2099 -0.3272 -0.1866
    6CHTO   O83 2144   6.307   5.032  -0.262  0.4958  0.0379 -0.0594
    6CHTO  H204 2145   6.331   4.984  -0.339  2.1569  0.6513  0.0592
    6CHTO  C109 2146   6.408   5.179   0.010 -0.7031  0.2393 -0.1875
    6CHTO  H213 2147   6.386   5.246  -0.075  3.1475 -0.0087 -1.4916
    6CHTO  C110 2148   6.531   5.249   0.072  0.6900  0.5056 -0.2841
    6CHTO  H214 2149   6.555   5.207   0.170  0.1040  1.1494  0.1417
    6CHTO   O78 2150   6.489   5.380   0.114  0.5567  0.2040  0.1817
    6CHTO  H200 2151   6.475   5.449   0.052 -1.0381 -0.6738 -0.4722
    6CHTO  C111 2152   6.659   5.256  -0.022  0.8076 -0.3268 -0.8072
    6CHTO  H215 2153   6.633   5.324  -0.105  2.8832 -0.0255 -1.2289
    6CHTO   N19 2154   6.786   5.304   0.044 -0.2933 -0.5442 -0.2382
    6CHTO  H207 2155   6.766   5.409   0.065 -2.3532 -1.0230  0.4029
    6CHTO  H208 2156   6.863   5.300  -0.031  1.7031 -0.6217  1.7534
    6CHTO   O74 2157   6.285   5.161   0.087 -0.3450  0.1711 -0.2940
    6CHTO  C115 2158   6.285   5.184   0.236 -0.3155 -0.2121 -0.1780
    6CHTO  H219 2159   6.384   5.202   0.275  1.0361 -1.8501 -2.6853
    6CHTO   O76 2160   6.211   5.310   0.273 -0.5221  0.2126 -0.0529
    6CHTO  C122 2161   6.074   5.308   0.224  0.8824  0.6505  0.2013
    6CHTO  H226 2162   6.069   5.319   0.116 -0.1450  0.3347  0.2113
    6CHTO  C126 2163   5.992   5.434   0.280 -0.2134 -0.4883 -0.3753
    6CHTO   O85 2164   6.009   5.456   0.422  0.1453 -0.1597 -0.8537
    6CHTO  H206 2165   5.962   5.532   0.452 -0.2107 -0.2058 -1.2883
    6CHTO  C121 2166   5.993   5.175   0.263 -0.1149  0.5103  0.2995
    6CHTO  H225 2167   5.896   5.206   0.307  0.9244  3.6127  0.5087
    6CHTO   O81 2168   5.965   5.093   0.151  0.5547  0.4225 -0.4792
    6CHTO  H202 2169   5.922   5.012   0.171  0.3043  0.7476  0.3202
    6CHTO  C119 2170   6.071   5.085   0.361 -0.5023 -0.5735  0.8812
    6CHTO  H223 2171   6.084   5.137   0.456  1.4404 -0.3116  0.4882
    6CHTO  C117 2172   6.209   5.052   0.306  0.1583 -0.5914  0.1844
    6CHTO  H221 2173   6.203   4.984   0.221 -1.5648  0.1738 -0.3217
    6CHTO   N20 2174   6.302   4.984   0.402  0.6261  0.3201 -0.2563
    6CHTO  H209 2175   6.289   4.877   0.406  2.0681  0.1163 -0.7620
    6CHTO  H210 2176   6.406   5.008   0.384  0.3369  1.5451 -0.3513
    6CHTO   O80 2177   5.981   4.967   0.410  0.3867 -0.3241  0.3325
    6CHTO  C103 2178   5.928   4.966   0.554 -0.2506 -0.8576 -0.2520
    6CHTO  H190 2179   6.007   4.985   0.627 -0.6219 -1.0283  0.1955
    6CHTO  C101 2180   5.811   5.058   0.582  0.2483 -0.4993 -0.7006
    6CHTO  H188 2181   5.733   5.036   0.509 -0.3915  1.5398 -0.6470
    6CHTO   O68 2182   5.849   5.208   0.591 -0.6807  0.5875  0.1712
    6CHTO  H168 2183   5.810   5.260   0.524 -0.4618 -0.5091 -0.8329
    6CHTO   C99 2184   5.749   5.013   0.721 -0.1304 -0.2700  0.1219
    6CHTO  H186 2185   5.819   5.048   0.800 -0.2653 -0.5781  0.3757
    6CHTO   N17 2186   5.627   5.089   0.757 -0.5475 -0.0080 -0.4269
    6CHTO  H174 2187   5.653   5.192   0.741 -0.3800 -0.1456 -1.0748
    6CHTO  H175 2188   5.596   5.064   0.857 -2.3562 -1.3861 -1.2932
    6CHTO   C97 2189   5.739   4.863   0.742  0.0215  0.1552  0.0987
    6CHTO  H184 2190   5.652   4.825   0.686 -0.9888  0.5660  1.3706
    6CHTO   O64 2191   5.863   4.796   0.708 -0.6153 -0.1176  0.2906
    6CHTO  C104 2192   5.893   4.819   0.571 -0.2973  0.1638  0.7044
    6CHTO  H191 2193   5.812   4.797   0.501  0.6840 -0.5474 -0.2239
    6CHTO  C108 2194   6.004   4.723   0.539 -0.2947  0.5696  0.7506
    6CHTO   O71 2195   5.967   4.584   0.557 -0.0354 -0.1199 -0.4122
    6CHTO  H171 2196   5.917   4.571   0.635 -0.6319 -0.6534 -0.8722
    6CHTO   O62 2197   5.714   4.831   0.884  0.3261 -0.2146  0.3976
    6CHTO   C91 2198   5.733   4.702   0.943  0.3610  0.5147  0.1173
    6CHTO  H178 2199   5.676   4.702   1.036 -2.2533  1.6606 -1.4305
    6CHTO   C92 2200   5.887   4.678   0.983 -0.6928  0.1722 -0.1780
    6CHTO  H179 2201   5.948   4.742   0.917  1.8813  0.4480  2.3772
    6CHTO   O66 2202   5.908   4.745   1.109  0.1320 -0.1062  0.4475
    6CHTO  H166 2203   5.855   4.706   1.176  1.7649  0.8024  2.3250
    6CHTO   C93 2204   5.941   4.529   0.992  1.1060 -0.3719 -0.4160
    6CHTO  H180 2205   5.919   4.506   1.097 -1.4166  0.1060 -0.8218
    6CHTO   N16 2206   6.083   4.518   0.946 -0.4169 -0.3918 -0.5246
    6CHTO  H172 2207   6.152   4.545   1.025 -0.4269 -0.6438 -0.4265
    6CHTO  H173 2208   6.106   4.580   0.861  2.2851  0.1350  0.5332
    6CHTO   C94 2209   5.856   4.433   0.900  0.3639  0.5296  0.2584
    6CHTO  H181 2210   5.883   4.441   0.795  1.1893 -0.2235  0.4034
    6CHTO   O61 2211   5.712   4.460   0.910 -0.1889  0.0483  0.1437
    6CHTO   C95 2212   5.673   4.586   0.858 -0.4279  0.2103  0.2218
    6CHTO  H182 2213   5.714   4.593   0.757 -1.2169  2.4143  0.0418
    6CHTO  C106 2214   5.520   4.580   0.850  0.6163 -0.3450  0.1025
    6CHTO   O69 2215   5.456   4.708   0.824  0.0634 -0.5079  0.0766
    6CHTO  H169 2216   5.371   4.697   0.787  0.5208 -0.9084 -0.8703
    6CHTO   O63 2217   5.864   4.296   0.949 -0.0176  0.0648 -0.5301
    6CHTO   C96 2218   5.814   4.193   0.852 -0.1232  0.5784  0.6695
    6CHTO  H183 2219   5.783   4.242   0.760  0.0271 -1.1414 -0.3096
    6CHTO   C98 2220   5.690   4.105   0.894 -0.4908 -0.4418 -0.0583
    6CHTO  H185 2221   5.705   4.056   0.992  0.3930 -1.7871 -0.8487
    6CHTO   O67 2222   5.580   4.203   0.914  0.4571  0.0423 -0.2081
    6CHTO  H167 2223   5.500   4.162   0.940 -0.0783  1.4912  0.4795
    6CHTO  C102 2224   5.647   3.997   0.787  0.4826  0.5898 -0.6293
    6CHTO  H189 2225   5.604   4.051   0.701  0.8136  1.4625 -0.2507
    6CHTO   N18 2226   5.536   3.915   0.841  0.1575  0.0435  0.3699
    6CHTO  H176 2227   5.495   3.856   0.761  0.7422  1.3821 -0.9254
    6CHTO  H177 2228   5.452   3.976   0.871  1.3944  0.9762  2.0146
    6CHTO  C105 2229   5.768   3.911   0.735 -0.0803  0.0505 -0.5381
    6CHTO  H192 2230   5.785   3.828   0.802 -0.9773 -0.1490 -0.5616
    6CHTO   O65 2231   5.895   3.987   0.723  0.5351 -0.0283  0.0834
    6CHTO  C100 2232   5.923   4.082   0.821 -0.0279  0.3325 -0.3159
    6CHTO  H187 2233   5.951   4.041   0.919  0.2861  1.1924 -0.0393
    6CHTO  C107 2234   6.062   4.145   0.777  0.1130 -0.0340  0.1583
    6CHTO   O70 2235   6.048   4.226   0.658  0.5649 -0.0516  1.0916
    6CHTO  H170 2236   5.961   4.221   0.623  0.5791 -0.7820  1.1456
    6CHTO   O57 2237   5.720   3.850   0.589 -0.1199  0.3153  0.1991
    6CHTO   C85 2238   5.782   3.873   0.460  0.2121  1.0974  0.7306
    6CHTO  H157 2239   5.702   3.832   0.394 -0.6096  0.4993  2.0852
    6CHTO   C83 2240   5.913   3.786   0.443 -0.4399  0.2478 -0.1447
    6CHTO  H155 2241   5.878   3.686   0.469  0.4834 -0.1509 -0.4174
    6CHTO   O56 2242   6.012   3.820   0.540  0.0933  0.2171 -0.8096
    6CHTO  H135 2243   6.046   3.906   0.525  0.7041  0.0245 -0.5448
    6CHTO   C81 2244   5.966   3.794   0.301 -0.1342  0.5811  0.0609
    6CHTO  H153 2245   5.880   3.778   0.236 -1.4371  1.6450  1.4766
    6CHTO   N14 2246   6.074   3.697   0.274  0.1263 -0.4026 -0.6408
    6CHTO  H141 2247   6.035   3.611   0.224  1.4286 -2.1277  1.2230
    6CHTO  H142 2248   6.152   3.739   0.214  0.5757 -1.3309 -0.7218
    6CHTO   C79 2249   6.008   3.940   0.279 -0.2304 -0.4438  0.1860
    6CHTO  H151 2250   6.031   3.947   0.173  1.5194  0.6338  0.6231
    6CHTO   O52 2251   5.896   4.025   0.296  0.3210  0.1188 -0.2497
    6CHTO   C86 2252   5.828   4.019   0.417  0.2046  0.0812 -0.2384
    6CHTO  H158 2253   5.895   4.063   0.494  0.1267 -0.5167  0.1797
    6CHTO   C90 2254   5.705   4.105   0.401  0.3426  0.0347  0.2228
    6CHTO   O60 2255   5.720   4.240   0.351 -0.3730  0.2190 -0.4080
    6CHTO  H138 2256   5.637   4.283   0.349 -0.4650 -0.0082 -2.4155
    6CHTO   O50 2257   6.111   3.989   0.362  0.4559  0.8377  0.5887
    6CHTO   C73 2258   6.232   4.041   0.298 -0.3513  0.3833 -1.0555
    6CHTO  H145 2259   6.245   3.997   0.198 -1.5069  1.7838 -1.8189
    6CHTO   C74 2260   6.366   4.003   0.375  0.0829  0.2908 -0.5566
    6CHTO  H146 2261   6.364   3.896   0.401 -1.2148  0.7961  1.5098
    6CHTO   O54 2262   6.479   4.015   0.283  0.1288 -0.1427 -0.5743
    6CHTO  H133 2263   6.535   3.941   0.275 -1.2067 -1.2195 -0.0596
    6CHTO   C75 2264   6.386   4.095   0.504 -0.2259  0.0368 -0.2728
    6CHTO  H147 2265   6.312   4.059   0.576 -2.1269 -0.9134 -2.6233
    6CHTO   N13 2266   6.519   4.076   0.565 -0.1575  0.4714  0.3187
    6CHTO  H139 2267   6.514   3.986   0.625  1.9383 -0.6542 -1.1233
    6CHTO  H140 2268   6.602   4.062   0.497 -0.6862 -1.5056  0.0476
    6CHTO   C76 2269   6.356   4.248   0.477  0.3819  0.1891  0.3616
    6CHTO  H148 2270   6.435   4.289   0.414 -0.0687 -0.2108 -0.4614
    6CHTO   O49 2271   6.225   4.261   0.411 -0.2207  0.1926  0.2743
    6CHTO   C77 2272   6.228   4.196   0.281 -0.7898 -0.5119 -0.2327
    6CHTO  H149 2273   6.320   4.225   0.229 -0.2454 -0.3245  0.8314
    6CHTO   C88 2274   6.104   4.244   0.204 -0.1228  0.5219 -0.0813
    6CHTO   O58 2275   6.101   4.191   0.073  0.6256 -0.3567  0.0106
    6CHTO  H136 2276   6.029   4.226   0.024 -0.4570 -2.0951  0.3090
    6CHTO   O51 2277   6.335   4.329   0.615 -0.2299  0.5465 -0.4706
    6CHTO   C78 2278   6.423   4.461   0.630 -0.2096  0.3177 -0.1430
    6CHTO  H150 2279   6.525   4.450   0.587 -1.2914 -0.7383 -2.5373
    6CHTO   C80 2280   6.436   4.484   0.779  1.2234  0.5547 -0.2987
    6CHTO  H152 2281   6.336   4.469   0.824  1.2710  1.4328  0.1009
    6CHTO   O55 2282   6.505   4.372   0.836 -0.2436 -0.0490 -0.4338
    6CHTO  H134 2283   6.450   4.296   0.834 -2.7100  1.6277  0.2831
    6CHTO   C84 2284   6.504   4.623   0.821  0.0640 -0.7390  0.3019
    6CHTO  H156 2285   6.606   4.610   0.785  0.3601 -1.4431  1.3870
    6CHTO   N15 2286   6.490   4.650   0.968  0.1448  0.2762 -0.1979
    6CHTO  H143 2287   6.587   4.645   1.013  0.2056 -3.9252 -0.6150
    6CHTO  H144 2288   6.449   4.745   0.996  0.7174  0.4183  0.1611
    6CHTO   C87 2289   6.438   4.742   0.750  0.4493 -0.4699  0.0021
    6CHTO  H159 2290   6.335   4.760   0.783  1.6171 -0.5480  3.9971
    6CHTO   O53 2291   6.441   4.700   0.608  0.4996 -0.0322  0.7659
    6CHTO   C82 2292   6.360   4.588   0.577 -0.7286 -0.1570  0.3655
    6CHTO  H154 2293   6.258   4.594   0.614 -1.7512  0.0656 -2.3709
    6CHTO   C89 2294   6.348   4.578   0.429 -0.5294 -0.0694 -0.0508
    6CHTO   O59 2295   6.249   4.661   0.376  0.0991  0.0391 -0.3081
    6CHTO  H137 2296   6.210   4.616   0.303  0.3134 -0.8906  0.1420
    6CHTO   O45 2297   6.502   4.886   0.765 -0.9662  0.4824  0.7146
    6CHTO   C67 2298   6.647   4.900   0.740  0.0339 -0.3858  0.1061
    6CHTO  H124 2299   6.698   4.808   0.769 -2.6250 -1.9553  0.0142
    6CHTO   C65 2300   6.674   4.926   0.585 -0.0003 -0.2995  0.0126
    6CHTO  H122 2301   6.577   4.917   0.536 -0.5744 -0.7520  1.2233
    6CHTO   O44 2302   6.748   4.817   0.538  0.4862  0.2015  0.0357
    6CHTO  H102 2303   6.835   4.851   0.527  0.7833  0.2082  2.2306
    6CHTO   C63 2304   6.722   5.074   0.540 -0.0212 -0.0669  0.1361
    6CHTO  H120 2305   6.660   5.145   0.594 -0.4689 -0.1481 -0.2645
    6CHTO   N11 2306   6.713   5.111   0.401 -0.0748 -0.3078  0.4599
    6CHTO  H108 2307   6.721   5.034   0.327  1.6030 -0.3240  0.6408
    6CHTO  H109 2308   6.636   5.183   0.383  2.2436  1.9941 -0.6089
    6CHTO   C61 2309   6.859   5.091   0.622  0.3949 -0.5643 -0.1705
    6CHTO  H118 2310   6.881   5.198   0.611  2.3601 -1.0546 -1.2162
    6CHTO   O40 2311   6.840   5.071   0.767  0.3347 -0.0957  0.6144
    6CHTO   C68 2312   6.719   5.018   0.824 -0.0497  0.9045 -0.2148
    6CHTO  H125 2313   6.661   5.113   0.832 -1.1944  0.1779  0.3095
    6CHTO   C72 2314   6.758   4.972   0.969 -0.4879  0.5968  0.1369
    6CHTO   O48 2315   6.772   5.078   1.068  0.6518  0.3203  0.5882
    6CHTO  H105 2316   6.748   5.055   1.156 -0.0956  0.4517  0.4179
    6CHTO   O38 2317   6.975   5.017   0.573  0.7508 -0.0839  0.0876
    6CHTO   C55 2318   7.104   5.067   0.585 -0.0921  0.2640 -0.0965
    6CHTO  H112 2319   7.105   5.142   0.666  0.8133 -0.0218  0.1695
    6CHTO   C56 2320   7.160   5.120   0.446  0.1849  0.8300 -0.2318
    6CHTO  H113 2321   7.158   5.031   0.381  0.8027  1.8718 -1.6863
    6CHTO   O42 2322   7.078   5.222   0.392 -0.0086 -0.0008  0.1599
    6CHTO  H100 2323   7.079   5.302   0.440  1.7769  1.1446 -1.7076
    6CHTO   C57 2324   7.306   5.173   0.463 -0.0497 -0.5299  0.2124
    6CHTO  H114 2325   7.298   5.264   0.523  2.4900 -1.2541  1.7273
    6CHTO   N10 2326   7.370   5.208   0.333 -0.2504 -0.8337 -0.7970
    6CHTO  H106 2327   7.339   5.137   0.258 -1.1287 -2.6273  1.2101
    6CHTO  H107 2328   7.350   5.309   0.297 -1.2480 -0.4199  0.8734
    6CHTO   C58 2329   7.390   5.074   0.547  0.2895 -0.3559 -0.2327
    6CHTO  H115 2330   7.414   4.986   0.483  0.3505 -0.7113  0.2771
    6CHTO   O37 2331   7.316   5.016   0.656 -0.0284 -0.1654  0.0976
    6CHTO   C59 2332   7.191   4.953   0.639 -0.0458  0.0768 -0.3973
    6CHTO  H116 2333   7.194   4.875   0.563 -0.5969 -0.7416  0.4292
    6CHTO   C70 2334   7.136   4.896   0.770 -0.6039  0.5017 -0.2894
    6CHTO   O46 2335   7.017   4.819   0.756  0.1357  0.4026 -0.0451
    6CHTO  H103 2336   6.941   4.872   0.767 -0.1973  0.3393 -1.9123
    6CHTO   O39 2337   7.528   5.144   0.593  1.0726 -0.2581 -0.2417
    6CHTO   C60 2338   7.660   5.082   0.582  0.0705  0.1350 -0.6366
    6CHTO  H117 2339   7.646   4.975   0.566  1.3236  0.1118 -1.7292
    6CHTO   C62 2340   7.734   5.140   0.457 -0.3415  0.3573  0.0333
    6CHTO  H119 2341   7.675   5.112   0.368  1.9244  0.6347 -1.6011
    6CHTO   O43 2342   7.745   5.284   0.465  0.0069  0.6736  0.1952
    6CHTO  H101 2343   7.761   5.311   0.377 -1.9122 -2.2419 -1.1380
    6CHTO   C66 2344   7.879   5.071   0.448 -0.2517  0.9326 -0.1825
    6CHTO  H123 2345   7.867   4.963   0.456  0.8569  0.8102 -0.1113
    6CHTO   N12 2346   7.939   5.098   0.314  0.9807 -0.6412 -0.2564
    6CHTO  H110 2347   7.975   5.200   0.301 -1.2861  0.1617 -0.5195
    6CHTO  H111 2348   8.018   5.033   0.280  1.7617  2.2087 -4.2703
    6CHTO   C69 2349   7.966   5.112   0.573  0.2733 -0.0866  0.6298
    6CHTO  H126 2350   7.956   5.222   0.574 -0.8581 -0.1853  1.6730
    6CHTO   O41 2351   7.881   5.054   0.705 -0.3461  0.4212  0.3931
    6CHTO   C64 2352   7.739   5.106   0.718  0.1641  0.1739 -0.0209
    6CHTO  H121 2353   7.731   5.216   0.733  1.3937  0.3732 -0.6931
    6CHTO   C71 2354   7.662   5.039   0.832 -0.3382  0.4742  0.4212
    6CHTO   O47 2355   7.673   4.897   0.841 -0.3048 -0.6071 -0.1364
    6CHTO  H104 2356   7.762   4.875   0.859 -0.0471  1.1460  0.8187
    6CHTO   O34 2357   8.127   5.051   0.567 -0.3592 -0.2958  0.2599
    6CHTO   C49 2358   8.257   5.049   0.480 -0.4884  0.6504  0.5714
    6CHTO   H91 2359   8.239   5.017   0.378 -1.2375  0.7856  0.6618
    6CHTO   C47 2360   8.357   4.957   0.554 -0.2041  0.2699 -0.5213
    6CHTO   H89 2361   8.448   4.969   0.492 -0.6384  1.7626 -0.9026
    6CHTO   O33 2362   8.312   4.816   0.540  0.2967 -0.5046  0.3488
    6CHTO   H70 2363   8.326   4.786   0.452  0.7337 -0.9116  0.5580
    6CHTO   C45 2364   8.390   5.010   0.704 -0.3772 -0.3942 -0.2784
    6CHTO   H87 2365   8.317   4.968   0.774  1.4469 -0.0420  1.8798
    6CHTO    N8 2366   8.526   4.962   0.745 -0.9745  0.2937  0.0882
    6CHTO   H75 2367   8.552   4.996   0.844 -1.1808  2.0598 -0.4389
    6CHTO   H76 2368   8.532   4.855   0.754  2.8858  0.4142 -0.2839
    6CHTO   C43 2369   8.374   5.174   0.708  1.0898 -0.0553  0.2062
    6CHTO   H85 2370   8.266   5.192   0.717  1.0797  0.3849 -0.7150
    6CHTO   O29 2371   8.418   5.216   0.584 -0.0733  0.8531 -0.0707
    6CHTO   C50 2372   8.321   5.191   0.479  0.5597 -0.7455  0.3172
    6CHTO   H92 2373   8.240   5.266   0.482  1.5436  0.3715 -0.8385
    6CHTO   C54 2374   8.390   5.212   0.339 -0.6384  0.0657  0.7762
    6CHTO   O36 2375   8.436   5.347   0.324  0.1024 -0.2841 -0.2216
    6CHTO   H72 2376   8.424   5.390   0.406 -1.9123 -1.4982  0.1443
    6CHTO   O27 2377   8.428   5.242   0.824  0.0421 -0.7146  0.0354
    6CHTO   C37 2378   8.488   5.350   0.897  0.0912 -0.3388 -0.3041
    6CHTO   H79 2379   8.596   5.328   0.899 -0.1083 -1.3216  0.6591
    6CHTO   C38 2380   8.476   5.484   0.829 -0.1158 -0.3735  0.0669
    6CHTO   H80 2381   8.372   5.511   0.807  0.7234  1.2442 -2.1553
    6CHTO   O31 2382   8.532   5.460   0.703  0.0370  0.0372  0.2241
    6CHTO   H68 2383   8.516   5.529   0.642  0.6469 -0.5320 -0.5885
    6CHTO   C39 2384   8.541   5.616   0.908 -0.6535 -0.5764  0.0688
    6CHTO   H81 2385   8.649   5.598   0.906 -0.7436 -1.1727  0.3435
    6CHTO    N7 2386   8.503   5.744   0.834  0.8464 -0.2163 -0.6801
    6CHTO   H73 2387   8.411   5.724   0.781  1.5377 -1.9728 -1.2432
    6CHTO   H74 2388   8.503   5.829   0.901  0.9572 -0.2724 -0.6088
    6CHTO   C40 2389   8.490   5.607   1.058 -0.4255  0.2241  0.3831
    6CHTO   H82 2390   8.391   5.648   1.077 -1.2725 -0.8647 -1.5857
    6CHTO   O26 2391   8.508   5.478   1.110  0.4608 -0.1553 -0.0378
    6CHTO   C41 2392   8.441   5.364   1.038  0.9378 -0.0509 -0.2863
    6CHTO   H83 2393   8.334   5.390   1.041  0.9656 -0.0355  0.9858
    6CHTO   C52 2394   8.464   5.246   1.131  0.2501 -0.0046 -0.7048
    6CHTO   O35 2395   8.375   5.240   1.236 -0.0155 -0.0331 -0.2990
    6CHTO   H71 2396   8.300   5.194   1.203  0.6399 -0.0993 -1.7588
    6CHTO   O28 2397   8.572   5.693   1.141 -0.4590  0.0354 -0.4621
    6CHTO   C42 2398   8.546   5.733   1.277  1.1204 -0.9111  0.5220
    6CHTO   H84 2399   8.635   5.790   1.305  0.1012 -0.2512  2.5140
    6CHTO   C44 2400   8.528   5.627   1.384  0.3314  0.7969  0.4443
    6CHTO   H86 2401   8.448   5.559   1.356 -0.0687  2.2380 -2.0795
    6CHTO   O32 2402   8.646   5.543   1.378  0.3391  0.2617 -0.1616
    6CHTO   H69 2403   8.704   5.557   1.305 -0.4372  2.5643 -0.3981
    6CHTO   C48 2404   8.501   5.699   1.523  0.6344 -0.5922  0.0019
    6CHTO   H90 2405   8.591   5.749   1.560 -0.0194  1.4444 -1.0784
    6CHTO    N9 2406   8.471   5.598   1.633 -0.0749  0.3306 -0.6082
    6CHTO   H77 2407   8.554   5.529   1.641 -1.1245 -1.0794 -1.4513
    6CHTO   H78 2408   8.379   5.543   1.620  1.2377 -2.5702  1.7679
    6CHTO   C51 2409   8.382   5.804   1.508 -0.1953 -0.1915 -0.0703
    6CHTO   H93 2410   8.285   5.754   1.496  0.2439 -0.6831 -1.6169
    6CHTO   O30 2411   8.405   5.904   1.411 -0.1618 -0.1897 -0.5952
    6CHTO   C46 2412   8.431   5.841   1.277 -0.0369  0.0085  0.0467
    6CHTO   H88 2413   8.335   5.802   1.241 -0.3366 -1.3430  2.2384
    6CHTO   C53 2414   8.484   5.962   1.183  0.0546 -0.3563  0.4703
    6CHTO   O72 2415   8.378   6.055   1.169  0.1732  0.2875 -0.5415
    6CHTO  H199 2416   8.349   6.067   1.081 -1.2164  1.6089  0.0721
    6CHTO   O22 2417   8.385   5.883   1.623  0.5036 -0.2268  0.1216
    6CHTO   C31 2418   8.268   5.965   1.671 -0.7654 -0.6595 -0.1573
    6CHTO   H59 2419   8.304   6.024   1.758 -0.0926 -2.4602  0.8234
    6CHTO   C29 2420   8.226   6.069   1.560  0.6632  0.2334  0.4617
    6CHTO   H57 2421   8.196   6.027   1.463 -3.1952  2.0201  0.7956
    6CHTO   O21 2422   8.335   6.154   1.537 -0.5280 -0.7703  0.2825
    6CHTO   H37 2423   8.416   6.112   1.513  0.1016 -0.1718  1.2912
    6CHTO   C27 2424   8.100   6.164   1.613  0.5727  0.5865  0.4053
    6CHTO   H55 2425   8.143   6.211   1.703  1.1936 -0.3077  0.5842
    6CHTO    N5 2426   8.052   6.264   1.514  0.0713 -0.1310 -0.2305
    6CHTO   H43 2427   8.128   6.311   1.454 -1.2234  2.7009  0.2525
    6CHTO   H44 2428   7.960   6.237   1.466 -0.2245  2.3790 -1.1631
    6CHTO   C25 2429   7.983   6.070   1.667 -0.4418 -0.1406  0.3208
    6CHTO   H53 2430   7.930   6.027   1.581 -1.2107  0.5041  0.4658
    6CHTO   O17 2431   8.036   5.978   1.767  0.0354 -0.3445 -0.2900
    6CHTO   C32 2432   8.137   5.885   1.713  0.6915 -0.0665 -0.1582
    6CHTO   H60 2433   8.096   5.843   1.621 -0.3048  0.8099 -0.1194
    6CHTO   C36 2434   8.171   5.784   1.822  0.6663  1.0858 -0.5164
    6CHTO   O25 2435   8.058   5.741   1.900 -0.0261  0.0475  0.3658
    6CHTO   H40 2436   8.029   5.655   1.877  0.5614 -1.3829  4.4834
    6CHTO   O15 2437   7.881   6.168   1.749 -0.0983 -0.3976  0.8153
    6CHTO   C19 2438   7.763   6.256   1.759  0.0539 -0.2295 -0.0750
    6CHTO   H47 2439   7.731   6.258   1.864 -2.1385  1.4208 -0.7257
    6CHTO   C20 2440   7.783   6.405   1.715 -0.1510  0.2439 -0.3032
    6CHTO   H48 2441   7.842   6.412   1.623  0.5680 -1.4751  0.0088
    6CHTO   O19 2442   7.852   6.464   1.829 -0.2353  0.5043  0.0474
    6CHTO   H35 2443   7.942   6.476   1.807  0.0595 -2.6074 -0.6728
    6CHTO   C21 2444   7.651   6.488   1.692  0.1293  0.6467 -0.4269
    6CHTO   H49 2445   7.604   6.506   1.789 -0.7885 -3.1443 -0.0930
    6CHTO    N4 2446   7.684   6.623   1.625  0.1110  0.0090 -0.1743
    6CHTO   H41 2447   7.730   6.606   1.529  0.5418 -3.4238  0.6021
    6CHTO   H42 2448   7.751   6.682   1.686  0.4679  1.0807 -1.5693
    6CHTO   C22 2449   7.533   6.405   1.644 -0.3280  0.0622  0.3149
    6CHTO   H50 2450   7.545   6.398   1.536  0.9295 -0.4035  0.4730
    6CHTO   O14 2451   7.530   6.276   1.701 -0.2801 -0.1040  0.4033
    6CHTO   C23 2452   7.643   6.190   1.682 -0.8466 -0.5948  0.0257
    6CHTO   H51 2453   7.663   6.182   1.574 -1.0296 -0.1792 -0.0400
    6CHTO   C34 2454   7.603   6.055   1.738  0.7316 -0.3870  0.0418
    6CHTO   O23 2455   7.576   6.054   1.881 -0.4761  0.2031 -0.7600
    6CHTO   H38 2456   7.483   6.041   1.878 -0.2520 -1.1675 -2.9117
    6CHTO   O16 2457   7.412   6.483   1.669 -0.1545 -0.1860 -0.5368
    6CHTO   C24 2458   7.288   6.457   1.560  0.6808 -0.1313 -0.0704
    6CHTO   H52 2459   7.309   6.376   1.490 -0.7708 -1.6204  1.1551
    6CHTO   C26 2460   7.268   6.586   1.482  0.0549 -1.1440 -0.0511
    6CHTO   H54 2461   7.270   6.669   1.556 -1.4099  1.6130 -2.9885
    6CHTO   O20 2462   7.377   6.598   1.391 -0.1394  0.1512  0.0086
    6CHTO   H36 2463   7.439   6.665   1.412 -0.0061  0.8065 -2.2897
    6CHTO   C30 2464   7.127   6.593   1.408  0.6291  0.0932 -0.0249
    6CHTO   H58 2465   7.135   6.521   1.325  0.2974  0.1644 -0.1226
    6CHTO    N6 2466   7.097   6.725   1.348  0.5654  0.0247  0.2393
    6CHTO   H45 2467   7.045   6.799   1.409  1.0581 -1.4919  2.5613
    6CHTO   H46 2468   7.038   6.705   1.260  0.4460 -2.2215  0.8097
    6CHTO   C33 2469   7.014   6.546   1.510 -0.5326 -0.6787 -0.3704
    6CHTO   H61 2470   7.015   6.616   1.595 -0.0275 -0.6528 -0.3967
    6CHTO   O18 2471   7.039   6.414   1.558 -0.3372 -0.2665 -0.0154
    6CHTO   C28 2472   7.156   6.408   1.640  0.5001 -0.1025  0.2714
    6CHTO   H56 2473   7.149   6.467   1.731  1.7402  1.6287 -0.7379
    6CHTO   C35 2474   7.197   6.265   1.690  0.6419 -0.1340  1.2124
    6CHTO   O24 2475   7.087   6.193   1.750 -0.6115  0.0817 -0.0705
    6CHTO   H39 2476   7.024   6.181   1.682 -1.2464 -1.9787  0.8298
    6CHTO    O9 2477   6.879   6.563   1.456  0.3659  0.2099 -0.3992
    6CHTO   C13 2478   6.764   6.628   1.577 -0.5130  0.2382 -0.4620
    6CHTO   H26 2479   6.812   6.715   1.627  0.9135  0.0473 -1.4733
    6CHTO   C11 2480   6.720   6.515   1.677  0.1553 -0.5354 -0.2358
    6CHTO   H24 2481   6.795   6.509   1.758  0.9777  1.7161 -0.8032
    6CHTO    O8 2482   6.720   6.383   1.606 -0.1174 -0.3841  0.5148
    6CHTO    H3 2483   6.678   6.394   1.523  0.4123  1.5873  0.4884
    6CHTO    C9 2484   6.585   6.538   1.745  0.0121  0.2841  0.3936
    6CHTO   H22 2485   6.593   6.638   1.791  2.7127  0.8006 -1.1071
    6CHTO    N2 2486   6.555   6.448   1.856 -0.0254 -0.1389 -0.4392
    6CHTO   H10 2487   6.614   6.358   1.855 -0.6002 -0.5334  0.7279
    6CHTO   H11 2488   6.547   6.492   1.954  2.1203 -1.2705  0.2656
    6CHTO    C7 2489   6.474   6.533   1.633  0.3592  0.2331  0.2876
    6CHTO   H20 2490   6.396   6.596   1.681  2.4352  2.5617  0.6746
    6CHTO    O4 2491   6.513   6.601   1.520  0.7689 -0.3417  0.1074
    6CHTO   C14 2492   6.633   6.681   1.502 -0.5142 -0.0572 -1.0471
    6CHTO   H27 2493   6.606   6.781   1.541  0.5184 -0.6486  1.3058
    6CHTO   C18 2494   6.650   6.691   1.346 -0.7752 -0.0558 -0.4562
    6CHTO   O13 2495   6.760   6.784   1.323 -0.0518  0.2802  0.1351
    6CHTO    H7 2496   6.720   6.869   1.332  0.2705  0.3835  0.5696
    6CHTO    O2 2497   6.431   6.362   1.589  0.2422  0.0371  0.4160
    6CHTO    C1 2498   6.299   6.347   1.536  0.0842  0.2550  0.0452
    6CHTO   H14 2499   6.318   6.263   1.465  1.3173  1.2072 -0.7801
    6CHTO    C2 2500   6.228   6.470   1.458 -0.3800 -0.1886  0.0586
    6CHTO   H15 2501   6.226   6.556   1.527 -2.5977  1.8889 -2.4816
    6CHTO    O6 2502   6.292   6.515   1.338  0.0603 -0.5532  0.9229
    6CHTO    H1 2503   6.307   6.450   1.272  0.1924  0.5751 -0.1704
    6CHTO    C3 2504   6.081   6.438   1.422 -0.2476  0.5383  0.0945
    6CHTO   H16 2505   6.080   6.359   1.346 -2.3912 -2.8570  3.4803
    6CHTO    N1 2506   6.010   6.562   1.374  0.6669  0.5556 -0.4530
    6CHTO    H8 2507   5.990   6.624   1.460 -0.1854 -2.0149  1.2443
    6CHTO    H9 2508   6.072   6.616   1.305  2.8664 -1.2998  0.0121
    6CHTO    C4 2509   6.007   6.379   1.546  0.3888 -0.0588 -0.2179
    6CHTO   H17 2510   5.996   6.458   1.620  2.2312 -0.5811  0.6170
    6CHTO    O1 2511   6.077   6.264   1.591  0.3507  0.0058  0.4297
    6CHTO    C5 2512   6.205   6.290   1.649 -0.5678  0.0212 -0.4430
    6CHTO   H18 2513   6.207   6.363   1.730  2.5753 -0.2558 -0.2053
    6CHTO   C16 2514   6.252   6.147   1.702  0.0014  0.1004  0.3556
    6CHTO   O11 2515   6.375   6.159   1.775 -0.2598 -0.1129 -0.1895
    6CHTO    H5 2516   6.399   6.071   1.796  0.2643  0.2272  0.6525
    6CHTO    O3 2517   5.878   6.317   1.509 -0.0432 -0.3515  0.5581
    6CHTO    C6 2518   5.774   6.313   1.619 -0.0055 -0.1196  0.4727
    6CHTO   H19 2519   5.825   6.329   1.714  0.9553 -0.7945  0.0810
    6CHTO    C8 2520   5.658   6.414   1.598 -0.2098 -0.0681  0.4133
    6CHTO   H21 2521   5.614   6.398   1.500 -1.3921  0.7912  0.7877
    6CHTO    O7 2522   5.715   6.538   1.607  0.4431 -0.0957 -0.3305
    6CHTO    H2 2523   5.692   6.579   1.689  0.0517 -1.1137  0.0753
    6CHTO   C12 2524   5.544   6.384   1.709 -0.1826 -0.3993 -0.3244
    6CHTO   H25 2525   5.593   6.391   1.808  1.0378 -1.8297 -0.8178
    6CHTO    N3 2526   5.437   6.486   1.692 -0.0908  0.1475 -0.2161
    6CHTO   H12 2527   5.468   6.577   1.740  2.6179 -1.2911  0.9119
    6CHTO   H13 2528   5.347   6.457   1.744 -0.9119 -0.7234 -2.0711
    6CHTO   C15 2529   5.496   6.236   1.698  0.0280 -1.0339  0.2921
    6CHTO   H28 2530   5.438   6.217   1.608 -0.4858  4.9262 -0.8813
    6CHTO   O10 2531   5.416   6.183   1.809  0.2252 -0.4622  0.5720
    6CHTO    H4 2532   5.450   6.109   1.856 -1.1594 -0.9559  0.8051
    6CHTO    O5 2533   5.610   6.151   1.710 -0.2130  0.0322  0.3994
    6CHTO   C10 2534   5.720   6.167   1.620 -0.0459  0.1695 -0.1362
    6CHTO   H23 2535   5.675   6.147   1.522 -1.6157  2.4922  0.0509
    6CHTO   C17 2536   5.830   6.063   1.637 -0.0491 -0.8732  0.1614
    6CHTO   O12 2537   5.780   5.940   1.593 -0.4823  0.6654 -0.2379
    6CHTO    H6 2538   5.746   5.947   1.506 -2.5681 -0.7055  0.4293
    7CHTO  H203 2539   5.252   2.454   1.722  0.2295  0.1313 -2.1174
    7CHTO   O82 2540   5.340   2.424   1.709  0.2394 -0.4555 -0.7411
    7CHTO  C123 2541   5.426   2.539   1.699  0.0197 -0.1722 -0.7151
    7CHTO  H227 2542   5.369   2.632   1.685  1.2617  0.3940 -2.1670
    7CHTO   O77 2543   5.474   2.542   1.833 -0.1721  0.6758  0.3177
    7CHTO  C118 2544   5.598   2.613   1.848  0.3016  0.6206  0.5197
    7CHTO  H222 2545   5.585   2.714   1.808  0.4727 -0.1305 -1.4961
    7CHTO  C125 2546   5.635   2.620   2.002  0.1940 -0.8171 -0.4248
    7CHTO   O84 2547   5.626   2.489   2.061  0.0679 -0.3742  0.6183
    7CHTO  H205 2548   5.711   2.457   2.081  1.3398  2.1664 -0.4398
    7CHTO  C114 2549   5.714   2.550   1.764 -0.0001  0.8933  0.4128
    7CHTO  H218 2550   5.718   2.442   1.777  0.0525  0.6968 -1.0947
    7CHTO  C116 2551   5.672   2.576   1.615 -0.2893  0.2297 -0.0108
    7CHTO  H220 2552   5.663   2.686   1.601  0.2005  0.3379  0.5237
    7CHTO   O79 2553   5.772   2.544   1.516  0.0223 -0.1228  0.0001
    7CHTO  H201 2554   5.852   2.547   1.564 -0.1458 -1.2146  0.3605
    7CHTO  C120 2555   5.535   2.502   1.586 -0.8148  0.1627 -0.3077
    7CHTO  H224 2556   5.562   2.394   1.581  0.7271  0.5341 -0.3944
    7CHTO   N21 2557   5.491   2.532   1.448 -0.0811 -0.6131  0.3527
    7CHTO  H211 2558   5.386   2.511   1.438 -0.6239  2.1253 -0.1720
    7CHTO  H212 2559   5.552   2.487   1.371  2.8838  2.1899  0.9489
    7CHTO   O75 2560   5.836   2.617   1.796 -0.2727 -0.4416 -0.2331
    7CHTO  C112 2561   5.941   2.525   1.767  0.4021 -0.0097  0.0532
    7CHTO  H216 2562   5.910   2.462   1.682 -1.0408  1.8164 -0.8042
    7CHTO   O73 2563   5.968   2.445   1.889  0.1763  0.4146  0.2087
    7CHTO  C113 2564   6.056   2.332   1.878 -0.3335 -0.2779  0.4320
    7CHTO  H217 2565   6.029   2.275   1.787  1.6573 -2.2497  1.0266
    7CHTO  C124 2566   6.071   2.246   2.003  0.2558  0.3252  0.3174
    7CHTO   O83 2567   5.945   2.211   2.063 -0.1681  0.5176  0.0872
    7CHTO  H204 2568   5.891   2.175   1.995  0.9285 -0.2649 -0.3836
    7CHTO  C109 2569   6.191   2.394   1.842  0.0990 -0.4431 -0.5299
    7CHTO  H213 2570   6.218   2.467   1.919  0.8872  0.6118 -1.7875
    7CHTO  C110 2571   6.175   2.476   1.708 -0.3602  0.0244 -0.4593
    7CHTO  H214 2572   6.141   2.414   1.626  2.4988 -1.7366 -0.3941
    7CHTO   O78 2573   6.306   2.521   1.673  0.0396  0.2670  0.6346
    7CHTO  H200 2574   6.346   2.578   1.736  1.3465  0.2460 -0.1537
    7CHTO  C111 2575   6.078   2.595   1.720  0.5130  0.3294  0.0430
    7CHTO  H215 2576   6.117   2.650   1.807 -2.8336 -1.4734  2.8017
    7CHTO   N19 2577   6.072   2.692   1.607  0.3414 -1.0683 -0.1030
    7CHTO  H207 2578   6.152   2.764   1.615  0.6588 -1.1800 -1.9638
    7CHTO  H208 2579   5.980   2.746   1.592  1.0561  0.5554  1.2632
    7CHTO   O74 2580   6.294   2.294   1.834 -0.0853 -0.4004 -0.3292
    7CHTO  C115 2581   6.414   2.355   1.898 -0.2718  0.2133  0.3226
    7CHTO  H219 2582   6.422   2.463   1.885  0.9035 -0.1149 -1.9736
    7CHTO   O76 2583   6.415   2.329   2.057  0.4042  0.1677 -0.0047
    7CHTO  C122 2584   6.442   2.191   2.096  0.4202 -1.4824 -0.1119
    7CHTO  H226 2585   6.358   2.128   2.066 -0.7105  0.2947 -0.7400
    7CHTO  C126 2586   6.425   2.204   2.247 -0.8862  0.1127 -0.2731
    7CHTO   O85 2587   6.464   2.084   2.312  0.0795  0.3951 -0.9216
    7CHTO  H206 2588   6.556   2.071   2.298 -0.1817 -1.8668 -0.7308
    7CHTO  C121 2589   6.580   2.150   2.024 -0.4216  0.6764 -0.0909
    7CHTO  H225 2590   6.652   2.229   2.051 -0.4163  0.7045 -0.1897
    7CHTO   O81 2591   6.638   2.029   2.064 -0.0050  0.1622  0.0836
    7CHTO  H202 2592   6.641   2.028   2.158  1.1724 -1.0609  0.0428
    7CHTO  C119 2593   6.565   2.152   1.873  0.5562 -0.3888 -1.0358
    7CHTO  H223 2594   6.659   2.119   1.830 -0.1107 -0.7619 -2.2440
    7CHTO  C117 2595   6.536   2.293   1.819  0.1903  0.0165 -0.0474
    7CHTO  H221 2596   6.506   2.294   1.715  1.5809 -0.6418 -0.4707
    7CHTO   N20 2597   6.660   2.388   1.828  0.3209 -0.5985 -0.3388
    7CHTO  H209 2598   6.624   2.482   1.789 -1.0777 -1.2936 -0.7349
    7CHTO  H210 2599   6.695   2.394   1.930  0.6976 -1.6586 -0.4013
    7CHTO   O80 2600   6.466   2.040   1.834 -0.0269  0.1360 -0.2643
    7CHTO  C103 2601   6.500   1.932   1.695 -0.0230  0.3993 -0.3851
    7CHTO  H190 2602   6.490   1.997   1.608  0.2683  1.2637  0.2201
    7CHTO  C101 2603   6.636   1.858   1.691 -0.2749 -0.0345  0.5861
    7CHTO  H188 2604   6.638   1.797   1.782 -0.4084  0.5993  1.0181
    7CHTO   O68 2605   6.749   1.948   1.692 -0.1367 -0.3870 -0.1366
    7CHTO  H168 2606   6.719   2.018   1.748  1.9865 -0.8210  1.6111
    7CHTO   C99 2607   6.638   1.756   1.565  0.2899 -0.3264  0.6822
    7CHTO  H186 2608   6.629   1.812   1.469 -0.3481  1.6830  1.8732
    7CHTO   N17 2609   6.767   1.670   1.546  0.1172 -0.2519 -0.0913
    7CHTO  H174 2610   6.823   1.701   1.459 -0.6244 -0.8152 -0.7794
    7CHTO  H175 2611   6.830   1.666   1.634  0.2815  2.5429 -0.0380
    7CHTO   C97 2612   6.511   1.658   1.563  0.5497 -0.2684 -0.6536
    7CHTO  H184 2613   6.521   1.589   1.649  0.3419  1.9054  1.1514
    7CHTO   O64 2614   6.387   1.738   1.573  0.0795  0.2588  0.2633
    7CHTO  C104 2615   6.384   1.823   1.694  0.8598 -0.3174  0.0635
    7CHTO  H191 2616   6.399   1.765   1.785  1.2487  0.8494  0.7624
    7CHTO  C108 2617   6.253   1.887   1.719  1.0072 -0.3946 -0.4399
    7CHTO   O71 2618   6.153   1.783   1.742  0.5498  0.7130 -0.1526
    7CHTO  H171 2619   6.091   1.813   1.806  0.7269  1.3220 -0.2649
    7CHTO   O62 2620   6.498   1.586   1.438 -0.3659  0.5842 -0.1983
    7CHTO   C91 2621   6.385   1.499   1.416  0.2520 -0.2489  0.5772
    7CHTO  H178 2622   6.422   1.430   1.340  1.7046  0.7262  0.3750
    7CHTO   C92 2623   6.272   1.576   1.328 -1.3214  0.1522  0.5884
    7CHTO  H179 2624   6.260   1.680   1.363  0.5955  1.3601 -2.1345
    7CHTO   O66 2625   6.325   1.567   1.196  0.4796 -0.6789  0.6370
    7CHTO  H166 2626   6.389   1.634   1.182 -0.9451  0.6560  0.5122
    7CHTO   C93 2627   6.134   1.494   1.330 -0.0575 -0.1199  0.0287
    7CHTO  H180 2628   6.152   1.398   1.281 -0.9729 -0.0822 -0.4052
    7CHTO   N16 2629   6.027   1.563   1.254 -0.0443 -0.9900 -0.0374
    7CHTO  H172 2630   5.986   1.488   1.188 -0.9544 -1.8070  1.4362
    7CHTO  H173 2631   6.060   1.654   1.207 -0.6273 -0.2690  0.9494
    7CHTO   C94 2632   6.107   1.475   1.478 -0.2400  0.2489 -0.1685
    7CHTO  H181 2633   6.135   1.565   1.533 -2.4177  1.2094 -0.5607
    7CHTO   O61 2634   6.195   1.366   1.523 -0.6175 -0.0814 -0.0368
    7CHTO   C95 2635   6.329   1.415   1.545 -0.5278 -0.2501  0.0200
    7CHTO  H182 2636   6.325   1.480   1.633 -2.8390  2.7083 -2.1323
    7CHTO  C106 2637   6.422   1.298   1.572 -0.2189 -0.2218  0.0788
    7CHTO   O69 2638   6.413   1.189   1.474 -0.4656 -0.1537  0.6089
    7CHTO  H169 2639   6.505   1.175   1.460 -0.1423  1.9139  0.4620
    7CHTO   O63 2640   5.956   1.430   1.519 -0.1572 -0.1546 -0.0628
    7CHTO   C96 2641   5.898   1.489   1.643 -0.9871  0.2287  0.2690
    7CHTO  H183 2642   5.894   1.596   1.623  0.9019  0.1353 -0.7351
    7CHTO   C98 2643   5.963   1.463   1.782  0.1511 -1.0106  0.4098
    7CHTO  H185 2644   6.072   1.473   1.771 -0.0922  2.6543  0.5659
    7CHTO   O67 2645   5.918   1.568   1.869  0.7544  0.1188  0.4032
    7CHTO  H167 2646   5.968   1.647   1.863  1.1025 -0.2701 -2.6446
    7CHTO  C102 2647   5.939   1.320   1.848 -0.1750 -0.0799  0.9178
    7CHTO  H189 2648   5.946   1.337   1.957 -3.6763 -0.7757  1.2971
    7CHTO   N18 2649   6.049   1.224   1.818  0.3902 -0.9985 -0.2549
    7CHTO  H176 2650   6.108   1.206   1.907  1.7443  0.7593 -0.7495
    7CHTO  H177 2651   6.003   1.136   1.776  0.2678  0.1019 -2.4682
    7CHTO  C105 2652   5.799   1.267   1.808 -0.0155 -0.1740 -0.0940
    7CHTO  H192 2653   5.811   1.188   1.734  0.3166 -1.7254  1.5866
    7CHTO   O65 2654   5.703   1.366   1.766 -0.5054 -0.3100  0.2268
    7CHTO  C100 2655   5.744   1.433   1.645  0.1596 -0.4391 -0.4986
    7CHTO  H187 2656   5.723   1.372   1.555  0.3970  1.4503 -1.8540
    7CHTO  C107 2657   5.648   1.551   1.629  0.7173  0.1679  0.0801
    7CHTO   O70 2658   5.678   1.636   1.515 -0.0272 -0.3212  0.4122
    7CHTO  H170 2659   5.601   1.688   1.502 -0.7186 -1.3165  0.5255
    7CHTO   O57 2660   5.741   1.208   1.941 -0.3349  0.1148  0.3806
    7CHTO   C85 2661   5.718   1.067   1.953 -0.2803  0.3210  0.2153
    7CHTO  H157 2662   5.779   1.023   1.872 -0.1079 -0.2405  0.6512
    7CHTO   C83 2663   5.572   1.039   1.932  0.0008  0.2364 -0.9150
    7CHTO  H155 2664   5.544   1.088   1.839  0.0858  1.3873 -0.3373
    7CHTO   O56 2665   5.502   1.101   2.045 -0.1159 -0.0016  0.3641
    7CHTO  H135 2666   5.410   1.081   2.046  0.1378 -1.3151 -0.4381
    7CHTO   C81 2667   5.545   0.885   1.923  0.6655  0.1478 -0.5618
    7CHTO  H153 2668   5.608   0.845   1.843 -0.5295  0.4517 -1.6720
    7CHTO   N14 2669   5.404   0.855   1.895 -0.0807 -0.1829 -0.1232
    7CHTO  H141 2670   5.345   0.897   1.974  3.2438 -0.4608  2.6434
    7CHTO  H142 2671   5.387   0.750   1.890 -2.7770 -0.0106  3.8827
    7CHTO   C79 2672   5.583   0.820   2.058  0.6246  0.0409  0.4615
    7CHTO  H151 2673   5.571   0.712   2.047 -1.5555  0.2620  0.5172
    7CHTO   O52 2674   5.720   0.853   2.099  0.0080 -0.6418 -0.1425
    7CHTO   C86 2675   5.757   1.000   2.091 -0.1382  0.3631 -0.0862
    7CHTO  H158 2676   5.706   1.054   2.174  1.3345  0.9230  0.4817
    7CHTO   C90 2677   5.914   1.018   2.121 -0.1304  0.7946 -0.7563
    7CHTO   O60 2678   5.934   1.041   2.259 -0.4995  0.6746 -0.9662
    7CHTO  H138 2679   5.854   1.026   2.305  0.8966 -0.7371  1.0975
    7CHTO   O50 2680   5.492   0.836   2.176  0.4578 -0.0552  0.3567
    7CHTO   C73 2681   5.487   0.746   2.287  0.8841  0.2542  0.2819
    7CHTO  H145 2682   5.588   0.708   2.309  0.3795 -1.2993 -0.0616
    7CHTO   C74 2683   5.392   0.627   2.244  0.6009 -0.6494  0.3024
    7CHTO  H146 2684   5.420   0.593   2.143 -1.0823 -2.3684  0.3782
    7CHTO   O54 2685   5.414   0.518   2.321 -0.7809  0.1804 -0.1524
    7CHTO  H133 2686   5.406   0.546   2.411  1.3095 -0.6722  0.3399
    7CHTO   C75 2687   5.240   0.675   2.251  0.1484 -0.1665  0.2270
    7CHTO  H147 2688   5.232   0.743   2.164 -0.6435  1.3232  1.4544
    7CHTO   N13 2689   5.140   0.572   2.224 -0.4126  0.2282 -0.0962
    7CHTO  H139 2690   5.042   0.611   2.247 -0.8763 -0.9919  0.0196
    7CHTO  H140 2691   5.155   0.485   2.286  2.2060 -0.1661 -1.2468
    7CHTO   C76 2692   5.215   0.763   2.378  0.1993 -0.2741 -0.2303
    7CHTO  H148 2693   5.239   0.703   2.465  2.8888  0.7879 -0.1926
    7CHTO   O49 2694   5.301   0.883   2.376  0.2514 -0.4696  0.0120
    7CHTO   C77 2695   5.435   0.840   2.398 -0.8750 -0.0438 -0.0684
    7CHTO  H149 2696   5.433   0.780   2.489  0.9762 -0.5502 -0.3364
    7CHTO   C88 2697   5.519   0.966   2.426  0.3953 -0.5472 -0.2722
    7CHTO   O58 2698   5.495   1.064   2.334  0.1910 -0.4335 -0.4931
    7CHTO  H136 2699   5.470   1.145   2.375  1.6003 -0.2392 -0.0058
    7CHTO   O51 2700   5.061   0.819   2.379 -0.1682  0.1026 -0.3451
    7CHTO   C78 2701   5.002   0.849   2.522  0.7629  0.5225 -0.5916
    7CHTO  H150 2702   5.083   0.851   2.597 -1.6004 -0.3814  2.1019
    7CHTO   C80 2703   4.908   0.733   2.563  1.0698  0.6876  0.5486
    7CHTO  H152 2704   4.815   0.735   2.501  1.4903  2.6036 -0.0609
    7CHTO   O55 2705   4.986   0.612   2.529 -0.0516 -0.5730  0.3499
    7CHTO  H134 2706   4.926   0.543   2.508  1.7202 -2.6192  1.8305
    7CHTO   C84 2707   4.860   0.745   2.714 -0.2278 -0.4705  0.1827
    7CHTO  H156 2708   4.944   0.745   2.783 -1.8647 -3.2326  2.2841
    7CHTO   N15 2709   4.778   0.633   2.756 -1.2424  0.5183  0.2745
    7CHTO  H143 2710   4.836   0.544   2.751 -0.7464  0.8847 -0.5850
    7CHTO  H144 2711   4.707   0.631   2.676  2.6538 -0.0830 -3.3260
    7CHTO   C87 2712   4.787   0.877   2.737 -0.1012 -0.1340 -0.0543
    7CHTO  H159 2713   4.686   0.886   2.697  0.0459  0.4564 -0.3050
    7CHTO   O53 2714   4.866   1.010   2.677  0.4914 -0.1377 -0.5596
    7CHTO   C82 2715   4.919   0.983   2.542 -0.0562  0.9054 -0.8292
    7CHTO  H154 2716   4.840   0.974   2.468  0.7213 -2.8235 -1.3335
    7CHTO   C89 2717   5.010   1.106   2.507  0.3427 -0.1256 -0.0396
    7CHTO   O59 2718   4.945   1.233   2.504 -0.1313  0.7003 -0.4383
    7CHTO  H137 2719   4.934   1.252   2.413  0.2530  2.1942 -0.1837
    7CHTO   O45 2720   4.773   0.892   2.907  0.1807  0.1984  0.1139
    7CHTO   C67 2721   4.869   0.982   2.963  0.1561  0.9385  0.0417
    7CHTO  H124 2722   4.955   0.985   2.896 -0.8537 -2.3972 -1.5355
    7CHTO   C65 2723   4.820   1.126   2.986  0.4075 -0.6827 -0.7070
    7CHTO  H122 2724   4.711   1.120   2.984  0.3492 -0.0506  0.4047
    7CHTO   O44 2725   4.854   1.202   2.870 -0.6332 -0.3229 -0.5814
    7CHTO  H102 2726   4.804   1.177   2.794 -1.6385 -0.0022 -0.0217
    7CHTO   C63 2727   4.858   1.185   3.124  0.2226  0.1112 -0.3253
    7CHTO  H120 2728   4.793   1.141   3.200  1.7629 -2.5182 -0.4701
    7CHTO   N11 2729   4.828   1.329   3.142  0.2388 -0.9729 -0.0649
    7CHTO  H108 2730   4.905   1.386   3.190  0.9008 -0.7175 -1.3923
    7CHTO  H109 2731   4.799   1.382   3.053  0.6456 -0.1790  0.2708
    7CHTO   C61 2732   5.009   1.153   3.162  0.2600 -0.0240 -0.4015
    7CHTO  H118 2733   5.021   1.191   3.265 -0.5177 -2.3248  0.5762
    7CHTO   O40 2734   5.023   1.006   3.167  0.4354  0.0315 -0.3451
    7CHTO   C68 2735   4.926   0.915   3.103  0.5404 -0.1077  0.4483
    7CHTO  H125 2736   4.843   0.882   3.169 -0.2263  0.2785 -0.3078
    7CHTO   C72 2737   5.010   0.794   3.069 -0.0446 -0.4659  0.0693
    7CHTO   O48 2738   5.042   0.715   3.182  0.2354  0.4727  0.0699
    7CHTO  H105 2739   5.133   0.696   3.177  0.3933  0.4273  2.6196
    7CHTO   O38 2740   5.097   1.225   3.074  0.2083  0.0483  0.4415
    7CHTO   C55 2741   5.231   1.227   3.120  0.2287  0.7374 -0.0918
    7CHTO  H112 2742   5.254   1.145   3.190  0.5610  0.0768 -0.9728
    7CHTO   C56 2743   5.259   1.381   3.187 -0.2665 -0.9118 -0.7090
    7CHTO  H113 2744   5.242   1.455   3.107 -3.4860  0.7686  1.4680
    7CHTO   O42 2745   5.158   1.413   3.290 -0.1490 -0.5006  0.2888
    7CHTO  H100 2746   5.072   1.382   3.267  0.2461 -1.2252 -0.2463
    7CHTO   C57 2747   5.406   1.392   3.227  0.0763  0.4120  1.1447
    7CHTO  H114 2748   5.419   1.322   3.309  0.1749 -2.0494 -0.9262
    7CHTO   N10 2749   5.438   1.526   3.280 -0.1359 -0.0131  0.1561
    7CHTO  H106 2750   5.481   1.588   3.203 -0.4272  0.1940  0.1598
    7CHTO  H107 2751   5.509   1.516   3.361 -0.8228 -0.4766  0.7036
    7CHTO   C58 2752   5.504   1.356   3.109 -0.3509  0.2927 -0.2439
    7CHTO  H115 2753   5.498   1.435   3.030 -2.7084 -1.1618 -1.5647
    7CHTO   O37 2754   5.468   1.229   3.050  0.3474 -0.1468 -0.1996
    7CHTO   C59 2755   5.331   1.227   2.999  0.0597  0.1481 -0.0212
    7CHTO  H116 2756   5.327   1.312   2.930 -0.3577  0.2097  0.0727
    7CHTO   C70 2757   5.331   1.101   2.909  0.3741  0.1662 -0.4818
    7CHTO   O46 2758   5.259   1.136   2.790 -0.7745  0.0976  0.4644
    7CHTO  H103 2759   5.301   1.103   2.713 -1.1968  0.4409  0.0832
    7CHTO   O39 2760   5.668   1.333   3.153  0.0309  0.4492  0.2109
    7CHTO   C60 2761   5.753   1.261   3.058  0.4849  0.5420  0.2765
    7CHTO  H117 2762   5.725   1.156   3.060  0.5450  0.5194 -0.1669
    7CHTO   C62 2763   5.741   1.314   2.918  0.0838 -0.4486 -0.3949
    7CHTO  H119 2764   5.633   1.308   2.890 -0.0068 -1.1226  0.0715
    7CHTO   O43 2765   5.766   1.459   2.902  0.2369  0.8464  0.3009
    7CHTO  H101 2766   5.858   1.473   2.914  0.1252  0.9209  1.0816
    7CHTO   C66 2767   5.822   1.234   2.809 -0.6570  0.2891  0.2483
    7CHTO  H123 2768   5.780   1.133   2.802  2.1927 -0.9783  0.6968
    7CHTO   N12 2769   5.802   1.273   2.666 -0.2754 -0.7226  0.1354
    7CHTO  H110 2770   5.824   1.199   2.591 -1.6945 -1.4531  0.4300
    7CHTO  H111 2771   5.859   1.363   2.648 -0.1061 -0.6680  0.9078
    7CHTO   C69 2772   5.972   1.234   2.852  0.1074  0.0668  0.0800
    7CHTO  H126 2773   6.010   1.338   2.844  2.2409 -0.7402 -0.6713
    7CHTO   O41 2774   5.976   1.185   2.984 -0.7301  0.3246  0.1748
    7CHTO   C64 2775   5.902   1.264   3.096  0.5676  0.1060  0.1713
    7CHTO  H121 2776   5.939   1.369   3.100 -0.7971  0.5582  1.7748
    7CHTO   C71 2777   5.931   1.203   3.240 -0.3831  0.4444  0.2602
    7CHTO   O47 2778   6.030   1.266   3.326  0.7557  0.1053  0.0209
    7CHTO  H104 2779   6.045   1.214   3.403  1.9468 -1.8518 -1.4670
    7CHTO   O34 2780   6.055   1.150   2.756  0.2900 -0.1719  0.2284
    7CHTO   C49 2781   6.128   1.070   2.643 -0.2652  0.5440 -0.3872
    7CHTO   H91 2782   6.182   1.001   2.708 -0.5381 -1.1471 -1.9110
    7CHTO   C47 2783   6.240   1.145   2.566  0.0922 -0.6088 -0.7657
    7CHTO   H89 2784   6.332   1.134   2.627 -1.3227  0.5310  1.6288
    7CHTO   O33 2785   6.207   1.286   2.574  0.0900  0.0867  0.0868
    7CHTO   H70 2786   6.289   1.331   2.572 -0.3924  0.9536 -0.9329
    7CHTO   C45 2787   6.251   1.099   2.416  0.1166  0.4954 -0.4788
    7CHTO   H87 2788   6.176   1.159   2.362 -0.6037  0.0497  0.0165
    7CHTO    N8 2789   6.383   1.134   2.360  0.0631 -0.0512 -0.5719
    7CHTO   H75 2790   6.415   1.227   2.406  2.8481 -0.6583 -1.1921
    7CHTO   H76 2791   6.381   1.131   2.252 -0.6715  2.2250 -0.6566
    7CHTO   C43 2792   6.206   0.946   2.390  0.5979  0.0378  0.2359
    7CHTO   H85 2793   6.204   0.934   2.282  1.4217 -0.8669  0.3111
    7CHTO   O29 2794   6.083   0.914   2.448 -0.3815 -0.1419  0.3401
    7CHTO   C50 2795   6.032   0.991   2.558 -0.4500  0.0538  0.3157
    7CHTO   H92 2796   5.956   1.066   2.529  1.1291  2.4104  2.1600
    7CHTO   C54 2797   5.945   0.891   2.645 -0.2844 -0.4805  0.5908
    7CHTO   O36 2798   5.813   0.865   2.580  0.5477 -0.2514 -0.0023
    7CHTO   H72 2799   5.752   0.846   2.649  0.6066 -1.0691 -0.1800
    7CHTO   O27 2800   6.304   0.854   2.427 -0.1443 -0.2287 -0.2367
    7CHTO   C37 2801   6.347   0.762   2.523  0.3543  0.1990 -0.0232
    7CHTO   H79 2802   6.321   0.804   2.621  0.8400  0.4723 -0.0078
    7CHTO   C38 2803   6.268   0.628   2.489  0.0820 -0.2284  0.6255
    7CHTO   H80 2804   6.258   0.615   2.380  3.2876 -0.4554  0.3027
    7CHTO   O31 2805   6.126   0.649   2.525 -0.5384 -0.5462 -0.6175
    7CHTO   H68 2806   6.112   0.618   2.613  0.1969  0.0767 -0.2824
    7CHTO   C39 2807   6.329   0.499   2.563  0.3719  0.5980 -0.1816
    7CHTO   H81 2808   6.314   0.509   2.670 -2.4322  1.0531 -0.5767
    7CHTO    N7 2809   6.263   0.368   2.520  0.0698 -0.5182 -0.1369
    7CHTO   H73 2810   6.185   0.337   2.588 -1.4131 -0.9347 -1.9635
    7CHTO   H74 2811   6.236   0.368   2.415  1.5008 -0.4671 -0.5136
    7CHTO   C40 2812   6.483   0.502   2.545  0.3122 -0.4321 -0.5209
    7CHTO   H82 2813   6.511   0.485   2.441 -0.7774 -0.0291 -0.8926
    7CHTO   O26 2814   6.533   0.623   2.598  0.3875 -0.2751  0.2811
    7CHTO   C41 2815   6.495   0.739   2.519  0.2653 -0.1110  0.1004
    7CHTO   H83 2816   6.517   0.716   2.413  2.7562  1.3097  0.2698
    7CHTO   C52 2817   6.586   0.863   2.549 -0.5159 -0.5632 -0.1665
    7CHTO   O35 2818   6.739   0.816   2.551  0.4620  0.8967 -0.0426
    7CHTO   H71 2819   6.775   0.849   2.470  2.4195 -1.0963 -0.0382
    7CHTO   O28 2820   6.555   0.401   2.618 -0.1477  0.0086 -0.0305
    7CHTO   C42 2821   6.689   0.354   2.577  0.0773 -0.4455 -0.6080
    7CHTO   H84 2822   6.720   0.285   2.656  1.7824  0.5221 -0.3977
    7CHTO   C44 2823   6.802   0.465   2.565 -0.1496 -0.2200 -0.5645
    7CHTO   H86 2824   6.770   0.533   2.485  0.6861 -0.6635 -1.2906
    7CHTO   O32 2825   6.813   0.518   2.695 -0.2171  0.3890 -0.1186
    7CHTO   H69 2826   6.834   0.449   2.756  0.4112 -0.7587 -1.5952
    7CHTO   C48 2827   6.941   0.401   2.523 -1.1135 -0.8701 -0.6030
    7CHTO   H90 2828   6.957   0.331   2.605  0.8900  1.8916  1.4934
    7CHTO    N9 2829   7.058   0.490   2.521  0.5815 -0.5588  0.0712
    7CHTO   H77 2830   7.054   0.566   2.598 -1.4172  1.5478 -2.0019
    7CHTO   H78 2831   7.153   0.440   2.530  0.8822  0.1868  1.1334
    7CHTO   C51 2832   6.910   0.331   2.376 -0.2216  0.1238  0.4061
    7CHTO   H93 2833   6.877   0.399   2.297  1.8626  0.8499  0.1388
    7CHTO   O30 2834   6.814   0.223   2.397 -0.0721  0.1256  0.1569
    7CHTO   C46 2835   6.681   0.273   2.441 -0.0417  0.3920 -0.1645
    7CHTO   H88 2836   6.629   0.339   2.371 -0.2307  0.1413 -0.2616
    7CHTO   C53 2837   6.601   0.145   2.471  0.4248  1.2275 -0.2444
    7CHTO   O72 2838   6.612   0.050   2.364  0.3144  0.4496  0.1718
    7CHTO  H199 2839   6.684  -0.007   2.385 -1.0912 -1.6896 -0.6489
    7CHTO   O22 2840   7.022   0.267   2.314 -1.3140  0.1380 -0.4707
    7CHTO   C31 2841   7.017   0.227   2.171 -0.0439  0.2402  0.1575
    7CHTO   H59 2842   7.115   0.180   2.153  0.2715  1.2238 -0.8036
    7CHTO   C29 2843   6.916   0.123   2.129 -0.4221 -0.4976  0.3195
    7CHTO   H57 2844   6.814   0.161   2.146 -0.4445  0.7167 -2.3593
    7CHTO   O21 2845   6.928   0.009   2.216  0.1228  0.2967  0.4838
    7CHTO   H37 2846   6.920  -0.067   2.162  2.6014 -0.1817  0.7038
    7CHTO   C27 2847   6.926   0.089   1.976  0.2664  0.2155 -0.6484
    7CHTO   H55 2848   7.029   0.053   1.961  1.2076  2.0351  1.1140
    7CHTO    N5 2849   6.829  -0.009   1.927 -0.6572 -0.1814  0.5434
    7CHTO   H43 2850   6.734   0.037   1.905 -0.4547  1.2553  2.5016
    7CHTO   H44 2851   6.869  -0.048   1.835  0.3541  1.3125  0.3360
    7CHTO   C25 2852   6.914   0.223   1.898  0.1156  0.0673  0.1463
    7CHTO   H53 2853   6.814   0.261   1.922  0.7379  1.2822  0.8908
    7CHTO   O17 2854   7.019   0.320   1.934  0.1547  0.6998 -0.3619
    7CHTO   C32 2855   7.018   0.358   2.075  0.5128  0.0229 -0.0871
    7CHTO   H60 2856   6.927   0.413   2.098 -0.7327 -1.3494 -1.5677
    7CHTO   C36 2857   7.135   0.449   2.118 -0.8952 -0.5088 -0.1404
    7CHTO   O25 2858   7.130   0.570   2.042 -0.3235  0.1860 -0.3104
    7CHTO   H40 2859   7.209   0.619   2.052 -0.7212  0.4093  2.0446
    7CHTO   O15 2860   6.929   0.189   1.732 -0.5248  0.3582 -0.4743
    7CHTO   C19 2861   6.908   0.303   1.642 -0.9870 -0.2373 -0.2635
    7CHTO   H47 2862   6.909   0.252   1.544  2.3802  0.2550 -0.5321
    7CHTO   C20 2863   6.777   0.385   1.656  1.3832 -0.6286  0.1194
    7CHTO   H48 2864   6.765   0.429   1.757  1.3164 -0.1707 -0.0863
    7CHTO   O19 2865   6.671   0.289   1.645 -0.1339 -0.1883 -0.0633
    7CHTO   H35 2866   6.590   0.337   1.646  0.3087  0.5494  0.7206
    7CHTO   C21 2867   6.776   0.507   1.552 -0.6326  0.5102  0.4036
    7CHTO   H49 2868   6.787   0.468   1.451 -0.6930 -1.3998  1.1128
    7CHTO    N4 2869   6.649   0.588   1.554 -0.1205  0.2005  0.2034
    7CHTO   H41 2870   6.636   0.654   1.469 -0.8127 -1.6928 -1.1853
    7CHTO   H42 2871   6.565   0.522   1.565 -1.6137  1.9896 -0.1669
    7CHTO   C22 2872   6.899   0.593   1.575 -0.8810  0.0084  0.5031
    7CHTO   H50 2873   6.885   0.637   1.674 -1.2935  3.3020 -0.9529
    7CHTO   O14 2874   7.018   0.508   1.559  0.2864  0.3733 -0.1478
    7CHTO   C23 2875   7.037   0.399   1.646 -0.0424 -0.5896 -0.3061
    7CHTO   H51 2876   7.055   0.439   1.747  0.0981 -0.6252 -0.3175
    7CHTO   C34 2877   7.166   0.315   1.622 -0.0449  0.4906  0.4042
    7CHTO   O23 2878   7.290   0.382   1.634  0.0610 -0.0661  0.3479
    7CHTO   H38 2879   7.352   0.350   1.697  0.4556  2.2505  1.1731
    7CHTO   O16 2880   6.923   0.695   1.473 -0.1972 -0.1759 -0.2962
    7CHTO   C24 2881   6.971   0.839   1.531  0.1910  0.8420  0.3712
    7CHTO   H52 2882   6.926   0.864   1.627  0.0504 -0.1191  0.5580
    7CHTO   C26 2883   6.925   0.938   1.415  0.2040 -0.3546  0.1801
    7CHTO   H54 2884   6.975   0.916   1.318  0.2172  0.2486  0.0424
    7CHTO   O20 2885   6.780   0.935   1.410 -0.0102 -0.4811  0.0611
    7CHTO   H36 2886   6.751   0.850   1.383  1.6582 -0.8020 -0.7348
    7CHTO   C30 2887   6.960   1.085   1.453  0.0981 -0.0226  0.1431
    7CHTO   H58 2888   6.902   1.123   1.539  1.0384  0.2537  0.6580
    7CHTO    N6 2889   6.928   1.184   1.350  0.3542 -0.1393  0.8078
    7CHTO   H45 2890   6.821   1.183   1.336  0.6356 -0.2706 -1.5751
    7CHTO   H46 2891   6.963   1.285   1.368 -1.7019  0.6617  0.4675
    7CHTO   C33 2892   7.113   1.088   1.481 -0.0608  0.0664 -0.7876
    7CHTO   H61 2893   7.170   1.072   1.389  1.9033  0.0409  0.4056
    7CHTO   O18 2894   7.145   0.990   1.580  0.1142  0.1265  0.4965
    7CHTO   C28 2895   7.128   0.855   1.541 -0.6630  0.4424  0.3059
    7CHTO   H56 2896   7.173   0.834   1.443  1.1375 -1.0773  1.4213
    7CHTO   C35 2897   7.189   0.768   1.652 -0.2644  0.2428  0.7466
    7CHTO   O24 2898   7.140   0.801   1.786  0.7176  0.4873 -0.1491
    7CHTO   H39 2899   7.162   0.735   1.849 -1.7668 -1.0009 -0.7847
    7CHTO    O9 2900   7.160   1.215   1.529  0.6014  0.3765  0.9483
    7CHTO   C13 2901   7.314   1.234   1.512 -0.3565 -0.0277 -0.4043
    7CHTO   H26 2902   7.347   1.183   1.419  0.6745 -2.0807  1.0368
    7CHTO   C11 2903   7.402   1.185   1.634 -0.7908  0.1937  0.3076
    7CHTO   H24 2904   7.394   1.075   1.636  0.1886  0.1176  0.5197
    7CHTO    O8 2905   7.347   1.233   1.757  0.2947  0.1502  0.2202
    7CHTO    H3 2906   7.405   1.195   1.821  1.3313  0.8616 -0.2807
    7CHTO    C9 2907   7.554   1.217   1.612  0.0914  0.1413  0.2858
    7CHTO   H22 2908   7.576   1.172   1.515  1.3261 -2.1539  1.5845
    7CHTO    N2 2909   7.644   1.135   1.698  0.1958  0.5146 -0.3801
    7CHTO   H10 2910   7.747   1.153   1.671 -0.3937  1.1557 -2.2443
    7CHTO   H11 2911   7.625   1.168   1.799  0.0087 -1.1589  0.1460
    7CHTO    C7 2912   7.572   1.363   1.594  0.1460 -0.4649 -0.1897
    7CHTO   H20 2913   7.673   1.380   1.553 -0.1526  2.2490  0.1063
    7CHTO    O4 2914   7.476   1.437   1.505 -0.1550 -0.2340 -0.3803
    7CHTO   C14 2915   7.344   1.386   1.469  0.3714  0.2552 -0.4426
    7CHTO   H27 2916   7.346   1.385   1.358  2.4456  0.4973 -0.4364
    7CHTO   C18 2917   7.237   1.492   1.518  0.2447 -0.3989  0.2464
    7CHTO   O13 2918   7.113   1.490   1.451  0.0822 -0.2884 -0.0081
    7CHTO    H7 2919   7.053   1.536   1.508  0.4374 -1.0970  1.0397
    7CHTO    O2 2920   7.559   1.435   1.734 -0.3411  0.4982  0.0407
    7CHTO    C1 2921   7.624   1.561   1.745 -0.0253 -0.1379 -0.4655
    7CHTO   H14 2922   7.632   1.606   1.643  2.2945 -1.5122 -0.9294
    7CHTO    C2 2923   7.773   1.551   1.805  0.1684  0.3700 -0.5337
    7CHTO   H15 2924   7.776   1.516   1.909  0.0860 -2.1141 -1.3206
    7CHTO    O6 2925   7.852   1.466   1.718 -0.7059  0.4590  0.1694
    7CHTO    H1 2926   7.822   1.377   1.726  0.1548  0.2934  1.6825
    7CHTO    C3 2927   7.833   1.694   1.818  0.2110 -0.3496 -0.3567
    7CHTO   H16 2928   7.847   1.736   1.717  2.9283  0.1629  0.1852
    7CHTO    N1 2929   7.970   1.695   1.881 -0.5350 -0.0537  0.7289
    7CHTO    H8 2930   8.047   1.662   1.812 -0.2324 -0.5663  1.3147
    7CHTO    H9 2931   7.975   1.626   1.964 -0.0157 -1.2632 -0.2807
    7CHTO    C4 2932   7.734   1.792   1.884  0.1249  0.2980  0.0608
    7CHTO   H17 2933   7.732   1.774   1.991  0.5185  0.3716  0.0819
    7CHTO    O1 2934   7.602   1.784   1.823  0.0841 -0.0435 -0.4026
    7CHTO    C5 2935   7.539   1.658   1.831  0.1592  0.1221 -0.7821
    7CHTO   H18 2936   7.536   1.615   1.931  0.4508 -1.1502 -1.3166
    7CHTO   C16 2937   7.396   1.678   1.777  0.7879 -0.2776  0.4471
    7CHTO   O11 2938   7.308   1.606   1.865  0.3775 -0.2133  0.0713
    7CHTO    H5 2939   7.220   1.612   1.833 -0.7229 -1.9295  2.6196
    7CHTO    O3 2940   7.776   1.928   1.863 -0.6438 -0.1457 -0.4644
    7CHTO    C6 2941   7.808   2.004   1.981  0.3086 -0.2136 -0.1265
    7CHTO   H19 2942   7.842   1.949   2.069  0.1545  3.1546  2.1372
    7CHTO    C8 2943   7.926   2.102   1.954  0.4137 -0.1942 -0.3297
    7CHTO   H21 2944   7.912   2.143   1.854  1.0128  1.2779  0.1748
    7CHTO    O7 2945   8.041   2.013   1.943  0.2310  0.2554 -0.0659
    7CHTO    H2 2946   8.118   2.062   1.920  1.4330 -2.1029 -1.2478
    7CHTO   C12 2947   7.949   2.213   2.056  0.1753 -0.3395 -0.4295
    7CHTO   H25 2948   7.984   2.168   2.151  0.9208 -0.3102 -0.6878
    7CHTO    N3 2949   8.057   2.309   2.023  0.5489  0.3107 -0.4987
    7CHTO   H12 2950   8.014   2.408   2.018 -0.1126  0.1209  1.3306
    7CHTO   H13 2951   8.091   2.297   1.921  2.3729  0.2510  0.0985
    7CHTO   C15 2952   7.816   2.283   2.088 -0.1690  0.8105 -0.5218
    7CHTO   H28 2953   7.779   2.333   1.998 -1.4849  0.2708 -0.2982
    7CHTO   O10 2954   7.817   2.385   2.202  0.1350 -0.2808  0.4359
    7CHTO    H4 2955   7.828   2.469   2.161 -0.3539 -0.2330  0.3994
    7CHTO    O5 2956   7.715   2.186   2.127  0.3386  0.7558  0.0597
    7CHTO   C10 2957   7.683   2.086   2.027 -0.3677  0.2821  0.4285
    7CHTO   H23 2958   7.642   2.138   1.940 -1.0541 -1.2708 -0.1871
    7CHTO   C17 2959   7.578   1.992   2.080  0.0254  0.2156 -0.5922
    7CHTO   O12 2960   7.456   2.053   2.104 -0.1194 -0.4769  0.2758
    7CHTO    H6 2961   7.398   2.009   2.163 -0.3807  1.7125  1.6711
    8CHTO  H203 2962   7.282   8.345   0.762  1.5247  0.5742 -1.8670
    8CHTO   O82 2963   7.311   8.432   0.782 -0.0494  0.7140 -0.1014
    8CHTO  C123 2964   7.246   8.483   0.901  0.0734 -0.1995 -0.0483
    8CHTO  H227 2965   7.316   8.509   0.982 -2.6027  0.6680  2.0525
    8CHTO   O77 2966   7.186   8.611   0.855  0.1107 -0.0754 -0.3003
    8CHTO  C118 2967   7.095   8.666   0.951  0.4976  0.5212 -0.3681
    8CHTO  H222 2968   7.158   8.674   1.040  0.9113 -0.6361 -0.5413
    8CHTO  C125 2969   7.057   8.804   0.895  0.5653 -0.4978  0.2579
    8CHTO   O84 2970   6.987   8.892   0.985 -0.5871 -0.6768 -0.1645
    8CHTO  H205 2971   6.913   8.938   0.951 -0.1633 -1.2155 -1.8243
    8CHTO  C114 2972   6.977   8.574   0.972 -0.0860  0.0577 -0.1233
    8CHTO  H218 2973   6.935   8.549   0.875  0.4569  1.3724 -0.7032
    8CHTO  C116 2974   7.028   8.444   1.038  0.2250 -0.3659 -0.6831
    8CHTO  H220 2975   7.065   8.462   1.141 -1.2748 -2.0933  0.2029
    8CHTO   O79 2976   6.910   8.365   1.052  0.2341 -0.2587 -0.0884
    8CHTO  H201 2977   6.930   8.284   1.095 -1.3383 -0.9181 -0.5476
    8CHTO  C120 2978   7.140   8.375   0.954 -0.9743 -0.4082 -0.3619
    8CHTO  H224 2979   7.086   8.342   0.863  0.6429 -3.8576 -0.1472
    8CHTO   N21 2980   7.201   8.251   1.013 -0.2238 -0.4252 -0.0123
    8CHTO  H211 2981   7.256   8.195   0.939 -2.0052 -0.3003 -1.4573
    8CHTO  H212 2982   7.123   8.181   1.038 -0.8418 -0.2003 -1.3066
    8CHTO   O75 2983   6.888   8.653   1.046 -0.8225 -0.3784  0.0280
    8CHTO  C112 2984   6.733   8.643   1.014  0.0141  0.4529 -0.6719
    8CHTO  H216 2985   6.714   8.545   0.969  0.5054 -0.3946  0.9064
    8CHTO   O73 2986   6.705   8.753   0.924 -0.7205 -0.5430 -0.1789
    8CHTO  C113 2987   6.565   8.776   0.898 -0.0634 -0.0440  0.4279
    8CHTO  H217 2988   6.516   8.691   0.847 -1.3724 -0.0702  1.6847
    8CHTO  C124 2989   6.563   8.894   0.798 -0.2168 -0.6717  0.4051
    8CHTO   O83 2990   6.435   8.950   0.759 -0.5890 -0.7933  0.1763
    8CHTO  H204 2991   6.427   9.039   0.787 -1.6767 -0.2866 -1.6853
    8CHTO  C109 2992   6.486   8.802   1.025 -0.0622  0.9646 -0.6036
    8CHTO  H213 2993   6.527   8.892   1.071 -0.7737  0.8205  0.3116
    8CHTO  C110 2994   6.507   8.674   1.114 -0.0434  0.3506  0.1824
    8CHTO  H214 2995   6.462   8.586   1.068  1.4937 -0.4078  0.1168
    8CHTO   O78 2996   6.429   8.700   1.229 -0.1459  0.0525 -0.0772
    8CHTO  H200 2997   6.337   8.679   1.227 -0.1670 -0.2830  2.5030
    8CHTO  C111 2998   6.658   8.651   1.147  0.2855  0.0215  0.5560
    8CHTO  H215 2999   6.696   8.741   1.196  0.1442 -0.0759  0.8457
    8CHTO   N19 3000   6.678   8.537   1.238 -0.4895  0.1368  0.3259
    8CHTO  H207 3001   6.756   8.473   1.199  0.5907  2.5130 -1.5850
    8CHTO  H208 3002   6.698   8.580   1.335 -1.1231  0.6656  0.2216
    8CHTO   O74 3003   6.345   8.826   0.999  0.1880 -0.4185  0.2349
    8CHTO  C115 3004   6.237   8.705   0.929  0.3581 -0.4658  0.3185
    8CHTO  H219 3005   6.293   8.628   0.876 -0.9094 -0.9083 -0.4046
    8CHTO   O76 3006   6.162   8.624   1.036 -0.0092  0.4436 -0.0139
    8CHTO  C122 3007   6.097   8.708   1.130  0.7627 -0.3463  0.7923
    8CHTO  H226 3008   6.167   8.769   1.188  1.7901 -0.3383 -0.4257
    8CHTO  C126 3009   6.018   8.612   1.224  0.9625  0.6166 -0.0682
    8CHTO   O85 3010   6.102   8.515   1.285 -0.0095  0.2060  0.4809
    8CHTO  H206 3011   6.117   8.546   1.372  1.3426 -0.3566  0.4519
    8CHTO  C121 3012   5.985   8.813   1.060 -0.2675  0.0360 -0.7639
    8CHTO  H225 3013   5.898   8.750   1.031 -0.3574 -0.3791  0.3893
    8CHTO   O81 3014   5.930   8.907   1.150  0.0664  0.1935  0.1319
    8CHTO  H202 3015   5.869   8.863   1.206  0.0630  0.1541  0.0967
    8CHTO  C119 3016   6.049   8.877   0.926 -0.4238 -0.6671  0.2557
    8CHTO  H223 3017   5.968   8.911   0.862 -2.3733 -0.5728  2.7019
    8CHTO  C117 3018   6.126   8.775   0.838 -0.1594  0.3866 -0.3177
    8CHTO  H221 3019   6.183   8.823   0.758  0.7494  0.9004  0.6266
    8CHTO   N20 3020   6.043   8.676   0.769 -0.1466 -0.1010  0.0760
    8CHTO  H209 3021   6.109   8.618   0.706  0.2988 -0.0788  0.5236
    8CHTO  H210 3022   5.971   8.732   0.711  1.8605  0.4373 -1.9858
    8CHTO   O80 3023   6.112   9.007   0.954 -0.2798  0.2211  0.3047
    8CHTO  C103 3024   6.044   9.138   0.944  0.3913  0.0499  0.4615
    8CHTO  H190 3025   5.941   9.127   0.910  0.2022  3.2048 -0.1529
    8CHTO  C101 3026   6.047   9.222   1.072  0.3251  0.4743  0.1198
    8CHTO  H188 3027   6.147   9.222   1.116 -0.0008  2.3973  0.9254
    8CHTO   O68 3028   5.954   9.164   1.186  0.5268  0.3742  0.4425
    8CHTO  H168 3029   5.875   9.211   1.203  0.8884  0.8772  0.7456
    8CHTO   C99 3030   6.014   9.373   1.059  0.4746  0.0410 -0.3878
    8CHTO  H186 3031   5.906   9.387   1.037  0.8023  0.6778 -1.6375
    8CHTO   N17 3032   6.037   9.461   1.177 -0.3016  0.2838 -0.3947
    8CHTO  H174 3033   6.010   9.413   1.271  0.7812 -0.7536 -0.5873
    8CHTO  H175 3034   6.143   9.483   1.184 -0.5309  0.6115  3.6892
    8CHTO   C97 3035   6.085   9.430   0.934  0.4485  0.0359  0.1193
    8CHTO  H184 3036   6.191   9.449   0.955 -0.4089  2.2933  2.7391
    8CHTO   O64 3037   6.061   9.343   0.823  0.0191  1.2393 -0.0204
    8CHTO  C104 3038   6.123   9.213   0.827 -0.1190  0.1012  0.3170
    8CHTO  H191 3039   6.228   9.215   0.854 -0.6125  1.7999  2.3183
    8CHTO  C108 3040   6.107   9.142   0.692  0.1930 -0.6034 -0.3156
    8CHTO   O71 3041   6.169   9.208   0.582 -0.5848 -0.2477  0.0451
    8CHTO  H171 3042   6.244   9.165   0.546 -1.5986 -3.1465  1.2989
    8CHTO   O62 3043   6.036   9.560   0.894 -0.2147  0.4013  0.1166
    8CHTO   C91 3044   6.113   9.640   0.802  0.2156  0.1620  0.2463
    8CHTO  H178 3045   6.209   9.591   0.786 -0.6239 -0.5012 -3.1610
    8CHTO   C92 3046   6.141   9.772   0.875  0.4825 -0.2026  0.7105
    8CHTO  H179 3047   6.046   9.808   0.918  0.5340  0.4213  0.3090
    8CHTO   O66 3048   6.231   9.752   0.983  0.1650  0.4302 -0.4873
    8CHTO  H166 3049   6.186   9.714   1.056  0.1851 -0.0940 -0.7392
    8CHTO   C93 3050   6.189   9.891   0.784  0.2172  0.3423  0.2467
    8CHTO  H180 3051   6.293   9.865   0.761  1.0008 -0.0201  3.8674
    8CHTO   N16 3052   6.180  10.023   0.856 -0.2258  0.3446  0.2144
    8CHTO  H172 3053   6.080  10.063   0.854 -1.2678 -2.1501  0.2990
    8CHTO  H173 3054   6.250  10.091   0.811  0.0273  0.9904  1.5567
    8CHTO   C94 3055   6.120   9.904   0.649 -0.5943  0.3743  0.3478
    8CHTO  H181 3056   6.017   9.938   0.656 -1.1192 -1.2952  0.9976
    8CHTO   O61 3057   6.116   9.774   0.591 -0.2597 -0.6771  0.5007
    8CHTO   C95 3058   6.038   9.675   0.663  0.4754 -0.1785 -0.1117
    8CHTO  H182 3059   5.939   9.713   0.689  0.7516 -0.0955  0.8598
    8CHTO  C106 3060   6.012   9.558   0.573  0.0283  0.6110 -0.3312
    8CHTO   O69 3061   5.908   9.583   0.479  0.0242 -0.1771 -0.6976
    8CHTO  H169 3062   5.822   9.580   0.516  0.2671  1.5408  0.0411
    8CHTO   O63 3063   6.204   9.990   0.543 -0.2165  0.3648  0.4158
    8CHTO   C96 3064   6.115  10.004   0.407  0.4131 -0.3468 -0.2621
    8CHTO  H183 3065   6.051   9.916   0.400 -0.9485  0.7893 -2.6976
    8CHTO   C98 3066   6.208  10.013   0.284 -0.6981  0.0124  0.0544
    8CHTO  H185 3067   6.280  10.096   0.297 -1.4505  1.0454 -2.0365
    8CHTO   O67 3068   6.292   9.901   0.279 -0.1850  0.1360  0.1424
    8CHTO  H167 3069   6.364   9.917   0.220  0.2423 -0.6276  0.4410
    8CHTO  C102 3070   6.127  10.033   0.148  0.2457  0.2075 -0.2082
    8CHTO  H189 3071   6.071   9.939   0.134  1.8018 -0.4515 -2.1144
    8CHTO   N18 3072   6.211  10.053   0.028  0.3808  0.4587  0.0652
    8CHTO  H176 3073   6.183  10.138  -0.034  0.7587 -0.4593 -1.3862
    8CHTO  H177 3074   6.240   9.968  -0.032  4.3461  0.1519  2.2704
    8CHTO  C105 3075   6.027  10.144   0.157  0.6096  0.3691 -0.4037
    8CHTO  H192 3076   6.081  10.239   0.155  0.6254  0.3407 -1.7941
    8CHTO   O65 3077   5.956  10.146   0.281  0.2490 -0.3234  0.9320
    8CHTO  C100 3078   6.025  10.140   0.403  0.2560  0.4477 -0.2117
    8CHTO  H187 3079   6.087  10.228   0.426  0.3020  0.3107  0.1978
    8CHTO  C107 3080   5.927  10.149   0.504 -0.0813  0.2605 -0.0330
    8CHTO   O70 3081   5.825  10.057   0.484  0.7708 -0.2554  0.1074
    8CHTO  H170 3082   5.797  10.038   0.397 -0.5429  1.0013  0.2384
    8CHTO   O57 3083   5.922  10.119   0.040 -0.3425 -0.3018  0.1851
    8CHTO   C85 3084   5.875  10.225  -0.040 -0.0240 -0.1127 -0.4813
    8CHTO  H157 3085   5.970  10.271  -0.074  0.3039  0.3139  0.9797
    8CHTO   C83 3086   5.800  10.333   0.056  0.7739  0.1381  0.2816
    8CHTO  H155 3087   5.872  10.374   0.128 -0.2441 -0.9472  1.9763
    8CHTO   O56 3088   5.695  10.268   0.130 -0.0270 -0.2171  0.5734
    8CHTO  H135 3089   5.718  10.253   0.219  1.6207  1.7878  0.5351
    8CHTO   C81 3090   5.749  10.443  -0.048  0.2979  0.2740 -0.8016
    8CHTO  H153 3091   5.837  10.476  -0.102  1.5004 -2.4656 -0.5943
    8CHTO   N14 3092   5.693  10.562   0.025 -0.2016 -0.2071  0.3227
    8CHTO  H141 3093   5.730  10.654  -0.016 -0.1181 -0.1661  0.4885
    8CHTO  H142 3094   5.586  10.561   0.017 -0.1256 -0.8433 -0.6139
    8CHTO   C79 3095   5.641  10.381  -0.152 -0.4291 -0.0881  0.0812
    8CHTO  H151 3096   5.620  10.461  -0.222  2.3580  1.4436  0.9417
    8CHTO   O52 3097   5.710  10.282  -0.236 -0.1350 -0.4956  0.2834
    8CHTO   C86 3098   5.784  10.175  -0.161  0.1604 -0.3879  0.2131
    8CHTO  H158 3099   5.704  10.113  -0.114  0.3015 -0.5573  0.2324
    8CHTO   C90 3100   5.865  10.072  -0.253  0.1684 -1.0938 -0.5940
    8CHTO   O60 3101   5.784   9.979  -0.323 -0.6476  0.2086 -0.0266
    8CHTO  H138 3102   5.805   9.888  -0.311  0.1765  0.6389  1.9795
    8CHTO   O50 3103   5.529  10.337  -0.082 -0.0276 -0.4382 -0.7289
    8CHTO   C73 3104   5.387  10.293  -0.093 -0.0938  0.9293  0.2834
    8CHTO  H145 3105   5.371  10.245  -0.191 -1.0368 -2.0575  1.8634
    8CHTO   C74 3106   5.293  10.417  -0.077  0.5778 -0.0428 -0.0409
    8CHTO  H146 3107   5.325  10.486  -0.156  2.3997 -2.1657 -1.2044
    8CHTO   O54 3108   5.155  10.381  -0.109 -0.5651  0.3829 -0.2211
    8CHTO  H133 3109   5.134  10.383  -0.200 -2.0744  2.1801  0.1334
    8CHTO   C75 3110   5.315  10.475   0.067 -0.2348 -0.1515  0.8849
    8CHTO  H147 3111   5.420  10.506   0.076 -0.4556  1.0377 -0.3894
    8CHTO   N13 3112   5.236  10.600   0.099  0.4893 -0.1853  0.5386
    8CHTO  H139 3113   5.303  10.685   0.108  1.4828 -0.7939 -0.9558
    8CHTO  H140 3114   5.181  10.598   0.192 -0.0188  1.8520  0.3035
    8CHTO   C76 3115   5.290  10.360   0.169  0.0239  0.4547  1.3018
    8CHTO  H148 3116   5.184  10.336   0.167  0.3928 -1.0944  0.1664
    8CHTO   O49 3117   5.374  10.247   0.143 -0.7611  0.3711  0.6598
    8CHTO   C77 3118   5.356  10.188   0.012  0.1654  0.4746  0.4937
    8CHTO  H149 3119   5.256  10.146   0.003  0.5243 -0.7638  1.9859
    8CHTO   C88 3120   5.446  10.062  -0.004 -0.2490 -0.6711  0.1551
    8CHTO   O58 3121   5.423   9.988  -0.120  0.3032 -0.5111 -0.3738
    8CHTO  H136 3122   5.350   9.933  -0.098  0.4263  0.6339  3.2304
    8CHTO   O51 3123   5.338  10.413   0.325 -0.1050  0.2727 -0.2105
    8CHTO   C78 3124   5.344  10.291   0.433  0.3496  0.3890 -0.4562
    8CHTO  H150 3125   5.361  10.192   0.385  4.6769  0.9582 -0.3343
    8CHTO   C80 3126   5.206  10.283   0.507 -0.1746 -0.8492 -0.4675
    8CHTO  H152 3127   5.176  10.384   0.541  1.6723 -0.2278 -0.6035
    8CHTO   O55 3128   5.118  10.238   0.410  0.2965 -0.2637 -0.0725
    8CHTO  H134 3129   5.029  10.252   0.436 -0.5536  1.1388 -3.5340
    8CHTO   C84 3130   5.208  10.191   0.634 -0.5800 -0.1561 -0.3448
    8CHTO  H156 3131   5.194  10.086   0.606 -1.0813 -0.2563  0.2728
    8CHTO   N15 3132   5.086  10.213   0.725 -0.9087  0.4042  0.1696
    8CHTO  H143 3133   5.086  10.137   0.801 -0.9661  0.7058  0.4744
    8CHTO  H144 3134   5.083  10.311   0.767 -0.7637  1.1622 -1.5744
    8CHTO   C87 3135   5.345  10.209   0.710  0.6027  0.0352  0.3343
    8CHTO  H159 3136   5.348  10.301   0.769  1.3408 -0.0705  0.4676
    8CHTO   O53 3137   5.462  10.203   0.623  0.4650 -0.3918 -0.1105
    8CHTO   C82 3138   5.457  10.314   0.532  0.0195 -0.7148 -0.0347
    8CHTO  H154 3139   5.467  10.410   0.582  1.0577 -1.4201  1.1415
    8CHTO   C89 3140   5.582  10.291   0.452  0.1494  0.0158  0.0744
    8CHTO   O59 3141   5.626  10.398   0.358 -0.2316  0.7153  0.0254
    8CHTO  H137 3142   5.577  10.406   0.279  3.0257  1.8629 -1.9623
    8CHTO   O45 3143   5.383  10.098   0.829 -0.3614 -0.0482  0.5535
    8CHTO   C67 3144   5.412   9.969   0.789  0.4037  0.1640  0.0315
    8CHTO  H124 3145   5.360   9.948   0.695  0.9222 -0.4474 -0.1183
    8CHTO   C65 3146   5.568   9.923   0.768  0.0951 -0.3383  0.0191
    8CHTO  H122 3147   5.631  10.011   0.757  0.1062 -0.3079  0.3351
    8CHTO   O44 3148   5.576   9.843   0.653  0.5323  0.6675 -0.0134
    8CHTO  H102 3149   5.665   9.836   0.624  0.5337 -1.5405  0.4114
    8CHTO   C63 3150   5.613   9.853   0.898  0.0010 -1.4978 -0.5173
    8CHTO  H120 3151   5.593   9.921   0.980  0.4054 -1.4389 -0.4678
    8CHTO   N11 3152   5.768   9.838   0.917 -0.1504 -0.4957 -0.3974
    8CHTO  H108 3153   5.809   9.846   0.818 -1.4585  0.0296 -0.9116
    8CHTO  H109 3154   5.790   9.740   0.956  0.5746  0.5384  1.8779
    8CHTO   C61 3155   5.535   9.724   0.931 -0.3219  0.6606 -0.1262
    8CHTO  H118 3156   5.542   9.702   1.039 -0.0140  0.8869 -0.1006
    8CHTO   O40 3157   5.395   9.739   0.905  0.1182 -0.7369  0.4245
    8CHTO   C68 3158   5.334   9.878   0.890 -0.0274  0.2572 -0.8231
    8CHTO  H125 3159   5.351   9.917   0.993  1.9208 -0.5266 -0.8243
    8CHTO   C72 3160   5.181   9.856   0.873 -0.3014  0.1663 -0.6472
    8CHTO   O48 3161   5.158   9.767   0.765 -0.2613  0.1949  0.4142
    8CHTO  H105 3162   5.069   9.739   0.770 -0.3468  0.4570  0.3622
    8CHTO   O38 3163   5.578   9.610   0.851 -1.0448 -0.3345  0.2146
    8CHTO   C55 3164   5.518   9.481   0.892 -0.4587  0.2454 -0.4444
    8CHTO  H112 3165   5.417   9.491   0.934 -1.3782 -1.7816 -2.0393
    8CHTO   C56 3166   5.618   9.394   0.989  0.1219  0.0857  0.5007
    8CHTO  H113 3167   5.709   9.383   0.929  0.9719 -1.8144  2.0707
    8CHTO   O42 3168   5.661   9.465   1.107  0.0217  0.0668 -0.1843
    8CHTO  H100 3169   5.733   9.521   1.086  1.1407 -1.5850 -0.8746
    8CHTO   C57 3170   5.546   9.254   1.013 -0.1103 -0.0945 -0.1181
    8CHTO  H114 3171   5.460   9.263   1.080  0.5908  1.5230  0.5705
    8CHTO   N10 3172   5.641   9.167   1.091 -0.0521 -0.0425 -0.0188
    8CHTO  H106 3173   5.596   9.070   1.073  2.2498 -0.8876 -1.4487
    8CHTO  H107 3174   5.741   9.169   1.052 -0.9338  0.6493 -2.3067
    8CHTO   C58 3175   5.496   9.185   0.881  0.2386 -0.3107 -0.3872
    8CHTO  H115 3176   5.580   9.146   0.821  0.4325 -0.8066  0.2070
    8CHTO   O37 3177   5.412   9.278   0.805 -0.1620 -0.2647 -0.2626
    8CHTO   C59 3178   5.487   9.396   0.762  0.5783 -0.8270  0.0237
    8CHTO  H116 3179   5.574   9.380   0.698 -0.0537 -0.6973 -0.8832
    8CHTO   C70 3180   5.399   9.478   0.668  0.3680  0.1633  0.4387
    8CHTO   O46 3181   5.376   9.433   0.534 -0.3871 -0.0306 -0.0264
    8CHTO  H103 3182   5.426   9.484   0.473  3.9654 -0.4808  2.8807
    8CHTO   O39 3183   5.406   9.056   0.919  0.0667 -0.0320  0.2102
    8CHTO   C60 3184   5.268   9.077   0.924 -0.4023  0.4159  0.4136
    8CHTO  H117 3185   5.256   9.182   0.949 -0.8763  0.8106 -1.4136
    8CHTO   C62 3186   5.187   9.044   0.789 -0.5015  0.1846 -0.3383
    8CHTO  H119 3187   5.224   9.118   0.715 -1.4909  0.9347 -0.0870
    8CHTO   O43 3188   5.224   8.913   0.752  0.4325  0.3473  0.0770
    8CHTO  H101 3189   5.168   8.852   0.795 -1.2776  1.8896  0.0872
    8CHTO   C66 3190   5.031   9.062   0.808  0.4584  0.2650 -0.1492
    8CHTO  H123 3191   5.004   9.163   0.838  0.2084 -0.3343  1.6884
    8CHTO   N12 3192   4.956   9.036   0.681  0.8461 -0.8589 -0.2601
    8CHTO  H110 3193   4.931   8.931   0.672 -0.4941 -0.3761 -2.5222
    8CHTO  H111 3194   5.008   9.074   0.594 -1.1225  0.4935 -0.8764
    8CHTO   C69 3195   4.981   8.982   0.934 -0.1497  0.3175  0.3709
    8CHTO  H126 3196   4.996   8.874   0.916  0.0036  0.4682 -0.4198
    8CHTO   O41 3197   5.065   9.013   1.056 -0.3564 -0.4240  0.5767
    8CHTO   C64 3198   5.205   8.993   1.038  0.0782 -0.1687 -0.2310
    8CHTO  H121 3199   5.225   8.887   1.015  1.5490 -0.3483  1.7969
    8CHTO   C71 3200   5.272   9.013   1.178 -0.0815 -0.1697  0.1698
    8CHTO   O47 3201   5.392   8.938   1.179  0.1219 -0.2172  0.4923
    8CHTO  H104 3202   5.441   8.942   1.259  0.2107 -0.9164  0.4745
    8CHTO   O34 3203   4.854   9.002   0.956  0.2485 -0.4680 -0.5495
    8CHTO   C49 3204   4.774   9.089   1.072  1.1092  0.0974  0.1137
    8CHTO   H91 3205   4.760   9.015   1.151 -1.5659  0.5019  0.0540
    8CHTO   C47 3206   4.635   9.126   1.017 -0.7357  0.5506 -1.1169
    8CHTO   H89 3207   4.579   9.173   1.101  0.1061 -0.8679  0.2598
    8CHTO   O33 3208   4.580   9.000   0.980 -0.2370  0.5668  0.5447
    8CHTO   H70 3209   4.501   9.005   0.929  0.5784  2.7122 -0.5969
    8CHTO   C45 3210   4.655   9.221   0.891  0.1920  0.0964  0.2714
    8CHTO   H87 3211   4.724   9.166   0.826  0.4481  0.2337  0.4261
    8CHTO    N8 3212   4.527   9.250   0.821  0.5350 -0.0612  0.1396
    8CHTO   H75 3213   4.553   9.307   0.733  1.2927 -0.5720  0.0378
    8CHTO   H76 3214   4.465   9.314   0.882 -1.2615 -0.4530 -1.2347
    8CHTO   C43 3215   4.732   9.354   0.946  0.6023  0.4878  0.6114
    8CHTO   H85 3216   4.754   9.413   0.857  1.1284  0.5358  0.7734
    8CHTO   O29 3217   4.852   9.317   1.020  0.3563  0.9591 -0.0247
    8CHTO   C50 3218   4.846   9.213   1.123  0.8933  0.4238  0.1558
    8CHTO   H92 3219   4.949   9.183   1.148  1.0809  1.7386  0.9710
    8CHTO   C54 3220   4.780   9.277   1.252  0.2851 -0.5578 -0.2187
    8CHTO   O36 3221   4.869   9.361   1.308 -0.4628  0.2290  0.1065
    8CHTO   H72 3222   4.896   9.349   1.397 -0.8705  0.3214  0.2432
    8CHTO   O27 3223   4.650   9.438   1.026  0.3030  0.1519  0.1987
    8CHTO   C37 3224   4.605   9.566   1.070 -0.3912  0.2933 -0.2556
    8CHTO   H79 3225   4.571   9.557   1.174  2.0661  0.6956  0.6368
    8CHTO   C38 3226   4.725   9.659   1.075 -0.2158 -0.2694 -0.3073
    8CHTO   H80 3227   4.779   9.658   0.978  0.2843  3.2311 -0.1273
    8CHTO   O31 3228   4.810   9.599   1.170 -0.0169  0.7117  0.4556
    8CHTO   H68 3229   4.901   9.600   1.149 -0.0689  0.1798  0.2059
    8CHTO   C39 3230   4.683   9.805   1.125  0.4995 -0.0783  0.5031
    8CHTO   H81 3231   4.635   9.815   1.222  0.6278  1.1815  0.4422
    8CHTO    N7 3232   4.797   9.901   1.130 -0.3766 -0.1081 -0.2838
    8CHTO   H73 3233   4.802   9.954   1.224 -1.5818  1.9068 -1.3239
    8CHTO   H74 3234   4.891   9.867   1.088 -0.7429 -1.6977  0.1193
    8CHTO   C40 3235   4.574   9.849   1.023  0.6176 -0.3945  1.0681
    8CHTO   H82 3236   4.621   9.856   0.924  1.8365  1.6317  1.7462
    8CHTO   O26 3237   4.467   9.753   1.035 -0.1049  1.1101  0.2461
    8CHTO   C41 3238   4.497   9.624   0.983  0.0764  0.4851  0.4107
    8CHTO   H83 3239   4.523   9.624   0.876 -2.6680 -1.7544 -0.3005
    8CHTO   C52 3240   4.358   9.551   0.982 -0.0440 -0.1337 -0.1143
    8CHTO   O35 3241   4.250   9.628   0.900  0.8354  0.1731  0.0042
    8CHTO   H71 3242   4.227   9.577   0.825  4.0693 -1.2057 -0.1205
    8CHTO   O28 3243   4.504   9.974   1.050  0.0361  0.5819  0.3133
    8CHTO   C42 3244   4.450  10.046   0.930 -0.1055 -0.5465 -0.3328
    8CHTO   H84 3245   4.391  10.123   0.979  2.2474 -0.2371  2.1550
    8CHTO   C44 3246   4.354   9.965   0.831 -0.1849  0.2470 -0.6511
    8CHTO   H86 3247   4.410   9.882   0.790 -1.5307 -0.7543 -0.4991
    8CHTO   O32 3248   4.246   9.910   0.909  0.2190 -0.2358  0.1872
    8CHTO   H69 3249   4.222   9.829   0.867 -1.2015  0.3826 -0.2368
    8CHTO   C48 3250   4.303  10.051   0.705 -0.1125 -0.2444 -0.2932
    8CHTO   H90 3251   4.251  10.135   0.752  0.0732  0.8671 -2.0332
    8CHTO    N9 3252   4.215   9.978   0.614 -0.3350 -0.0550 -0.6249
    8CHTO   H77 3253   4.259   9.896   0.560 -1.0816 -0.5543 -0.4886
    8CHTO   H78 3254   4.125   9.951   0.669  0.2953 -2.6814 -0.8048
    8CHTO   C51 3255   4.424  10.116   0.639 -0.7727 -0.2291 -0.4792
    8CHTO   H93 3256   4.495  10.043   0.599  1.3456  1.5879 -0.1430
    8CHTO   O30 3257   4.487  10.197   0.733  0.3155  0.2989  0.3684
    8CHTO   C46 3258   4.561  10.116   0.848 -0.4183 -0.4022 -0.6359
    8CHTO   H88 3259   4.626  10.037   0.811 -0.7564  1.1530 -4.8189
    8CHTO   C53 3260   4.659  10.219   0.922  0.0130  0.4680 -0.4833
    8CHTO   O72 3261   4.590  10.329   0.980  0.3026 -0.3174  0.2753
    8CHTO  H199 3262   4.500  10.316   1.003  0.4435 -0.4335  0.7726
    8CHTO   O22 3263   4.385  10.216   0.544 -0.2636 -0.2037 -0.1437
    8CHTO   C31 3264   4.470  10.262   0.435 -0.0658  0.3690  0.0966
    8CHTO   H59 3265   4.410  10.329   0.370  1.1796  1.4909  0.0972
    8CHTO   C29 3266   4.599  10.340   0.470 -0.0521  0.0289  0.0661
    8CHTO   H57 3267   4.646  10.279   0.548 -2.0154  0.4597  1.6381
    8CHTO   O21 3268   4.560  10.459   0.537 -0.2477  0.7231  0.2080
    8CHTO   H37 3269   4.635  10.516   0.537 -0.5877  1.3032 -3.1380
    8CHTO   C27 3270   4.687  10.372   0.339 -0.0063 -0.1727 -0.4884
    8CHTO   H55 3271   4.647  10.457   0.282 -0.6866 -0.8455 -1.0229
    8CHTO    N5 3272   4.832  10.410   0.374  0.0374 -0.6197 -0.3460
    8CHTO   H43 3273   4.835  10.517   0.390  0.5168 -0.2786 -2.5727
    8CHTO   H44 3274   4.855  10.346   0.458 -1.9916  1.0599  1.5802
    8CHTO   C25 3275   4.693  10.242   0.241 -0.4060  0.4592  0.0604
    8CHTO   H53 3276   4.758  10.167   0.288  0.9295  1.8530  0.4685
    8CHTO   O17 3277   4.564  10.189   0.222 -0.1941  0.2969 -0.3844
    8CHTO   C32 3278   4.507  10.146   0.343 -0.1775 -0.3765 -0.5103
    8CHTO   H60 3279   4.577  10.083   0.398  1.9784 -0.0127 -2.7507
    8CHTO   C36 3280   4.384  10.062   0.296  0.0906  0.3788 -0.3576
    8CHTO   O25 3281   4.427   9.938   0.231  0.2403  0.1370  0.4402
    8CHTO   H40 3282   4.349   9.887   0.219  1.0898 -0.6819 -1.8037
    8CHTO   O15 3283   4.767  10.268   0.094  0.4539  0.1624 -0.5299
    8CHTO   C19 3284   4.771  10.186  -0.031  0.3320  0.2919  0.5699
    8CHTO   H47 3285   4.668  10.150  -0.040  0.4452  0.4844 -1.7137
    8CHTO   C20 3286   4.800  10.279  -0.154  0.3318  0.4160 -0.3146
    8CHTO   H48 3287   4.875  10.356  -0.132  1.8151 -0.9365 -0.5740
    8CHTO   O19 3288   4.676  10.355  -0.170  0.2681  0.9866  0.2369
    8CHTO   H35 3289   4.695  10.435  -0.124  0.9489  0.3542  1.0686
    8CHTO   C21 3290   4.824  10.192  -0.288  0.7342  1.0857 -0.4007
    8CHTO   H49 3291   4.731  10.141  -0.312  0.7892 -0.2117  2.0051
    8CHTO    N4 3292   4.868  10.281  -0.400  0.1678  0.1461  0.2343
    8CHTO   H41 3293   4.806  10.370  -0.402 -1.0308 -0.4084  5.2347
    8CHTO   H42 3294   4.969  10.310  -0.377  0.9180 -2.7371  0.7225
    8CHTO   C22 3295   4.931  10.083  -0.257  0.7768  0.0359 -0.5029
    8CHTO   H50 3296   5.021  10.135  -0.224  0.7298 -0.1638 -0.0615
    8CHTO   O14 3297   4.883   9.999  -0.146  0.0717 -0.3316  0.4726
    8CHTO   C23 3298   4.864  10.057  -0.020 -0.3238 -0.4821 -0.5835
    8CHTO   H51 3299   4.960  10.082   0.027 -1.7939  2.5657  0.9819
    8CHTO   C34 3300   4.794   9.958   0.071  0.1204  0.0904  0.1963
    8CHTO   O23 3301   4.870   9.837   0.092  0.1270 -0.4811  0.3291
    8CHTO   H38 3302   4.958   9.864   0.108 -0.6988  1.4824  1.8106
    8CHTO   O16 3303   4.956   9.991  -0.370 -0.1123  0.6558  0.1377
    8CHTO   C24 3304   5.076   9.907  -0.362 -0.1745  0.3105 -0.1788
    8CHTO   H52 3305   5.119   9.902  -0.262  1.2628 -0.4786 -0.8123
    8CHTO   C26 3306   5.181   9.950  -0.465 -0.1347 -0.6152  0.9671
    8CHTO   H54 3307   5.128   9.973  -0.559  0.4023  3.1237  1.4951
    8CHTO   O20 3308   5.224  10.084  -0.428 -0.0211  0.0000  0.4523
    8CHTO   H36 3309   5.288  10.067  -0.362  0.5871  1.1807  0.1691
    8CHTO   C30 3310   5.296   9.852  -0.490 -0.6234  0.7405 -0.1129
    8CHTO   H58 3311   5.365   9.861  -0.405 -2.5732  1.2719  1.4551
    8CHTO    N6 3312   5.382   9.891  -0.609 -0.4157  0.1205  0.3206
    8CHTO   H45 3313   5.317   9.930  -0.686 -0.3107 -2.4232 -1.1237
    8CHTO   H46 3314   5.456   9.966  -0.590  0.4285 -0.3607 -1.0033
    8CHTO   C33 3315   5.243   9.705  -0.504 -0.3881 -0.3513  0.2656
    8CHTO   H61 3316   5.178   9.696  -0.592 -1.8029 -0.5239  1.3133
    8CHTO   O18 3317   5.160   9.677  -0.391 -0.5731 -0.1240 -0.7656
    8CHTO   C28 3318   5.037   9.759  -0.392 -0.1431  0.2325 -0.7573
    8CHTO   H56 3319   4.987   9.755  -0.489  3.4018 -2.4791 -2.6144
    8CHTO   C35 3320   4.937   9.716  -0.282  0.2163 -0.0473  0.0958
    8CHTO   O24 3321   4.907   9.573  -0.290 -0.8344 -0.3553  0.2163
    8CHTO   H39 3322   4.829   9.554  -0.241 -1.0957  0.4636  0.1174
    8CHTO    O9 3323   5.346   9.607  -0.527 -0.3122  0.3689 -0.2553
    8CHTO   C13 3324   5.304   9.475  -0.622 -0.1511  0.0849  0.1573
    8CHTO   H26 3325   5.200   9.479  -0.662  0.4504 -0.6107 -1.5165
    8CHTO   C11 3326   5.320   9.344  -0.524  0.1067 -0.3395  0.3785
    8CHTO   H24 3327   5.228   9.345  -0.464  0.4097 -0.4120  0.8438
    8CHTO    O8 3328   5.441   9.349  -0.447  0.8470 -0.1321  0.6795
    8CHTO    H3 3329   5.444   9.425  -0.391  1.9631  1.5340 -1.5795
    8CHTO    C9 3330   5.303   9.219  -0.622  0.4870 -0.1952 -0.0422
    8CHTO   H22 3331   5.214   9.240  -0.682 -0.5639 -2.4176  0.6691
    8CHTO    N2 3332   5.260   9.097  -0.541 -0.2973  0.0726 -0.2909
    8CHTO   H10 3333   5.167   9.100  -0.486 -1.1232 -1.1088 -1.5963
    8CHTO   H11 3334   5.341   9.067  -0.477  1.8136 -0.1461 -2.9915
    8CHTO    C7 3335   5.432   9.206  -0.710  0.5294 -0.6272  0.6139
    8CHTO   H20 3336   5.398   9.165  -0.807  0.3669  0.8972  0.0172
    8CHTO    O4 3337   5.489   9.336  -0.735 -0.1299  0.1434  0.1316
    8CHTO   C14 3338   5.399   9.446  -0.749  0.4246  0.0777  0.0411
    8CHTO   H27 3339   5.337   9.419  -0.837  1.2477  2.7488 -1.4036
    8CHTO   C18 3340   5.469   9.572  -0.796 -0.5948  0.1308  0.3301
    8CHTO   O13 3341   5.430   9.610  -0.925 -0.6501  0.3947  0.7064
    8CHTO    H7 3342   5.346   9.650  -0.918 -2.1721 -2.2088 -1.4924
    8CHTO    O2 3343   5.537   9.099  -0.630 -0.3088 -0.0784  0.5373
    8CHTO    C1 3344   5.682   9.111  -0.668 -0.1508 -0.6154 -0.5300
    8CHTO   H14 3345   5.698   9.210  -0.717 -3.3573  0.1159 -0.2269
    8CHTO    C2 3346   5.729   8.999  -0.773  0.1147  0.0378 -0.6094
    8CHTO   H15 3347   5.694   8.907  -0.726 -1.2242  0.1242 -1.3948
    8CHTO    O6 3348   5.662   9.032  -0.897  0.5486  0.4966  0.2433
    8CHTO    H1 3349   5.620   8.956  -0.933 -0.8618  0.6821  1.4320
    8CHTO    C3 3350   5.887   9.002  -0.793 -0.1259 -0.0400 -0.2801
    8CHTO   H16 3351   5.902   9.097  -0.848 -0.9455  1.1224  1.4676
    8CHTO    N1 3352   5.930   8.885  -0.872  0.1681 -0.1255 -0.0563
    8CHTO    H8 3353   5.915   8.791  -0.821 -2.8194  1.3344  1.9296
    8CHTO    H9 3354   6.028   8.888  -0.918 -0.1460 -1.3848 -0.8203
    8CHTO    C4 3355   5.947   9.020  -0.652  0.7368  0.4545 -0.4924
    8CHTO   H17 3356   5.927   8.931  -0.593  0.6077  1.1882  0.5969
    8CHTO    O1 3357   5.905   9.132  -0.575  0.3311 -0.7158 -0.2690
    8CHTO    C5 3358   5.769   9.112  -0.540 -0.4509 -0.3467 -0.5576
    8CHTO   H18 3359   5.748   9.018  -0.489  0.0627  0.5277  1.2983
    8CHTO   C16 3360   5.745   9.233  -0.439  0.0633  0.0151 -0.0029
    8CHTO   O11 3361   5.798   9.226  -0.302  0.4431 -0.5075 -0.6516
    8CHTO    H5 3362   5.849   9.148  -0.295  1.8559  0.6284  2.2839
    8CHTO    O3 3363   6.095   9.037  -0.667  0.4183  0.2863 -0.4741
    8CHTO    C6 3364   6.153   8.981  -0.545  0.3386  0.0455  0.2737
    8CHTO   H19 3365   6.087   8.978  -0.458 -0.2677  0.7342 -0.1566
    8CHTO    C8 3366   6.214   8.848  -0.589  0.7056  0.0511 -0.0123
    8CHTO   H21 3367   6.270   8.866  -0.680 -1.3014  1.9354 -0.9076
    8CHTO    O7 3368   6.112   8.749  -0.622 -0.4398 -0.4941 -0.1109
    8CHTO    H2 3369   6.046   8.753  -0.556  1.0073  1.4096  1.2756
    8CHTO   C12 3370   6.304   8.777  -0.485  0.3596 -0.2359 -0.5320
    8CHTO   H25 3371   6.232   8.756  -0.403 -1.1221  4.0941 -0.6416
    8CHTO    N3 3372   6.377   8.651  -0.525  0.1017  0.2022 -0.6552
    8CHTO   H12 3373   6.439   8.677  -0.610  2.3353  1.4655  1.2759
    8CHTO   H13 3374   6.437   8.597  -0.453  2.2480  0.5131 -2.1664
    8CHTO   C15 3375   6.413   8.884  -0.429 -0.4315 -0.3078  0.5085
    8CHTO   H28 3376   6.498   8.904  -0.494 -1.0948  1.2721  0.1074
    8CHTO   O10 3377   6.437   8.862  -0.322 -0.2808  0.0728 -0.4078
    8CHTO    H4 3378   6.489   8.785  -0.314  0.5608  0.8064  1.4596
    8CHTO    O5 3379   6.355   9.014  -0.408  0.2562 -0.0803 -0.2376
    8CHTO   C10 3380   6.276   9.071  -0.508 -0.6492 -1.1708 -0.3415
    8CHTO   H23 3381   6.341   9.100  -0.590  0.4739 -2.4308  0.0775
    8CHTO   C17 3382   6.228   9.206  -0.452 -0.0443 -0.0937 -0.1200
    8CHTO   O12 3383   6.161   9.291  -0.548 -0.1963  0.1657  0.2142
    8CHTO    H6 3384   6.138   9.369  -0.501  1.5194  0.3471  0.7815
    9CHTO  H203 3385   8.158   3.838   3.596 -0.0619 -0.0922  0.0214
    9CHTO   O82 3386   8.167   3.834   3.502 -0.3610  0.0474 -0.0169
    9CHTO  C123 3387   8.261   3.934   3.460  0.5210 -0.8634  0.8050
    9CHTO  H227 3388   8.280   4.000   3.547  2.8607  1.2086 -1.2244
    9CHTO   O77 3389   8.383   3.876   3.417  0.1488  0.0290  0.1116
    9CHTO  C118 3390   8.483   3.971   3.388  0.4356 -0.0781  0.4120
    9CHTO  H222 3391   8.488   4.058   3.455  0.3206  0.3126 -0.0885
    9CHTO  C125 3392   8.622   3.899   3.388  0.1939 -0.7931  0.3905
    9CHTO   O84 3393   8.641   3.817   3.506  0.4207 -0.3287  0.1178
    9CHTO  H205 3394   8.730   3.792   3.521  0.0799 -0.4167  2.1070
    9CHTO  C114 3395   8.449   4.026   3.244  0.7431 -0.8063  0.1911
    9CHTO  H218 3396   8.433   3.941   3.178 -0.5224  0.5018 -1.2133
    9CHTO  C116 3397   8.309   4.095   3.254 -0.1506 -0.5327  0.6404
    9CHTO  H220 3398   8.326   4.199   3.290  2.3241 -0.0111 -1.8491
    9CHTO   O79 3399   8.255   4.122   3.119 -0.3868  0.1639 -0.2297
    9CHTO  H201 3400   8.312   4.182   3.075 -1.7121  0.3314 -1.7535
    9CHTO  C120 3401   8.203   4.020   3.340  0.4181 -0.5651  0.0450
    9CHTO  H224 3402   8.143   3.955   3.272 -0.1110  0.3722 -0.3825
    9CHTO   N21 3403   8.098   4.103   3.399 -0.2260 -0.1152 -0.0567
    9CHTO  H211 3404   8.121   4.202   3.437  2.7025 -0.2856 -1.2663
    9CHTO  H212 3405   8.015   4.054   3.448 -0.9163  0.3112 -0.7811
    9CHTO   O75 3406   8.559   4.112   3.210 -0.2383  0.6630  0.1709
    9CHTO  C112 3407   8.577   4.128   3.051  0.9657  0.1983 -0.4415
    9CHTO  H216 3408   8.491   4.176   3.003 -0.9903 -1.2240  1.5114
    9CHTO   O73 3409   8.610   3.995   2.996 -0.0447 -0.2915 -0.0568
    9CHTO  C113 3410   8.657   3.977   2.859 -0.0309  0.0752 -0.0448
    9CHTO  H217 3411   8.565   3.989   2.799 -0.9801 -0.2272  1.3307
    9CHTO  C124 3412   8.701   3.831   2.844  0.7723 -0.2533  0.0011
    9CHTO   O83 3413   8.796   3.772   2.936  0.6846 -0.3273 -0.2204
    9CHTO  H204 3414   8.802   3.684   2.905 -0.6378 -0.3375 -0.4995
    9CHTO  C109 3415   8.774   4.073   2.831  0.8940  0.2459  0.1548
    9CHTO  H213 3416   8.856   4.038   2.895 -1.1750 -3.7299  0.7727
    9CHTO  C110 3417   8.731   4.215   2.874  0.8482 -0.1569  0.5597
    9CHTO  H214 3418   8.641   4.239   2.816  0.9159  0.6233  0.7771
    9CHTO   O78 3419   8.826   4.313   2.833  0.5411 -0.2020  0.4141
    9CHTO  H200 3420   8.826   4.393   2.882  1.0672  0.6066 -0.8949
    9CHTO  C111 3421   8.702   4.218   3.030  0.7603 -0.0042 -0.0586
    9CHTO  H215 3422   8.785   4.173   3.086  0.3741  0.9272  1.2835
    9CHTO   N19 3423   8.678   4.351   3.091  0.0171 -0.1432  0.7131
    9CHTO  H207 3424   8.676   4.424   3.011 -0.4789  0.3057  1.1382
    9CHTO  H208 3425   8.763   4.378   3.153  1.4044  0.9551 -1.5815
    9CHTO   O74 3426   8.803   4.059   2.694 -0.4981 -0.0981 -0.0056
    9CHTO  C115 3427   8.954   4.071   2.661  1.0159 -0.7609  0.2235
    9CHTO  H219 3428   9.004   4.137   2.732 -1.1802 -0.8931  1.9732
    9CHTO   O76 3429   9.025   3.934   2.669 -0.1858  0.4872 -0.3904
    9CHTO  C122 3430   8.979   3.838   2.569 -0.6720  0.0584  0.3115
    9CHTO  H226 3431   8.879   3.814   2.604 -0.3324 -0.6122  0.8326
    9CHTO  C126 3432   9.058   3.701   2.574  0.0976  0.8723  0.3337
    9CHTO   O85 3433   9.198   3.711   2.547  0.3241  0.5480  0.1465
    9CHTO  H206 3434   9.208   3.710   2.454  1.6004 -0.4497  0.2718
    9CHTO  C121 3435   8.971   3.893   2.423 -0.6084 -0.9051  0.3933
    9CHTO  H225 3436   9.073   3.908   2.380 -0.7401 -0.1727  0.3302
    9CHTO   O81 3437   8.899   3.805   2.337  1.0391 -0.3391  0.5326
    9CHTO  H202 3438   8.919   3.713   2.339 -0.6610 -0.7542 -0.0744
    9CHTO  C119 3439   8.904   4.036   2.418 -0.5993 -0.2969  0.2755
    9CHTO  H223 3440   8.925   4.071   2.317 -0.3830 -1.2520 -0.0156
    9CHTO  C117 3441   8.968   4.136   2.518  0.3028  0.5324  0.4822
    9CHTO  H221 3442   8.914   4.230   2.531 -1.3097 -0.3749  0.5009
    9CHTO   N20 3443   9.105   4.183   2.475  0.2172 -0.0423  0.1858
    9CHTO  H209 3444   9.141   4.246   2.556 -1.3003  0.6636  0.3281
    9CHTO  H210 3445   9.173   4.099   2.464 -1.1443 -0.9785 -1.1593
    9CHTO   O80 3446   8.735   4.029   2.421 -0.0541  0.4043 -0.2727
    9CHTO  C103 3447   8.647   4.094   2.306  0.3450 -0.0204  1.0417
    9CHTO  H190 3448   8.545   4.115   2.337  0.3448  1.6093  0.0131
    9CHTO  C101 3449   8.709   4.227   2.248 -0.6437 -0.4433 -1.0338
    9CHTO  H188 3450   8.811   4.210   2.211  0.1962  0.0405  0.9592
    9CHTO   O68 3451   8.710   4.334   2.356 -0.0322  0.1160  0.9201
    9CHTO  H168 3452   8.720   4.295   2.441 -1.1637 -1.8966  0.1474
    9CHTO   C99 3453   8.622   4.266   2.120 -0.0761  0.2460 -0.6438
    9CHTO  H186 3454   8.519   4.285   2.156 -0.0078  1.0478 -0.8495
    9CHTO   N17 3455   8.674   4.387   2.051  0.2568  0.4981  0.3166
    9CHTO  H174 3456   8.592   4.431   1.997  0.6452  0.9447  0.0950
    9CHTO  H175 3457   8.703   4.450   2.134 -1.6961  0.1037  1.3428
    9CHTO   C97 3458   8.611   4.145   2.022  0.4648  0.8125  0.0458
    9CHTO  H184 3459   8.708   4.139   1.971  0.4324 -0.1847  0.0928
    9CHTO   O64 3460   8.569   4.016   2.081  0.1025 -0.0224  0.1735
    9CHTO  C104 3461   8.636   3.977   2.202 -0.5129 -0.1252  0.0114
    9CHTO  H191 3462   8.737   3.944   2.181  0.0138  1.4316  0.0279
    9CHTO  C108 3463   8.553   3.862   2.257 -0.2648 -0.4900  0.3128
    9CHTO   O71 3464   8.612   3.783   2.357 -0.6335 -0.0703  0.0590
    9CHTO  H171 3465   8.691   3.742   2.327 -0.6332  0.1057 -0.1832
    9CHTO   O62 3466   8.506   4.164   1.920 -0.1598  0.2055  0.7085
    9CHTO   C91 3467   8.504   4.086   1.800  0.7847  0.0141  0.1499
    9CHTO  H178 3468   8.570   4.000   1.803  3.4155  1.7924 -2.8007
    9CHTO   C92 3469   8.581   4.174   1.690  0.5123 -0.2315 -0.1148
    9CHTO  H179 3470   8.676   4.208   1.734  0.9533  0.6883 -1.7215
    9CHTO   O66 3471   8.627   4.097   1.580  0.5807 -0.2469  0.2398
    9CHTO  H166 3472   8.690   4.031   1.602  0.6669 -0.5608 -0.9267
    9CHTO   C93 3473   8.490   4.290   1.634 -0.4690  0.8142 -0.5260
    9CHTO  H180 3474   8.487   4.281   1.524  0.9125  1.2605 -0.6053
    9CHTO   N16 3475   8.544   4.427   1.651 -0.5388 -0.1201 -0.1776
    9CHTO  H172 3476   8.644   4.442   1.612 -0.4276 -0.0254  0.1424
    9CHTO  H173 3477   8.548   4.454   1.755  2.0040  1.8026 -0.7303
    9CHTO   C94 3478   8.347   4.269   1.680 -0.3457  0.2111 -0.9001
    9CHTO  H181 3479   8.337   4.285   1.788 -1.9109 -0.4353 -0.9436
    9CHTO   O61 3480   8.313   4.137   1.648 -0.6081 -0.2876  0.0169
    9CHTO   C95 3481   8.357   4.052   1.756  0.3063  1.1697  0.1927
    9CHTO  H182 3482   8.288   4.063   1.840  0.4029 -2.3169  0.8293
    9CHTO  C106 3483   8.351   3.903   1.707  0.3395  0.4298  0.4933
    9CHTO   O69 3484   8.360   3.795   1.797 -0.1823  0.4087 -0.4195
    9CHTO  H169 3485   8.417   3.728   1.764  2.5167  1.0426  2.6890
    9CHTO   O63 3486   8.257   4.346   1.624  0.3834  0.3433  0.3344
    9CHTO   C96 3487   8.114   4.368   1.675 -0.7108  0.2609  0.1482
    9CHTO  H183 3488   8.105   4.359   1.783 -0.2609  0.7630  0.2306
    9CHTO   C98 3489   8.002   4.291   1.601 -0.1699  0.6944  0.2627
    9CHTO  H185 3490   8.006   4.314   1.493 -1.3557  0.9193  0.2586
    9CHTO   O67 3491   8.033   4.154   1.607 -0.1506 -0.0451  0.0213
    9CHTO  H167 3492   8.099   4.118   1.551 -0.9223  0.8509 -1.5173
    9CHTO  C102 3493   7.861   4.325   1.657  0.3042 -0.5648 -0.1824
    9CHTO  H189 3494   7.855   4.283   1.758 -0.6473  1.4833  0.6454
    9CHTO   N18 3495   7.752   4.262   1.578 -0.2902 -0.8025  0.2713
    9CHTO  H176 3496   7.772   4.156   1.579  2.2609 -0.3690 -1.0128
    9CHTO  H177 3497   7.658   4.303   1.614 -1.1213 -2.1667 -0.2830
    9CHTO  C105 3498   7.837   4.477   1.678 -0.0917 -0.0063 -0.4687
    9CHTO  H192 3499   7.817   4.518   1.579 -0.1556 -0.3839 -0.6100
    9CHTO   O65 3500   7.957   4.547   1.734 -0.3998  0.1167  0.4803
    9CHTO  C100 3501   8.077   4.517   1.657 -0.4448  0.1870  0.0820
    9CHTO  H187 3502   8.057   4.532   1.550 -0.8955  0.7941  0.2517
    9CHTO  C107 3503   8.189   4.610   1.692 -0.5833 -0.7293  0.4415
    9CHTO   O70 3504   8.206   4.608   1.838 -0.2984 -0.0903  0.1350
    9CHTO  H170 3505   8.198   4.520   1.869  0.6717 -0.7376 -1.4297
    9CHTO   O57 3506   7.703   4.508   1.768 -0.4159  0.8965  0.1845
    9CHTO   C85 3507   7.633   4.628   1.758  0.5751 -0.0383 -0.7334
    9CHTO  H157 3508   7.644   4.659   1.652  2.7540 -0.9614 -0.7975
    9CHTO   C83 3509   7.701   4.742   1.836  0.1887  0.6259  0.7927
    9CHTO  H155 3510   7.805   4.746   1.804  0.0227  0.0393  0.1668
    9CHTO   O56 3511   7.707   4.698   1.971  0.3624 -0.8511  0.1006
    9CHTO  H135 3512   7.629   4.728   2.015  0.4827  0.7019 -0.6915
    9CHTO   C81 3513   7.626   4.875   1.809  0.4826 -0.4814  0.1109
    9CHTO  H153 3514   7.614   4.890   1.702  2.8480  2.7643  0.2274
    9CHTO   N14 3515   7.702   4.996   1.855 -0.8703 -0.1247  0.4135
    9CHTO  H141 3516   7.660   5.070   1.920 -0.2110  0.5654  0.0687
    9CHTO  H142 3517   7.757   5.044   1.777 -1.6245  1.5344  0.8644
    9CHTO   C79 3518   7.485   4.869   1.875  0.4384  0.4658  0.2800
    9CHTO  H151 3519   7.432   4.959   1.846  1.5552  0.7345 -0.9876
    9CHTO   O52 3520   7.409   4.754   1.813  0.0233 -0.0813 -0.1517
    9CHTO   C86 3521   7.479   4.620   1.798  0.0284  0.6004 -0.4204
    9CHTO  H158 3522   7.480   4.578   1.901 -0.4017  3.0883  0.6494
    9CHTO   C90 3523   7.405   4.515   1.716  0.1194 -0.6288  0.2669
    9CHTO   O60 3524   7.280   4.478   1.767  0.3653 -0.1733 -0.5783
    9CHTO  H138 3525   7.234   4.426   1.704  0.8663  0.7356 -1.7042
    9CHTO   O50 3526   7.473   4.848   2.021  0.3045 -0.0660 -0.7217
    9CHTO   C73 3527   7.425   4.870   2.156  0.1730 -0.1179 -0.6763
    9CHTO  H145 3528   7.323   4.828   2.151 -0.0941  0.5966 -1.4443
    9CHTO   C74 3529   7.420   5.024   2.180 -0.0036  0.6930  0.4169
    9CHTO  H146 3530   7.367   5.066   2.093 -0.5264 -1.6805 -0.4339
    9CHTO   O54 3531   7.340   5.071   2.287 -0.2737  0.1379  0.1863
    9CHTO  H133 3532   7.359   5.160   2.310  1.3200 -0.2624  0.4606
    9CHTO   C75 3533   7.571   5.080   2.184  0.1260  0.2647  0.6660
    9CHTO  H147 3534   7.617   5.058   2.087 -0.2663  0.0953  0.5201
    9CHTO   N13 3535   7.580   5.226   2.203  0.4497 -0.2334  0.1825
    9CHTO  H139 3536   7.680   5.266   2.192  0.2961  0.0681 -0.1332
    9CHTO  H140 3537   7.544   5.258   2.300  0.1075  0.8355 -0.2935
    9CHTO   C76 3538   7.659   4.996   2.286  0.3339 -0.4847  0.2922
    9CHTO  H148 3539   7.624   5.025   2.385 -0.0933  1.4525 -0.4026
    9CHTO   O49 3540   7.642   4.850   2.273 -0.2099 -0.1121  0.2214
    9CHTO   C77 3541   7.501   4.806   2.276 -0.6792 -0.1883  0.5966
    9CHTO  H149 3542   7.450   4.831   2.368  2.7958  1.2090  2.2230
    9CHTO   C88 3543   7.510   4.656   2.258  0.0182  0.5672 -0.2488
    9CHTO   O58 3544   7.575   4.591   2.374 -0.9672  0.4389  0.8962
    9CHTO  H136 3545   7.515   4.562   2.440 -0.6031  0.2716  1.1563
    9CHTO   O51 3546   7.833   5.031   2.271 -0.3505  0.1100 -1.0268
    9CHTO   C78 3547   7.918   4.951   2.401 -0.2783 -0.8309  0.1393
    9CHTO  H150 3548   7.846   4.901   2.468 -3.2245  0.9016 -1.6130
    9CHTO   C80 3549   7.985   5.073   2.472 -0.2931  0.5086 -0.5067
    9CHTO  H152 3550   8.058   5.119   2.402  1.0821  0.1706  0.6756
    9CHTO   O55 3551   7.884   5.164   2.513  0.1529  0.2250  0.6682
    9CHTO  H134 3552   7.845   5.127   2.590 -0.7769  1.7904  0.9729
    9CHTO   C84 3553   8.071   5.029   2.597 -0.5210  0.1235 -0.4114
    9CHTO  H156 3554   8.000   4.992   2.671  1.0980 -0.4322  0.8890
    9CHTO   N15 3555   8.145   5.140   2.659 -0.1264 -0.0032  0.5114
    9CHTO  H143 3556   8.074   5.183   2.728  1.3108  2.4810  0.5239
    9CHTO  H144 3557   8.166   5.208   2.579 -0.3211 -1.2162 -0.5735
    9CHTO   C87 3558   8.170   4.917   2.547  0.2267  0.0218 -0.8861
    9CHTO  H159 3559   8.245   4.954   2.478 -0.2034  2.4725 -0.1072
    9CHTO   O53 3560   8.084   4.803   2.470  0.3291  0.3471 -0.0058
    9CHTO   C82 3561   8.030   4.854   2.351  0.4522 -0.9728 -0.1789
    9CHTO  H154 3562   8.099   4.914   2.292 -1.4799 -0.1970 -1.6962
    9CHTO   C89 3563   7.982   4.744   2.262  0.5885 -0.5350 -0.2559
    9CHTO   O59 3564   7.897   4.658   2.342  0.3284  0.3606  0.0789
    9CHTO  H137 3565   7.911   4.665   2.434  2.3312  2.3935 -0.3084
    9CHTO   O45 3566   8.254   4.855   2.677 -0.3006  0.9616 -0.1329
    9CHTO   C67 3567   8.320   4.731   2.655 -0.8074 -0.7934  0.0413
    9CHTO  H124 3568   8.274   4.683   2.568 -0.8153 -0.4764 -0.1301
    9CHTO   C65 3569   8.471   4.737   2.622 -0.0091  0.4464 -0.3895
    9CHTO  H122 3570   8.485   4.836   2.666 -0.2477 -0.0152  0.7242
    9CHTO   O44 3571   8.492   4.744   2.480 -0.6049  0.6874 -0.4696
    9CHTO  H102 3572   8.575   4.704   2.465 -1.7387 -0.9271 -2.7105
    9CHTO   C63 3573   8.563   4.633   2.702  0.7724 -0.2755 -0.3338
    9CHTO  H120 3574   8.584   4.674   2.801 -0.4636  0.3342 -0.3154
    9CHTO   N11 3575   8.706   4.623   2.639  0.4395 -0.0607 -0.5725
    9CHTO  H108 3576   8.715   4.600   2.536 -1.6658 -2.3717 -0.2938
    9CHTO  H109 3577   8.748   4.721   2.648  0.3415  0.3353 -4.0012
    9CHTO   C61 3578   8.482   4.497   2.724 -0.3004 -0.3089  0.1323
    9CHTO  H118 3579   8.541   4.436   2.793 -0.2300  0.0369  0.3791
    9CHTO   O40 3580   8.358   4.520   2.789 -0.2223  0.6267 -0.6578
    9CHTO   C68 3581   8.279   4.638   2.768  0.0986  0.4304 -0.2542
    9CHTO  H125 3582   8.282   4.697   2.862  0.0062  0.2538 -0.1407
    9CHTO   C72 3583   8.139   4.599   2.748 -0.4966  1.0213 -0.8209
    9CHTO   O48 3584   8.073   4.560   2.871  0.7338 -0.0932 -0.3603
    9CHTO  H105 3585   7.981   4.539   2.864  0.4438  0.7096  0.9153
    9CHTO   O38 3586   8.472   4.431   2.593  0.0078  0.0536  0.0757
    9CHTO   C55 3587   8.367   4.339   2.568 -0.1307 -0.0814  0.9143
    9CHTO  H112 3588   8.274   4.388   2.603 -1.9137 -2.7356  0.0505
    9CHTO   C56 3589   8.386   4.194   2.636  0.3010  0.0326  0.2363
    9CHTO  H113 3590   8.485   4.154   2.611  1.0914  2.1330 -0.1209
    9CHTO   O42 3591   8.386   4.213   2.776  0.0256 -0.4632  0.1041
    9CHTO  H100 3592   8.471   4.238   2.807  1.5239 -3.0201 -1.8090
    9CHTO   C57 3593   8.270   4.095   2.597 -0.2051  0.5228 -0.3005
    9CHTO  H114 3594   8.175   4.126   2.642  0.2002  0.1113  0.8485
    9CHTO   N10 3595   8.292   3.957   2.642 -0.1088 -0.0651 -0.1729
    9CHTO  H106 3596   8.393   3.950   2.679 -0.1900  2.1721  0.5755
    9CHTO  H107 3597   8.222   3.930   2.720  0.6507 -1.0157  0.1798
    9CHTO   C58 3598   8.253   4.093   2.443 -0.1358 -0.2177 -0.0536
    9CHTO  H115 3599   8.338   4.036   2.399 -0.7452 -0.5634 -0.8044
    9CHTO   O37 3600   8.243   4.224   2.388  0.1466 -0.5040 -0.6047
    9CHTO   C59 3601   8.344   4.325   2.418  0.1947  0.1959  0.1686
    9CHTO  H116 3602   8.442   4.296   2.378 -1.1443 -2.9916 -0.9878
    9CHTO   C70 3603   8.299   4.455   2.347  0.0857 -0.5848 -0.1869
    9CHTO   O46 3604   8.302   4.446   2.203  0.4873  0.1613 -0.0524
    9CHTO  H103 3605   8.376   4.401   2.170 -1.3927 -1.2804 -2.4284
    9CHTO   O39 3606   8.098   4.021   2.408  0.2126  0.6501 -0.4399
    9CHTO   C60 3607   8.101   3.886   2.358  0.0521  0.0541  0.5767
    9CHTO  H117 3608   8.204   3.850   2.359  0.0965  0.0943 -1.2372
    9CHTO   C62 3609   8.002   3.798   2.440 -0.6868 -0.3310  0.0094
    9CHTO  H119 3610   8.048   3.776   2.539  1.3764 -0.2758 -0.9142
    9CHTO   O43 3611   7.874   3.868   2.456  0.4098  0.2818  0.0078
    9CHTO  H101 3612   7.864   3.878   2.549  2.0694 -1.9760  0.4513
    9CHTO   C66 3613   7.988   3.651   2.377 -0.2320 -0.5581  0.4284
    9CHTO  H123 3614   8.088   3.607   2.379  0.7102  1.6204  2.7982
    9CHTO   N12 3615   7.919   3.560   2.471  0.2005 -0.1284 -0.7817
    9CHTO  H110 3616   7.831   3.609   2.510  1.5564  0.1396  2.0882
    9CHTO  H111 3617   7.899   3.468   2.418 -0.8976 -0.5511  0.3300
    9CHTO   C69 3618   7.933   3.665   2.235 -0.4201 -0.6092  0.5168
    9CHTO  H126 3619   7.832   3.708   2.217 -0.1728  0.0074  0.5911
    9CHTO   O41 3620   8.055   3.781   2.158 -0.2665  0.1366  0.0241
    9CHTO   C64 3621   8.054   3.890   2.202 -0.4742 -0.8360  0.2435
    9CHTO  H121 3622   7.946   3.914   2.200 -0.3725 -0.4317 -0.4090
    9CHTO   C71 3623   8.129   3.997   2.120 -0.2344  0.2723  0.2996
    9CHTO   O47 3624   8.260   3.951   2.087  0.0195 -0.2642 -0.4165
    9CHTO  H104 3625   8.265   3.898   2.010  0.4862  0.6804 -1.0452
    9CHTO   O34 3626   7.949   3.523   2.158  0.0518 -0.3247  0.5362
    9CHTO   C49 3627   8.023   3.482   2.034 -0.4739  0.0593  0.1530
    9CHTO   H91 3628   7.985   3.548   1.955 -1.4512 -1.3991 -0.6417
    9CHTO   C47 3629   7.973   3.336   1.998 -0.7481  0.5122 -0.5356
    9CHTO   H89 3630   8.010   3.320   1.895  0.7575 -0.1223  0.0810
    9CHTO   O33 3631   7.830   3.325   1.995  0.4360 -0.1900  0.2217
    9CHTO   H70 3632   7.797   3.248   1.952 -2.4323  1.1245 -0.0664
    9CHTO   C45 3633   8.038   3.232   2.103 -0.1185 -0.8764 -0.2662
    9CHTO   H87 3634   7.953   3.202   2.167 -1.2924  1.2150 -0.7792
    9CHTO    N8 3635   8.092   3.112   2.033 -0.2541  0.3239 -0.2984
    9CHTO   H75 3636   8.106   3.128   1.927  0.4806  0.3538 -0.2008
    9CHTO   H76 3637   8.026   3.026   2.038  0.4682 -0.1762  0.7167
    9CHTO   C43 3638   8.149   3.296   2.199  0.4106 -0.0228  0.0423
    9CHTO   H85 3639   8.092   3.359   2.268  1.4836 -0.4814  1.3583
    9CHTO   O29 3640   8.237   3.375   2.123  0.2245  0.6342 -0.1357
    9CHTO   C50 3641   8.176   3.488   2.055 -0.1040 -0.3235 -0.4377
    9CHTO   H92 3642   8.198   3.577   2.115 -2.3379  0.3338 -0.5463
    9CHTO   C54 3643   8.245   3.516   1.923 -0.6219  0.1009  0.1065
    9CHTO   O36 3644   8.288   3.391   1.860  0.6149 -0.1125  0.3447
    9CHTO   H72 3645   8.320   3.328   1.922  1.9077 -0.6298 -0.8497
    9CHTO   O27 3646   8.224   3.213   2.290  0.5307  0.0880  0.3411
    9CHTO   C37 3647   8.277   3.240   2.422  0.2767  0.2876  0.1987
    9CHTO   H79 3648   8.353   3.163   2.440 -0.7363 -0.8366 -0.2647
    9CHTO   C38 3649   8.351   3.378   2.433 -0.2654 -0.5186  1.0934
    9CHTO   H80 3650   8.276   3.455   2.411  0.6109 -0.1025 -0.5091
    9CHTO   O31 3651   8.462   3.392   2.341  0.1104  0.2432  0.2216
    9CHTO   H68 3652   8.453   3.467   2.286  0.0244  1.0498  1.3151
    9CHTO   C39 3653   8.386   3.412   2.583 -0.4904  0.0335 -0.0139
    9CHTO   H81 3654   8.439   3.326   2.624  0.1068 -1.0809 -2.9777
    9CHTO    N7 3655   8.464   3.535   2.594 -0.5342 -0.9653  0.1562
    9CHTO   H73 3656   8.514   3.566   2.504 -2.1077 -0.7722 -0.6640
    9CHTO   H74 3657   8.543   3.517   2.666  1.4749 -1.3849 -2.0806
    9CHTO   C40 3658   8.257   3.414   2.667 -0.2945  0.1544  0.4924
    9CHTO   H82 3659   8.187   3.489   2.630  0.5014  1.3034  1.2884
    9CHTO   O26 3660   8.203   3.278   2.654 -0.5091 -0.4918  0.1929
    9CHTO   C41 3661   8.157   3.230   2.524  0.2062 -0.2206 -0.3048
    9CHTO   H83 3662   8.068   3.290   2.497  0.4571 -0.7013 -2.2907
    9CHTO   C52 3663   8.101   3.090   2.553  0.3461  0.2348 -0.0796
    9CHTO   O35 3664   8.016   3.040   2.465 -0.4619 -0.2342  0.1821
    9CHTO   H71 3665   7.933   3.083   2.474  1.1088  3.4626 -2.2655
    9CHTO   O28 3666   8.260   3.427   2.808 -0.9342  0.0660  0.0723
    9CHTO   C42 3667   8.152   3.491   2.876 -0.0661 -0.9427 -0.0377
    9CHTO   H84 3668   8.165   3.454   2.978  4.1246 -0.0851 -0.1390
    9CHTO   C44 3669   8.012   3.440   2.831  0.5367 -0.7634 -0.5853
    9CHTO   H86 3670   8.000   3.458   2.724 -3.4160 -1.4114 -0.3160
    9CHTO   O32 3671   8.007   3.299   2.872  0.1496  0.0545  0.0165
    9CHTO   H69 3672   8.089   3.257   2.852  0.0719 -0.6310  1.0764
    9CHTO   C48 3673   7.895   3.521   2.905 -1.0813 -0.4391  0.2799
    9CHTO   H90 3674   7.891   3.503   3.012 -1.0281  1.9395  0.7133
    9CHTO    N9 3675   7.762   3.483   2.855  0.4768 -0.1967 -0.2785
    9CHTO   H77 3676   7.697   3.566   2.876  0.2457 -0.7914  1.3780
    9CHTO   H78 3677   7.759   3.458   2.750  0.5860  0.0241 -0.3354
    9CHTO   C51 3678   7.930   3.675   2.900 -0.3636 -0.0898 -0.2003
    9CHTO   H93 3679   7.939   3.706   2.796 -0.8829  0.0792 -0.1956
    9CHTO   O30 3680   8.053   3.702   2.966 -0.0250 -0.4861  0.9351
    9CHTO   C46 3681   8.169   3.644   2.889  0.8675  0.5889  0.2580
    9CHTO   H88 3682   8.152   3.686   2.789 -1.2800 -1.6211 -0.3408
    9CHTO   C53 3683   8.312   3.677   2.937  0.7126  0.2458 -0.5533
    9CHTO   O72 3684   8.333   3.816   2.948  0.4337 -0.3534  0.8516
    9CHTO  H199 3685   8.424   3.833   2.961  0.1030  1.8240  0.5840
    9CHTO   O22 3686   7.832   3.759   2.957  0.1127 -0.2000  0.0838
    9CHTO   C31 3687   7.806   3.900   2.916  0.3589 -0.4019 -0.3127
    9CHTO   H59 3688   7.734   3.941   2.990 -1.8749 -0.7664 -2.2478
    9CHTO   C29 3689   7.937   3.995   2.915  0.7367  0.9256 -0.0528
    9CHTO   H57 3690   7.996   3.941   2.839 -0.7053 -0.4589 -0.2065
    9CHTO   O21 3691   8.011   3.990   3.043 -0.4148 -0.6026  0.1131
    9CHTO   H37 3692   8.065   3.914   3.053  0.9578  0.3335 -0.0436
    9CHTO   C27 3693   7.899   4.143   2.863  0.7829  0.2184  0.2895
    9CHTO   H55 3694   7.830   4.194   2.932  0.6901  0.8794 -0.2763
    9CHTO    N5 3695   8.026   4.222   2.862  0.1068 -0.2371  0.3840
    9CHTO   H43 3696   8.086   4.209   2.951  1.3256  2.8891  0.0950
    9CHTO   H44 3697   7.998   4.325   2.847 -1.2380 -0.7781 -0.9596
    9CHTO   C25 3698   7.831   4.128   2.725 -0.0792 -0.6956  0.2261
    9CHTO   H53 3699   7.902   4.074   2.661 -2.5642 -3.6437 -0.1845
    9CHTO   O17 3700   7.711   4.036   2.734  0.3688 -0.6561  0.4198
    9CHTO   C32 3701   7.734   3.901   2.782  0.5815  0.5472 -0.2061
    9CHTO   H60 3702   7.791   3.845   2.709  0.2284  0.5550 -0.4933
    9CHTO   C36 3703   7.599   3.828   2.795 -0.0426  0.1423  0.6208
    9CHTO   O25 3704   7.531   3.825   2.669 -0.2821  0.4499 -0.3321
    9CHTO   H40 3705   7.447   3.786   2.680  0.6837 -0.9106  2.8400
    9CHTO   O15 3706   7.789   4.262   2.663  0.1717 -0.3635  0.3524
    9CHTO   C19 3707   7.764   4.284   2.521  0.2956 -0.2405  0.8570
    9CHTO   H47 3708   7.735   4.390   2.522  0.0539 -0.3079  3.5775
    9CHTO   C20 3709   7.883   4.269   2.421 -0.1608 -0.3073 -0.1862
    9CHTO   H48 3710   7.925   4.167   2.421 -2.6523 -1.3770  0.1947
    9CHTO   O19 3711   7.980   4.355   2.482 -0.0759  0.5736 -0.6459
    9CHTO   H35 3712   8.052   4.295   2.489 -0.4083  0.1909 -0.5098
    9CHTO   C21 3713   7.849   4.308   2.271  0.0191  0.2350 -0.2102
    9CHTO   H49 3714   7.818   4.412   2.271  0.0530  0.2423 -0.6451
    9CHTO    N4 3715   7.957   4.302   2.170  0.2027  0.3176  0.4042
    9CHTO   H41 3716   8.047   4.340   2.216 -0.3455  0.4223  1.4088
    9CHTO   H42 3717   7.973   4.204   2.127 -1.2994  1.1955 -2.2916
    9CHTO   C22 3718   7.721   4.236   2.232 -0.8118  0.9315 -0.6535
    9CHTO   H50 3719   7.740   4.129   2.239  0.0274  1.2048  1.6667
    9CHTO   O14 3720   7.619   4.268   2.329 -0.0851  0.1032 -0.6697
    9CHTO   C23 3721   7.641   4.213   2.453 -0.8767 -0.3440 -0.3129
    9CHTO   H51 3722   7.654   4.105   2.442  0.3112 -0.2473  0.0973
    9CHTO   C34 3723   7.516   4.245   2.534 -0.0182 -0.3378 -0.8111
    9CHTO   O23 3724   7.500   4.386   2.558 -0.3876 -0.2402  0.4577
    9CHTO   H38 3725   7.482   4.405   2.648  0.2583  1.5049  0.2455
    9CHTO   O16 3726   7.667   4.260   2.100  0.0532  0.3541  0.2773
    9CHTO   C24 3727   7.554   4.161   2.052  0.3791 -0.7549 -0.1696
    9CHTO   H52 3728   7.534   4.088   2.130  0.4417 -0.6041 -0.0117
    9CHTO   C26 3729   7.584   4.084   1.920 -0.1603  0.3815 -0.2481
    9CHTO   H54 3730   7.608   4.155   1.838 -0.6449  1.0294  0.1740
    9CHTO   O20 3731   7.697   4.001   1.955  0.0903 -0.5488 -0.1119
    9CHTO   H36 3732   7.776   4.052   1.956  0.3475 -0.9442  1.5283
    9CHTO   C30 3733   7.471   3.991   1.864  0.1894  0.1495  0.1287
    9CHTO   H58 3734   7.458   3.898   1.921  0.1208 -0.7627 -1.3333
    9CHTO    N6 3735   7.500   3.933   1.730  0.0473 -0.4872 -0.1748
    9CHTO   H45 3736   7.589   3.874   1.750  0.7785  1.0801  1.3270
    9CHTO   H46 3737   7.423   3.866   1.695 -3.4104  1.4468  3.3135
    9CHTO   C33 3738   7.338   4.074   1.865  0.4694  0.3877  1.4160
    9CHTO   H61 3739   7.338   4.157   1.791 -0.8397  1.0418  2.1454
    9CHTO   O18 3740   7.324   4.129   1.996 -0.0351 -0.4787  0.1926
    9CHTO   C28 3741   7.420   4.240   2.029 -0.3146  0.4341  0.0037
    9CHTO   H56 3742   7.427   4.309   1.945 -1.6584  0.9341  0.2986
    9CHTO   C35 3743   7.368   4.304   2.159 -0.0735  0.7812 -0.2527
    9CHTO   O24 3744   7.229   4.339   2.172  0.3625 -0.0564  0.7294
    9CHTO   H39 3745   7.208   4.296   2.252 -0.4344 -2.0320 -0.4897
    9CHTO    O9 3746   7.224   3.989   1.830 -0.2630  0.2977  0.4010
    9CHTO   C13 3747   7.103   4.071   1.767 -0.2901  0.1512 -0.9452
    9CHTO   H26 3748   7.150   4.130   1.686 -1.1516  0.4454 -1.2290
    9CHTO   C11 3749   7.032   4.166   1.869 -0.4275 -0.5251 -0.3537
    9CHTO   H24 3750   7.097   4.252   1.890 -0.8739 -0.9387  2.9295
    9CHTO    O8 3751   6.999   4.092   1.988 -0.0708  0.1958  0.7985
    9CHTO    H3 3752   7.009   4.142   2.066  0.4133  0.3400  0.6503
    9CHTO    C9 3753   6.910   4.229   1.796 -0.3330 -0.1965 -0.3653
    9CHTO   H22 3754   6.947   4.279   1.706 -0.6076 -0.8507 -0.8500
    9CHTO    N2 3755   6.827   4.326   1.881 -0.2359 -0.5734  0.0027
    9CHTO   H10 3756   6.728   4.286   1.900 -0.2186 -0.2709  0.7476
    9CHTO   H11 3757   6.824   4.430   1.853  0.5838 -0.5673 -0.0744
    9CHTO    C7 3758   6.810   4.116   1.752 -0.0563  0.5156  0.3808
    9CHTO   H20 3759   6.720   4.161   1.704 -0.9503  0.3412  1.8726
    9CHTO    O4 3760   6.875   4.025   1.666  0.0908  0.2649  0.1521
    9CHTO   C14 3761   7.004   3.964   1.699 -0.3354 -0.4761  0.0407
    9CHTO   H27 3762   7.044   3.929   1.601 -1.5356 -1.3413 -0.1627
    9CHTO   C18 3763   6.971   3.839   1.782  0.4878 -0.2589 -0.0942
    9CHTO   O13 3764   6.902   3.741   1.703 -0.5110 -0.3508 -0.5276
    9CHTO    H7 3765   6.959   3.709   1.636  1.3929 -1.2735  1.4898
    9CHTO    O2 3766   6.754   4.032   1.886 -0.3925  0.0460  0.6242
    9CHTO    C1 3767   6.614   3.992   1.899 -0.1522 -0.7172  1.0173
    9CHTO   H14 3768   6.613   3.904   1.967  0.0189 -1.4257  0.1212
    9CHTO    C2 3769   6.537   3.957   1.762  0.8491 -0.3134 -0.0804
    9CHTO   H15 3770   6.530   4.053   1.709 -0.4618  0.8275  2.1116
    9CHTO    O6 3771   6.612   3.857   1.694 -0.2848  0.2825  0.3967
    9CHTO    H1 3772   6.584   3.838   1.606  0.7484  0.7496 -0.0402
    9CHTO    C3 3773   6.383   3.910   1.785  1.0085  0.0536 -0.7728
    9CHTO   H16 3774   6.373   3.812   1.835 -0.2567 -0.6137 -2.2955
    9CHTO    N1 3775   6.298   3.897   1.666 -0.0117 -0.3625 -0.0609
    9CHTO    H8 3776   6.199   3.863   1.690  0.3904 -0.2730  1.7837
    9CHTO    H9 3777   6.288   3.994   1.618  1.7854 -0.9496 -1.6618
    9CHTO    C4 3778   6.311   4.014   1.889 -0.5609 -0.1803  0.9411
    9CHTO   H17 3779   6.300   4.113   1.844  1.1002 -1.2422 -1.9223
    9CHTO    O1 3780   6.401   4.043   2.006 -0.2739  0.1790  0.3380
    9CHTO    C5 3781   6.536   4.095   1.979 -0.6488 -0.1175 -0.8421
    9CHTO   H18 3782   6.530   4.181   1.913  0.4131 -1.1113 -2.2700
    9CHTO   C16 3783   6.602   4.131   2.115 -0.4888  0.7770 -0.0073
    9CHTO   O11 3784   6.520   4.236   2.178  0.1753  0.3234 -0.1013
    9CHTO    H5 3785   6.563   4.316   2.154 -1.5219  2.2531  2.8746
    9CHTO    O3 3786   6.190   3.967   1.960 -0.1550 -0.3292  0.3010
    9CHTO    C6 3787   6.083   4.058   1.984 -0.3840 -0.3599 -0.1317
    9CHTO   H19 3788   6.101   4.152   1.932  0.2373 -0.6881 -0.5138
    9CHTO    C8 3789   5.961   3.990   1.926 -1.3839  0.1042  0.0774
    9CHTO   H21 3790   5.962   3.889   1.966  0.7116 -1.0403 -2.7556
    9CHTO    O7 3791   5.972   4.004   1.789 -0.0651  0.5688 -0.1475
    9CHTO    H2 3792   5.917   3.945   1.741  1.6648 -2.3892  1.4074
    9CHTO   C12 3793   5.831   4.067   1.974  0.2288 -0.3274  0.1714
    9CHTO   H25 3794   5.827   4.164   1.918  0.6723 -1.9649 -2.8236
    9CHTO    N3 3795   5.711   3.989   1.934  0.2069 -0.5877 -0.5029
    9CHTO   H12 3796   5.629   4.058   1.944  0.6354 -0.0407 -0.7597
    9CHTO   H13 3797   5.726   3.966   1.829  2.1189  0.7037 -0.5364
    9CHTO   C15 3798   5.826   4.092   2.131 -0.1697 -0.4507 -0.1901
    9CHTO   H28 3799   5.826   4.001   2.191 -1.1623  0.9755  2.0315
    9CHTO   O10 3800   5.688   4.205   2.194  0.6889 -0.2966 -0.0137
    9CHTO    H4 3801   5.698   4.224   2.285 -2.3700 -1.7125  0.6865
    9CHTO    O5 3802   5.948   4.169   2.160  0.4067 -0.2804 -0.2006
    9CHTO   C10 3803   6.071   4.098   2.134 -0.0207 -0.2771 -0.4515
    9CHTO   H23 3804   6.070   4.007   2.194 -0.1711  1.3916  2.1933
    9CHTO   C17 3805   6.185   4.189   2.190 -0.2371  0.6058 -0.3936
    9CHTO   O12 3806   6.186   4.315   2.132  0.0914  0.1339  0.0867
    9CHTO    H6 3807   6.105   4.346   2.167 -0.9263 -1.4402 -0.8120
   10CHTO  H203 3808   5.189   6.317  -0.906 -0.7602  0.6519  0.3642
   10CHTO   O82 3809   5.128   6.256  -0.941  0.2407 -0.2052  0.0961
   10CHTO  C123 3810   4.987   6.280  -0.899 -0.0628 -0.1864  0.0058
   10CHTO  H227 3811   4.923   6.225  -0.969  0.1591  2.2284 -2.1841
   10CHTO   O77 3812   4.966   6.231  -0.766 -0.2890 -0.2457 -0.1965
   10CHTO  C118 3813   4.825   6.216  -0.729  0.0453 -0.1554  0.8394
   10CHTO  H222 3814   4.775   6.150  -0.801  2.8776 -2.4761  0.9104
   10CHTO  C125 3815   4.833   6.157  -0.583  0.0661  0.1219 -0.6020
   10CHTO   O84 3816   4.865   6.017  -0.582 -0.7811 -0.0508  0.3737
   10CHTO  H205 3817   4.783   5.972  -0.591 -1.0467  0.3707  0.6535
   10CHTO  C114 3818   4.767   6.355  -0.722  0.2877  0.8205 -0.2333
   10CHTO  H218 3819   4.817   6.406  -0.639 -0.2871  0.2607  0.4690
   10CHTO  C116 3820   4.795   6.438  -0.855 -0.4042  0.3311 -0.2405
   10CHTO  H220 3821   4.737   6.392  -0.938  0.8157  1.1786 -1.6041
   10CHTO   O79 3822   4.750   6.575  -0.842 -0.1353  0.5633 -0.5848
   10CHTO  H201 3823   4.814   6.621  -0.791  0.4332 -1.6710  0.8057
   10CHTO  C120 3824   4.945   6.432  -0.906  0.1222  0.5487 -0.0189
   10CHTO  H224 3825   4.996   6.497  -0.832 -1.6163 -2.5973  4.1782
   10CHTO   N21 3826   4.960   6.489  -1.042 -0.2804  0.0897 -0.0697
   10CHTO  H211 3827   5.043   6.446  -1.095  0.3146  1.3822 -0.2036
   10CHTO  H212 3828   4.969   6.596  -1.032  1.8129 -0.2263  1.7774
   10CHTO   O75 3829   4.624   6.342  -0.703  0.9290  0.1495  0.0366
   10CHTO  C112 3830   4.563   6.435  -0.581  0.0230  0.6170  0.4048
   10CHTO  H216 3831   4.600   6.538  -0.593  0.3250  0.2745 -1.7923
   10CHTO   O73 3832   4.594   6.373  -0.463  0.8295 -0.3276 -0.5424
   10CHTO  C113 3833   4.558   6.449  -0.348  0.0020 -0.3254 -0.1114
   10CHTO  H217 3834   4.628   6.534  -0.356 -1.6191  1.2495  1.9151
   10CHTO  C124 3835   4.606   6.371  -0.223  0.2135 -0.1533 -0.5723
   10CHTO   O83 3836   4.568   6.229  -0.210 -0.3974 -0.7233  0.3205
   10CHTO  H204 3837   4.474   6.224  -0.220  0.0219 -5.3518 -2.7280
   10CHTO  C109 3838   4.406   6.477  -0.345  0.5301 -0.9638 -0.9623
   10CHTO  H213 3839   4.356   6.382  -0.320  1.3430 -0.9052  0.9751
   10CHTO  C110 3840   4.343   6.523  -0.479 -0.4296  0.3911 -0.8396
   10CHTO  H214 3841   4.372   6.626  -0.500 -0.3327  1.2998  3.4273
   10CHTO   O78 3842   4.201   6.518  -0.469 -0.2246 -0.4815 -0.1138
   10CHTO  H200 3843   4.168   6.518  -0.556 -0.3178  0.3343 -0.0832
   10CHTO  C111 3844   4.401   6.434  -0.593 -0.3509  0.2150  0.2919
   10CHTO  H215 3845   4.367   6.332  -0.573 -0.3807  0.4822  1.6963
   10CHTO   N19 3846   4.353   6.468  -0.729  0.1346  0.0903 -0.5943
   10CHTO  H207 3847   4.245   6.461  -0.732  0.1071  1.2861 -3.3515
   10CHTO  H208 3848   4.390   6.386  -0.788 -0.5234  0.4100 -1.4581
   10CHTO   O74 3849   4.368   6.573  -0.234  0.8013  0.3383 -0.4326
   10CHTO  C115 3850   4.250   6.523  -0.152  0.2268 -0.4473 -0.5494
   10CHTO  H219 3851   4.160   6.505  -0.212 -0.5063  1.8936 -0.2306
   10CHTO   O76 3852   4.289   6.388  -0.088  0.8502  0.1603 -0.1985
   10CHTO  C122 3853   4.194   6.334   0.012 -0.1968  0.0550 -0.2176
   10CHTO  H226 3854   4.248   6.260   0.070 -1.8274 -0.2890  0.8938
   10CHTO  C126 3855   4.076   6.258  -0.045  0.1275  0.3571  0.6427
   10CHTO   O85 3856   4.123   6.157  -0.137  0.3997 -0.5847 -0.1338
   10CHTO  H206 3857   4.187   6.192  -0.196 -0.4127  0.2794 -0.5104
   10CHTO  C121 3858   4.130   6.433   0.111  0.2599 -0.0549 -0.4122
   10CHTO  H225 3859   4.039   6.383   0.152 -0.9520  1.6032 -1.0168
   10CHTO   O81 3860   4.215   6.459   0.223  0.6491 -0.2415  0.3963
   10CHTO  H202 3861   4.299   6.487   0.191 -0.2232 -1.1417 -2.8477
   10CHTO  C119 3862   4.090   6.572   0.055  0.1500  0.3993  0.4121
   10CHTO  H223 3863   4.000   6.552  -0.004 -0.6645  0.7116  1.5439
   10CHTO  C117 3864   4.199   6.630  -0.038 -0.3607  0.3437 -1.2892
   10CHTO  H221 3865   4.292   6.659   0.011 -0.6876 -0.6956 -0.0192
   10CHTO   N20 3866   4.145   6.751  -0.109 -0.1754  0.2253 -0.4413
   10CHTO  H209 3867   4.214   6.800  -0.176  0.7769  0.9787  1.0510
   10CHTO  H210 3868   4.097   6.828  -0.050 -2.6061 -1.0591 -0.6817
   10CHTO   O80 3869   4.025   6.669   0.170 -0.5822 -0.4921 -0.5435
   10CHTO  C103 3870   3.864   6.651   0.212  0.5142  0.0888 -0.2464
   10CHTO  H190 3871   3.820   6.747   0.236  1.7187  0.0627  2.1699
   10CHTO  C101 3872   3.762   6.594   0.104  0.2260  0.8140  0.4584
   10CHTO  H188 3873   3.799   6.505   0.053 -1.0013  1.3445 -1.4173
   10CHTO   O68 3874   3.749   6.694   0.002 -0.2241 -0.4872  0.5119
   10CHTO  H168 3875   3.830   6.708  -0.044 -1.2436 -1.4020 -1.5893
   10CHTO   C99 3876   3.624   6.552   0.175  0.0495  0.1105  0.3870
   10CHTO  H186 3877   3.578   6.639   0.226 -1.4085 -1.2254  1.3876
   10CHTO   N17 3878   3.526   6.496   0.080  0.2076  0.2511  0.1991
   10CHTO  H174 3879   3.558   6.403   0.035  1.5152  1.0176 -0.5064
   10CHTO  H175 3880   3.433   6.482   0.133  0.2823 -0.1614  0.2235
   10CHTO   C97 3881   3.652   6.460   0.292  0.4363  0.3570 -0.2097
   10CHTO  H184 3882   3.704   6.371   0.254  1.4937  1.6260 -1.8163
   10CHTO   O64 3883   3.735   6.537   0.391  0.9180 -0.0606  0.1297
   10CHTO  C104 3884   3.867   6.561   0.348  0.1082  0.0008  0.0199
   10CHTO  H191 3885   3.921   6.469   0.327 -2.0083 -0.5332 -3.3694
   10CHTO  C108 3886   3.931   6.615   0.473 -0.3040 -0.3255 -0.3453
   10CHTO   O71 3887   3.934   6.537   0.589 -0.3544 -0.3875  0.2355
   10CHTO  H171 3888   3.858   6.483   0.599  0.3937 -1.3028  1.1046
   10CHTO   O62 3889   3.536   6.416   0.372 -0.2506  0.1441 -0.6862
   10CHTO   C91 3890   3.546   6.274   0.407  0.5178 -0.7512 -0.0857
   10CHTO  H178 3891   3.551   6.222   0.311  0.8283 -0.7770 -0.0584
   10CHTO   C92 3892   3.412   6.224   0.475  0.1911  0.3003 -0.2665
   10CHTO  H179 3893   3.329   6.261   0.413 -0.6580  0.7369  1.0911
   10CHTO   O66 3894   3.408   6.084   0.464 -0.0274 -0.3915  0.1481
   10CHTO  H166 3895   3.320   6.057   0.446 -0.0931  0.5531 -1.0415
   10CHTO   C93 3896   3.397   6.256   0.626 -1.0238  0.5809 -0.5718
   10CHTO  H180 3897   3.310   6.202   0.666 -0.8501  1.7971  1.5456
   10CHTO   N16 3898   3.358   6.402   0.649  0.4422 -0.0854 -0.7469
   10CHTO  H172 3899   3.273   6.425   0.586  0.8417 -1.8926 -1.9791
   10CHTO  H173 3900   3.437   6.473   0.628  0.7053  0.5049  2.0895
   10CHTO   C94 3901   3.524   6.222   0.703  0.0476  0.7262 -0.2774
   10CHTO  H181 3902   3.570   6.309   0.749  1.5841 -1.1685  1.8761
   10CHTO   O61 3903   3.630   6.172   0.624  0.6659  0.1575  0.4906
   10CHTO   C95 3904   3.666   6.235   0.500  0.3359  0.3690  0.5755
   10CHTO  H182 3905   3.726   6.324   0.516  0.0599  0.2610  2.3138
   10CHTO  C106 3906   3.765   6.134   0.437  0.0323  0.6097 -0.3338
   10CHTO   O69 3907   3.878   6.197   0.369  0.4837  0.5918 -0.2368
   10CHTO  H169 3908   3.917   6.261   0.426  0.9360 -0.1027  0.2456
   10CHTO   O63 3909   3.488   6.104   0.819 -0.9652 -0.4537  0.1778
   10CHTO   C96 3910   3.575   6.109   0.962 -0.0830  0.1087 -0.3321
   10CHTO  H183 3911   3.660   6.173   0.940  1.8617 -2.0396  0.6980
   10CHTO   C98 3912   3.628   5.968   0.995 -0.2838  0.3531 -0.2647
   10CHTO  H185 3913   3.547   5.894   0.988  0.3465 -0.1973 -1.8160
   10CHTO   O67 3914   3.724   5.935   0.890 -0.1592 -0.1185 -0.1835
   10CHTO  H167 3915   3.691   5.909   0.806 -1.0341  0.1479  0.0739
   10CHTO  C102 3916   3.698   5.970   1.141  0.4417 -0.2127  0.1453
   10CHTO  H189 3917   3.775   6.049   1.140 -2.1052  2.3979  1.0939
   10CHTO   N18 3918   3.758   5.840   1.178 -0.1447 -0.3865  0.0487
   10CHTO  H176 3919   3.680   5.765   1.180 -0.9026  0.4194  0.9163
   10CHTO  H177 3920   3.818   5.849   1.267  0.7341 -0.0291 -0.5710
   10CHTO  C105 3921   3.599   6.029   1.244 -0.0505 -0.7731  0.1802
   10CHTO  H192 3922   3.512   5.964   1.257  0.0823 -1.5263 -2.4753
   10CHTO   O65 3923   3.540   6.153   1.203 -0.2161  0.8524 -0.0230
   10CHTO  C100 3924   3.475   6.150   1.076 -0.3573  0.2087  0.3860
   10CHTO  H187 3925   3.396   6.073   1.072 -0.6072  0.4940 -0.3434
   10CHTO  C107 3926   3.416   6.295   1.054  0.4858 -0.0674  1.0670
   10CHTO   O70 3927   3.305   6.323   1.140  0.1518  0.2471 -0.4424
   10CHTO  H170 3928   3.231   6.317   1.083 -0.7072 -1.2820  0.8254
   10CHTO   O57 3929   3.696   6.064   1.379  0.3281  0.0192 -0.5207
   10CHTO   C85 3930   3.631   6.121   1.492  0.2378 -0.9903 -0.3548
   10CHTO  H157 3931   3.524   6.094   1.497 -0.3456  1.3391  0.4613
   10CHTO   C83 3932   3.646   6.284   1.480 -0.1635  0.6326 -0.0512
   10CHTO  H155 3933   3.592   6.310   1.389 -0.7563  0.7464  0.3308
   10CHTO   O56 3934   3.783   6.325   1.462 -0.1241 -0.1391 -0.2412
   10CHTO  H135 3935   3.814   6.276   1.388 -0.0224 -0.8229  0.2510
   10CHTO   C81 3936   3.568   6.345   1.604  0.4397 -0.7995  0.2185
   10CHTO  H153 3937   3.464   6.311   1.600  0.5941 -1.3799  1.0108
   10CHTO   N14 3938   3.559   6.493   1.588  0.4136  0.3710  0.4066
   10CHTO  H141 3939   3.535   6.517   1.487  1.4273 -1.7712 -0.3954
   10CHTO  H142 3940   3.492   6.539   1.657  2.2402  0.2074  2.3691
   10CHTO   C79 3941   3.630   6.287   1.741  0.0764 -0.3300 -0.0440
   10CHTO  H151 3942   3.560   6.315   1.820  1.6321  2.0281  0.5904
   10CHTO   O52 3943   3.655   6.143   1.744  0.2160 -0.2490 -0.4369
   10CHTO   C86 3944   3.707   6.082   1.623  0.3336 -0.1084  0.2280
   10CHTO  H158 3945   3.813   6.112   1.612  0.9230 -1.6608  1.4268
   10CHTO   C90 3946   3.707   5.927   1.630 -0.5412  0.0522 -0.1055
   10CHTO   O60 3947   3.582   5.856   1.612 -1.0828  0.0277  0.0704
   10CHTO  H138 3948   3.520   5.880   1.677  0.0362  0.2528  1.0603
   10CHTO   O50 3949   3.750   6.357   1.778  0.4583 -0.1748  0.5955
   10CHTO   C73 3950   3.853   6.360   1.878 -0.0382 -0.2441 -0.3110
   10CHTO  H145 3951   3.871   6.257   1.912  0.1973  0.1857  0.8790
   10CHTO   C74 3952   3.813   6.454   2.002  0.6226 -0.0587  0.1464
   10CHTO  H146 3953   3.711   6.415   2.013  0.0794  1.0270 -0.8889
   10CHTO   O54 3954   3.903   6.420   2.106 -0.2068 -0.0250 -0.2212
   10CHTO  H133 3955   3.886   6.335   2.141  1.5142 -1.2076 -2.1326
   10CHTO   C75 3956   3.815   6.600   1.951  0.1099 -0.9171  0.4154
   10CHTO  H147 3957   3.737   6.612   1.875  2.0018  1.8691 -1.1975
   10CHTO   N13 3958   3.750   6.689   2.045 -0.4522  0.5984  0.3069
   10CHTO  H139 3959   3.750   6.791   2.009 -0.8834  1.4697  2.7078
   10CHTO  H140 3960   3.649   6.652   2.053  0.3189 -1.3872  1.2470
   10CHTO   C76 3961   3.964   6.641   1.906  0.1318 -0.6762 -0.0808
   10CHTO  H148 3962   4.027   6.611   1.989 -0.6766  0.9858  1.1788
   10CHTO   O49 3963   3.989   6.551   1.788 -0.1325 -0.4101 -0.5557
   10CHTO   C77 3964   3.993   6.411   1.819  0.4441 -0.0817 -0.1935
   10CHTO  H149 3965   4.076   6.395   1.887  2.1659 -0.7539 -2.3969
   10CHTO   C88 3966   4.044   6.337   1.699  0.0417 -0.3192  1.1004
   10CHTO   O58 3967   4.057   6.202   1.724  0.8418  0.0459  0.2739
   10CHTO  H136 3968   4.133   6.189   1.778  1.3069 -0.7288 -0.5490
   10CHTO   O51 3969   3.985   6.782   1.871 -0.0069  0.3524 -0.4119
   10CHTO   C78 3970   4.123   6.818   1.863 -0.7857  0.7085  0.4592
   10CHTO  H150 3971   4.190   6.731   1.849 -0.7693  0.8930 -0.6037
   10CHTO   C80 3972   4.172   6.894   1.991  0.8821 -0.6328 -0.1170
   10CHTO  H152 3973   4.103   6.979   2.008  1.3393 -0.3304  0.2393
   10CHTO   O55 3974   4.159   6.797   2.094 -0.2438  0.2095  0.0152
   10CHTO  H134 3975   4.155   6.848   2.173  2.9169  0.3337  0.1405
   10CHTO   C84 3976   4.320   6.960   1.962 -0.4948 -0.8509 -0.3997
   10CHTO  H156 3977   4.388   6.877   1.942 -0.5804 -1.3976  1.4740
   10CHTO   N15 3978   4.366   7.042   2.084 -0.1607 -0.1489 -0.0971
   10CHTO  H143 3979   4.334   7.144   2.081  0.0368 -0.0366  1.0889
   10CHTO  H144 3980   4.471   7.033   2.103 -0.5917 -2.4468  1.4114
   10CHTO   C87 3981   4.302   7.045   1.830  0.1159  0.1188  0.2947
   10CHTO  H159 3982   4.230   7.125   1.848 -1.4193 -0.7447 -1.7866
   10CHTO   O53 3983   4.264   6.956   1.723  0.0026 -0.1330 -0.0753
   10CHTO   C82 3984   4.131   6.916   1.746  0.5067  0.2803 -0.4939
   10CHTO  H154 3985   4.066   7.002   1.762 -0.0397 -0.1939 -0.1154
   10CHTO   C89 3986   4.081   6.849   1.613  0.4607 -0.1858  0.1388
   10CHTO   O59 3987   4.054   6.933   1.501 -0.4693  0.1813 -0.0720
   10CHTO  H137 3988   3.966   6.965   1.509 -1.1239 -1.8235  0.8221
   10CHTO   O45 3989   4.439   7.111   1.789  0.0355 -0.1952  0.0764
   10CHTO   C67 3990   4.431   7.217   1.694  0.2042 -0.4255 -0.3201
   10CHTO  H124 3991   4.356   7.197   1.617  1.9850 -0.3257 -2.1444
   10CHTO   C65 3992   4.395   7.345   1.770 -0.7279  0.3772 -0.7732
   10CHTO  H122 3993   4.311   7.312   1.832 -0.4020 -0.9450 -1.0243
   10CHTO   O44 3994   4.336   7.443   1.684 -0.5320  0.3781  0.0033
   10CHTO  H102 3995   4.383   7.524   1.678  0.4944 -0.2964 -1.3946
   10CHTO   C63 3996   4.517   7.376   1.871 -0.3896 -0.1810  0.2117
   10CHTO  H120 3997   4.531   7.284   1.927 -0.0448 -0.2795 -0.0418
   10CHTO   N11 3998   4.481   7.478   1.978 -0.1650 -0.1668 -0.1102
   10CHTO  H108 3999   4.558   7.504   2.047  1.9450  1.0948 -2.8452
   10CHTO  H109 4000   4.382   7.464   2.017  0.5043 -3.7959  0.5063
   10CHTO   C61 4001   4.644   7.405   1.786 -0.1171  0.6403  0.0021
   10CHTO  H118 4002   4.727   7.401   1.858 -0.8774  0.8095  0.8950
   10CHTO   O40 4003   4.666   7.289   1.688 -0.3819  0.1917 -0.5542
   10CHTO   C68 4004   4.562   7.219   1.616 -0.5270 -0.0147 -0.2500
   10CHTO  H125 4005   4.598   7.117   1.591  0.8088  0.5907 -0.8501
   10CHTO   C72 4006   4.535   7.300   1.488 -0.0740 -0.4707  0.0842
   10CHTO   O48 4007   4.636   7.293   1.388  0.2585  0.0964  0.8570
   10CHTO  H105 4008   4.607   7.228   1.327 -3.5394 -0.6746  3.3824
   10CHTO   O38 4009   4.626   7.526   1.710 -0.7628 -0.4923 -0.2112
   10CHTO   C55 4010   4.737   7.618   1.708  0.3530 -0.1127  0.1300
   10CHTO  H112 4011   4.837   7.577   1.687  1.1765  1.5865  0.6423
   10CHTO   C56 4012   4.736   7.703   1.842  0.6603 -0.4069 -0.5014
   10CHTO  H113 4013   4.634   7.724   1.877  0.6616 -1.7861  0.3642
   10CHTO   O42 4014   4.800   7.613   1.931  0.2026 -0.5919  0.3093
   10CHTO  H100 4015   4.735   7.557   1.970 -1.6053  1.0170 -0.3270
   10CHTO   C57 4016   4.828   7.832   1.839  0.2739 -0.2653 -0.1236
   10CHTO  H114 4017   4.931   7.797   1.833  1.2520  1.8929  2.9477
   10CHTO   N10 4018   4.814   7.923   1.958  0.2324 -0.4200  0.1383
   10CHTO  H106 4019   4.723   7.915   2.014  0.4197 -1.2988  0.3154
   10CHTO  H107 4020   4.900   7.919   2.024  0.4114  1.3998  0.0603
   10CHTO   C58 4021   4.795   7.916   1.715  0.0314 -0.1543  0.4216
   10CHTO  H115 4022   4.692   7.955   1.720  0.4515  0.7225  3.0801
   10CHTO   O37 4023   4.808   7.832   1.600  0.0386 -0.0973 -0.5267
   10CHTO   C59 4024   4.715   7.724   1.598  0.5861 -0.7956  0.1469
   10CHTO  H116 4025   4.616   7.767   1.611  0.3510 -1.0592 -0.7511
   10CHTO   C70 4026   4.723   7.657   1.462 -0.7459  0.0502 -0.0166
   10CHTO   O46 4027   4.680   7.745   1.363  0.2371  0.8296 -0.0411
   10CHTO  H103 4028   4.745   7.744   1.296 -0.7959 -0.4005 -1.0658
   10CHTO   O39 4029   4.905   8.054   1.685 -0.1112  0.3488 -0.2486
   10CHTO   C60 4030   4.839   8.179   1.654 -0.8098 -0.2309 -0.0212
   10CHTO  H117 4031   4.730   8.172   1.655 -0.7726 -1.2377 -1.4903
   10CHTO   C62 4032   4.876   8.280   1.766  0.3242 -0.6341 -0.2570
   10CHTO  H119 4033   4.842   8.238   1.863  0.2489  1.5837  0.7045
   10CHTO   O43 4034   5.018   8.288   1.789  0.0113  0.4462 -0.3867
   10CHTO  H101 4035   5.039   8.298   1.880  2.0935  2.1776 -1.0318
   10CHTO   C66 4036   4.803   8.428   1.730  0.3469 -0.4252 -0.2281
   10CHTO  H123 4037   4.695   8.424   1.748  0.1762  2.5228 -0.2654
   10CHTO   N12 4038   4.840   8.537   1.823 -0.6456  0.1154 -0.6051
   10CHTO  H110 4039   4.807   8.518   1.924 -0.6264 -1.0170 -0.8106
   10CHTO  H111 4040   4.802   8.631   1.786  0.5968  0.8322 -0.1112
   10CHTO   C69 4041   4.826   8.474   1.580  0.2706  0.0267  0.5070
   10CHTO  H126 4042   4.933   8.498   1.562 -0.0048 -0.4747 -2.0684
   10CHTO   O41 4043   4.790   8.359   1.477 -0.0569  0.4982 -0.1875
   10CHTO   C64 4044   4.877   8.238   1.514  0.0941 -0.3237  0.1360
   10CHTO  H121 4045   4.985   8.265   1.513  0.7015 -2.7131  0.0466
   10CHTO   C71 4046   4.863   8.124   1.401 -0.0936 -0.1843  0.1836
   10CHTO   O47 4047   4.872   8.179   1.274  0.1784 -0.2668 -0.3690
   10CHTO  H104 4048   4.791   8.192   1.228  0.5305  1.9636 -0.4401
   10CHTO   O34 4049   4.722   8.602   1.553 -0.8496 -0.2019 -0.0052
   10CHTO   C49 4050   4.594   8.651   1.527 -0.2107 -0.2987  0.4304
   10CHTO   H91 4051   4.602   8.751   1.571 -1.4943 -1.1068  2.5306
   10CHTO   C47 4052   4.480   8.580   1.602  0.1930  0.0881 -0.1793
   10CHTO   H89 4053   4.489   8.610   1.709 -0.6301  0.2661 -0.1602
   10CHTO   O33 4054   4.491   8.436   1.596 -0.0474  0.0432  0.4814
   10CHTO   H70 4055   4.422   8.404   1.651  1.3877  0.4047  2.5210
   10CHTO   C45 4056   4.334   8.626   1.541  0.1935  0.1021  0.0894
   10CHTO   H87 4057   4.300   8.546   1.474 -1.8598  1.2027 -0.2059
   10CHTO    N8 4058   4.236   8.639   1.660  0.3238  0.6228 -0.2819
   10CHTO   H75 4059   4.291   8.660   1.750 -1.2204 -0.4993  0.9400
   10CHTO   H76 4060   4.177   8.548   1.665  0.1803  0.7306 -0.0429
   10CHTO   C43 4061   4.339   8.755   1.441  0.4216  0.2937  0.2645
   10CHTO   H85 4062   4.238   8.768   1.403  0.0223  4.9051  2.6188
   10CHTO   O29 4063   4.428   8.719   1.337  0.4639 -0.6739  0.0270
   10CHTO   C50 4064   4.561   8.666   1.377 -0.3893  0.2809  0.2740
   10CHTO   H92 4065   4.563   8.572   1.320 -0.9377  0.5513 -0.1939
   10CHTO   C54 4066   4.671   8.758   1.320  1.0520 -0.6943 -0.7716
   10CHTO   O36 4067   4.649   8.778   1.179  0.5480 -0.0447 -0.1538
   10CHTO   H72 4068   4.644   8.697   1.132  2.6106 -0.5208  0.3959
   10CHTO   O27 4069   4.370   8.878   1.504  0.4197  0.2479  0.2395
   10CHTO   C37 4070   4.401   9.015   1.454 -0.6554  0.9025  0.1424
   10CHTO   H79 4071   4.505   9.036   1.426 -0.6320 -1.3342 -1.5753
   10CHTO   C38 4072   4.313   9.055   1.330  0.5131  0.4458 -0.6351
   10CHTO   H80 4073   4.209   9.037   1.361  0.2778  0.1831 -1.5764
   10CHTO   O31 4074   4.342   8.964   1.215 -0.1271 -0.1835 -0.4730
   10CHTO   H68 4075   4.274   8.899   1.218 -1.5260  1.2501 -0.0655
   10CHTO   C39 4076   4.331   9.209   1.284 -0.2927 -0.0413  0.2181
   10CHTO   H81 4077   4.434   9.231   1.255 -1.3807  1.2239 -2.9090
   10CHTO    N7 4078   4.243   9.253   1.175  0.5323  0.7249  0.2985
   10CHTO   H73 4079   4.307   9.283   1.094 -0.8969 -1.1913 -1.6137
   10CHTO   H74 4080   4.174   9.330   1.207  0.6969 -0.0758  2.6872
   10CHTO   C40 4081   4.325   9.300   1.412 -0.9881  0.4546 -0.3967
   10CHTO   H82 4082   4.220   9.308   1.441 -0.6084 -1.2041  1.5731
   10CHTO   O26 4083   4.405   9.253   1.524  0.1390 -0.3152  0.5080
   10CHTO   C41 4084   4.361   9.120   1.560 -0.2017  0.6907  0.6183
   10CHTO   H83 4085   4.252   9.113   1.574 -0.4749  2.1456 -0.6812
   10CHTO   C52 4086   4.419   9.087   1.695  0.0397 -0.0980 -0.2846
   10CHTO   O35 4087   4.360   8.993   1.755 -0.4967 -0.1562 -0.5871
   10CHTO   H71 4088   4.356   9.014   1.847  0.0206 -1.4784 -0.2611
   10CHTO   O28 4089   4.385   9.430   1.367  0.2573 -0.2982  0.4376
   10CHTO   C42 4090   4.345   9.563   1.418  0.1252 -0.6888  0.3056
   10CHTO   H84 4091   4.294   9.538   1.511 -2.0839 -2.1015 -1.2397
   10CHTO   C44 4092   4.243   9.643   1.337 -0.2222 -0.7064 -0.0525
   10CHTO   H86 4093   4.289   9.660   1.239  0.5891 -0.5471  0.3524
   10CHTO   O32 4094   4.125   9.565   1.328  0.2033 -0.5279 -0.1403
   10CHTO   H69 4095   4.074   9.576   1.405  1.7398 -0.4224  0.8790
   10CHTO   C48 4096   4.224   9.787   1.395 -0.9695 -0.1103 -0.3486
   10CHTO   H90 4097   4.169   9.765   1.486 -1.0392  0.2985 -0.2899
   10CHTO    N9 4098   4.131   9.865   1.307  0.2583  0.0791 -0.0447
   10CHTO   H77 4099   4.183   9.902   1.220  0.1879  1.1252  0.3464
   10CHTO   H78 4100   4.054   9.798   1.272  0.9017 -0.7738  0.1492
   10CHTO   C51 4101   4.353   9.871   1.424  0.2128 -0.2192 -0.2854
   10CHTO   H93 4102   4.401   9.891   1.328  0.3248 -1.6839 -0.5360
   10CHTO   O30 4103   4.431   9.791   1.512  0.6436  0.5921 -0.0874
   10CHTO   C46 4104   4.471   9.645   1.449 -0.2879  0.2948  0.7866
   10CHTO   H88 4105   4.532   9.668   1.362 -0.1886  1.0801  1.0643
   10CHTO   C53 4106   4.550   9.568   1.557 -0.1284 -0.3556 -0.6755
   10CHTO   O72 4107   4.661   9.648   1.588  0.2967  0.2159  0.1428
   10CHTO  H199 4108   4.725   9.606   1.642  0.6043 -0.2559 -0.5921
   10CHTO   O22 4109   4.335   9.994   1.496 -0.4534  0.2039  0.0018
   10CHTO   C31 4110   4.422  10.107   1.483 -0.8579  0.1747 -0.1398
   10CHTO   H59 4111   4.387  10.178   1.561  3.2061  2.7303 -0.5159
   10CHTO   C29 4112   4.569  10.070   1.524 -0.4558 -0.6720  0.2219
   10CHTO   H57 4113   4.594   9.997   1.446 -0.6480  0.0383 -0.5055
   10CHTO   O21 4114   4.565  10.008   1.653  0.2470  0.2245  0.4037
   10CHTO   H37 4115   4.495   9.947   1.659  0.1313  0.2243 -0.7398
   10CHTO   C27 4116   4.672  10.193   1.516  0.5332 -0.2881 -0.1422
   10CHTO   H55 4117   4.632  10.274   1.578  0.4046 -0.4001 -0.0778
   10CHTO    N5 4118   4.812  10.161   1.571 -0.2182 -0.0018  0.3269
   10CHTO   H43 4119   4.889  10.207   1.510 -0.5798  0.3064  0.1022
   10CHTO   H44 4120   4.821  10.053   1.573  0.7112  0.0758  0.7127
   10CHTO   C25 4121   4.658  10.246   1.366  0.0029  0.5765  0.5888
   10CHTO   H53 4122   4.687  10.168   1.295 -0.2022  0.7916  0.2699
   10CHTO   O17 4123   4.518  10.286   1.334 -0.2678  0.2070  0.3387
   10CHTO   C32 4124   4.419  10.182   1.347 -0.3351  0.5268  0.3133
   10CHTO   H60 4125   4.438  10.107   1.271  0.2344 -0.0209  0.9927
   10CHTO   C36 4126   4.279  10.247   1.326  0.5477 -0.5234  0.3113
   10CHTO   O25 4127   4.261  10.291   1.192  0.4360  0.2177  0.1493
   10CHTO   H40 4128   4.233  10.224   1.133 -0.8677  0.3608  0.5851
   10CHTO   O15 4129   4.733  10.360   1.362 -0.1404  0.2325  0.5140
   10CHTO   C19 4130   4.759  10.456   1.261 -1.1573 -0.0647  0.2097
   10CHTO   H47 4131   4.685  10.448   1.180 -1.9432 -0.3779  0.9465
   10CHTO   C20 4132   4.742  10.606   1.310 -0.3542  0.3157  0.1249
   10CHTO   H48 4133   4.806  10.631   1.396  1.0327 -1.3263 -0.3926
   10CHTO   O19 4134   4.603  10.627   1.343  0.0143  0.4296  0.4560
   10CHTO   H35 4135   4.574  10.551   1.390  1.3043  0.2271  0.9485
   10CHTO   C21 4136   4.785  10.703   1.195  0.1475  0.5552  0.3138
   10CHTO   H49 4137   4.711  10.696   1.115 -0.1080  0.3697  0.5681
   10CHTO    N4 4138   4.776  10.844   1.227 -0.5602  0.1667 -0.4398
   10CHTO   H41 4139   4.728  10.898   1.147  0.4638  0.3379 -0.9363
   10CHTO   H42 4140   4.878  10.874   1.242 -1.2934  1.4782  2.2150
   10CHTO   C22 4141   4.921  10.666   1.130 -0.0789  0.3371  0.0607
   10CHTO   H50 4142   4.998  10.690   1.203 -0.2790 -0.7622  0.6497
   10CHTO   O14 4143   4.914  10.526   1.091 -0.0659 -0.4180 -0.1533
   10CHTO   C23 4144   4.901  10.436   1.197  0.5539  0.0715  0.1897
   10CHTO   H51 4145   4.984  10.464   1.264  1.7269 -2.1054 -0.3200
   10CHTO   C34 4146   4.939  10.294   1.148 -0.2658  0.2677  0.0155
   10CHTO   O23 4147   4.960  10.205   1.262  0.3398 -0.3593 -0.0860
   10CHTO   H38 4148   5.046  10.169   1.268  0.7235  0.1703 -1.9664
   10CHTO   O16 4149   4.944  10.730   1.007  0.3820  0.1154 -0.0692
   10CHTO   C24 4150   5.085  10.802   0.977 -0.3404  0.4124  0.8021
   10CHTO   H52 4151   5.152  10.796   1.063  0.2999 -4.8002  0.0891
   10CHTO   C26 4152   5.066  10.954   0.943 -0.5773  0.0671 -1.1550
   10CHTO   H54 4153   4.996  10.957   0.856  2.3098 -0.2666 -3.5680
   10CHTO   O20 4154   5.010  11.010   1.063 -0.1689  0.8790 -0.4210
   10CHTO   H36 4155   4.983  11.097   1.043 -0.3185  0.6618 -1.1710
   10CHTO   C30 4156   5.199  11.024   0.907 -0.4118 -0.3711  0.0029
   10CHTO   H58 4157   5.261  11.026   0.998  0.0822  0.5724 -0.3490
   10CHTO    N6 4158   5.184  11.169   0.861 -0.3719 -0.5502 -0.2213
   10CHTO   H45 4159   5.281  11.214   0.846 -0.1509 -0.9043  0.1082
   10CHTO   H46 4160   5.128  11.176   0.769  0.9585  0.8805 -0.9507
   10CHTO   C33 4161   5.281  10.934   0.808 -0.3649 -0.2428  0.2086
   10CHTO   H61 4162   5.237  10.943   0.708  1.0562  3.2856 -0.1570
   10CHTO   O18 4163   5.279  10.796   0.851 -0.1819  0.6816  0.0063
   10CHTO   C28 4164   5.157  10.729   0.861 -0.0530 -0.1852  0.0798
   10CHTO   H56 4165   5.104  10.750   0.768 -1.2011 -0.5117  0.6500
   10CHTO   C35 4166   5.185  10.577   0.884 -0.3198  0.2069  0.0424
   10CHTO   O24 4167   5.246  10.510   0.770  0.0703  0.1904  0.3754
   10CHTO   H39 4168   5.276  10.424   0.794  1.9863  0.6769 -0.1832
   10CHTO    O9 4169   5.416  10.983   0.797  0.5068 -0.5248  0.3537
   10CHTO   C13 4170   5.476  10.987   0.649  0.3399 -0.7314 -0.1887
   10CHTO   H26 4171   5.431  11.074   0.596 -0.3135 -0.8165  0.2258
   10CHTO   C11 4172   5.453  10.845   0.567 -0.1490  0.1297 -0.4013
   10CHTO   H24 4173   5.348  10.835   0.537 -0.4119  0.7487  0.2749
   10CHTO    O8 4174   5.480  10.729   0.650  0.5860  0.2595  0.1778
   10CHTO    H3 4175   5.436  10.729   0.733  0.7926 -1.7156  0.3100
   10CHTO    C9 4176   5.544  10.852   0.442 -0.5484  0.3172  0.3922
   10CHTO   H22 4177   5.531  10.955   0.406  0.8668  0.3954  0.0837
   10CHTO    N2 4178   5.513  10.753   0.338  0.3939 -0.3783 -0.3816
   10CHTO   H10 4179   5.425  10.781   0.281  0.9323 -0.1503 -1.1144
   10CHTO   H11 4180   5.496  10.657   0.384  0.2571 -0.1166  0.1123
   10CHTO    C7 4181   5.692  10.847   0.482 -0.0831 -0.2115 -0.0066
   10CHTO   H20 4182   5.734  10.907   0.399 -1.8516  0.1359 -0.6833
   10CHTO    O4 4183   5.709  10.915   0.613  0.5550 -0.0395  0.6525
   10CHTO   C14 4184   5.625  11.024   0.650 -0.3901  0.1256 -0.5434
   10CHTO   H27 4185   5.649  11.101   0.573  0.3270 -0.4765 -0.9227
   10CHTO   C18 4186   5.672  11.083   0.790 -0.0471  0.0619  0.4630
   10CHTO   O13 4187   5.623  11.219   0.803 -0.0351 -0.1839  0.0005
   10CHTO    H7 4188   5.656  11.251   0.885 -2.5688  2.1867  0.1511
   10CHTO    O2 4189   5.772  10.709   0.481 -0.3165 -0.2686  0.1152
   10CHTO    C1 4190   5.909  10.694   0.472 -0.0431 -0.0628  0.6537
   10CHTO   H14 4191   5.955  10.774   0.533  3.2059 -0.5739 -1.0030
   10CHTO    C2 4192   5.972  10.707   0.323  0.3785  0.2334 -0.1354
   10CHTO   H15 4193   5.920  10.627   0.269  0.2116 -0.2670  0.7577
   10CHTO    O6 4194   5.926  10.833   0.268 -0.1724  0.1303  0.4664
   10CHTO    H1 4195   5.988  10.901   0.284 -0.1704 -0.4469  3.2589
   10CHTO    C3 4196   6.129  10.682   0.333 -0.2589  0.1180 -0.2437
   10CHTO   H16 4197   6.174  10.773   0.375  0.5965  1.5372 -4.0169
   10CHTO    N1 4198   6.181  10.669   0.189 -0.6994  0.2104  0.1516
   10CHTO    H8 4199   6.153  10.755   0.129  0.2111  0.5472  0.1950
   10CHTO    H9 4200   6.288  10.654   0.191 -1.0602 -2.5989  0.9819
   10CHTO    C4 4201   6.165  10.552   0.418 -0.6200  0.0396  0.8315
   10CHTO   H17 4202   6.136  10.462   0.365  0.2937  0.6128 -0.6484
   10CHTO    O1 4203   6.102  10.566   0.544 -0.3052  0.5449  0.0221
   10CHTO    C5 4204   5.956  10.562   0.535  0.3396  0.5372  0.0267
   10CHTO   H18 4205   5.918  10.480   0.473  0.7434  0.9463 -0.7676
   10CHTO   C16 4206   5.898  10.541   0.680 -0.0159 -0.0384  0.1330
   10CHTO   O11 4207   5.909  10.404   0.717 -0.1584 -0.0329  0.1458
   10CHTO    H5 4208   5.829  10.367   0.684 -1.4983  1.3617  1.7780
   10CHTO    O3 4209   6.308  10.545   0.453 -0.0613 -0.0004 -0.2516
   10CHTO    C6 4210   6.360  10.409   0.436  0.4085  0.0030 -0.1847
   10CHTO   H19 4211   6.283  10.341   0.400 -0.3028  0.4675  0.4337
   10CHTO    C8 4212   6.476  10.415   0.340  0.3483  0.7583 -0.6698
   10CHTO   H21 4213   6.541  10.496   0.373  1.8279  0.3269 -2.4401
   10CHTO    O7 4214   6.422  10.444   0.207 -0.2349 -0.4854 -0.1505
   10CHTO    H2 4215   6.483  10.472   0.142 -1.3935  2.1609 -0.1482
   10CHTO   C12 4216   6.546  10.271   0.335 -0.0350  0.0053  0.0393
   10CHTO   H25 4217   6.474  10.196   0.296  1.6391 -1.6047 -0.0254
   10CHTO    N3 4218   6.658  10.267   0.240  0.2242 -0.5446  0.0508
   10CHTO   H12 4219   6.618  10.265   0.140 -0.5925 -0.4479  0.3752
   10CHTO   H13 4220   6.730  10.348   0.247 -0.7838  0.3068  0.7717
   10CHTO   C15 4221   6.583  10.217   0.476  1.0337  0.0804 -0.0735
   10CHTO   H28 4222   6.669  10.271   0.515  0.8507  0.6080 -0.4003
   10CHTO   O10 4223   6.609  10.053   0.477 -0.0854  0.1691  0.5078
   10CHTO    H4 4224   6.634  10.019   0.561 -2.3453 -1.0168  0.7365
   10CHTO    O5 4225   6.466  10.229   0.569 -0.0364  0.1721  0.3001
   10CHTO   C10 4226   6.407  10.357   0.580 -1.1080  0.0474 -0.5151
   10CHTO   H23 4227   6.484  10.424   0.618 -0.0336 -0.7434 -1.2829
   10CHTO   C17 4228   6.298  10.352   0.692 -0.0030  0.1322 -0.6011
   10CHTO   O12 4229   6.356  10.360   0.819 -0.0239 -0.2512  0.4197
   10CHTO    H6 4230   6.286  10.390   0.873 -0.4696  0.9609 -0.8080
   11CHTO  H203 4231   7.676   5.155  -0.000 -1.3248  0.2546  1.3207
   11CHTO   O82 4232   7.617   5.177  -0.070  0.3400  0.1902 -0.1454
   11CHTO  C123 4233   7.590   5.318  -0.088 -0.4424  0.0641  0.2315
   11CHTO  H227 4234   7.624   5.350  -0.188  0.7038 -1.2951  0.1715
   11CHTO   O77 4235   7.447   5.307  -0.088  0.9381 -0.0743 -0.0222
   11CHTO  C118 4236   7.373   5.430  -0.109 -0.1827 -0.4215  0.7326
   11CHTO  H222 4237   7.399   5.486  -0.200 -1.5857  0.5814  0.9378
   11CHTO  C125 4238   7.235   5.370  -0.119 -0.1701 -0.6167  0.6729
   11CHTO   O84 4239   7.173   5.313  -0.002  0.5473 -0.0206 -0.2012
   11CHTO  H205 4240   7.178   5.219  -0.003  0.4016 -0.0427  0.6657
   11CHTO  C114 4241   7.399   5.511   0.014  0.0049  0.3134 -0.2149
   11CHTO  H218 4242   7.363   5.457   0.101 -1.9958  2.8185  0.5822
   11CHTO  C116 4243   7.547   5.542   0.030 -0.2351 -0.3312 -0.3863
   11CHTO  H220 4244   7.590   5.609  -0.047  0.3483 -0.3376 -0.0699
   11CHTO   O79 4245   7.583   5.613   0.154 -0.8673  0.1394 -0.4472
   11CHTO  H201 4246   7.532   5.581   0.226 -0.9236  0.3824 -0.3776
   11CHTO  C120 4247   7.629   5.405   0.031  0.6468 -0.3128 -0.9469
   11CHTO  H224 4248   7.610   5.354   0.128  0.3314 -0.9044 -1.3204
   11CHTO   N21 4249   7.775   5.434   0.036 -0.1931  0.4181  0.6296
   11CHTO  H211 4250   7.813   5.463  -0.061  1.5031 -0.0608  1.1287
   11CHTO  H212 4251   7.832   5.348   0.069  1.9805  1.4110 -0.4408
   11CHTO   O75 4252   7.315   5.630   0.003 -0.3263  0.3282 -0.3002
   11CHTO  C112 4253   7.244   5.689   0.130  0.1669  0.3798 -0.7909
   11CHTO  H216 4254   7.286   5.641   0.220 -0.8153 -2.8398 -1.9649
   11CHTO   O73 4255   7.104   5.655   0.113 -0.7153  0.6309 -0.3420
   11CHTO  C113 4256   7.012   5.718   0.205 -0.5195  0.6415  0.1582
   11CHTO  H217 4257   7.049   5.688   0.305 -0.5739 -1.2446 -0.3603
   11CHTO  C124 4258   6.869   5.678   0.176 -0.2176 -1.0026 -0.0876
   11CHTO   O83 4259   6.832   5.724   0.045  0.2290  0.2552 -0.1289
   11CHTO  H204 4260   6.778   5.801   0.054 -0.6324 -0.2560 -0.8729
   11CHTO  C109 4261   7.032   5.876   0.194  0.0093 -0.1428  0.1054
   11CHTO  H213 4262   7.012   5.899   0.088  0.9184 -1.5373 -0.3703
   11CHTO  C110 4263   7.175   5.916   0.231 -0.4614  1.1408 -0.2488
   11CHTO  H214 4264   7.194   5.891   0.335  0.6890  1.0253 -0.4832
   11CHTO   O78 4265   7.182   6.054   0.230 -0.0057 -0.4061 -0.5474
   11CHTO  H200 4266   7.165   6.092   0.314 -0.8375 -0.8259 -0.5162
   11CHTO  C111 4267   7.272   5.850   0.131  0.2595 -0.6600 -0.0069
   11CHTO  H215 4268   7.248   5.891   0.031  3.3278  0.4865 -0.3160
   11CHTO   N19 4269   7.415   5.881   0.152  0.1014  0.4468  0.5879
   11CHTO  H207 4270   7.448   5.974   0.107 -2.3629  0.8842 -0.3814
   11CHTO  H208 4271   7.419   5.889   0.259 -0.9822 -1.4053  0.7846
   11CHTO   O74 4272   6.934   5.948   0.284 -0.0672 -0.2278  0.3163
   11CHTO  C115 4273   6.870   6.079   0.211 -0.0093  0.9060 -0.1153
   11CHTO  H219 4274   6.933   6.115   0.130  1.3368 -0.5715  0.2665
   11CHTO   O76 4275   6.735   6.032   0.144 -0.6346 -0.2252  0.3648
   11CHTO  C122 4276   6.651   5.971   0.240 -0.5267 -0.2530 -0.2092
   11CHTO  H226 4277   6.700   5.890   0.292 -0.1322  0.6098  0.7819
   11CHTO  C126 4278   6.525   5.913   0.183 -0.5863  0.3906 -0.8215
   11CHTO   O85 4279   6.548   5.805   0.101 -0.0363 -0.0045  0.8820
   11CHTO  H206 4280   6.465   5.786   0.061  0.1669  0.7762  0.1018
   11CHTO  C121 4281   6.597   6.084   0.339 -0.4175 -0.2586  0.1366
   11CHTO  H225 4282   6.491   6.110   0.316 -0.0332  2.1771  1.0021
   11CHTO   O81 4283   6.608   6.025   0.470  0.0477 -0.5152  0.5383
   11CHTO  H202 4284   6.523   6.011   0.506 -0.3416 -2.7119 -1.1059
   11CHTO  C119 4285   6.676   6.217   0.323 -0.3186  0.2452  0.0243
   11CHTO  H223 4286   6.655   6.253   0.222  1.9671  4.1939  0.8433
   11CHTO  C117 4287   6.834   6.186   0.321  0.2834  0.1429  0.5415
   11CHTO  H221 4288   6.868   6.144   0.416 -0.5105 -0.2840  0.6429
   11CHTO   N20 4289   6.921   6.311   0.295  0.1599  0.0045 -0.8518
   11CHTO  H209 4290   6.994   6.324   0.374  0.4290 -2.7002 -0.6081
   11CHTO  H210 4291   6.868   6.405   0.303 -0.3269 -0.3955  0.6953
   11CHTO   O80 4292   6.625   6.345   0.404  0.5248  0.3222 -0.7253
   11CHTO  C103 4293   6.631   6.352   0.569  0.7492 -0.5682 -0.2883
   11CHTO  H190 4294   6.648   6.255   0.616  0.8218 -0.9359 -1.0618
   11CHTO  C101 4295   6.744   6.453   0.625 -0.0132 -1.0894 -0.0801
   11CHTO  H188 4296   6.749   6.540   0.560 -1.5155 -1.7688 -1.1349
   11CHTO   O68 4297   6.883   6.386   0.636 -0.2731 -0.2668  0.4982
   11CHTO  H168 4298   6.899   6.342   0.555 -2.8931 -0.5746  0.1157
   11CHTO   C99 4299   6.711   6.506   0.770 -0.0342  0.1929 -0.1262
   11CHTO  H186 4300   6.710   6.420   0.840 -1.2266 -0.5204 -0.9989
   11CHTO   N17 4301   6.815   6.612   0.831 -0.3853  0.4413 -0.4551
   11CHTO  H174 4302   6.787   6.713   0.802  1.9326  1.5445  1.0342
   11CHTO  H175 4303   6.815   6.600   0.938  0.7259  1.2194 -0.3643
   11CHTO   C97 4304   6.572   6.564   0.778 -0.4030 -0.6985  0.5591
   11CHTO  H184 4305   6.579   6.649   0.709  1.5077 -0.4413  1.0538
   11CHTO   O64 4306   6.480   6.462   0.738  0.3416 -0.4251  0.7112
   11CHTO  C104 4307   6.487   6.405   0.603 -0.0519 -0.8959 -0.2752
   11CHTO  H191 4308   6.452   6.480   0.532 -1.0510 -1.1459 -0.0528
   11CHTO  C108 4309   6.394   6.284   0.582 -0.5365  0.3699 -0.7361
   11CHTO   O71 4310   6.273   6.305   0.637  0.2187 -0.5648 -0.1765
   11CHTO  H171 4311   6.249   6.241   0.701  0.4948 -1.5895 -1.0809
   11CHTO   O62 4312   6.526   6.604   0.909  0.1620 -0.3423 -0.2986
   11CHTO   C91 4313   6.431   6.710   0.917  0.0127 -0.2256  0.1057
   11CHTO  H178 4314   6.369   6.707   0.828 -0.7474  1.8726  0.5368
   11CHTO   C92 4315   6.516   6.850   0.924  0.0017  0.6632 -0.0343
   11CHTO  H179 4316   6.618   6.829   0.960  0.1299 -2.2193 -1.9436
   11CHTO   O66 4317   6.544   6.896   0.789 -0.1974 -0.4270 -0.3182
   11CHTO  H166 4318   6.469   6.927   0.743  0.1652 -0.4417 -0.9216
   11CHTO   C93 4319   6.448   6.966   1.003  0.1574  0.1826  0.4714
   11CHTO  H180 4320   6.373   7.019   0.942  0.5023 -0.7474 -0.7806
   11CHTO   N16 4321   6.543   7.074   1.041  0.6352 -0.9712  0.4879
   11CHTO  H172 4322   6.579   7.131   0.957  0.8867 -1.7171  0.0774
   11CHTO  H173 4323   6.631   7.035   1.092  1.2979 -2.0321 -1.4207
   11CHTO   C94 4324   6.375   6.909   1.134 -0.4225 -0.0151  0.9714
   11CHTO  H181 4325   6.445   6.847   1.190  0.4544 -0.6320 -0.7698
   11CHTO   O61 4326   6.278   6.809   1.090 -0.1985  0.0820 -0.1959
   11CHTO   C95 4327   6.348   6.694   1.043 -0.3066  0.5290 -0.3955
   11CHTO  H182 4328   6.404   6.653   1.127  0.2273  0.1361 -0.9415
   11CHTO  C106 4329   6.234   6.590   1.022 -0.2499 -0.1867 -0.1636
   11CHTO   O69 4330   6.281   6.457   1.002 -0.3675  0.1495  0.3366
   11CHTO  H169 4331   6.308   6.444   1.091  2.4939  0.5735 -0.4425
   11CHTO   O63 4332   6.289   7.022   1.228  0.6610 -0.4829 -0.1681
   11CHTO   C96 4333   6.341   7.026   1.382 -0.3066  0.4528  0.2009
   11CHTO  H183 4334   6.442   6.986   1.385  0.2180  1.7013 -0.5456
   11CHTO   C98 4335   6.263   6.943   1.490 -0.3121 -0.5117 -0.2396
   11CHTO  H185 4336   6.159   6.975   1.505  0.3396  1.0338  0.9639
   11CHTO   O67 4337   6.254   6.810   1.440  0.5002  0.5044  0.2110
   11CHTO  H167 4338   6.328   6.774   1.396  2.3986  0.2885  3.3893
   11CHTO  C102 4339   6.342   6.945   1.632 -0.3275  0.2178 -0.1836
   11CHTO  H189 4340   6.436   6.892   1.610  0.5354  2.8707 -3.1727
   11CHTO   N18 4341   6.282   6.872   1.747 -0.8368  0.4683  0.3014
   11CHTO  H176 4342   6.262   6.927   1.838 -1.5757  0.3707  0.2026
   11CHTO  H177 4343   6.329   6.777   1.767 -0.5812  0.6431  0.5396
   11CHTO  C105 4344   6.373   7.091   1.666  0.3456 -0.5613 -0.2342
   11CHTO  H192 4345   6.321   7.127   1.755  1.0783 -2.0493  0.8089
   11CHTO   O65 4346   6.335   7.197   1.576 -0.1110  0.0181 -0.2784
   11CHTO  C100 4347   6.340   7.175   1.434 -0.2991 -0.7368  0.6162
   11CHTO  H187 4348   6.244   7.209   1.394  0.6488  1.1812 -0.0924
   11CHTO  C107 4349   6.457   7.257   1.372 -0.3116 -0.3168  0.6287
   11CHTO   O70 4350   6.583   7.212   1.428  0.0306  0.1523  0.2916
   11CHTO  H170 4351   6.602   7.281   1.489 -0.0812  0.2699  0.1946
   11CHTO   O57 4352   6.511   7.084   1.694 -0.6109  0.1958 -0.4278
   11CHTO   C85 4353   6.581   7.118   1.813 -0.4834  0.7148  0.1555
   11CHTO  H157 4354   6.502   7.120   1.891  0.0263 -1.7978  0.7787
   11CHTO   C83 4355   6.637   7.257   1.785  0.7879 -0.1355 -0.2272
   11CHTO  H155 4356   6.556   7.328   1.771  0.0079 -1.0614 -0.4076
   11CHTO   O56 4357   6.721   7.263   1.671  0.0586  0.7393 -0.2370
   11CHTO  H135 4358   6.727   7.352   1.642  0.0878  1.1482  0.9873
   11CHTO   C81 4359   6.731   7.303   1.904 -0.2447 -0.1530 -1.0351
   11CHTO  H153 4360   6.672   7.285   1.994 -0.5507  0.6447 -1.0779
   11CHTO   N14 4361   6.768   7.442   1.903  0.1760 -0.9707 -1.1226
   11CHTO  H141 4362   6.681   7.497   1.934  0.0397 -2.4402  1.2670
   11CHTO  H142 4363   6.813   7.478   1.813  1.1084 -1.5333 -0.8825
   11CHTO   C79 4364   6.857   7.202   1.914  0.0979  0.2009  0.2532
   11CHTO  H151 4365   6.909   7.229   2.005 -2.0088 -1.5753  2.0497
   11CHTO   O52 4366   6.813   7.061   1.925 -0.0762 -0.5952  0.6870
   11CHTO   C86 4367   6.695   7.018   1.850  0.3042  0.2627  0.4392
   11CHTO  H158 4368   6.736   6.982   1.754 -1.0050  0.3506 -0.1662
   11CHTO   C90 4369   6.637   6.895   1.930  0.3675  0.2164  0.1023
   11CHTO   O60 4370   6.729   6.786   1.945  0.1269 -0.0984  0.7376
   11CHTO  H138 4371   6.789   6.780   1.873  0.9184 -0.6338  1.4269
   11CHTO   O50 4372   6.948   7.208   1.802  0.0699  0.2569  0.2234
   11CHTO   C73 4373   7.086   7.166   1.789 -0.4941 -0.3712  0.3218
   11CHTO  H145 4374   7.115   7.085   1.857  1.1900 -1.1294 -1.2447
   11CHTO   C74 4375   7.179   7.286   1.832 -0.1517  0.3829 -0.1260
   11CHTO  H146 4376   7.161   7.304   1.939 -2.4082 -0.1555 -0.3966
   11CHTO   O54 4377   7.318   7.240   1.825 -0.0348 -0.8768 -0.4703
   11CHTO  H133 4378   7.363   7.249   1.907  1.0226 -2.8806 -0.8151
   11CHTO   C75 4379   7.151   7.412   1.745  0.1752  0.1718 -0.9121
   11CHTO  H147 4380   7.047   7.444   1.758  0.1668  1.2829 -3.5017
   11CHTO   N13 4381   7.227   7.531   1.770 -1.0726 -0.3971  0.4900
   11CHTO  H139 4382   7.222   7.594   1.682 -3.0068  0.3150  1.0972
   11CHTO  H140 4383   7.329   7.507   1.798 -0.2558  1.0289 -1.1209
   11CHTO   C76 4384   7.158   7.355   1.593 -0.0519  0.1249 -0.1015
   11CHTO  H148 4385   7.263   7.342   1.566 -0.2988 -1.6369 -0.2783
   11CHTO   O49 4386   7.091   7.230   1.555 -0.1893 -0.0147 -0.1088
   11CHTO   C77 4387   7.118   7.122   1.646  0.1575 -0.5012  0.3282
   11CHTO  H149 4388   7.224   7.100   1.638  0.5999  1.8505 -0.5124
   11CHTO   C88 4389   7.034   7.000   1.605  0.3198  0.1735  0.0930
   11CHTO   O58 4390   7.051   6.861   1.696  0.4522 -0.1330  0.4032
   11CHTO  H136 4391   7.065   6.797   1.629  0.3825  2.2345 -1.9334
   11CHTO   O51 4392   7.094   7.466   1.497 -0.4730 -0.2679  0.2984
   11CHTO   C78 4393   7.205   7.542   1.378  0.6375 -0.8400  0.7511
   11CHTO  H150 4394   7.313   7.527   1.403  0.3993 -2.1688  1.0135
   11CHTO   C80 4395   7.176   7.698   1.372 -0.1075 -0.7248  0.0899
   11CHTO  H152 4396   7.067   7.710   1.351 -0.0463 -0.0371  0.1344
   11CHTO   O55 4397   7.209   7.744   1.503  0.3967  0.9044 -0.6684
   11CHTO  H134 4398   7.138   7.727   1.561  0.7336  2.5680  0.2346
   11CHTO   C84 4399   7.245   7.772   1.262 -0.6092 -0.1417  0.3163
   11CHTO  H156 4400   7.351   7.787   1.281 -0.9311  1.1382  1.2169
   11CHTO   N15 4401   7.198   7.913   1.250 -0.8173  0.3902  0.2538
   11CHTO  H143 4402   7.206   7.942   1.148 -1.5012 -2.4349 -0.6319
   11CHTO  H144 4403   7.104   7.937   1.296 -0.2129  0.6549  1.3868
   11CHTO   C87 4404   7.230   7.689   1.133  0.3060  0.4443 -0.2065
   11CHTO  H159 4405   7.132   7.707   1.089  0.8097  0.9248 -1.1584
   11CHTO   O53 4406   7.254   7.542   1.139 -0.0478  0.6454 -0.0542
   11CHTO   C82 4407   7.167   7.488   1.238  0.5388  0.2023  0.2253
   11CHTO  H154 4408   7.064   7.521   1.222  0.3733  0.9132  2.5977
   11CHTO   C89 4409   7.173   7.337   1.233  0.1263  0.1287  0.4153
   11CHTO   O59 4410   7.070   7.269   1.158  0.1641 -0.1983  0.1233
   11CHTO  H137 4411   7.103   7.267   1.070 -0.0338 -0.9635  0.0636
   11CHTO   O45 4412   7.322   7.749   1.024 -0.2413 -0.4557 -0.7241
   11CHTO   C67 4413   7.277   7.741   0.888 -0.3959  0.3937 -0.2684
   11CHTO  H124 4414   7.228   7.645   0.873 -3.2883  1.5365  1.5092
   11CHTO   C65 4415   7.171   7.850   0.855 -0.4658 -0.0008  0.3793
   11CHTO  H122 4416   7.198   7.935   0.916 -1.2525 -0.5297  1.4755
   11CHTO   O44 4417   7.043   7.800   0.900 -0.2778  0.1537 -0.1055
   11CHTO  H102 4418   7.019   7.730   0.842 -0.5170 -0.4184  0.6765
   11CHTO   C63 4419   7.165   7.883   0.700 -0.0948 -0.0581  0.5828
   11CHTO  H120 4420   7.236   7.965   0.684 -0.8686  0.4298 -0.4202
   11CHTO   N11 4421   7.040   7.954   0.644  0.7653  0.2189  0.0676
   11CHTO  H108 4422   7.067   8.024   0.568 -1.6209  3.7400  2.2789
   11CHTO  H109 4423   6.968   7.999   0.710 -0.0838 -0.3832 -0.4386
   11CHTO   C61 4424   7.225   7.767   0.607  0.9314 -0.0861 -0.0783
   11CHTO  H118 4425   7.236   7.815   0.508 -1.8834  1.8551  0.4773
   11CHTO   O40 4426   7.356   7.732   0.653  0.3564 -0.5931  0.7050
   11CHTO   C68 4427   7.401   7.750   0.789  0.0855 -0.1042  0.2966
   11CHTO  H125 4428   7.442   7.853   0.794 -0.4907  0.0819  1.3041
   11CHTO   C72 4429   7.522   7.655   0.830  0.3225 -0.6398 -0.3649
   11CHTO   O48 4430   7.634   7.684   0.755 -0.1567  0.6667  0.1315
   11CHTO  H105 4431   7.713   7.708   0.799 -0.2077  1.1627 -0.0417
   11CHTO   O38 4432   7.128   7.661   0.593 -0.5108  0.0324  0.5081
   11CHTO   C55 4433   7.141   7.590   0.468  0.8045 -0.0025  0.4319
   11CHTO  H112 4434   7.244   7.600   0.430  0.5998  0.9314  0.1043
   11CHTO   C56 4435   7.037   7.645   0.361 -0.3193 -0.4944 -0.4436
   11CHTO  H113 4436   6.936   7.637   0.405  0.4842  1.8384  2.0396
   11CHTO   O42 4437   7.060   7.787   0.339 -0.1491  0.1014  0.3099
   11CHTO  H100 4438   6.990   7.825   0.289 -0.6871  2.2322  2.5624
   11CHTO   C57 4439   7.051   7.549   0.230  0.5538 -0.0345  0.3471
   11CHTO  H114 4440   7.154   7.562   0.199 -0.2836  0.3896 -2.4155
   11CHTO   N10 4441   6.950   7.581   0.124 -0.2329 -0.4416 -0.3778
   11CHTO  H106 4442   6.986   7.650   0.050  0.7137 -1.3267 -0.7438
   11CHTO  H107 4443   6.918   7.492   0.072  1.9440  0.3041 -3.0463
   11CHTO   C58 4444   7.034   7.401   0.266  0.1076 -0.0929 -0.1136
   11CHTO  H115 4445   6.930   7.378   0.298  1.5961 -3.0947  2.9695
   11CHTO   O37 4446   7.132   7.369   0.365  0.6068  0.8884 -0.1910
   11CHTO   C59 4447   7.126   7.439   0.491  0.7812 -0.2724 -0.6999
   11CHTO  H116 4448   7.030   7.422   0.539  0.5798  3.0977  0.2514
   11CHTO   C70 4449   7.238   7.394   0.581 -0.4940  0.1051  0.3665
   11CHTO   O46 4450   7.372   7.387   0.534 -0.1127  0.4857  0.0004
   11CHTO  H103 4451   7.393   7.461   0.481 -1.5852  2.1276  1.6113
   11CHTO   O39 4452   7.073   7.295   0.139 -0.4796 -0.3018 -0.5890
   11CHTO   C60 4453   6.989   7.183   0.156  0.2334  0.6013  0.1739
   11CHTO  H117 4454   6.950   7.174   0.258  0.7763 -1.9212  0.1976
   11CHTO   C62 4455   6.861   7.190   0.061 -0.8124  0.5118 -0.3062
   11CHTO  H119 4456   6.813   7.284   0.096  0.1450  0.4377  1.2830
   11CHTO   O43 4457   6.908   7.205  -0.078 -0.3197 -0.3947  0.6985
   11CHTO  H101 4458   6.877   7.132  -0.129 -0.7604  0.5533 -0.4241
   11CHTO   C66 4459   6.756   7.071   0.094 -0.5549 -0.1416  0.1834
   11CHTO  H123 4460   6.738   7.074   0.202 -3.5484 -1.9714 -0.1871
   11CHTO   N12 4461   6.625   7.097   0.030  0.1228 -0.1398 -0.5660
   11CHTO  H110 4462   6.586   7.005  -0.010 -3.6086  0.4832  1.3884
   11CHTO  H111 4463   6.634   7.182  -0.037 -0.3575  0.2080 -0.1998
   11CHTO   C69 4464   6.828   6.937   0.056 -0.0354 -0.1849 -0.9374
   11CHTO  H126 4465   6.849   6.925  -0.052 -0.0116 -2.8803 -0.6648
   11CHTO   O41 4466   6.976   6.938   0.132 -0.1684  0.4235  0.0006
   11CHTO   C64 4467   7.067   7.048   0.129 -0.7828  0.4664 -0.1872
   11CHTO  H121 4468   7.109   7.055   0.026 -0.3467  0.6857  0.0015
   11CHTO   C71 4469   7.180   7.009   0.231 -0.1197 -0.1203  1.0193
   11CHTO   O47 4470   7.287   6.931   0.169  0.4325 -0.4446  0.8190
   11CHTO  H104 4471   7.280   6.840   0.191 -2.0578 -0.0965  1.6885
   11CHTO   O34 4472   6.761   6.830   0.099 -0.4070  0.0542 -0.0436
   11CHTO   C49 4473   6.722   6.728   0.220 -0.1233  0.5454  0.7548
   11CHTO   H91 4474   6.811   6.715   0.282  0.9044 -1.7272 -1.1077
   11CHTO   C47 4475   6.686   6.588   0.167 -0.4867  0.2609  0.6209
   11CHTO   H89 4476   6.670   6.519   0.253 -1.4411  2.3381  2.1562
   11CHTO   O33 4477   6.802   6.541   0.088  0.0287  0.0154 -0.4849
   11CHTO   H70 4478   6.814   6.593   0.011 -0.7277 -1.1413 -1.4029
   11CHTO   C45 4479   6.562   6.600   0.067  0.0012 -0.0089 -0.1307
   11CHTO   H87 4480   6.600   6.670  -0.009  1.1146  0.1313  0.5556
   11CHTO    N8 4481   6.523   6.478  -0.001 -0.1060 -0.2377 -0.2335
   11CHTO   H75 4482   6.451   6.499  -0.078 -0.8777 -1.9242  0.0181
   11CHTO   H76 4483   6.480   6.405   0.066 -0.2360  0.2754  0.2567
   11CHTO   C43 4484   6.437   6.670   0.148 -0.2892 -0.1073 -0.4227
   11CHTO   H85 4485   6.365   6.703   0.072 -2.6339  0.9278  2.1408
   11CHTO   O29 4486   6.479   6.784   0.227  0.0229 -0.4472 -0.0675
   11CHTO   C50 4487   6.604   6.789   0.298  0.5902  0.2547 -0.3856
   11CHTO   H92 4488   6.639   6.892   0.319  1.9512 -0.3048  0.1987
   11CHTO   C54 4489   6.589   6.732   0.439  0.4242  0.1580  0.8210
   11CHTO   O36 4490   6.496   6.804   0.522 -0.3691  1.1004  0.2045
   11CHTO   H72 4491   6.414   6.759   0.513 -0.0576  0.7935 -1.1822
   11CHTO   O27 4492   6.362   6.576   0.230  0.6980  0.2071  0.3731
   11CHTO   C37 4493   6.224   6.544   0.272  0.3525  0.1212  0.0063
   11CHTO   H79 4494   6.219   6.517   0.379 -0.5299  0.9272  0.1752
   11CHTO   C38 4495   6.126   6.666   0.243 -0.0852  0.0061 -0.7433
   11CHTO   H80 4496   6.127   6.691   0.137 -2.2692  0.9787 -0.5602
   11CHTO   O31 4497   6.177   6.775   0.315 -0.1777 -0.0924  0.7718
   11CHTO   H68 4498   6.163   6.761   0.407 -0.0329  0.4154  0.8745
   11CHTO   C39 4499   5.975   6.631   0.286  0.4282  0.8857  0.1301
   11CHTO   H81 4500   5.969   6.624   0.394  2.0531 -0.4259  0.1552
   11CHTO    N7 4501   5.882   6.743   0.249 -0.1714  0.2185 -0.1248
   11CHTO   H73 4502   5.903   6.769   0.146  0.2630 -0.1126 -0.1233
   11CHTO   H74 4503   5.892   6.828   0.315 -0.4189 -0.5186  0.8664
   11CHTO   C40 4504   5.934   6.488   0.230  0.0060  0.2113  0.3053
   11CHTO   H82 4505   5.898   6.507   0.128  0.1779  0.4489  0.2884
   11CHTO   O26 4506   6.027   6.383   0.237  0.7410  0.3307  0.2883
   11CHTO   C41 4507   6.163   6.424   0.194 -0.1789 -0.0900 -0.6957
   11CHTO   H83 4508   6.154   6.449   0.087  1.6900  0.3558 -0.7701
   11CHTO   C52 4509   6.256   6.288   0.199  0.5965 -0.4201  0.4787
   11CHTO   O35 4510   6.258   6.237   0.308  0.1325  0.4319 -0.4396
   11CHTO   H71 4511   6.174   6.196   0.319  0.1469  0.6706  0.5977
   11CHTO   O28 4512   5.823   6.444   0.306 -0.0179 -0.4777  0.4136
   11CHTO   C42 4513   5.738   6.328   0.271 -0.2633 -0.3488  0.0412
   11CHTO   H84 4514   5.803   6.270   0.205 -0.8253 -0.3905 -0.4813
   11CHTO   C44 4515   5.605   6.355   0.186  0.1920 -0.2516 -0.5252
   11CHTO   H86 4516   5.545   6.420   0.249  1.2497  1.2620 -1.0432
   11CHTO   O32 4517   5.643   6.426   0.065  0.1374  0.3010  0.0598
   11CHTO   H69 4518   5.669   6.514   0.086  1.6159  0.0788 -0.8406
   11CHTO   C48 4519   5.539   6.219   0.153 -0.6727  0.2552  0.1057
   11CHTO   H90 4520   5.619   6.170   0.097  1.5056  1.5089  2.0490
   11CHTO    N9 4521   5.415   6.235   0.072 -0.0515  0.1072  0.0164
   11CHTO   H77 4522   5.407   6.170  -0.013 -0.0990  1.7063 -1.2290
   11CHTO   H78 4523   5.389   6.336   0.043 -0.6227  0.0964  0.4964
   11CHTO   C51 4524   5.500   6.131   0.279 -0.5236 -0.1040 -0.3025
   11CHTO   H93 4525   5.419   6.177   0.335  0.4148 -0.8999  1.7511
   11CHTO   O30 4526   5.617   6.119   0.358 -0.4060 -0.0516 -0.2004
   11CHTO   C46 4527   5.707   6.240   0.394 -0.2984  0.0708  0.5765
   11CHTO   H88 4528   5.651   6.297   0.468 -1.8463 -0.1743 -0.3883
   11CHTO   C53 4529   5.833   6.175   0.450  0.3576  0.7411  1.0000
   11CHTO   O72 4530   5.919   6.269   0.523  0.1778  0.2382 -0.4808
   11CHTO  H199 4531   5.888   6.356   0.510  1.5139  0.6184 -1.2729
   11CHTO   O22 4532   5.464   6.003   0.236 -0.2443  0.2621 -0.1001
   11CHTO   C31 4533   5.467   5.889   0.330 -0.0194  0.0251  0.4450
   11CHTO   H59 4534   5.535   5.914   0.414 -1.5025 -0.5623  1.8456
   11CHTO   C29 4535   5.332   5.855   0.394  0.5966 -0.0801 -0.2432
   11CHTO   H57 4536   5.260   5.827   0.316 -0.1336  1.6145 -0.1958
   11CHTO   O21 4537   5.268   5.975   0.433 -1.1150  0.0156  0.0378
   11CHTO   H37 4538   5.279   5.984   0.526 -0.8883 -0.6773  0.0799
   11CHTO   C27 4539   5.351   5.739   0.498 -0.2666 -0.4974  0.0385
   11CHTO   H55 4540   5.421   5.775   0.575 -0.9568  2.6481 -0.7283
   11CHTO    N5 4541   5.217   5.705   0.549 -0.0908 -0.0432 -0.0301
   11CHTO   H43 4542   5.194   5.786   0.617  1.5236 -0.8527  1.4898
   11CHTO   H44 4543   5.213   5.604   0.585  0.1187  0.1067  0.4096
   11CHTO   C25 4544   5.420   5.620   0.438  0.6473 -0.1430 -0.1172
   11CHTO   H53 4545   5.348   5.576   0.367 -0.0160 -0.8821  0.9958
   11CHTO   O17 4546   5.539   5.657   0.363 -0.1478  0.2021  0.1547
   11CHTO   C32 4547   5.529   5.760   0.260 -0.2969  0.0031 -0.4475
   11CHTO   H60 4548   5.467   5.723   0.178  0.3733  0.8625 -1.3627
   11CHTO   C36 4549   5.677   5.775   0.217 -0.7309  0.1060 -0.1993
   11CHTO   O25 4550   5.686   5.872   0.111  0.1773  0.6854  0.2609
   11CHTO   H40 4551   5.628   5.843   0.044  0.1149  3.1502 -0.8288
   11CHTO   O15 4552   5.463   5.509   0.552  0.3047 -0.1724  0.2318
   11CHTO   C19 4553   5.425   5.367   0.569  0.5794 -0.5008  0.2438
   11CHTO   H47 4554   5.490   5.329   0.650  0.0064 -0.4208  0.7495
   11CHTO   C20 4555   5.282   5.347   0.617  0.1325 -0.5309 -0.3966
   11CHTO   H48 4556   5.213   5.407   0.555  1.5706  0.3231 -1.1864
   11CHTO   O19 4557   5.267   5.404   0.745  0.5019  0.3248 -0.1458
   11CHTO   H35 4558   5.181   5.440   0.760  1.4426  2.3883  0.4738
   11CHTO   C21 4559   5.246   5.192   0.619  0.6835  0.3386 -0.6307
   11CHTO   H49 4560   5.293   5.143   0.705 -0.8411  0.7773  0.4621
   11CHTO    N4 4561   5.103   5.172   0.657  0.1800  0.8395  0.0461
   11CHTO   H41 4562   5.074   5.068   0.646 -1.8458  1.0880  2.4171
   11CHTO   H42 4563   5.080   5.203   0.758 -0.3310  0.9089 -0.0880
   11CHTO   C22 4564   5.299   5.123   0.498 -0.4848  0.4745  0.4103
   11CHTO   H50 4565   5.237   5.147   0.411  1.8070  0.6132 -1.2309
   11CHTO   O14 4566   5.433   5.145   0.471 -0.1085 -0.3229  0.0547
   11CHTO   C23 4567   5.465   5.282   0.449 -0.2058 -0.4086  0.2636
   11CHTO   H51 4568   5.412   5.308   0.356  0.4642  0.2912  0.0670
   11CHTO   C34 4569   5.617   5.306   0.409  0.4015 -0.0811  0.3016
   11CHTO   O23 4570   5.645   5.266   0.273  0.2889 -0.3527  0.0490
   11CHTO   H38 4571   5.737   5.261   0.254  0.3695 -1.0086  0.5933
   11CHTO   O16 4572   5.306   4.978   0.514  0.1260 -0.1148  0.1416
   11CHTO   C24 4573   5.253   4.890   0.385 -0.6301 -0.1388  0.4378
   11CHTO   H52 4574   5.242   4.949   0.294  0.4126 -2.8673 -1.5080
   11CHTO   C26 4575   5.118   4.829   0.431 -0.4211 -0.0489  0.6797
   11CHTO   H54 4576   5.142   4.765   0.518  1.8891  0.5048  0.4945
   11CHTO   O20 4577   5.037   4.940   0.479 -0.0330 -0.1343  0.3219
   11CHTO   H36 4578   4.959   4.900   0.512  1.7663 -0.7338  4.0466
   11CHTO   C30 4579   5.062   4.752   0.309 -0.6584 -0.8157 -0.2946
   11CHTO   H58 4580   5.029   4.828   0.237 -0.8324  0.1569  0.8027
   11CHTO    N6 4581   4.940   4.679   0.351 -0.0522 -0.1493 -0.5725
   11CHTO   H45 4582   4.873   4.741   0.408 -0.4350  0.7913 -2.0079
   11CHTO   H46 4583   4.883   4.642   0.267  1.3465 -0.5084 -1.3774
   11CHTO   C33 4584   5.171   4.652   0.252  0.5443  0.1448  0.3978
   11CHTO   H61 4585   5.176   4.562   0.314  0.9676 -0.2208 -0.1676
   11CHTO   O18 4586   5.310   4.702   0.247  0.0629 -0.1885 -0.0031
   11CHTO   C28 4587   5.357   4.780   0.357  0.6453  0.1846 -0.4927
   11CHTO   H56 4588   5.366   4.722   0.449  3.7664 -1.4451 -1.7498
   11CHTO   C35 4589   5.507   4.839   0.332 -0.0145 -0.1472 -0.8523
   11CHTO   O24 4590   5.614   4.746   0.345  0.0044  0.4978  0.1616
   11CHTO   H39 4591   5.584   4.666   0.306  1.6534  0.2692 -0.6626
   11CHTO    O9 4592   5.135   4.605   0.121 -0.2824  0.0836 -0.0808
   11CHTO   C13 4593   5.119   4.743   0.001 -1.2095  0.3392 -0.8565
   11CHTO   H26 4594   5.154   4.831   0.059  3.5099 -1.8847 -0.1265
   11CHTO   C11 4595   4.967   4.762  -0.061 -0.8767 -0.0769  0.1273
   11CHTO   H24 4596   4.896   4.772   0.023 -0.0231  3.8982  0.4851
   11CHTO    O8 4597   4.922   4.654  -0.136  0.0472 -0.2154  0.6390
   11CHTO    H3 4598   4.984   4.626  -0.200  1.6052  2.9158  0.6549
   11CHTO    C9 4599   4.971   4.897  -0.136 -0.4166 -0.3517  0.7157
   11CHTO   H22 4600   4.981   4.976  -0.061 -3.8581  1.2008 -0.3786
   11CHTO    N2 4601   4.845   4.936  -0.204 -0.3696  0.0406  0.3246
   11CHTO   H10 4602   4.824   4.911  -0.307 -0.2924 -0.2201  0.3707
   11CHTO   H11 4603   4.824   5.040  -0.188  1.2041  0.3662  0.3544
   11CHTO    C7 4604   5.107   4.905  -0.220  0.1478  0.4431 -0.1042
   11CHTO   H20 4605   5.176   4.964  -0.156  0.9836 -0.9851  0.3159
   11CHTO    O4 4606   5.176   4.779  -0.246  0.0652  0.3757 -0.0052
   11CHTO   C14 4607   5.227   4.726  -0.117  0.2869 -0.1066 -0.0160
   11CHTO   H27 4608   5.321   4.783  -0.097  1.7321 -0.9536 -4.0768
   11CHTO   C18 4609   5.270   4.580  -0.123 -0.5362 -0.5374  0.7703
   11CHTO   O13 4610   5.152   4.503  -0.162  0.1067  0.0049 -0.5073
   11CHTO    H7 4611   5.166   4.411  -0.154 -0.9664 -0.0287  1.2965
   11CHTO    O2 4612   5.090   4.995  -0.367  0.2928  0.4908  0.1166
   11CHTO    C1 4613   5.201   5.086  -0.382  0.4918 -0.7043 -0.2925
   11CHTO   H14 4614   5.289   5.051  -0.324 -0.5529  1.0272  2.4435
   11CHTO    C2 4615   5.172   5.231  -0.326  0.9796  0.0076 -0.2924
   11CHTO   H15 4616   5.072   5.258  -0.364  0.1531 -1.1549  1.0056
   11CHTO    O6 4617   5.163   5.231  -0.180  0.3286 -0.4874  0.0926
   11CHTO    H1 4618   5.198   5.151  -0.146  0.6145  0.6432  2.5361
   11CHTO    C3 4619   5.271   5.344  -0.363  0.2239  0.6464 -0.6941
   11CHTO   H16 4620   5.353   5.327  -0.291 -1.3118 -1.0818  0.6783
   11CHTO    N1 4621   5.236   5.487  -0.341  0.0887  0.2281 -0.0617
   11CHTO    H8 4622   5.223   5.498  -0.235  0.3728 -0.6973  0.0691
   11CHTO    H9 4623   5.138   5.512  -0.380  0.2161 -1.5765 -1.5863
   11CHTO    C4 4624   5.340   5.315  -0.505  0.6894  0.1307 -0.1126
   11CHTO   H17 4625   5.279   5.358  -0.584  0.2666  2.9179  1.6468
   11CHTO    O1 4626   5.363   5.177  -0.541 -0.1897 -0.6054  0.6626
   11CHTO    C5 4627   5.245   5.095  -0.533 -0.1508 -0.2204 -0.1869
   11CHTO   H18 4628   5.168   5.147  -0.590 -0.8597 -2.0626 -0.9443
   11CHTO   C16 4629   5.262   4.950  -0.592  0.0185 -0.3137 -0.8030
   11CHTO   O11 4630   5.364   4.881  -0.522 -0.6512  0.0329  0.2417
   11CHTO    H5 4631   5.391   4.804  -0.568  1.4247  0.4404  0.7332
   11CHTO    O3 4632   5.475   5.369  -0.512 -0.7849 -0.0604  0.2867
   11CHTO    C6 4633   5.538   5.373  -0.644 -0.2708  0.3859  0.4370
   11CHTO   H19 4634   5.497   5.322  -0.731  1.2451  0.7947 -0.5446
   11CHTO    C8 4635   5.530   5.520  -0.684  0.0113  0.0680  0.0066
   11CHTO   H21 4636   5.548   5.581  -0.596  1.2950 -0.2527 -0.0256
   11CHTO    O7 4637   5.394   5.553  -0.724 -0.4866 -0.1176  0.0430
   11CHTO    H2 4638   5.385   5.502  -0.802  0.8950 -1.5628  0.7820
   11CHTO   C12 4639   5.637   5.546  -0.800  0.2418  0.2079 -0.0151
   11CHTO   H25 4640   5.592   5.490  -0.884  0.4542 -1.7899  1.1806
   11CHTO    N3 4641   5.628   5.693  -0.834 -1.1002  0.1612  0.2721
   11CHTO   H12 4642   5.640   5.741  -0.739 -1.9432 -2.9097  2.0016
   11CHTO   H13 4643   5.715   5.719  -0.893  0.2839 -0.8474  1.8365
   11CHTO   C15 4644   5.781   5.483  -0.767 -0.1788 -0.3362  0.0706
   11CHTO   H28 4645   5.824   5.527  -0.677 -1.9352 -0.0668  0.8057
   11CHTO   O10 4646   5.892   5.492  -0.893  0.1046  0.6964 -0.0109
   11CHTO    H4 4647   5.933   5.575  -0.906  1.5265 -0.0457 -0.4153
   11CHTO    O5 4648   5.772   5.349  -0.740 -0.0892 -0.2051  0.0121
   11CHTO   C10 4649   5.684   5.318  -0.628  0.0865  0.0168 -0.3171
   11CHTO   H23 4650   5.726   5.359  -0.536  0.1631  0.1874 -0.4282
   11CHTO   C17 4651   5.687   5.166  -0.599 -0.2265  0.1968 -0.3677
   11CHTO   O12 4652   5.802   5.119  -0.536 -0.3900  0.6752  0.5026
   11CHTO    H6 4653   5.805   5.033  -0.573 -1.3279  0.7980  0.1245
   12CHTO  H203 4654   5.742  12.159   1.732 -0.3421  1.9432  2.4433
   12CHTO   O82 4655   5.650  12.147   1.717  0.2701 -0.2425  0.0962
   12CHTO  C123 4656   5.608  12.057   1.822 -0.6207  0.7174 -0.6323
   12CHTO  H227 4657   5.623  12.113   1.915  2.3704  0.0291 -0.6342
   12CHTO   O77 4658   5.469  12.034   1.797 -0.4194  0.2751  0.1147
   12CHTO  C118 4659   5.395  11.956   1.891  0.8615  0.2006  0.2725
   12CHTO  H222 4660   5.408  12.004   1.989  1.0634  0.5082  0.0940
   12CHTO  C125 4661   5.247  11.946   1.857  0.4292 -0.4233 -0.3096
   12CHTO   O84 4662   5.213  11.924   1.718  0.2889  0.2425  0.2914
   12CHTO  H205 4663   5.248  11.994   1.667  0.6058 -0.2128 -0.1253
   12CHTO  C114 4664   5.455  11.815   1.898  0.1472  0.2255  0.1440
   12CHTO  H218 4665   5.448  11.769   1.800  2.4065  3.2773 -1.5585
   12CHTO  C116 4666   5.603  11.822   1.928  0.2564 -0.3953 -0.3430
   12CHTO  H220 4667   5.629  11.861   2.029 -0.3161 -0.5224 -0.1443
   12CHTO   O79 4668   5.664  11.693   1.933 -0.2056  0.5852 -0.2202
   12CHTO  H201 4669   5.654  11.640   1.857  2.1245  1.6164 -1.2989
   12CHTO  C120 4670   5.677  11.917   1.820 -0.1056  0.1007 -0.3439
   12CHTO  H224 4671   5.649  11.876   1.721  1.1666 -0.6068 -0.4196
   12CHTO   N21 4672   5.825  11.921   1.832  0.0832  0.2665 -0.5658
   12CHTO  H211 4673   5.854  12.014   1.785  0.9279  0.9866  1.3348
   12CHTO  H212 4674   5.849  11.925   1.937 -2.1880 -0.7719  0.0207
   12CHTO   O75 4675   5.388  11.742   2.005  0.9752  0.0742 -0.0418
   12CHTO  C112 4676   5.325  11.598   1.962  0.0668  0.0298  0.7758
   12CHTO  H216 4677   5.383  11.554   1.879 -2.5804 -1.2725 -0.4478
   12CHTO   O73 4678   5.185  11.613   1.925 -0.3190 -0.5609  0.5614
   12CHTO  C113 4679   5.116  11.495   1.892 -0.1844  1.0091 -0.0142
   12CHTO  H217 4680   5.160  11.452   1.799 -0.5416  2.0154 -0.6517
   12CHTO  C124 4681   4.983  11.552   1.849  0.0996  0.7771  0.2846
   12CHTO   O83 4682   4.877  11.462   1.816 -0.4446  0.3808  0.6746
   12CHTO  H204 4683   4.898  11.371   1.824 -0.4469  0.2125 -1.1472
   12CHTO  C109 4684   5.121  11.396   2.011  0.6687  0.4736 -0.2173
   12CHTO  H213 4685   5.063  11.442   2.092 -1.0257  0.3940 -1.3577
   12CHTO  C110 4686   5.264  11.365   2.068 -0.2541  0.1519 -0.5560
   12CHTO  H214 4687   5.321  11.312   1.991 -0.3090  1.3116 -1.4231
   12CHTO   O78 4688   5.269  11.282   2.183  0.0316 -0.4917  0.2263
   12CHTO  H200 4689   5.224  11.318   2.257  0.0885  0.8933 -0.4011
   12CHTO  C111 4690   5.343  11.496   2.095 -0.0126 -0.1335 -0.1808
   12CHTO  H215 4691   5.297  11.545   2.183  0.5218 -2.1610  1.2470
   12CHTO   N19 4692   5.488  11.484   2.126  0.3010 -0.4723 -0.3992
   12CHTO  H207 4693   5.515  11.538   2.216 -1.7763  0.3202 -0.2130
   12CHTO  H208 4694   5.520  11.381   2.124  0.9100 -0.2901 -0.0889
   12CHTO   O74 4695   5.061  11.270   1.974  0.5236  0.2311  0.3672
   12CHTO  C115 4696   4.948  11.208   2.063 -0.3975 -0.0774 -0.1832
   12CHTO  H219 4697   4.967  11.232   2.167 -0.6612 -0.8177  0.0398
   12CHTO   O76 4698   4.805  11.285   2.029  0.4005  0.8896  0.0836
   12CHTO  C122 4699   4.696  11.232   2.106 -0.2703 -0.0104  0.0359
   12CHTO  H226 4700   4.604  11.278   2.068 -1.2890 -1.0890  1.1342
   12CHTO  C126 4701   4.703  11.277   2.261 -0.3720  0.5370  0.3428
   12CHTO   O85 4702   4.709  11.417   2.281 -0.3064  0.2124  0.0078
   12CHTO  H206 4703   4.623  11.442   2.312 -2.0229 -1.1404 -3.4528
   12CHTO  C121 4704   4.679  11.072   2.094  0.3958 -1.1300  0.5651
   12CHTO  H225 4705   4.592  11.033   2.151 -1.3088 -0.0597 -1.2473
   12CHTO   O81 4706   4.645  11.029   1.962 -0.1186  0.2816 -0.0449
   12CHTO  H202 4707   4.574  11.078   1.924 -1.1324 -1.0174  0.1735
   12CHTO  C119 4708   4.812  11.007   2.142  0.2245  0.2610 -0.0908
   12CHTO  H223 4709   4.834  11.038   2.243  1.8656 -0.2036 -0.2877
   12CHTO  C117 4710   4.932  11.052   2.055  0.5455  0.3809 -0.1727
   12CHTO  H221 4711   4.935  11.041   1.946 -0.3166  0.1635 -0.1761
   12CHTO   N20 4712   5.058  10.995   2.110  0.3791 -0.5285 -0.1317
   12CHTO  H209 4713   5.134  10.993   2.033 -0.2477 -0.9129 -0.7391
   12CHTO  H210 4714   5.098  11.045   2.197 -1.8362 -0.4246  0.8627
   12CHTO   O80 4715   4.800  10.832   2.163  0.4537 -0.1991 -0.8357
   12CHTO  C103 4716   4.691  10.750   2.097  0.3601 -0.7038  0.0335
   12CHTO  H190 4717   4.603  10.814   2.094  0.1119 -1.0415  0.1482
   12CHTO  C101 4718   4.733  10.685   1.959  0.2842 -0.7483 -0.0303
   12CHTO  H188 4719   4.835  10.645   1.960  0.0211 -1.4564 -1.0906
   12CHTO   O68 4720   4.719  10.782   1.862 -1.0623 -0.5539 -0.2485
   12CHTO  H168 4721   4.634  10.822   1.864  0.3914  2.7845 -1.2533
   12CHTO   C99 4722   4.640  10.556   1.915  0.1854 -0.2685 -0.0586
   12CHTO  H186 4723   4.539  10.590   1.882 -0.4907 -1.7592  0.4730
   12CHTO   N17 4724   4.699  10.483   1.799 -0.4618 -0.1352 -0.4472
   12CHTO  H174 4725   4.642  10.392   1.785  0.9848 -0.9083 -1.4548
   12CHTO  H175 4726   4.802  10.460   1.821 -0.1361  1.5546 -0.1265
   12CHTO   C97 4727   4.622  10.458   2.035  0.2549  0.1273  0.7154
   12CHTO  H184 4728   4.713  10.397   2.046 -2.0067 -3.6763 -0.6286
   12CHTO   O64 4729   4.584  10.526   2.156 -0.2140 -0.0779 -0.0138
   12CHTO  C104 4730   4.666  10.633   2.203  0.0848 -0.0093 -0.5017
   12CHTO  H191 4731   4.763  10.598   2.240  0.9099  2.0551 -0.6257
   12CHTO  C108 4732   4.596  10.703   2.315 -0.0351  0.7255 -0.1064
   12CHTO   O71 4733   4.591  10.613   2.426  0.1148  0.0171  0.1176
   12CHTO  H171 4734   4.560  10.663   2.499  0.1888 -0.5198  0.5171
   12CHTO   O62 4735   4.501  10.374   2.013  0.8000  0.1254 -0.1519
   12CHTO   C91 4736   4.504  10.247   2.094  0.7321 -0.7836 -0.8987
   12CHTO  H178 4737   4.581  10.258   2.170 -0.4596  0.8207  0.0961
   12CHTO   C92 4738   4.560  10.125   2.016  0.2220  0.5304  0.2636
   12CHTO  H179 4739   4.515  10.130   1.916  0.8708 -0.9241 -0.1139
   12CHTO   O66 4740   4.701  10.145   2.004 -0.5120 -0.1089 -0.3374
   12CHTO  H166 4741   4.725  10.194   1.928  1.1925  1.7645  1.3016
   12CHTO   C93 4742   4.527   9.989   2.085 -0.4673  0.0261 -0.3281
   12CHTO  H180 4743   4.590   9.989   2.175 -1.1941 -1.9611  0.2123
   12CHTO   N16 4744   4.559   9.873   2.006 -0.2240 -0.1765  0.1777
   12CHTO  H172 4745   4.557   9.791   2.077 -0.9597  0.4216  0.8520
   12CHTO  H173 4746   4.658   9.876   1.962 -1.2433  0.2382 -2.1412
   12CHTO   C94 4747   4.381   9.971   2.136  0.8911  0.8643  0.3177
   12CHTO  H181 4748   4.311   9.979   2.053 -0.9386  0.0814  1.7746
   12CHTO   O61 4749   4.345  10.081   2.222  0.1348 -0.0511 -0.4632
   12CHTO   C95 4750   4.362  10.217   2.164  0.8240  0.0427 -0.1419
   12CHTO  H182 4751   4.287  10.232   2.087  2.9398 -2.5888 -2.7808
   12CHTO  C106 4752   4.319  10.318   2.268 -0.2306 -0.5270 -0.0814
   12CHTO   O69 4753   4.364  10.303   2.405  0.3332 -0.6420  0.0141
   12CHTO  H169 4754   4.394  10.216   2.424  2.0477 -0.2942 -1.0073
   12CHTO   O63 4755   4.361   9.816   2.242  0.1973  0.2226  0.1033
   12CHTO   C96 4756   4.466   9.760   2.337 -0.4197 -0.5379  0.6715
   12CHTO  H183 4757   4.566   9.786   2.300 -0.3232 -2.4081 -0.4223
   12CHTO   C98 4758   4.461   9.606   2.340  1.2099  0.0067  1.2095
   12CHTO  H185 4759   4.357   9.571   2.353  1.9481 -3.0079 -0.5084
   12CHTO   O67 4760   4.505   9.563   2.210 -0.0860  0.0891  0.0336
   12CHTO  H167 4761   4.531   9.474   2.196 -0.3984  0.0390 -0.2525
   12CHTO  C102 4762   4.552   9.541   2.451  0.3605  0.4924  0.5836
   12CHTO  H189 4763   4.654   9.567   2.420  0.9341 -0.7826  1.3588
   12CHTO   N18 4764   4.558   9.398   2.457  0.6050 -0.1016  0.5045
   12CHTO  H176 4765   4.521   9.356   2.365 -0.3500 -1.0141  1.2986
   12CHTO  H177 4766   4.485   9.352   2.522 -1.6118  2.3130 -0.1840
   12CHTO  C105 4767   4.522   9.608   2.587  0.5576  0.1729  0.1933
   12CHTO  H192 4768   4.419   9.588   2.616  0.8900  1.3251  2.2967
   12CHTO   O65 4769   4.525   9.753   2.573  0.3984 -0.4687 -0.8840
   12CHTO  C100 4770   4.439   9.821   2.484 -0.0188  0.2991 -0.7869
   12CHTO  H187 4771   4.334   9.807   2.515  1.0739  1.5327  3.7486
   12CHTO  C107 4772   4.458   9.987   2.507 -0.2521  0.1931  0.1721
   12CHTO   O70 4773   4.371  10.023   2.611  0.3795  0.1182  0.1831
   12CHTO  H170 4774   4.284  10.025   2.575  0.4213 -1.9040 -0.0774
   12CHTO   O57 4775   4.637   9.545   2.702  0.3994 -1.0488 -0.1584
   12CHTO   C85 4776   4.596   9.492   2.830  0.7013 -0.9419 -0.1145
   12CHTO  H157 4777   4.525   9.413   2.799  0.7154 -1.1472  0.3769
   12CHTO   C83 4778   4.506   9.595   2.908 -0.8895 -0.6309 -0.7492
   12CHTO  H155 4779   4.416   9.608   2.849 -1.2472 -0.4296 -0.1652
   12CHTO   O56 4780   4.583   9.717   2.914 -0.0702  0.0183 -0.0052
   12CHTO  H135 4781   4.527   9.787   2.940  1.9349  1.4767  0.5277
   12CHTO   C81 4782   4.472   9.544   3.052 -0.3766  0.6633  0.3873
   12CHTO  H153 4783   4.398   9.465   3.039 -2.9377  3.1997 -0.9880
   12CHTO   N14 4784   4.397   9.648   3.128  0.1133 -0.4479  0.6404
   12CHTO  H141 4785   4.461   9.733   3.124  2.1856 -1.9669  0.4216
   12CHTO  H142 4786   4.404   9.613   3.229  0.4075 -0.7858  0.5071
   12CHTO   C79 4787   4.591   9.481   3.128 -0.2108 -0.2510 -0.1970
   12CHTO  H151 4788   4.546   9.421   3.206 -2.4992 -0.2521 -1.4651
   12CHTO   O52 4789   4.670   9.386   3.042 -0.1111 -0.3627 -0.2676
   12CHTO   C86 4790   4.711   9.431   2.915 -0.1056  0.4832  0.1607
   12CHTO  H158 4791   4.790   9.505   2.938  1.6235 -1.0106 -0.7779
   12CHTO   C90 4792   4.773   9.318   2.837 -0.6185  1.0166 -0.2849
   12CHTO   O60 4793   4.887   9.273   2.908  0.1982  0.4227 -0.2199
   12CHTO  H138 4794   4.853   9.204   2.961  0.7275 -1.1672 -1.8907
   12CHTO   O50 4795   4.685   9.584   3.173  0.1014  0.5224 -0.4233
   12CHTO   C73 4796   4.728   9.625   3.302  0.1367  0.0648  0.5613
   12CHTO  H145 4797   4.664   9.584   3.382 -1.3644  1.2736 -0.0007
   12CHTO   C74 4798   4.723   9.778   3.303 -0.4791 -1.2629 -0.1231
   12CHTO  H146 4799   4.616   9.799   3.290 -0.1674  0.5826  0.1311
   12CHTO   O54 4800   4.759   9.835   3.430 -0.4743 -0.1928  0.0778
   12CHTO  H133 4801   4.712   9.787   3.495  1.5421 -0.4382  1.3961
   12CHTO   C75 4802   4.807   9.836   3.179  0.2625  0.0448  0.1581
   12CHTO  H147 4803   4.762   9.799   3.086  0.8276 -1.0735  0.3267
   12CHTO   N13 4804   4.816   9.983   3.170 -0.2080 -0.3733  0.3443
   12CHTO  H139 4805   4.796  10.030   3.074 -0.7375  1.9287  1.5517
   12CHTO  H140 4806   4.758  10.029   3.249  1.6425 -0.3957  1.7491
   12CHTO   C76 4807   4.957   9.771   3.183  0.3316 -0.2062  0.0945
   12CHTO  H148 4808   5.022   9.819   3.256 -0.8582 -0.8093  1.5881
   12CHTO   O49 4809   4.953   9.629   3.206 -0.4072  0.0359 -0.1020
   12CHTO   C77 4810   4.874   9.588   3.321 -0.0234  0.0645  0.0270
   12CHTO  H149 4811   4.905   9.617   3.422 -1.5554 -1.6711  1.0527
   12CHTO   C88 4812   4.890   9.439   3.326 -0.0828 -0.7209  0.2500
   12CHTO   O58 4813   5.041   9.392   3.330 -0.1514  0.3992 -0.0071
   12CHTO  H136 4814   5.078   9.424   3.410  0.0466 -0.5951  0.3018
   12CHTO   O51 4815   5.023   9.783   3.036  0.5295 -0.1020  0.0034
   12CHTO   C78 4816   5.176   9.739   3.033  0.6414  0.1773 -0.1960
   12CHTO  H150 4817   5.192   9.668   3.117 -1.5363  1.2781  1.1739
   12CHTO   C80 4818   5.280   9.855   3.052  0.2211 -0.2035  0.0841
   12CHTO  H152 4819   5.264   9.930   2.971 -0.4851 -0.4086  0.0273
   12CHTO   O55 4820   5.260   9.913   3.178  0.7000 -0.0517  0.1149
   12CHTO  H134 4821   5.327   9.976   3.199  0.7186 -0.0437  0.0296
   12CHTO   C84 4822   5.428   9.805   3.042  1.1987  0.0074 -0.3048
   12CHTO  H156 4823   5.438   9.747   3.133 -1.7547  1.3109  0.9286
   12CHTO   N15 4824   5.532   9.915   3.041  0.0382  0.5600  0.1085
   12CHTO  H143 4825   5.604   9.897   2.965 -0.5842  1.7875 -0.7907
   12CHTO  H144 4826   5.499  10.016   3.029  0.6764  0.6222 -1.1525
   12CHTO   C87 4827   5.446   9.710   2.927  0.8076  0.1523 -0.8215
   12CHTO  H159 4828   5.437   9.768   2.835 -2.5178  0.4708 -0.3617
   12CHTO   O53 4829   5.341   9.603   2.931  0.3889  0.4242 -0.2556
   12CHTO   C82 4830   5.210   9.653   2.911  0.0035  0.2218 -0.2917
   12CHTO  H154 4831   5.205   9.714   2.820 -0.7572 -0.7503 -0.9176
   12CHTO   C89 4832   5.115   9.534   2.901  0.1250 -1.3233 -0.0647
   12CHTO   O59 4833   5.136   9.442   2.787  0.0628  0.1345  0.2469
   12CHTO  H137 4834   5.099   9.357   2.804  0.7152 -0.0357  0.8480
   12CHTO   O45 4835   5.586   9.628   2.926 -0.0750  0.2726  0.2837
   12CHTO   C67 4836   5.653   9.606   2.801 -0.0842 -0.8339 -0.2758
   12CHTO  H124 4837   5.745   9.552   2.825 -0.6761 -1.0187  1.6168
   12CHTO   C65 4838   5.572   9.519   2.695 -0.2228 -0.4903 -0.1152
   12CHTO  H122 4839   5.480   9.500   2.750  0.3276  0.7321  1.2863
   12CHTO   O44 4840   5.639   9.392   2.688 -0.4740 -0.3833 -0.3437
   12CHTO  H102 4841   5.725   9.405   2.653 -0.3665  0.9216  0.3879
   12CHTO   C63 4842   5.530   9.609   2.574  0.4525 -0.8012  0.2783
   12CHTO  H120 4843   5.467   9.688   2.614  2.8851  0.7448  1.1054
   12CHTO   N11 4844   5.424   9.542   2.496 -0.6177  0.4662  0.5573
   12CHTO  H108 4845   5.351   9.499   2.562  1.8733  0.3010  3.3186
   12CHTO  H109 4846   5.368   9.612   2.438 -0.3696  1.3962  1.4235
   12CHTO   C61 4847   5.659   9.670   2.505  0.0652 -0.1841 -0.0189
   12CHTO  H118 4848   5.620   9.757   2.449 -0.0741  0.1994  0.6799
   12CHTO   O40 4849   5.747   9.730   2.605  0.4381  0.1960 -0.4652
   12CHTO   C68 4850   5.702   9.744   2.740  0.5958 -0.2773 -0.3981
   12CHTO  H125 4851   5.615   9.812   2.739  0.1729 -0.8118 -0.6827
   12CHTO   C72 4852   5.812   9.812   2.824  0.1478 -0.4376  0.5065
   12CHTO   O48 4853   5.913   9.712   2.851 -0.3798  0.3150 -1.1169
   12CHTO  H105 4854   5.982   9.761   2.890 -2.0302 -0.2650  2.7913
   12CHTO   O38 4855   5.725   9.577   2.426 -0.1491 -0.0422  0.2424
   12CHTO   C55 4856   5.828   9.624   2.333 -0.5230  0.2972  0.5343
   12CHTO  H112 4857   5.846   9.729   2.361  0.1218  0.8113 -1.6981
   12CHTO   C56 4858   5.776   9.615   2.187 -0.4682  0.7499 -0.0132
   12CHTO  H113 4859   5.735   9.515   2.167 -1.4401  0.8884  1.2113
   12CHTO   O42 4860   5.651   9.693   2.176 -0.4470  0.5119 -0.6582
   12CHTO  H100 4861   5.601   9.662   2.103 -1.4337  0.6612 -0.0641
   12CHTO   C57 4862   5.880   9.657   2.083  0.3760 -0.0637  0.0659
   12CHTO  H114 4863   5.895   9.765   2.083 -0.4394  0.0641 -1.1501
   12CHTO   N10 4864   5.838   9.625   1.943  0.0337  0.1916 -0.2337
   12CHTO  H106 4865   5.781   9.705   1.897  0.1405 -0.4796 -1.5644
   12CHTO  H107 4866   5.787   9.531   1.928 -1.0440  1.0567 -2.2328
   12CHTO   C58 4867   6.019   9.594   2.114  0.1569  0.3988 -0.4167
   12CHTO  H115 4868   6.018   9.488   2.081  1.6793 -0.2455  1.5146
   12CHTO   O37 4869   6.060   9.591   2.253 -0.6462  0.3270 -0.4331
   12CHTO   C59 4870   5.958   9.545   2.345  0.7136  0.0687 -0.6876
   12CHTO  H116 4871   5.934   9.441   2.322 -0.6550  0.6267 -1.8397
   12CHTO   C70 4872   6.026   9.551   2.486  0.2538  0.1444 -0.1750
   12CHTO   O46 4873   6.151   9.476   2.482  0.1831  0.5143 -0.5598
   12CHTO  H103 4874   6.224   9.520   2.520  0.8345  0.1858 -1.4298
   12CHTO   O39 4875   6.127   9.684   2.016  0.7723  0.6871  0.1686
   12CHTO   C60 4876   6.262   9.677   2.066 -0.2917 -0.5567 -0.0112
   12CHTO  H117 4877   6.256   9.625   2.162  3.2750  0.1854  0.6592
   12CHTO   C62 4878   6.367   9.608   1.977 -0.4156 -0.3977  0.6244
   12CHTO  H119 4879   6.340   9.501   1.972 -0.8168 -0.1958 -2.7595
   12CHTO   O43 4880   6.359   9.672   1.852 -0.8785  0.0777  0.1500
   12CHTO  H101 4881   6.372   9.765   1.854 -0.4875  0.0058  1.5294
   12CHTO   C66 4882   6.506   9.610   2.041  0.0228  0.3312  0.0686
   12CHTO  H123 4883   6.501   9.553   2.133 -1.7209  0.5783  0.1317
   12CHTO   N12 4884   6.605   9.538   1.961 -0.4337 -0.2058  0.0724
   12CHTO  H110 4885   6.557   9.442   1.956 -0.9590  0.0529  0.0658
   12CHTO  H111 4886   6.628   9.576   1.862 -0.1601 -0.0863  0.1806
   12CHTO   C69 4887   6.560   9.748   2.081 -0.4614 -0.1748  0.2549
   12CHTO  H126 4888   6.591   9.812   1.995  0.0284  3.3247  2.8919
   12CHTO   O41 4889   6.455   9.822   2.151 -0.0568  0.3695  0.3821
   12CHTO   C64 4890   6.301   9.821   2.104 -0.3107  0.0571 -0.2703
   12CHTO  H121 4891   6.296   9.886   2.014 -2.1313 -0.0658 -0.2634
   12CHTO   C71 4892   6.213   9.874   2.224  0.0565  0.2079  0.3521
   12CHTO   O47 4893   6.248  10.001   2.265 -0.7254  0.2820  0.1116
   12CHTO  H104 4894   6.244  10.003   2.359 -0.5328  0.8322  0.1136
   12CHTO   O34 4895   6.683   9.736   2.193 -0.2098 -0.1272  0.2145
   12CHTO   C49 4896   6.716   9.743   2.327 -0.0352  0.2694 -0.2309
   12CHTO   H91 4897   6.760   9.842   2.334  1.1493 -0.2764  0.0654
   12CHTO   C47 4898   6.823   9.636   2.346  0.0056  0.4433 -0.0307
   12CHTO   H89 4899   6.855   9.653   2.451 -1.4148 -1.6950  0.7867
   12CHTO   O33 4900   6.937   9.655   2.259 -0.1501 -0.5679  0.5207
   12CHTO   H70 4901   6.924   9.600   2.184 -2.2554 -1.3198  1.4079
   12CHTO   C45 4902   6.758   9.491   2.338 -0.2253 -0.2789  0.3669
   12CHTO   H87 4903   6.725   9.478   2.234 -1.2506  0.9548  0.5155
   12CHTO    N8 4904   6.857   9.384   2.363  0.4725 -0.3026 -0.1590
   12CHTO   H75 4905   6.803   9.296   2.396 -0.8749  0.4935 -0.1786
   12CHTO   H76 4906   6.914   9.374   2.272  1.3108 -0.5884  0.3946
   12CHTO   C43 4907   6.619   9.479   2.423 -0.0061  0.6162  0.0188
   12CHTO   H85 4908   6.572   9.391   2.378  0.0895  0.8240 -0.4857
   12CHTO   O29 4909   6.530   9.596   2.424 -0.4787  0.2901 -0.2453
   12CHTO   C50 4910   6.594   9.725   2.421 -0.8791  0.3842  1.0914
   12CHTO   H92 4911   6.526   9.807   2.395 -0.9785  0.5935  1.9755
   12CHTO   C54 4912   6.631   9.779   2.567  0.4640 -0.7360 -0.0760
   12CHTO   O36 4913   6.520   9.827   2.643  0.4825 -0.3344 -0.1625
   12CHTO   H72 4914   6.502   9.919   2.639 -0.7511 -0.5541  0.0859
   12CHTO   O27 4915   6.650   9.446   2.559  0.2989 -0.0650 -0.0744
   12CHTO   C37 4916   6.571   9.378   2.664  0.3746  0.3500  0.2654
   12CHTO   H79 4917   6.643   9.357   2.745 -0.2202 -1.6935  0.2815
   12CHTO   C38 4918   6.454   9.469   2.727  0.4169 -0.2067 -0.2572
   12CHTO   H80 4919   6.390   9.503   2.644  1.4853  2.3000 -0.0868
   12CHTO   O31 4920   6.518   9.577   2.799  0.4289  0.0015 -0.0499
   12CHTO   H68 4921   6.447   9.630   2.831 -0.3410  0.2017 -2.0693
   12CHTO   C39 4922   6.360   9.391   2.828  0.2355 -0.6852 -0.0963
   12CHTO   H81 4923   6.417   9.371   2.919  0.9044 -0.2726 -0.4152
   12CHTO    N7 4924   6.257   9.485   2.885  0.0474 -0.1433  0.3147
   12CHTO   H73 4925   6.193   9.511   2.803 -0.7417 -2.3036  0.2273
   12CHTO   H74 4926   6.191   9.435   2.954 -0.3044  0.3444  0.3286
   12CHTO   C40 4927   6.309   9.262   2.757  0.4029 -0.5701 -0.6227
   12CHTO   H82 4928   6.242   9.293   2.676  2.0377  2.5273 -0.8734
   12CHTO   O26 4929   6.419   9.192   2.713  0.0249  0.8769  0.0467
   12CHTO   C41 4930   6.503   9.250   2.610  0.3183 -0.0757 -0.3032
   12CHTO   H83 4931   6.430   9.276   2.532 -0.4244  1.5022  0.8927
   12CHTO   C52 4932   6.602   9.139   2.559 -0.7881  0.2038  0.7315
   12CHTO   O35 4933   6.688   9.086   2.659 -0.1857 -0.5169 -0.5222
   12CHTO   H71 4934   6.739   9.010   2.636 -1.2302 -1.3260 -0.2118
   12CHTO   O28 4935   6.246   9.164   2.845  0.0678  0.5753  0.2455
   12CHTO   C42 4936   6.120   9.104   2.814 -0.1375 -0.2420 -0.0916
   12CHTO   H84 4937   6.116   9.024   2.887  1.3466 -1.2535 -1.0853
   12CHTO   C44 4938   6.119   9.028   2.675  0.1847 -0.1579  0.4566
   12CHTO   H86 4939   6.102   9.100   2.595  2.2980  0.7643  0.8007
   12CHTO   O32 4940   6.244   8.961   2.649  0.0792 -0.0351 -0.5281
   12CHTO   H69 4941   6.258   8.952   2.557  0.9953 -0.5400 -0.3424
   12CHTO   C48 4942   5.991   8.939   2.666 -0.0012  0.0326  0.0940
   12CHTO   H90 4943   5.999   8.861   2.743 -3.5447 -3.6042 -3.0009
   12CHTO    N9 4944   5.988   8.850   2.543 -0.7638  0.8251 -0.3127
   12CHTO   H77 4945   5.971   8.907   2.453  0.0133 -1.5177 -1.9904
   12CHTO   H78 4946   5.925   8.764   2.558  0.8556 -0.4496 -0.6984
   12CHTO   C51 4947   5.856   9.015   2.688 -0.4655 -0.0524 -0.1666
   12CHTO   H93 4948   5.837   9.074   2.599 -0.3356  1.7736  0.9857
   12CHTO   O30 4949   5.863   9.099   2.807  0.1971  0.7311 -0.0415
   12CHTO   C46 4950   5.992   9.186   2.824  0.3623 -0.0408  0.1328
   12CHTO   H88 4951   5.988   9.263   2.747  0.1827  0.1174  0.3002
   12CHTO   C53 4952   5.980   9.259   2.962  0.3628  0.1856 -0.4981
   12CHTO   O72 4953   5.871   9.347   2.953 -0.2330 -0.3998  0.0214
   12CHTO  H199 4954   5.864   9.394   3.034  1.0867 -1.6986  0.9253
   12CHTO   O22 4955   5.746   8.924   2.708 -0.1181 -0.3250 -0.1526
   12CHTO   C31 4956   5.601   8.964   2.720  0.3597  0.6420 -0.2041
   12CHTO   H59 4957   5.542   8.873   2.745  1.9809 -0.1248  0.9491
   12CHTO   C29 4958   5.565   9.072   2.821 -0.0069  0.2549 -0.1153
   12CHTO   H57 4959   5.616   9.158   2.775  0.0535  0.0213 -0.4789
   12CHTO   O21 4960   5.621   9.037   2.944  0.2732  0.4094  0.0596
   12CHTO   H37 4961   5.564   8.975   2.985  0.1850  0.9379  0.7542
   12CHTO   C27 4962   5.408   9.100   2.823 -0.1599  0.5124  0.1869
   12CHTO   H55 4963   5.362   9.006   2.858  2.4215  0.2919  3.1974
   12CHTO    N5 4964   5.367   9.207   2.915 -0.5225  0.2164 -0.6843
   12CHTO   H43 4965   5.441   9.246   2.983 -0.8181  2.1094 -1.4294
   12CHTO   H44 4966   5.280   9.174   2.970  0.6559 -3.9692 -1.1535
   12CHTO   C25 4967   5.361   9.132   2.677  0.1875 -0.3304  0.2787
   12CHTO   H53 4968   5.397   9.233   2.651  0.1959  0.1379  2.0711
   12CHTO   O17 4969   5.411   9.036   2.584 -0.0192 -0.4060  0.5284
   12CHTO   C32 4970   5.551   9.010   2.581  0.1669  0.8777 -0.9434
   12CHTO   H60 4971   5.603   9.101   2.554  3.6770 -1.2840 -1.7817
   12CHTO   C36 4972   5.578   8.907   2.469 -0.0880  0.1379 -0.8578
   12CHTO   O25 4973   5.484   8.802   2.468  0.4206 -0.2058  0.0784
   12CHTO   H40 4974   5.501   8.745   2.395 -0.6701 -0.7103  0.2194
   12CHTO   O15 4975   5.211   9.126   2.680  0.2384  0.2199 -0.0150
   12CHTO   C19 4976   5.080   9.116   2.637  0.5841 -0.4936  0.9998
   12CHTO   H47 4977   5.032   9.203   2.684  2.3069  1.7797 -1.2920
   12CHTO   C20 4978   5.069   9.140   2.486  0.3190  0.0663 -0.2711
   12CHTO   H48 4979   5.106   9.055   2.428  0.6834  1.4450 -2.0991
   12CHTO   O19 4980   5.153   9.254   2.456 -0.1927  0.1143  0.4827
   12CHTO   H35 4981   5.146   9.271   2.364  0.1329  0.1064  0.4585
   12CHTO   C21 4982   4.917   9.155   2.449 -0.3166  0.2316 -0.9174
   12CHTO   H49 4983   4.871   9.223   2.520  1.1206  1.8767 -1.5301
   12CHTO    N4 4984   4.886   9.201   2.314  0.7402 -0.3839  0.8208
   12CHTO   H41 4985   4.799   9.264   2.320  0.8778 -0.3309  2.2503
   12CHTO   H42 4986   4.874   9.114   2.250 -0.1815 -0.2236  0.7731
   12CHTO   C22 4987   4.854   9.016   2.487 -0.0058 -0.6408 -0.0935
   12CHTO   H50 4988   4.914   8.946   2.430  1.3448  1.5640 -1.4259
   12CHTO   O14 4989   4.863   8.988   2.630 -0.1783  0.7791 -0.6677
   12CHTO   C23 4990   4.999   8.987   2.673  0.2258  0.3494 -0.6542
   12CHTO   H51 4991   5.044   8.899   2.626  1.0941 -1.6746  3.7876
   12CHTO   C34 4992   4.992   8.959   2.819  1.0356 -0.5212 -0.4346
   12CHTO   O23 4993   5.121   8.934   2.882  0.5243 -0.7162  0.6354
   12CHTO   H38 4994   5.188   8.938   2.816 -0.3870  2.3647 -0.1715
   12CHTO   O16 4995   4.716   9.011   2.459  0.3474 -0.3878  0.0390
   12CHTO   C24 4996   4.660   8.879   2.380  0.4129 -0.0997 -0.7568
   12CHTO   H52 4997   4.718   8.791   2.408  0.8904  0.3378 -0.3464
   12CHTO   C26 4998   4.681   8.911   2.236 -0.2963  0.2243 -0.0897
   12CHTO   H54 4999   4.647   9.016   2.219 -1.3341 -0.1220 -0.1895
   12CHTO   O20 5000   4.823   8.904   2.212 -0.0584  0.1825 -0.4915
   12CHTO   H36 5001   4.871   8.915   2.291  0.4930  0.5528 -0.8760
   12CHTO   C30 5002   4.611   8.810   2.140 -0.4673  0.4487  0.3759
   12CHTO   H58 5003   4.673   8.720   2.134 -0.4277  0.3573  1.9014
   12CHTO    N6 5004   4.602   8.866   2.004  0.1096 -0.1945 -0.0534
   12CHTO   H45 5005   4.700   8.897   1.971  0.2717  0.3875  0.9691
   12CHTO   H46 5006   4.558   8.802   1.929 -1.0509  0.5903 -0.0448
   12CHTO   C33 5007   4.466   8.769   2.195  0.5756  0.5628 -0.5265
   12CHTO   H61 5008   4.402   8.857   2.178  0.0128 -0.0566 -1.7152
   12CHTO   O18 5009   4.469   8.740   2.336  0.1217  0.0408 -0.4614
   12CHTO   C28 5010   4.512   8.853   2.420  0.6726 -0.3531 -0.0755
   12CHTO   H56 5011   4.452   8.940   2.394 -1.4520 -0.8132  2.9277
   12CHTO   C35 5012   4.497   8.806   2.565  0.2866  0.0650 -0.4444
   12CHTO   O24 5013   4.427   8.900   2.647 -0.0441 -0.1164  1.0728
   12CHTO   H39 5014   4.386   8.860   2.721 -4.0948 -2.3388 -2.1691
   12CHTO    O9 5015   4.400   8.662   2.120 -0.6458  0.2789  0.2824
   12CHTO   C13 5016   4.496   8.514   2.095  0.2120  0.5859 -0.5112
   12CHTO   H26 5017   4.603   8.540   2.082 -0.1182  1.1022 -2.2489
   12CHTO   C11 5018   4.446   8.418   1.980  0.3407 -0.1203 -0.2785
   12CHTO   H24 5019   4.467   8.464   1.883 -2.0287  1.0727 -0.2455
   12CHTO    O8 5020   4.299   8.402   1.978  0.2250  0.0939  0.2022
   12CHTO    H3 5021   4.279   8.338   1.912  0.5790  0.7010 -0.5064
   12CHTO    C9 5022   4.533   8.289   1.976 -0.4491  0.2531 -0.6576
   12CHTO   H22 5023   4.636   8.325   1.959 -0.5172  0.6337 -0.2615
   12CHTO    N2 5024   4.508   8.204   1.858 -0.0621  0.2861  0.3611
   12CHTO   H10 5025   4.581   8.126   1.845 -1.3608 -0.6696 -1.4099
   12CHTO   H11 5026   4.503   8.265   1.769  1.4436 -0.6624 -0.4011
   12CHTO    C7 5027   4.527   8.218   2.119 -0.3252  0.4277 -0.1816
   12CHTO   H20 5028   4.603   8.137   2.112 -0.4125  0.2756  0.6252
   12CHTO    O4 5029   4.567   8.312   2.220 -0.1286  0.0435 -0.3750
   12CHTO   C14 5030   4.509   8.443   2.239 -0.5795 -0.6884 -0.5258
   12CHTO   H27 5031   4.568   8.515   2.298 -3.0880  2.4001 -1.6547
   12CHTO   C18 5032   4.373   8.422   2.314  0.0398  0.6253  0.4391
   12CHTO   O13 5033   4.381   8.403   2.454  0.6099  0.5038 -0.2716
   12CHTO    H7 5034   4.429   8.478   2.485 -2.2623  1.5882  1.7737
   12CHTO    O2 5035   4.377   8.155   2.154  0.1574  0.0076  0.1687
   12CHTO    C1 5036   4.360   8.017   2.168 -0.3576  0.3783 -0.7609
   12CHTO   H14 5037   4.431   7.959   2.105  0.7245 -1.4499  2.0850
   12CHTO    C2 5038   4.213   7.983   2.114 -0.0683  0.6855 -0.1541
   12CHTO   H15 5039   4.135   8.038   2.168 -1.1230 -1.2948  0.3793
   12CHTO    O6 5040   4.208   8.023   1.969 -0.0156  0.3518  0.1508
   12CHTO    H1 5041   4.208   8.116   1.971  0.3222  0.3718 -0.5971
   12CHTO    C3 5042   4.190   7.825   2.123  0.5035 -0.3465  0.8669
   12CHTO   H16 5043   4.258   7.779   2.049  0.3308  0.4278  0.2278
   12CHTO    N1 5044   4.051   7.792   2.071  1.0542  0.0712 -0.1145
   12CHTO    H8 5045   3.971   7.842   2.123 -0.2277 -2.4049  0.3538
   12CHTO    H9 5046   4.042   7.685   2.066 -0.3903  0.1823 -0.0756
   12CHTO    C4 5047   4.234   7.773   2.259  0.4311 -0.4769 -0.0229
   12CHTO   H17 5048   4.153   7.797   2.328 -0.4436  1.3629 -1.6228
   12CHTO    O1 5049   4.360   7.816   2.309 -0.3075  0.6704 -0.1362
   12CHTO    C5 5050   4.380   7.958   2.305  0.8091  0.4436  0.0505
   12CHTO   H18 5051   4.305   8.000   2.371  0.7728  2.6092 -1.3025
   12CHTO   C16 5052   4.518   7.984   2.363 -0.1107 -0.5995  0.4915
   12CHTO   O11 5053   4.521   7.990   2.504 -0.2621 -0.3981  0.5082
   12CHTO    H5 5054   4.610   8.004   2.532  0.0574  1.4504 -1.3396
   12CHTO    O3 5055   4.254   7.631   2.249  0.1783  0.0664 -0.2241
   12CHTO    C6 5056   4.197   7.526   2.340 -0.8570 -0.0350  0.1931
   12CHTO   H19 5057   4.128   7.555   2.419 -0.1638 -1.9457  1.5488
   12CHTO    C8 5058   4.120   7.430   2.249 -0.4007 -0.6058  0.2853
   12CHTO   H21 5059   4.183   7.390   2.169  1.8926  2.0752  0.6806
   12CHTO    O7 5060   4.006   7.503   2.191 -0.0709 -0.0301  0.6862
   12CHTO    H2 5061   3.951   7.534   2.261 -2.0593 -1.0495 -0.3799
   12CHTO   C12 5062   4.081   7.305   2.334  0.3294 -0.1672 -0.9446
   12CHTO   H25 5063   4.009   7.343   2.409 -0.1778 -1.2122 -0.8913
   12CHTO    N3 5064   4.012   7.213   2.240 -0.0515 -0.3111 -0.0172
   12CHTO   H12 5065   3.969   7.258   2.152 -0.5116  3.0904  1.8485
   12CHTO   H13 5066   3.950   7.142   2.293 -0.1052 -0.4522 -0.2693
   12CHTO   C15 5067   4.203   7.249   2.412 -0.6673  0.0816  0.7129
   12CHTO   H28 5068   4.269   7.203   2.338  1.3435  2.3518  1.0593
   12CHTO   O10 5069   4.166   7.152   2.520 -0.2331  0.0163  0.2487
   12CHTO    H4 5070   4.165   7.063   2.488  0.0449  0.2543 -0.4499
   12CHTO    O5 5071   4.268   7.354   2.488 -0.5061  0.6505 -0.0768
   12CHTO   C10 5072   4.316   7.460   2.405 -0.1251 -0.0996  0.0566
   12CHTO   H23 5073   4.385   7.423   2.330 -3.2183 -1.4148 -2.2708
   12CHTO   C17 5074   4.395   7.559   2.490  0.5940 -0.5544  0.1405
   12CHTO   O12 5075   4.524   7.504   2.514 -0.0897  0.2551 -0.0528
   12CHTO    H6 5076   4.566   7.543   2.588 -0.9983 -1.0148  1.1542
   13CHTO  H203 5077   8.437   4.470   1.314  1.9080  1.8821 -0.5193
   13CHTO   O82 5078   8.382   4.534   1.355 -0.2899 -0.1790 -0.1461
   13CHTO  C123 5079   8.314   4.607   1.251  0.3647 -0.1491  0.0400
   13CHTO  H227 5080   8.313   4.550   1.157  0.9170 -0.4275  0.1987
   13CHTO   O77 5081   8.181   4.635   1.300 -0.0995 -0.3941 -0.5627
   13CHTO  C118 5082   8.082   4.701   1.217 -0.0786 -0.1180  1.2069
   13CHTO  H222 5083   8.065   4.648   1.122  1.9785  2.2628 -0.5547
   13CHTO  C125 5084   7.957   4.698   1.294  0.2753  0.3443 -0.0307
   13CHTO   O84 5085   7.952   4.769   1.420 -0.3656  0.3186 -0.6680
   13CHTO  H205 5086   8.001   4.846   1.400 -1.3567  1.1813  0.2060
   13CHTO  C114 5087   8.139   4.839   1.190  0.0599  0.2997  0.4364
   13CHTO  H218 5088   8.145   4.891   1.286 -2.3909  3.3254 -0.9782
   13CHTO  C116 5089   8.286   4.832   1.135 -0.9690 -0.0667 -0.0541
   13CHTO  H220 5090   8.286   4.800   1.028 -1.1878  1.0887 -0.4079
   13CHTO   O79 5091   8.326   4.965   1.124 -0.1491  0.4389 -0.3872
   13CHTO  H201 5092   8.415   4.974   1.096 -0.6250  2.0758 -1.4475
   13CHTO  C120 5093   8.391   4.744   1.220  0.0311  0.7202  0.6896
   13CHTO  H224 5094   8.408   4.803   1.312  1.1782 -0.6710  1.3777
   13CHTO   N21 5095   8.526   4.719   1.154  0.2825 -0.1866  0.8358
   13CHTO  H211 5096   8.585   4.805   1.184 -0.2288  0.1769  0.7980
   13CHTO  H212 5097   8.577   4.634   1.198 -0.9512 -1.8991 -1.0088
   13CHTO   O75 5098   8.043   4.901   1.113 -0.0571  0.1781  0.2634
   13CHTO  C112 5099   7.997   5.049   1.173  0.5034  0.0214 -1.1527
   13CHTO  H216 5100   8.079   5.085   1.236 -1.0442  2.3008 -0.4052
   13CHTO   O73 5101   7.883   5.019   1.253  0.4500  0.1783 -0.0259
   13CHTO  C113 5102   7.819   5.123   1.325 -0.5835 -0.0212  0.3782
   13CHTO  H217 5103   7.893   5.178   1.388  0.7616  0.3937 -1.5098
   13CHTO  C124 5104   7.713   5.065   1.418  0.5900 -0.3274 -0.1994
   13CHTO   O83 5105   7.667   5.155   1.518  0.4719 -0.0979  0.2554
   13CHTO  H204 5106   7.625   5.230   1.481  1.3592 -0.4921 -1.5822
   13CHTO  C109 5107   7.752   5.211   1.219  0.3863 -0.3757 -0.5342
   13CHTO  H213 5108   7.686   5.145   1.161 -0.2166  0.4044 -0.7447
   13CHTO  C110 5109   7.870   5.268   1.129 -0.5095  0.3260  0.4457
   13CHTO  H214 5110   7.940   5.325   1.190  0.1933  0.1496 -0.1883
   13CHTO   O78 5111   7.806   5.349   1.030 -0.1199 -0.4321 -0.3688
   13CHTO  H200 5112   7.734   5.304   0.989 -1.4884  0.8948  0.4945
   13CHTO  C111 5113   7.947   5.151   1.064 -0.8707 -0.5628  0.6076
   13CHTO  H215 5114   7.872   5.103   1.000 -0.9572 -1.3152  1.2756
   13CHTO   N19 5115   8.061   5.194   0.978 -0.2580  0.9746 -0.3893
   13CHTO  H207 5116   8.058   5.148   0.880 -1.6666 -1.1482  0.6122
   13CHTO  H208 5117   8.044   5.300   0.969  0.0356  1.1076  0.5457
   13CHTO   O74 5118   7.671   5.309   1.280  0.0168 -0.0931  0.0104
   13CHTO  C115 5119   7.502   5.291   1.220  0.2487 -0.2460 -0.8687
   13CHTO  H219 5120   7.489   5.322   1.116 -2.1761 -0.4652 -0.6424
   13CHTO   O76 5121   7.464   5.146   1.225  0.1444 -0.1699  0.4373
   13CHTO  C122 5122   7.325   5.117   1.204 -0.1355  0.3421 -0.1964
   13CHTO  H226 5123   7.308   5.011   1.223  3.5162 -0.6719 -2.0162
   13CHTO  C126 5124   7.289   5.143   1.051 -0.4488  0.6101  0.5358
   13CHTO   O85 5125   7.360   5.034   0.980  0.1419 -0.0343  0.1826
   13CHTO  H206 5126   7.452   5.049   0.968  0.2369 -0.4996  0.3063
   13CHTO  C121 5127   7.227   5.203   1.289 -0.2583  0.3370 -0.1256
   13CHTO  H225 5128   7.120   5.188   1.264 -0.1242 -0.5553 -0.2049
   13CHTO   O81 5129   7.227   5.152   1.423 -0.7212 -0.1159 -0.4146
   13CHTO  H202 5130   7.202   5.063   1.442 -0.0909 -0.2110 -0.0188
   13CHTO  C119 5131   7.255   5.356   1.299 -0.1171 -0.5622  0.0996
   13CHTO  H223 5132   7.222   5.391   1.201 -1.0057  2.4182  1.3812
   13CHTO  C117 5133   7.408   5.379   1.320  0.0563 -0.2780  0.6012
   13CHTO  H221 5134   7.440   5.343   1.417  1.2968 -0.7912  0.0148
   13CHTO   N20 5135   7.431   5.525   1.311 -0.0283 -0.6545  0.0522
   13CHTO  H209 5136   7.402   5.592   1.391 -0.9188 -0.3172 -0.5432
   13CHTO  H210 5137   7.383   5.561   1.221 -1.0388 -2.3023 -0.0929
   13CHTO   O80 5138   7.140   5.440   1.406 -0.0309 -0.1067 -0.1650
   13CHTO  C103 5139   7.015   5.507   1.348 -0.9758 -0.6151 -0.1112
   13CHTO  H190 5140   6.959   5.561   1.425 -1.5010 -1.9812  0.4898
   13CHTO  C101 5141   7.034   5.608   1.234  0.5429 -0.2372 -0.3000
   13CHTO  H188 5142   7.094   5.563   1.154  2.1398  0.6646  0.3559
   13CHTO   O68 5143   7.116   5.727   1.286 -0.2706  0.0948 -0.9298
   13CHTO  H168 5144   7.059   5.792   1.323 -2.1507 -1.4058 -1.1219
   13CHTO   C99 5145   6.899   5.647   1.165 -0.6878 -0.1561 -0.2991
   13CHTO  H186 5146   6.843   5.710   1.238  0.0794  1.2268 -0.8781
   13CHTO   N17 5147   6.917   5.740   1.051 -0.3386  0.1007 -0.2375
   13CHTO  H174 5148   6.853   5.826   1.057  0.7726  0.9745 -0.6258
   13CHTO  H175 5149   6.897   5.686   0.959  0.8680  0.5149 -0.7638
   13CHTO   C97 5150   6.811   5.521   1.135  0.4358 -1.2548  0.9503
   13CHTO  H184 5151   6.854   5.459   1.056 -2.8258 -0.4074 -1.6292
   13CHTO   O64 5152   6.795   5.445   1.259  0.0897  0.1108  0.0375
   13CHTO  C104 5153   6.917   5.390   1.299 -0.1926 -1.2504 -0.4702
   13CHTO  H191 5154   6.958   5.336   1.213  1.1670 -2.8170  1.1097
   13CHTO  C108 5155   6.897   5.284   1.408 -0.1693  0.2408 -0.2100
   13CHTO   O71 5156   6.854   5.167   1.345  0.0864  0.0687 -0.8329
   13CHTO  H171 5157   6.879   5.097   1.402  0.4731  0.3544 -0.6432
   13CHTO   O62 5158   6.675   5.561   1.095 -0.0204 -0.2696 -0.4571
   13CHTO   C91 5159   6.580   5.454   1.060 -0.0395  0.4146  0.3658
   13CHTO  H178 5160   6.632   5.362   1.085  0.7583  0.4439 -1.1112
   13CHTO   C92 5161   6.572   5.444   0.903 -0.3817  0.2141 -0.7074
   13CHTO  H179 5162   6.561   5.546   0.862 -3.3215  0.6429  0.9999
   13CHTO   O66 5163   6.699   5.408   0.843  0.1720 -0.1679 -0.1017
   13CHTO  H166 5164   6.738   5.331   0.880  3.0130  1.6025  0.7984
   13CHTO   C93 5165   6.461   5.344   0.865 -0.6026 -0.4591 -0.6597
   13CHTO  H180 5166   6.494   5.242   0.887 -3.0475 -0.9740  0.6349
   13CHTO   N16 5167   6.443   5.341   0.719  0.2525  0.1388 -0.6770
   13CHTO  H172 5168   6.357   5.284   0.686 -0.2627  1.9249 -2.4305
   13CHTO  H173 5169   6.534   5.308   0.672  0.3710  1.1609 -1.1614
   13CHTO   C94 5170   6.326   5.369   0.938  0.0078  0.4693  0.1525
   13CHTO  H181 5171   6.283   5.465   0.909  1.7529  0.4667 -2.5824
   13CHTO   O61 5172   6.349   5.358   1.080 -0.5779 -0.5186  0.2283
   13CHTO   C95 5173   6.440   5.454   1.136  0.7630 -0.8277  0.0973
   13CHTO  H182 5174   6.390   5.551   1.130 -0.6926 -1.6268 -1.4067
   13CHTO  C106 5175   6.453   5.420   1.290 -0.5990 -0.0919  0.3026
   13CHTO   O69 5176   6.540   5.501   1.364 -0.0123 -0.3498 -0.3503
   13CHTO  H169 5177   6.518   5.591   1.346 -0.9456 -0.3585  0.6437
   13CHTO   O63 5178   6.232   5.246   0.891 -0.4666  0.5778  0.4752
   13CHTO   C96 5179   6.094   5.209   0.962  0.3501 -0.1772 -0.4594
   13CHTO  H183 5180   6.032   5.149   0.896 -0.7735 -0.5836  0.9286
   13CHTO   C98 5181   6.009   5.340   1.003  0.1553 -0.4741 -0.3775
   13CHTO  H185 5182   6.068   5.414   1.060 -0.4175  0.7150 -1.3090
   13CHTO   O67 5183   5.986   5.412   0.878 -0.7425 -0.2084  0.1339
   13CHTO  H167 5184   5.986   5.351   0.806 -0.0422  1.5385 -1.3937
   13CHTO  C102 5185   5.877   5.304   1.083 -0.1641 -0.5833  0.4633
   13CHTO  H189 5186   5.803   5.263   1.014 -2.0276 -1.1794  2.7560
   13CHTO   N18 5187   5.801   5.421   1.147 -0.1429  0.0089 -0.3774
   13CHTO  H176 5188   5.831   5.421   1.251 -1.1257 -0.7418 -0.0881
   13CHTO  H177 5189   5.697   5.391   1.141 -0.7928  1.0565  3.8066
   13CHTO  C105 5190   5.917   5.193   1.186 -0.1947 -0.7571  0.2109
   13CHTO  H192 5191   5.985   5.236   1.259  1.9884  0.7379 -2.5848
   13CHTO   O65 5192   5.986   5.085   1.128  0.2259 -0.5316 -0.3659
   13CHTO  C100 5193   6.119   5.121   1.094 -0.1451  0.3468  0.5297
   13CHTO  H187 5194   6.168   5.187   1.166  0.4744 -0.0635  0.4904
   13CHTO  C107 5195   6.211   4.997   1.061  0.2024  0.1204 -0.2764
   13CHTO   O70 5196   6.133   4.905   0.980 -0.1029 -0.6054 -0.3314
   13CHTO  H170 5197   6.194   4.884   0.912 -0.3931 -1.7342 -0.2567
   13CHTO   O57 5198   5.774   5.137   1.272  0.0152 -0.2107 -0.3468
   13CHTO   C85 5199   5.668   5.064   1.202  0.0049  0.9066  0.2717
   13CHTO  H157 5200   5.711   5.031   1.104  2.4644 -0.9810  1.9191
   13CHTO   C83 5201   5.542   5.149   1.170  0.4759  0.2503 -0.1999
   13CHTO  H155 5202   5.577   5.224   1.099 -1.4679 -0.5084 -2.0130
   13CHTO   O56 5203   5.483   5.210   1.285 -0.4225  0.4761 -0.2187
   13CHTO  H135 5204   5.405   5.169   1.317 -0.6642  0.8272 -0.3536
   13CHTO   C81 5205   5.440   5.060   1.089 -0.3782 -0.0995 -0.6870
   13CHTO  H153 5206   5.494   5.021   1.003  3.0489  0.7908  1.0127
   13CHTO   N14 5207   5.335   5.143   1.030 -0.1626  0.7250  0.5502
   13CHTO  H141 5208   5.271   5.088   0.964  2.8068  0.3912 -2.2025
   13CHTO  H142 5209   5.377   5.222   0.972 -1.9629  0.2293 -1.4944
   13CHTO   C79 5210   5.391   4.938   1.163 -0.4273 -0.7110 -0.0656
   13CHTO  H151 5211   5.332   4.884   1.089 -0.6541 -2.3960  1.3204
   13CHTO   O52 5212   5.519   4.861   1.198  0.3790 -0.0924  0.0757
   13CHTO   C86 5213   5.606   4.938   1.284  0.2166  0.2902 -0.5296
   13CHTO  H158 5214   5.539   4.971   1.366 -3.2667 -1.3618 -2.6227
   13CHTO   C90 5215   5.708   4.838   1.344  0.1468  0.6494 -0.7247
   13CHTO   O60 5216   5.802   4.898   1.431  0.5108 -0.2752  0.4699
   13CHTO  H138 5217   5.812   4.838   1.502  0.7235  0.2864  0.9166
   13CHTO   O50 5218   5.289   4.965   1.264  0.0736  0.5099 -0.4509
   13CHTO   C73 5219   5.171   4.895   1.312 -0.5951  0.2269 -0.3420
   13CHTO  H145 5220   5.124   4.840   1.230  0.8271  2.6213 -2.8490
   13CHTO   C74 5221   5.069   4.999   1.355 -0.5856 -0.4189  0.6475
   13CHTO  H146 5222   5.057   5.064   1.267  1.4427 -1.3867 -0.3775
   13CHTO   O54 5223   4.945   4.924   1.369 -0.9211 -0.0712 -0.0654
   13CHTO  H133 5224   4.878   4.972   1.323 -0.3301  0.5646 -0.2691
   13CHTO   C75 5225   5.112   5.077   1.479 -0.5999  0.4773  0.7492
   13CHTO  H147 5226   5.196   5.140   1.448  0.8116 -1.4502  0.5449
   13CHTO   N13 5227   5.020   5.180   1.525  0.3722  0.4941 -0.4658
   13CHTO  H139 5228   5.066   5.256   1.586  1.2769 -0.6503  0.2956
   13CHTO  H140 5229   4.976   5.223   1.436  1.8762 -2.7692 -2.8757
   13CHTO   C76 5230   5.156   4.971   1.596  0.8204 -0.1182  1.1442
   13CHTO  H148 5231   5.065   4.916   1.619 -0.6892  1.5988 -0.5708
   13CHTO   O49 5232   5.247   4.874   1.541 -0.0686  0.2481 -0.1012
   13CHTO   C77 5233   5.203   4.800   1.431  0.3183  0.8772  0.0334
   13CHTO  H149 5234   5.114   4.744   1.462 -0.0662  0.0778 -2.3737
   13CHTO   C88 5235   5.312   4.694   1.397  0.3418  0.5787 -0.2909
   13CHTO   O58 5236   5.269   4.623   1.269  0.2683 -0.1644  0.2911
   13CHTO  H136 5237   5.310   4.661   1.194  2.4364 -1.6231  0.6936
   13CHTO   O51 5238   5.226   5.038   1.736 -0.4118  0.0561 -0.8755
   13CHTO   C78 5239   5.406   5.088   1.745 -0.3456 -0.1182 -0.0248
   13CHTO  H150 5240   5.440   5.110   1.848  2.8296  2.8575 -1.6164
   13CHTO   C80 5241   5.430   5.210   1.658 -0.4327  0.1143 -0.5378
   13CHTO  H152 5242   5.383   5.188   1.560 -0.0220  1.8448 -1.1358
   13CHTO   O55 5243   5.345   5.313   1.713 -0.4861 -0.3142 -0.6733
   13CHTO  H134 5244   5.387   5.359   1.783 -1.7520  0.4428 -0.3976
   13CHTO   C84 5245   5.581   5.260   1.651 -0.1269  0.1456  0.1612
   13CHTO  H156 5246   5.610   5.298   1.748 -1.2288 -1.1871  1.0322
   13CHTO   N15 5247   5.587   5.370   1.545  0.3733 -0.3003 -0.1313
   13CHTO  H143 5248   5.681   5.394   1.501 -0.0354 -0.9177 -1.3786
   13CHTO  H144 5249   5.543   5.463   1.574 -0.2967 -0.5347 -0.3681
   13CHTO   C87 5250   5.668   5.142   1.608 -0.4717  0.7408 -0.2989
   13CHTO  H159 5251   5.656   5.113   1.503  0.4895 -1.1206  0.0863
   13CHTO   O53 5252   5.632   5.009   1.715  0.2361  0.2760 -0.5499
   13CHTO   C82 5253   5.500   4.970   1.706 -0.2770 -0.7684  0.3852
   13CHTO  H154 5254   5.477   4.948   1.602  1.5518 -1.0787  0.0359
   13CHTO   C89 5255   5.473   4.846   1.788 -0.0795  0.2888  1.0994
   13CHTO   O59 5256   5.549   4.734   1.735 -0.2382 -0.8126 -0.3609
   13CHTO  H137 5257   5.510   4.720   1.652  0.3970 -0.8458 -0.6598
   13CHTO   O45 5258   5.825   5.183   1.622 -0.1387  0.5108  0.5685
   13CHTO   C67 5259   5.922   5.091   1.661 -0.1706 -0.1706 -0.1887
   13CHTO  H124 5260   5.880   4.993   1.636  0.0159 -0.4216  0.4541
   13CHTO   C65 5261   6.063   5.112   1.594  0.9217  0.0887  0.4605
   13CHTO  H122 5262   6.045   5.125   1.487 -1.0285 -3.6589  0.2557
   13CHTO   O44 5263   6.142   4.995   1.613  0.3952 -0.0221 -0.1964
   13CHTO  H102 5264   6.174   4.972   1.528  0.8474  0.1389 -0.0689
   13CHTO   C63 5265   6.118   5.251   1.638 -0.2489 -0.2432 -0.4729
   13CHTO  H120 5266   6.038   5.325   1.627  1.2016  1.2470 -1.1321
   13CHTO   N11 5267   6.221   5.319   1.548  0.0799  0.2675  0.2319
   13CHTO  H108 5268   6.313   5.266   1.556 -0.1155  0.0824  1.3172
   13CHTO  H109 5269   6.174   5.311   1.452 -0.9542  0.7499  0.6921
   13CHTO   C61 5270   6.141   5.250   1.796  0.6139 -0.3230 -0.4525
   13CHTO  H118 5271   6.163   5.351   1.832 -1.4021 -0.5194  1.4045
   13CHTO   O40 5272   6.018   5.205   1.869 -0.2775  0.1856  0.1914
   13CHTO   C68 5273   5.932   5.093   1.822  0.0231 -0.6097 -0.0357
   13CHTO  H125 5274   5.826   5.109   1.851 -0.2680 -0.7553 -0.9941
   13CHTO   C72 5275   5.980   4.965   1.877  0.7015  0.1217 -0.4793
   13CHTO   O48 5276   5.897   4.848   1.871 -0.2855  0.4344 -0.0365
   13CHTO  H105 5277   5.813   4.865   1.833  0.3342  0.1494 -1.5491
   13CHTO   O38 5278   6.243   5.155   1.835 -0.1030 -0.8161  0.2107
   13CHTO   C55 5279   6.322   5.171   1.955 -0.0908 -0.5654  0.4572
   13CHTO  H112 5280   6.360   5.069   1.967  2.1410  0.1429 -0.4471
   13CHTO   C56 5281   6.251   5.224   2.082  0.6057 -0.0457 -0.0391
   13CHTO  H113 5282   6.199   5.318   2.057  0.9401  0.1629  0.0392
   13CHTO   O42 5283   6.155   5.127   2.130 -0.3095 -0.1353  0.0462
   13CHTO  H100 5284   6.189   5.046   2.164 -0.3042 -0.4991 -0.8361
   13CHTO   C57 5285   6.355   5.256   2.198  0.3924  0.2557 -0.1260
   13CHTO  H114 5286   6.395   5.166   2.245 -1.6481 -0.7445 -0.2545
   13CHTO   N10 5287   6.294   5.329   2.318  0.3590  0.3874  1.1572
   13CHTO  H106 5288   6.299   5.436   2.302 -1.0049  0.3298  0.2419
   13CHTO  H107 5289   6.194   5.299   2.342  1.2531 -2.8032  1.0349
   13CHTO   C58 5290   6.475   5.346   2.145  0.3409 -0.1960  0.2057
   13CHTO  H115 5291   6.439   5.448   2.122 -2.1785 -0.9493  0.6268
   13CHTO   O37 5292   6.533   5.276   2.037  0.1796  0.1545  0.3632
   13CHTO   C59 5293   6.454   5.252   1.923 -1.0463 -0.4422  0.1994
   13CHTO  H116 5294   6.418   5.349   1.888  0.1857 -0.3437 -0.8278
   13CHTO   C70 5295   6.542   5.179   1.818 -0.1170 -0.7859  0.3288
   13CHTO   O46 5296   6.484   5.178   1.696 -0.4970 -0.7905 -0.0760
   13CHTO  H103 5297   6.501   5.099   1.649 -0.1635 -0.8395  0.1272
   13CHTO   O39 5298   6.605   5.352   2.238  0.1084  0.3865  0.3320
   13CHTO   C60 5299   6.660   5.485   2.234  0.7586  0.1000 -0.4535
   13CHTO  H117 5300   6.632   5.529   2.138  2.6267 -0.8483 -1.4477
   13CHTO   C62 5301   6.617   5.583   2.349  0.1740 -0.5692  0.4394
   13CHTO  H119 5302   6.508   5.604   2.341 -0.0616 -1.8675  0.2090
   13CHTO   O43 5303   6.644   5.533   2.480 -0.8509  0.2298 -0.7548
   13CHTO  H101 5304   6.626   5.600   2.542  0.7794 -1.4327  1.6069
   13CHTO   C66 5305   6.700   5.716   2.312  0.3861  0.2523  0.1446
   13CHTO  H123 5306   6.679   5.751   2.211 -0.5445 -1.2305 -0.1913
   13CHTO   N12 5307   6.663   5.833   2.396  0.8116 -0.2541 -0.2887
   13CHTO  H110 5308   6.614   5.911   2.340 -1.5197  0.0480  2.0839
   13CHTO  H111 5309   6.609   5.821   2.489 -0.7450  3.2681 -0.6404
   13CHTO   C69 5310   6.856   5.685   2.319 -0.3555 -0.4801 -0.2717
   13CHTO  H126 5311   6.884   5.642   2.418  1.7611 -0.1444 -0.7010
   13CHTO   O41 5312   6.878   5.590   2.211 -0.0634  0.5059 -0.1827
   13CHTO   C64 5313   6.812   5.470   2.233  0.3217  0.0294 -0.3652
   13CHTO  H121 5314   6.835   5.426   2.332  0.4075  1.3161  0.1982
   13CHTO   C71 5315   6.860   5.361   2.127  0.4762 -1.1078  0.0672
   13CHTO   O47 5316   6.999   5.336   2.141 -0.0192  0.2942  0.2299
   13CHTO  H104 5317   7.043   5.304   2.064 -1.9532 -2.1852  0.0728
   13CHTO   O34 5318   6.940   5.808   2.289 -0.2073  0.2571 -0.1760
   13CHTO   C49 5319   7.081   5.816   2.290 -0.1441 -0.3768  0.0834
   13CHTO   H91 5320   7.118   5.717   2.263  0.3423 -0.7820  2.1897
   13CHTO   C47 5321   7.139   5.861   2.424  0.4970 -0.0008 -0.0268
   13CHTO   H89 5322   7.249   5.862   2.417  0.6318 -0.2271  1.6720
   13CHTO   O33 5323   7.097   5.767   2.526 -0.1269 -0.3016  0.1609
   13CHTO   H70 5324   7.157   5.763   2.598  0.3673  0.9612 -0.1623
   13CHTO   C45 5325   7.102   6.012   2.473  0.0568  0.1530  0.2133
   13CHTO   H87 5326   7.017   6.010   2.544 -0.0635  2.4930  0.1641
   13CHTO    N8 5327   7.220   6.080   2.541  0.0570  0.5453 -0.3470
   13CHTO   H75 5328   7.173   6.169   2.579  1.3360  1.3213 -0.5627
   13CHTO   H76 5329   7.248   6.011   2.619 -0.9753 -2.5648 -2.6191
   13CHTO   C43 5330   7.053   6.091   2.337  0.2436 -0.2263  0.1117
   13CHTO   H85 5331   6.949   6.062   2.319  0.1953  0.9438 -1.6234
   13CHTO   O29 5332   7.140   6.051   2.226  0.5099  0.0062 -0.6384
   13CHTO   C50 5333   7.135   5.917   2.184  0.5301 -0.8699  0.1111
   13CHTO   H92 5334   7.065   5.913   2.099 -2.1615  1.6484  2.0886
   13CHTO   C54 5335   7.270   5.872   2.122 -0.0858  0.1037 -0.4501
   13CHTO   O36 5336   7.304   5.926   1.991 -0.4755 -0.3366 -0.2150
   13CHTO   H72 5337   7.397   5.927   1.980 -0.2517 -1.1977  1.4055
   13CHTO   O27 5338   7.040   6.234   2.339  0.2718 -0.2955 -0.0328
   13CHTO   C37 5339   6.951   6.344   2.384  0.1483  0.2407 -0.5012
   13CHTO   H79 5340   6.877   6.305   2.456  0.7809  2.3771  1.3749
   13CHTO   C38 5341   7.039   6.453   2.451  0.0734 -0.5130 -0.4569
   13CHTO   H80 5342   7.129   6.475   2.390  1.9813 -0.7975  2.1711
   13CHTO   O31 5343   7.095   6.402   2.572 -0.0400 -0.0471 -0.0709
   13CHTO   H68 5344   7.149   6.327   2.557 -1.5227 -0.8862 -1.3813
   13CHTO   C39 5345   6.968   6.592   2.482  0.0999 -0.4097  1.0790
   13CHTO   H81 5346   6.900   6.570   2.564 -2.5036  1.2028 -0.5987
   13CHTO    N7 5347   7.054   6.708   2.523 -0.6151 -0.5256 -0.0953
   13CHTO   H73 5348   6.988   6.787   2.557 -2.4182 -2.0133 -0.0863
   13CHTO   H74 5349   7.121   6.743   2.446 -0.4009  1.6300  1.0237
   13CHTO   C40 5350   6.871   6.633   2.368 -0.0531  0.4813  0.0411
   13CHTO   H82 5351   6.922   6.674   2.280  1.0662 -1.2289 -0.1362
   13CHTO   O26 5352   6.795   6.513   2.330  0.4326 -0.3287 -0.4401
   13CHTO   C41 5353   6.870   6.402   2.264 -0.1301 -0.0066  0.3014
   13CHTO   H83 5354   6.925   6.446   2.179 -1.6315  1.0573 -0.1508
   13CHTO   C52 5355   6.764   6.302   2.205  0.7520 -0.7580  0.0245
   13CHTO   O35 5356   6.686   6.236   2.307  0.0220  0.2936  0.2818
   13CHTO   H71 5357   6.663   6.152   2.272 -0.0859  0.7863 -0.8580
   13CHTO   O28 5358   6.758   6.713   2.417 -0.0437 -0.7134  0.3091
   13CHTO   C42 5359   6.699   6.824   2.340 -0.0925 -0.2313 -0.3461
   13CHTO   H84 5360   6.712   6.797   2.235  0.1987 -1.7659  0.0831
   13CHTO   C44 5361   6.759   6.962   2.356  0.4658  0.3010 -0.0310
   13CHTO   H86 5362   6.743   6.992   2.460  2.6264  2.0934 -0.1862
   13CHTO   O32 5363   6.901   6.955   2.327 -0.1585 -0.6912 -0.5320
   13CHTO   H69 5364   6.918   6.944   2.236 -1.5195  0.4856 -0.9368
   13CHTO   C48 5365   6.695   7.077   2.271 -0.0341  0.2468 -0.6297
   13CHTO   H90 5366   6.705   7.050   2.166 -0.1136 -1.2863 -0.2632
   13CHTO    N9 5367   6.760   7.209   2.282  0.1315  0.7110  0.0708
   13CHTO   H77 5368   6.846   7.209   2.347  1.0035  1.2331 -1.0808
   13CHTO   H78 5369   6.793   7.251   2.189  3.3408  1.6786  1.5909
   13CHTO   C51 5370   6.538   7.084   2.303 -0.1068 -0.3609 -0.3311
   13CHTO   H93 5371   6.525   7.109   2.408 -0.5561 -0.8095 -0.2757
   13CHTO   O30 5372   6.490   6.951   2.272 -0.0904  0.6294  0.1513
   13CHTO   C46 5373   6.544   6.839   2.366 -0.3501 -0.2287  0.1160
   13CHTO   H88 5374   6.516   6.878   2.464 -2.1740 -0.2824 -0.3678
   13CHTO   C53 5375   6.462   6.713   2.334  0.2081 -0.3000 -0.0582
   13CHTO   O72 5376   6.474   6.683   2.197  0.1735  0.3991  0.7879
   13CHTO  H199 5377   6.501   6.595   2.177 -2.4799  0.0094 -1.4503
   13CHTO   O22 5378   6.473   7.164   2.208 -0.0611  0.2460  0.1144
   13CHTO   C31 5379   6.332   7.210   2.208  0.3977 -0.0166  0.1416
   13CHTO   H59 5380   6.322   7.282   2.124 -0.0441  0.6750  0.7775
   13CHTO   C29 5381   6.237   7.095   2.173  0.1888 -0.4185  0.7705
   13CHTO   H57 5382   6.246   7.005   2.236 -1.7791 -1.8978 -0.9679
   13CHTO   O21 5383   6.278   7.055   2.036 -0.1764  0.0607  0.1535
   13CHTO   H37 5384   6.276   7.126   1.975  2.6555 -0.3574 -0.5241
   13CHTO   C27 5385   6.082   7.142   2.185 -0.5687  0.2461  0.5127
   13CHTO   H55 5386   6.060   7.216   2.106 -2.0331  0.0540  0.7198
   13CHTO    N5 5387   6.007   7.025   2.160  0.0027  0.1057 -0.1237
   13CHTO   H43 5388   6.036   6.961   2.242  2.3885  1.6143  0.2497
   13CHTO   H44 5389   5.900   7.042   2.164 -0.3914 -2.6633  3.3303
   13CHTO   C25 5390   6.060   7.208   2.321 -0.4752  0.6162  0.7038
   13CHTO   H53 5391   6.088   7.139   2.402  0.7458 -0.8267 -0.9338
   13CHTO   O17 5392   6.141   7.329   2.319  0.1342 -0.4933 -0.1000
   13CHTO   C32 5393   6.283   7.286   2.335  0.8750 -0.3707 -0.0481
   13CHTO   H60 5394   6.285   7.217   2.418  0.7583  0.9873  1.1058
   13CHTO   C36 5395   6.360   7.418   2.367  0.5475 -0.8185  0.2491
   13CHTO   O25 5396   6.327   7.506   2.473 -0.5176  0.1174 -0.2817
   13CHTO   H40 5397   6.234   7.518   2.479 -0.4863  0.8624 -1.2165
   13CHTO   O15 5398   5.901   7.257   2.342  0.3688  0.3607  0.4002
   13CHTO   C19 5399   5.792   7.329   2.280  0.4224 -0.2460 -0.4373
   13CHTO   H47 5400   5.741   7.390   2.356  0.2720 -0.8346 -0.0541
   13CHTO   C20 5401   5.819   7.416   2.155  0.2262  0.2468 -0.7592
   13CHTO   H48 5402   5.854   7.356   2.069  1.5457  1.3543 -1.0118
   13CHTO   O19 5403   5.925   7.504   2.202 -0.3996 -0.4769  0.1890
   13CHTO   H35 5404   5.906   7.549   2.282  2.3562  3.3985 -1.1811
   13CHTO   C21 5405   5.685   7.485   2.106 -0.3961  0.2851 -0.3589
   13CHTO   H49 5406   5.652   7.549   2.187 -0.4134  1.6095 -1.3912
   13CHTO    N4 5407   5.701   7.574   1.988  0.1777 -0.2600  0.4228
   13CHTO   H41 5408   5.805   7.600   1.977  0.4663 -1.3256  0.6771
   13CHTO   H42 5409   5.638   7.662   1.983 -1.2029 -1.2745 -0.3986
   13CHTO   C22 5410   5.570   7.377   2.088 -0.1740  0.6137  0.0655
   13CHTO   H50 5411   5.606   7.324   1.999  1.0303  1.4044  0.0662
   13CHTO   O14 5412   5.554   7.288   2.200 -0.1594  0.5180  0.3060
   13CHTO   C23 5413   5.676   7.227   2.237  0.3364  1.0237 -0.0174
   13CHTO   H51 5414   5.701   7.166   2.149 -0.6618 -1.4842  1.3698
   13CHTO   C34 5415   5.644   7.123   2.352 -0.8203 -0.1460  0.4352
   13CHTO   O23 5416   5.616   6.995   2.290  0.2031 -0.0809 -0.0056
   13CHTO   H38 5417   5.637   6.935   2.358 -2.5579 -0.3854  0.6213
   13CHTO   O16 5418   5.438   7.429   2.054 -0.2548 -0.1228 -0.6782
   13CHTO   C24 5419   5.300   7.359   2.060 -0.7582  0.1475  0.3201
   13CHTO   H52 5420   5.297   7.285   2.140 -0.3397 -1.1481 -0.8328
   13CHTO   C26 5421   5.259   7.293   1.926 -0.5009  0.1808  0.0351
   13CHTO   H54 5422   5.273   7.363   1.841 -2.8149  1.3490  0.5696
   13CHTO   O20 5423   5.358   7.192   1.904 -0.3364 -0.3443 -0.0361
   13CHTO   H36 5424   5.347   7.144   1.825  2.1524  1.0267 -1.2575
   13CHTO   C30 5425   5.111   7.241   1.943  0.9628  0.2589  0.6710
   13CHTO   H58 5426   5.115   7.151   2.006 -0.8551 -0.7111 -0.5311
   13CHTO    N6 5427   5.060   7.184   1.811 -0.1337 -1.0755 -0.1909
   13CHTO   H45 5428   5.038   7.262   1.740  2.4070  0.8734  1.0378
   13CHTO   H46 5429   5.130   7.111   1.774  1.0121 -0.2255  0.2383
   13CHTO   C33 5430   5.010   7.344   2.006  0.0188 -0.3704  0.3903
   13CHTO   H61 5431   4.983   7.414   1.926  1.3682  0.3416  0.5445
   13CHTO   O18 5432   5.071   7.416   2.112 -0.2789 -0.2152 -0.1737
   13CHTO   C28 5433   5.203   7.470   2.097  0.4200 -0.1085  0.3653
   13CHTO   H56 5434   5.206   7.552   2.025 -0.6096  0.8138  1.3395
   13CHTO   C35 5435   5.239   7.531   2.231  0.6200  0.0230 -0.0050
   13CHTO   O24 5436   5.149   7.636   2.274  0.0039  0.1465  0.3753
   13CHTO   H39 5437   5.162   7.659   2.364  1.0362  3.2236 -0.5040
   13CHTO    O9 5438   4.887   7.281   2.043 -0.1604 -1.0551  0.7522
   13CHTO   C13 5439   4.897   7.150   2.147  0.3230  0.0024  0.7682
   13CHTO   H26 5440   5.003   7.117   2.156  1.3876  2.8851 -0.7996
   13CHTO   C11 5441   4.810   7.049   2.080 -0.0454  0.8091 -0.6216
   13CHTO   H24 5442   4.844   7.042   1.975 -0.0232 -1.9171 -0.4672
   13CHTO    O8 5443   4.679   7.100   2.084  0.4023  0.2636 -0.0866
   13CHTO    H3 5444   4.678   7.156   2.010  1.7608  1.2844  0.6450
   13CHTO    C9 5445   4.831   6.921   2.167 -0.5106  0.5447 -0.0704
   13CHTO   H22 5446   4.934   6.887   2.147 -0.6935  0.5475 -1.0463
   13CHTO    N2 5447   4.758   6.804   2.108 -0.0393 -0.9940 -0.1199
   13CHTO   H10 5448   4.812   6.776   2.018  0.1713 -1.3821  0.1262
   13CHTO   H11 5449   4.659   6.836   2.079  0.6960  3.4515  1.9467
   13CHTO    C7 5450   4.810   6.939   2.316 -0.3124  0.2767  0.4451
   13CHTO   H20 5451   4.912   6.920   2.357  0.1050  0.4538 -0.4914
   13CHTO    O4 5452   4.763   7.075   2.345  0.3397 -0.3852  0.3191
   13CHTO   C14 5453   4.855   7.184   2.301  0.2853  0.4255 -0.2904
   13CHTO   H27 5454   4.937   7.191   2.376  0.4352 -0.6598 -0.3419
   13CHTO   C18 5455   4.776   7.319   2.309  0.4199  0.5951 -0.1467
   13CHTO   O13 5456   4.854   7.441   2.296 -0.2190 -0.0602  0.0012
   13CHTO    H7 5457   4.792   7.508   2.276 -0.7993 -0.8036 -0.7091
   13CHTO    O2 5458   4.693   6.832   2.391 -0.0336 -0.6093 -0.0131
   13CHTO    C1 5459   4.676   6.856   2.526 -0.0256 -0.5051 -0.5600
   13CHTO   H14 5460   4.721   6.956   2.547 -1.8602 -0.0810  1.5526
   13CHTO    C2 5461   4.749   6.754   2.615  0.2466 -0.2362 -0.3001
   13CHTO   H15 5462   4.706   6.659   2.582 -1.1035  0.3830 -0.3485
   13CHTO    O6 5463   4.894   6.764   2.596 -1.0238 -0.3148 -0.2098
   13CHTO    H1 5464   4.944   6.690   2.624 -0.4877  0.3143  0.5155
   13CHTO    C3 5465   4.708   6.788   2.761 -0.7191 -0.1175  0.9991
   13CHTO   H16 5466   4.754   6.883   2.792  2.1238 -1.0522 -0.1344
   13CHTO    N1 5467   4.767   6.694   2.868  0.0247 -0.5698 -0.2123
   13CHTO    H8 5468   4.824   6.752   2.939  1.9698 -0.7572 -1.5679
   13CHTO    H9 5469   4.826   6.613   2.826  1.3345 -0.6327  1.6763
   13CHTO    C4 5470   4.552   6.797   2.783  0.1296  0.6058  0.0143
   13CHTO   H17 5471   4.513   6.695   2.793 -0.6007  0.8202 -0.6601
   13CHTO    O1 5472   4.478   6.868   2.684 -0.2635  0.1617  0.3607
   13CHTO    C5 5473   4.524   6.860   2.548 -0.3966  0.0117  0.4544
   13CHTO   H18 5474   4.483   6.769   2.505 -0.9301 -0.6597  2.3371
   13CHTO   C16 5475   4.465   6.974   2.474  0.3533  1.0067 -0.1042
   13CHTO   O11 5476   4.500   7.106   2.523  0.1419 -0.1322 -0.1417
   13CHTO    H5 5477   4.420   7.153   2.539 -0.6896 -2.0780  1.6333
   13CHTO    O3 5478   4.534   6.871   2.910  0.0974 -0.4166 -0.0491
   13CHTO    C6 5479   4.403   6.871   2.974  0.3505  0.3473 -0.0317
   13CHTO   H19 5480   4.321   6.838   2.909  0.6849 -0.5614  0.0029
   13CHTO    C8 5481   4.404   6.785   3.105 -0.3042 -0.2125 -0.2281
   13CHTO   H21 5482   4.485   6.823   3.167 -1.4449  2.3959 -0.2789
   13CHTO    O7 5483   4.434   6.651   3.068  0.6111 -0.7803  0.1345
   13CHTO    H2 5484   4.358   6.613   3.027  0.8352  1.2510 -2.2548
   13CHTO   C12 5485   4.269   6.805   3.185 -0.1180 -0.1698 -0.5797
   13CHTO   H25 5486   4.196   6.746   3.126  1.0870 -1.5020 -0.7791
   13CHTO    N3 5487   4.273   6.744   3.320 -0.1743  0.6800  0.1627
   13CHTO   H12 5488   4.310   6.643   3.305 -2.3433  0.0866 -1.4497
   13CHTO   H13 5489   4.332   6.802   3.390 -1.0607 -1.1732  2.5273
   13CHTO   C15 5490   4.227   6.950   3.198  0.1256 -0.3879 -0.2479
   13CHTO   H28 5491   4.286   7.008   3.269 -2.5113  2.1168  0.0048
   13CHTO   O10 5492   4.071   6.982   3.250  0.4446  0.3610 -0.2211
   13CHTO    H4 5493   4.079   7.040   3.324  0.5736  0.4023 -0.2660
   13CHTO    O5 5494   4.235   7.012   3.067  0.0034  0.6222 -0.2172
   13CHTO   C10 5495   4.367   7.020   3.006 -0.6802  0.7734 -0.0424
   13CHTO   H23 5496   4.442   7.057   3.076  0.7790 -0.6138 -0.8443
   13CHTO   C17 5497   4.349   7.127   2.895 -0.1444  0.3251 -0.3383
   13CHTO   O12 5498   4.468   7.165   2.825 -0.3590 -0.0543 -0.3836
   13CHTO    H6 5499   4.462   7.187   2.734 -1.5290  1.3828  0.0270
   14CHTO  H203 5500   7.207   4.996   1.842  0.0184  0.4565 -0.8680
   14CHTO   O82 5501   7.187   4.905   1.831  0.0434  0.4131 -0.5796
   14CHTO  C123 5502   7.079   4.894   1.737  0.0940  0.0884  0.6172
   14CHTO  H227 5503   7.111   4.946   1.645  0.6465  0.5846  1.0814
   14CHTO   O77 5504   7.078   4.755   1.692 -0.1966  0.2641 -0.4570
   14CHTO  C118 5505   6.980   4.729   1.589  0.2001  0.0479  0.0379
   14CHTO  H222 5506   7.014   4.790   1.504  0.0911 -0.7995 -0.6232
   14CHTO  C125 5507   6.997   4.582   1.550 -0.0428 -1.0443  0.0508
   14CHTO   O84 5508   6.945   4.570   1.413  0.0001 -0.1540  0.6714
   14CHTO  H205 5509   6.980   4.496   1.368 -2.0372 -0.3651 -0.6377
   14CHTO  C114 5510   6.836   4.765   1.641  0.0706  0.2774 -0.3862
   14CHTO  H218 5511   6.807   4.696   1.720  0.3710 -1.5892 -1.8674
   14CHTO  C116 5512   6.823   4.913   1.698  0.0782 -0.5445  0.8016
   14CHTO  H220 5513   6.824   4.987   1.615  0.9457 -0.1797  1.1243
   14CHTO   O79 5514   6.690   4.932   1.750 -0.4839  0.1665  0.0938
   14CHTO  H201 5515   6.626   4.957   1.686 -0.3929  0.4796  0.1212
   14CHTO  C120 5516   6.937   4.942   1.801  0.2330  0.2813  0.0932
   14CHTO  H224 5517   6.917   4.878   1.890  0.4033  0.6950  0.4290
   14CHTO   N21 5518   6.940   5.087   1.840  0.1355 -0.1688 -0.4806
   14CHTO  H211 5519   6.974   5.158   1.766 -0.8710  2.1938  1.2433
   14CHTO  H212 5520   7.006   5.082   1.926  0.2568 -1.8344 -0.6614
   14CHTO   O75 5521   6.761   4.752   1.514 -0.1824 -0.3245 -0.1332
   14CHTO  C112 5522   6.625   4.699   1.541 -0.3848 -0.2251 -0.4233
   14CHTO  H216 5523   6.584   4.755   1.627 -1.2972  0.8451 -1.5313
   14CHTO   O73 5524   6.627   4.556   1.566 -0.5464 -0.6026  0.2941
   14CHTO  C113 5525   6.499   4.495   1.598 -0.0753  0.1444  0.7951
   14CHTO  H217 5526   6.469   4.536   1.697 -1.1782  1.5668 -0.0965
   14CHTO  C124 5527   6.520   4.346   1.615  0.0639 -0.0239  0.0407
   14CHTO   O83 5528   6.408   4.270   1.661  0.3209  0.2211  0.1232
   14CHTO  H204 5529   6.373   4.307   1.740  0.4520  0.6026  0.0027
   14CHTO  C109 5530   6.403   4.522   1.484 -0.2596  0.3757 -0.6812
   14CHTO  H213 5531   6.433   4.457   1.401  1.1656  0.7286 -0.4614
   14CHTO  C110 5532   6.392   4.672   1.441  0.1918  0.5616 -0.4530
   14CHTO  H214 5533   6.336   4.735   1.510  0.1006  0.9154 -0.8461
   14CHTO   O78 5534   6.314   4.667   1.330 -0.0603 -0.3109  0.4117
   14CHTO  H200 5535   6.262   4.745   1.330  0.8914  0.3335 -0.7940
   14CHTO  C111 5536   6.532   4.733   1.417 -1.5343  0.5810  0.0690
   14CHTO  H215 5537   6.580   4.687   1.330 -1.0738 -0.5444  0.9081
   14CHTO   N19 5538   6.514   4.876   1.385  0.3698  0.2620 -1.0150
   14CHTO  H207 5539   6.470   4.888   1.288 -0.8596  0.1150 -0.4806
   14CHTO  H208 5540   6.607   4.930   1.380  0.0781  0.6972 -1.8809
   14CHTO   O74 5541   6.266   4.471   1.527 -0.0352 -0.3431 -0.0410
   14CHTO  C115 5542   6.173   4.378   1.409 -0.0831 -0.2083 -0.0779
   14CHTO  H219 5543   6.182   4.423   1.310  0.6133 -0.5399 -0.1663
   14CHTO   O76 5544   6.226   4.248   1.397 -0.2576 -0.1255  0.1062
   14CHTO  C122 5545   6.145   4.136   1.354  1.4415 -0.3545 -0.4198
   14CHTO  H226 5546   6.184   4.047   1.403  0.3760 -0.8511 -0.4776
   14CHTO  C126 5547   6.169   4.107   1.203  0.0860  0.0191 -0.3009
   14CHTO   O85 5548   6.108   4.199   1.111  0.2132 -0.1402 -0.1331
   14CHTO  H206 5549   6.015   4.204   1.123  0.5398 -0.1274  2.5285
   14CHTO  C121 5550   5.991   4.142   1.398 -0.1835  0.1649  0.3246
   14CHTO  H225 5551   5.934   4.070   1.335  0.8452 -0.0316 -0.3987
   14CHTO   O81 5552   5.969   4.087   1.529 -0.2475  0.0392 -0.0309
   14CHTO  H202 5553   6.009   4.002   1.530  1.5960  0.9024  0.7738
   14CHTO  C119 5554   5.934   4.280   1.381  0.5379 -0.4965 -0.8741
   14CHTO  H223 5555   5.945   4.305   1.276 -1.9166  0.6292 -0.8978
   14CHTO  C117 5556   6.023   4.375   1.467 -0.2916  0.2952  0.3346
   14CHTO  H221 5557   6.037   4.359   1.574 -0.2620 -3.3559 -0.1702
   14CHTO   N20 5558   5.967   4.516   1.449  0.0404  0.6711 -0.1085
   14CHTO  H209 5559   5.941   4.552   1.547 -1.1901 -0.2718 -0.0764
   14CHTO  H210 5560   6.044   4.581   1.410  2.2422 -1.2905  0.8588
   14CHTO   O80 5561   5.767   4.288   1.407  0.4185 -0.4845 -0.8056
   14CHTO  C103 5562   5.656   4.194   1.302  0.7238 -0.2061 -0.0413
   14CHTO  H190 5563   5.698   4.170   1.204  0.8397  0.2784 -0.1127
   14CHTO  C101 5564   5.589   4.060   1.356  0.3274 -0.5879  0.2614
   14CHTO  H188 5565   5.550   4.069   1.458 -1.7808  0.6836 -0.6317
   14CHTO   O68 5566   5.705   3.953   1.369 -0.8201  0.0871  0.1575
   14CHTO  H168 5567   5.731   3.919   1.285  0.2999 -0.6406  0.7974
   14CHTO   C99 5568   5.459   4.024   1.265 -0.2304 -0.4289  0.2499
   14CHTO  H186 5569   5.496   4.003   1.163 -1.8401 -0.5634 -0.3075
   14CHTO   N17 5570   5.395   3.901   1.308  0.3404  0.4229 -0.0133
   14CHTO  H174 5571   5.314   3.880   1.239  0.6780 -0.2135 -0.2203
   14CHTO  H175 5572   5.456   3.813   1.324 -0.2049  0.2446  1.2022
   14CHTO   C97 5573   5.369   4.146   1.251 -0.1487  0.8122 -0.5292
   14CHTO  H184 5574   5.341   4.165   1.355  2.1591  0.9758  0.0837
   14CHTO   O64 5575   5.449   4.257   1.197  0.1136 -0.5684  0.9974
   14CHTO  C104 5576   5.547   4.304   1.285  0.4704  0.4510  0.3124
   14CHTO  H191 5577   5.512   4.330   1.385 -0.9457 -2.7969  0.7053
   14CHTO  C108 5578   5.618   4.429   1.226  0.2133 -0.2072  0.1858
   14CHTO   O71 5579   5.531   4.537   1.189 -0.0365 -0.6786  0.1189
   14CHTO  H171 5580   5.487   4.507   1.112  0.7923 -1.3163 -0.1101
   14CHTO   O62 5581   5.255   4.127   1.173  0.1317  0.2316  0.3347
   14CHTO   C91 5582   5.130   4.187   1.209  0.5581  0.5162 -0.2836
   14CHTO  H178 5583   5.072   4.123   1.275  0.8931  0.2898 -0.2089
   14CHTO   C92 5584   5.051   4.171   1.070 -0.0476 -0.0146  0.3729
   14CHTO  H179 5585   5.070   4.070   1.031  0.0190 -1.1349  3.1983
   14CHTO   O66 5586   4.907   4.164   1.094  0.1644 -0.3416 -0.1756
   14CHTO  H166 5587   4.892   4.077   1.126  3.0541 -0.5324  0.8796
   14CHTO   C93 5588   5.065   4.288   0.965 -0.6345 -1.1777 -0.2487
   14CHTO  H180 5589   4.969   4.291   0.911 -1.2036  0.9397  0.8198
   14CHTO   N16 5590   5.170   4.262   0.862  0.0852 -0.5822 -0.3983
   14CHTO  H172 5591   5.210   4.161   0.862  2.2303  0.2225  1.2447
   14CHTO  H173 5592   5.153   4.304   0.764 -2.6928  0.4758  0.5084
   14CHTO   C94 5593   5.100   4.427   1.030 -0.1727 -0.1261 -0.8947
   14CHTO  H181 5594   5.207   4.445   1.028  0.1727 -2.1151 -2.8049
   14CHTO   O61 5595   5.062   4.427   1.166 -0.0825  0.1338  0.0960
   14CHTO   C95 5596   5.136   4.337   1.258 -0.3082 -0.5843 -0.1120
   14CHTO  H182 5597   5.237   4.374   1.276  0.4940 -3.1534  0.8167
   14CHTO  C106 5598   5.073   4.343   1.405  0.9559 -0.3112 -0.3926
   14CHTO   O69 5599   5.131   4.249   1.494  0.8080  0.0217 -0.6369
   14CHTO  H169 5600   5.121   4.284   1.581 -0.6619 -0.9990 -0.3903
   14CHTO   O63 5601   5.020   4.534   0.941  0.1536  0.1503 -0.3029
   14CHTO   C96 5602   4.966   4.668   1.014  0.2495  0.2256 -0.3613
   14CHTO  H183 5603   5.026   4.678   1.104  0.5666  2.2237 -0.7907
   14CHTO   C98 5604   4.812   4.664   1.057  0.2000  0.4099 -0.1257
   14CHTO  H185 5605   4.757   4.637   0.966 -2.6088  1.0917  1.3304
   14CHTO   O67 5606   4.788   4.557   1.149  0.4929  0.5112  0.3127
   14CHTO  H167 5607   4.726   4.493   1.119  0.7018  1.3279 -1.9326
   14CHTO  C102 5608   4.765   4.805   1.124 -0.3017 -0.9274  0.1041
   14CHTO  H189 5609   4.822   4.806   1.218 -0.5158  0.0254  0.2296
   14CHTO   N18 5610   4.620   4.827   1.157 -0.5337 -0.8333 -0.5548
   14CHTO  H176 5611   4.576   4.923   1.134  0.6509 -0.3957 -1.0284
   14CHTO  H177 5612   4.589   4.787   1.252 -0.8992 -1.7272 -1.0495
   14CHTO  C105 5613   4.815   4.925   1.032  0.2108 -0.4995  0.4129
   14CHTO  H192 5614   4.745   4.942   0.950  1.3823 -2.4790 -1.0468
   14CHTO   O65 5615   4.953   4.913   0.981  0.5569  0.5338 -0.8209
   14CHTO  C100 5616   4.991   4.790   0.917 -0.6633 -0.1035 -0.4890
   14CHTO  H187 5617   4.936   4.774   0.823 -1.0266 -2.7783  0.1260
   14CHTO  C107 5618   5.144   4.786   0.880 -0.2059  0.0072 -0.3272
   14CHTO   O70 5619   5.159   4.881   0.773  0.3660  0.4823 -0.0141
   14CHTO  H170 5620   5.242   4.871   0.731  0.9327 -3.4240  1.7914
   14CHTO   O57 5621   4.819   5.035   1.126  0.5125  0.7271  0.1031
   14CHTO   C85 5622   4.770   5.164   1.090  0.1107  0.3095  0.0207
   14CHTO  H157 5623   4.668   5.146   1.051 -0.9002  0.0114  2.6820
   14CHTO   C83 5624   4.851   5.231   0.975  0.0510 -0.1338  0.1111
   14CHTO  H155 5625   4.842   5.163   0.890 -0.2123  2.3578 -1.9212
   14CHTO   O56 5626   4.987   5.227   1.015  0.0702  0.2718 -0.5989
   14CHTO  H135 5627   4.999   5.284   1.088  1.0113 -1.1385  0.3947
   14CHTO   C81 5628   4.790   5.367   0.937  0.2890 -0.8288  0.6533
   14CHTO  H153 5629   4.687   5.352   0.903  0.9456 -0.7940 -1.4430
   14CHTO   N14 5630   4.852   5.431   0.818 -0.2821  0.3646 -0.4647
   14CHTO  H141 5631   4.945   5.478   0.841  0.9124 -0.3818 -3.5516
   14CHTO  H142 5632   4.877   5.354   0.748  0.1753  1.0619 -1.0831
   14CHTO   C79 5633   4.790   5.463   1.058  0.1470 -0.2149 -0.2388
   14CHTO  H151 5634   4.735   5.553   1.033  0.5048 -0.2500 -1.1387
   14CHTO   O52 5635   4.729   5.400   1.180  0.0695 -0.0441 -0.0108
   14CHTO   C86 5636   4.772   5.265   1.217  0.6182 -0.2037  0.3093
   14CHTO  H158 5637   4.868   5.274   1.272  1.0863  1.3161 -0.7370
   14CHTO   C90 5638   4.677   5.217   1.323  0.0602  0.6826  0.0800
   14CHTO   O60 5639   4.537   5.236   1.286 -0.5075  0.1450  0.1462
   14CHTO  H138 5640   4.479   5.173   1.323 -1.6504  1.7300  1.1136
   14CHTO   O50 5641   4.926   5.500   1.098  0.3347 -0.8392 -0.7612
   14CHTO   C73 5642   4.959   5.598   1.195 -0.7899 -0.5774  0.2321
   14CHTO  H145 5643   4.907   5.584   1.291 -2.3058  0.6487 -0.3845
   14CHTO   C74 5644   4.931   5.740   1.132  0.6611 -0.1057 -1.2116
   14CHTO  H146 5645   4.822   5.734   1.115  0.2334  2.4031  0.3607
   14CHTO   O54 5646   4.944   5.832   1.236  0.1921  0.4453 -0.5318
   14CHTO  H133 5647   4.986   5.914   1.216  0.8183  0.4825  0.8874
   14CHTO   C75 5648   5.010   5.762   1.001  0.7021  0.2841  0.2587
   14CHTO  H147 5649   4.971   5.695   0.924  1.0077 -0.5325  0.8050
   14CHTO   N13 5650   4.992   5.901   0.946 -0.2232 -0.3958  0.3587
   14CHTO  H139 5651   5.003   5.970   1.028  0.8085  0.4313 -0.4563
   14CHTO  H140 5652   4.893   5.904   0.905 -0.6291  0.2799  1.3608
   14CHTO   C76 5653   5.168   5.738   1.030 -1.1097 -0.2464 -0.2981
   14CHTO  H148 5654   5.201   5.817   1.097 -1.3478  0.2405 -0.7580
   14CHTO   O49 5655   5.195   5.615   1.101  0.2155  0.1706 -0.4149
   14CHTO   C77 5656   5.116   5.592   1.221  0.6068 -0.0943 -0.3517
   14CHTO  H149 5657   5.149   5.670   1.290 -0.6707 -0.2777  0.5023
   14CHTO   C88 5658   5.161   5.458   1.291 -0.2488  0.4531  0.6608
   14CHTO   O58 5659   5.298   5.447   1.287 -0.4149  0.1949  0.4756
   14CHTO  H136 5660   5.327   5.362   1.260  0.8546  0.6328  0.4609
   14CHTO   O51 5661   5.242   5.733   0.904 -0.7212  0.5603  0.7476
   14CHTO   C78 5662   5.390   5.781   0.917 -0.6323  0.0439 -0.1596
   14CHTO  H150 5663   5.417   5.808   1.021 -1.4602 -0.6039  0.2221
   14CHTO   C80 5664   5.415   5.906   0.828 -0.1381  0.6150 -0.2322
   14CHTO  H152 5665   5.369   5.889   0.728 -0.4325 -1.4690  0.2344
   14CHTO   O55 5666   5.348   6.008   0.894  0.3706  0.4577  0.5628
   14CHTO  H134 5667   5.256   5.990   0.886  0.9478 -1.4971 -2.5175
   14CHTO   C84 5668   5.563   5.947   0.811 -0.0348 -0.6072  0.4338
   14CHTO  H156 5669   5.583   5.995   0.907 -0.2811  1.4867 -0.5327
   14CHTO   N15 5670   5.589   6.045   0.701  0.3004  0.5274 -0.5767
   14CHTO  H143 5671   5.643   6.000   0.620 -1.5994 -0.9775 -1.0374
   14CHTO  H144 5672   5.640   6.134   0.732  2.5506 -0.5234 -1.1304
   14CHTO   C87 5673   5.651   5.824   0.791 -0.1515 -0.8921  0.2581
   14CHTO  H159 5674   5.648   5.792   0.687 -3.0560 -1.3516  0.4548
   14CHTO   O53 5675   5.616   5.711   0.887  0.0076 -0.1258 -0.2459
   14CHTO   C82 5676   5.484   5.665   0.884 -0.0270 -0.3055  0.9532
   14CHTO  H154 5677   5.463   5.639   0.780  0.0804  0.4699  0.7286
   14CHTO   C89 5678   5.463   5.537   0.969 -0.6044 -0.2286  0.4991
   14CHTO   O59 5679   5.561   5.435   0.931  0.2665 -0.2686 -0.3728
   14CHTO  H137 5680   5.516   5.353   0.931 -2.2820  0.9801  3.0968
   14CHTO   O45 5681   5.815   5.872   0.818 -0.1390  0.5429 -0.6098
   14CHTO   C67 5682   5.916   5.773   0.812  0.2225  0.4699  0.4125
   14CHTO  H124 5683   5.895   5.677   0.859  0.0382  0.0095 -0.5896
   14CHTO   C65 5684   5.938   5.740   0.662 -0.5537  0.1565  0.3339
   14CHTO  H122 5685   5.842   5.725   0.612  0.8590 -1.0431 -2.1230
   14CHTO   O44 5686   6.008   5.615   0.653 -0.0652  0.0694 -0.2948
   14CHTO  H102 5687   6.006   5.559   0.728 -0.7721  0.6840  0.1561
   14CHTO   C63 5688   6.012   5.864   0.590  0.0339 -0.2168  0.1828
   14CHTO  H120 5689   5.957   5.954   0.618 -0.3640 -0.5862  0.5991
   14CHTO   N11 5690   6.025   5.863   0.439 -0.2623  0.1466 -0.5260
   14CHTO  H108 5691   6.050   5.956   0.393 -1.4263  0.5672 -0.3262
   14CHTO  H109 5692   6.064   5.782   0.381 -1.5388 -0.0586 -1.1251
   14CHTO   C61 5693   6.151   5.885   0.659  0.1837 -0.9619  0.3399
   14CHTO  H118 5694   6.198   5.972   0.613 -1.4993  1.8221  3.6645
   14CHTO   O40 5695   6.134   5.920   0.804  0.6033  0.4289  0.3383
   14CHTO   C68 5696   6.047   5.828   0.884  0.0660  0.1447  0.2144
   14CHTO  H125 5697   6.009   5.891   0.967  0.6428  1.4725 -0.5275
   14CHTO   C72 5698   6.134   5.708   0.946  0.0440 -1.1277  0.2545
   14CHTO   O48 5699   6.223   5.738   1.059 -0.3852 -0.3708 -0.0069
   14CHTO  H105 5700   6.194   5.812   1.109 -1.7386 -1.0246  0.2202
   14CHTO   O38 5701   6.245   5.779   0.648 -0.7469  0.2055 -0.4603
   14CHTO   C55 5702   6.384   5.795   0.606 -0.8608  0.4966  0.1243
   14CHTO  H112 5703   6.396   5.891   0.553 -0.4478 -0.0041 -0.6937
   14CHTO   C56 5704   6.422   5.666   0.514  0.3946  0.4633  0.4903
   14CHTO  H113 5705   6.391   5.584   0.580  2.0337 -0.7022 -0.1814
   14CHTO   O42 5706   6.328   5.672   0.404  0.1494  0.7879  0.1487
   14CHTO  H100 5707   6.364   5.635   0.325  2.3948 -0.7991  1.8634
   14CHTO   C57 5708   6.572   5.666   0.480 -0.2254 -0.2765  0.3939
   14CHTO  H114 5709   6.597   5.741   0.405  0.6232 -1.5069 -0.6036
   14CHTO   N10 5710   6.607   5.536   0.414 -0.0284  0.7573  0.3067
   14CHTO  H106 5711   6.608   5.551   0.307  1.6511 -1.1781  0.0261
   14CHTO  H107 5712   6.705   5.497   0.438  0.2591 -0.2327 -2.3987
   14CHTO   C58 5713   6.661   5.696   0.607  0.4599 -0.1291  0.3551
   14CHTO  H115 5714   6.648   5.609   0.675 -0.3834 -0.5666 -0.3572
   14CHTO   O37 5715   6.616   5.812   0.682  0.1984  0.6270 -0.1057
   14CHTO   C59 5716   6.479   5.801   0.733 -0.0712 -0.5299  0.1737
   14CHTO  H116 5717   6.469   5.714   0.798  0.2284  0.9547  2.2640
   14CHTO   C70 5718   6.450   5.917   0.824  0.2954  0.1386  0.1367
   14CHTO   O46 5719   6.542   5.926   0.940  0.2311  0.1581 -0.5650
   14CHTO  H103 5720   6.507   5.871   1.008  1.8397 -0.1570  0.0288
   14CHTO   O39 5721   6.812   5.732   0.550 -0.3949  0.3852  0.1715
   14CHTO   C60 5722   6.922   5.702   0.634 -0.4071  0.6466 -0.9947
   14CHTO  H117 5723   6.887   5.730   0.733  0.0723 -1.7192 -0.1306
   14CHTO   C62 5724   6.969   5.549   0.647  0.1938  0.0460  0.5280
   14CHTO  H119 5725   6.876   5.497   0.678 -0.7062  1.3703  0.1271
   14CHTO   O43 5726   7.003   5.498   0.515 -0.9512  0.1401  0.5495
   14CHTO  H101 5727   7.093   5.515   0.495 -1.0521  1.6608  1.3285
   14CHTO   C66 5728   7.090   5.533   0.763  0.3594 -0.4312  0.0186
   14CHTO  H123 5729   7.054   5.560   0.862  0.4794 -0.9618  0.2114
   14CHTO   N12 5730   7.132   5.395   0.773 -0.3939 -0.0870 -0.1000
   14CHTO  H110 5731   7.056   5.326   0.742 -0.2993  0.6213 -2.0091
   14CHTO  H111 5732   7.155   5.370   0.875  1.0483  2.4298  0.2497
   14CHTO   C69 5733   7.203   5.626   0.728 -0.4423  0.1698  1.1329
   14CHTO  H126 5734   7.240   5.593   0.629  0.5752 -0.1697  1.6247
   14CHTO   O41 5735   7.146   5.777   0.711  0.1883 -0.5286 -0.5776
   14CHTO   C64 5736   7.036   5.798   0.605  0.1699  0.0328 -0.2331
   14CHTO  H121 5737   7.068   5.776   0.501 -1.5998 -0.1415 -0.7493
   14CHTO   C71 5738   6.995   5.949   0.609 -0.1316 -0.0475 -0.4719
   14CHTO   O47 5739   7.104   6.032   0.572 -0.3013  0.1813 -0.1141
   14CHTO  H104 5740   7.157   6.043   0.648  0.0618 -0.5065 -0.2650
   14CHTO   O34 5741   7.329   5.622   0.832 -0.4099 -0.4247 -0.1167
   14CHTO   C49 5742   7.473   5.694   0.786 -0.1198  0.4857  0.3659
   14CHTO   H91 5743   7.521   5.623   0.719 -0.9273 -0.7261  1.0525
   14CHTO   C47 5744   7.552   5.711   0.914  1.0580 -0.4666 -0.0440
   14CHTO   H89 5745   7.654   5.747   0.889  0.0137  2.4899 -0.2480
   14CHTO   O33 5746   7.561   5.585   0.982 -0.1936  0.2970  0.3749
   14CHTO   H70 5747   7.481   5.566   1.028 -0.1431 -1.8047 -0.3240
   14CHTO   C45 5748   7.492   5.819   1.012  0.7148 -0.4873 -0.8640
   14CHTO   H87 5749   7.434   5.769   1.091 -0.9894  5.6226  2.1032
   14CHTO    N8 5750   7.596   5.892   1.087  0.1719 -0.3922  0.5806
   14CHTO   H75 5751   7.588   5.854   1.188  0.4652 -1.1521  0.3202
   14CHTO   H76 5752   7.697   5.890   1.049  0.1558  0.1215  0.5047
   14CHTO   C43 5753   7.381   5.916   0.934  0.0219  1.1428 -0.3296
   14CHTO   H85 5754   7.289   5.858   0.939 -0.0101  1.0395 -1.9162
   14CHTO   O29 5755   7.416   5.946   0.802 -0.5585  0.7288 -0.0462
   14CHTO   C50 5756   7.454   5.835   0.719  0.3611  0.4079 -0.3410
   14CHTO   H92 5757   7.386   5.819   0.634  1.7243 -0.0539 -1.3654
   14CHTO   C54 5758   7.579   5.887   0.637 -0.9349  0.5131 -0.9358
   14CHTO   O36 5759   7.689   5.920   0.728 -0.5055  0.1277  0.2476
   14CHTO   H72 5760   7.663   5.979   0.796 -1.3328  1.5413 -1.2489
   14CHTO   O27 5761   7.364   6.039   1.005  0.0065 -0.5828 -0.0795
   14CHTO   C37 5762   7.252   6.126   1.039  0.3210 -0.8910 -0.1112
   14CHTO   H79 5763   7.289   6.229   1.035 -0.8763 -0.2910  2.6834
   14CHTO   C38 5764   7.128   6.097   0.946  0.3071  0.8830 -0.1075
   14CHTO   H80 5765   7.106   5.989   0.945  1.3904  0.6214  2.0140
   14CHTO   O31 5766   7.166   6.138   0.819 -0.4989 -0.1135  0.4018
   14CHTO   H68 5767   7.215   6.071   0.775  0.8100  1.8497 -1.2401
   14CHTO   C39 5768   6.998   6.178   1.000  0.2061 -0.0658 -0.1891
   14CHTO   H81 5769   7.007   6.286   0.989 -2.3545  0.2039  0.1523
   14CHTO    N7 5770   6.874   6.151   0.918 -0.1859  0.3958 -0.0081
   14CHTO   H73 5771   6.843   6.224   0.844 -0.5345  0.5442  0.2821
   14CHTO   H74 5772   6.880   6.062   0.857  1.6656  0.1900  0.4336
   14CHTO   C40 5773   6.974   6.135   1.148  0.0324 -0.5161  0.4878
   14CHTO   H82 5774   6.943   6.031   1.152  1.0432 -0.7896  1.5552
   14CHTO   O26 5775   7.098   6.154   1.229 -0.4157 -0.2993  0.1291
   14CHTO   C41 5776   7.216   6.089   1.184 -0.0920 -0.0444  0.1021
   14CHTO   H83 5777   7.211   5.980   1.192  2.1466 -0.2233 -0.5069
   14CHTO   C52 5778   7.324   6.130   1.282  0.3337 -0.0652 -0.1861
   14CHTO   O35 5779   7.295   6.077   1.404 -0.3978 -0.5076  0.7435
   14CHTO   H71 5780   7.372   6.084   1.458 -0.1157  2.3405  0.0686
   14CHTO   O28 5781   6.885   6.225   1.219  0.1784  0.0511  0.2511
   14CHTO   C42 5782   6.776   6.176   1.305 -0.4230 -0.9180 -0.2188
   14CHTO   H84 5783   6.791   6.238   1.393  0.7575  0.0171 -1.0726
   14CHTO   C44 5784   6.772   6.033   1.358 -0.3613  0.4839 -0.2249
   14CHTO   H86 5785   6.781   5.970   1.269 -2.7990 -0.9722  0.5172
   14CHTO   O32 5786   6.875   6.017   1.461  0.5879 -0.0511 -0.1457
   14CHTO   H69 5787   6.848   6.068   1.536  0.3323 -0.5191  0.0801
   14CHTO   C48 5788   6.635   5.985   1.430 -0.1008  0.1302  0.0118
   14CHTO   H90 5789   6.623   6.020   1.532  1.4865 -2.6911  1.2055
   14CHTO    N9 5790   6.640   5.837   1.455 -0.7602  0.3816  0.0575
   14CHTO   H77 5791   6.677   5.785   1.368 -1.9174  1.1442 -0.9106
   14CHTO   H78 5792   6.538   5.811   1.478 -0.1095 -0.4489  2.1344
   14CHTO   C51 5793   6.513   6.034   1.345  0.1543  0.1363 -0.6001
   14CHTO   H93 5794   6.508   5.990   1.246 -2.3312  1.1595 -0.9630
   14CHTO   O30 5795   6.528   6.176   1.338  0.2556 -0.2967 -0.9582
   14CHTO   C46 5796   6.634   6.210   1.242  0.7249  0.2313  0.2344
   14CHTO   H88 5797   6.637   6.151   1.150  1.7137 -0.5754  0.7663
   14CHTO   C53 5798   6.614   6.360   1.197  0.5114  0.1370  0.4485
   14CHTO   O72 5799   6.699   6.400   1.088 -0.1820 -0.2701 -0.3828
   14CHTO  H199 5800   6.668   6.364   1.007  1.1874 -0.4966 -0.8276
   14CHTO   O22 5801   6.384   6.023   1.405 -0.2246 -0.6711  0.0653
   14CHTO   C31 5802   6.277   5.941   1.346 -0.2928  0.3849  0.4683
   14CHTO   H59 5803   6.320   5.882   1.262 -2.2683 -2.9864  1.6859
   14CHTO   C29 5804   6.218   5.833   1.442 -0.0954 -0.0426  0.0852
   14CHTO   H57 5805   6.192   5.898   1.527  0.8920  0.9814 -0.3654
   14CHTO   O21 5806   6.320   5.739   1.488 -0.0935 -0.5874  0.7743
   14CHTO   H37 5807   6.393   5.790   1.518  0.2870 -1.6024  1.5930
   14CHTO   C27 5808   6.087   5.755   1.392  0.6400  0.4131 -0.7625
   14CHTO   H55 5809   6.121   5.677   1.323  1.8750 -1.5060  1.9075
   14CHTO    N5 5810   6.013   5.691   1.506  0.6504 -0.0235  0.4899
   14CHTO   H43 5811   6.079   5.685   1.591  1.2309  3.5939  0.3465
   14CHTO   H44 5812   5.927   5.751   1.533 -0.3758 -1.1131 -0.2834
   14CHTO   C25 5813   5.993   5.854   1.306  0.5537  0.0552 -0.5305
   14CHTO   H53 5814   5.957   5.926   1.381  0.4846 -0.0531 -0.4592
   14CHTO   O17 5815   6.073   5.931   1.217 -0.6329 -0.5865  0.1603
   14CHTO   C32 5816   6.164   6.024   1.285  0.4411 -0.8580  0.5559
   14CHTO   H60 5817   6.120   6.088   1.362 -0.4502 -0.2164 -0.4781
   14CHTO   C36 5818   6.220   6.110   1.167 -0.9002  0.5854  0.0919
   14CHTO   O25 5819   6.125   6.208   1.119 -0.5590  0.7585 -0.3366
   14CHTO   H40 5820   6.069   6.245   1.184 -2.7607 -0.9361 -1.2232
   14CHTO   O15 5821   5.885   5.784   1.235 -0.0869  0.1688  0.5808
   14CHTO   C19 5822   5.741   5.822   1.218 -0.0319 -0.2732  0.5099
   14CHTO   H47 5823   5.721   5.790   1.115 -1.0749 -0.7299  0.8472
   14CHTO   C20 5824   5.646   5.767   1.335  0.4473  0.0273  0.1856
   14CHTO   H48 5825   5.684   5.788   1.436  0.9273 -1.4230  0.3163
   14CHTO   O19 5826   5.646   5.621   1.324 -0.2066  0.0840  0.6678
   14CHTO   H35 5827   5.652   5.596   1.234 -0.6433 -2.2446  1.2579
   14CHTO   C21 5828   5.500   5.827   1.322  0.4787 -0.5158  0.2204
   14CHTO   H49 5829   5.453   5.771   1.241  1.9282 -0.7758 -0.4547
   14CHTO    N4 5830   5.419   5.798   1.445 -0.2294  0.1393  0.3788
   14CHTO   H41 5831   5.422   5.692   1.463 -0.7563  0.1419  0.4774
   14CHTO   H42 5832   5.320   5.833   1.420  0.1059 -0.1267 -1.3697
   14CHTO   C22 5833   5.492   5.974   1.286  0.2120 -0.3056  0.5278
   14CHTO   H50 5834   5.519   6.036   1.372 -1.2522  1.9196 -0.5786
   14CHTO   O14 5835   5.590   6.006   1.183 -0.1333 -0.0815 -0.3318
   14CHTO   C23 5836   5.728   5.981   1.208 -0.0053 -0.1256 -0.1052
   14CHTO   H51 5837   5.759   6.029   1.302 -1.4898  0.9439 -0.1518
   14CHTO   C34 5838   5.814   6.038   1.096  0.6724  0.0199  1.0194
   14CHTO   O23 5839   5.796   6.175   1.070 -0.3001  0.1359 -0.2218
   14CHTO   H38 5840   5.857   6.214   1.011 -0.3859 -0.1922 -0.5220
   14CHTO   O16 5841   5.360   6.003   1.240  0.2548  0.4880 -0.1202
   14CHTO   C24 5842   5.308   6.180   1.214  0.6753 -0.1095 -0.2593
   14CHTO   H52 5843   5.227   6.191   1.141  0.5954  0.9135 -0.0240
   14CHTO   C26 5844   5.425   6.267   1.170  0.5087 -0.0635  0.2342
   14CHTO   H54 5845   5.509   6.257   1.242  0.1417 -0.2237  0.6364
   14CHTO   O20 5846   5.459   6.223   1.038 -0.5005  0.9204  0.2251
   14CHTO   H36 5847   5.549   6.250   1.028  0.7584 -2.9403  0.1197
   14CHTO   C30 5848   5.387   6.425   1.167 -0.2184 -0.5958 -0.1550
   14CHTO   H58 5849   5.315   6.448   1.087  0.5552  0.4970 -0.5478
   14CHTO    N6 5850   5.505   6.514   1.141  0.0277 -0.1570  0.8498
   14CHTO   H45 5851   5.564   6.516   1.231  0.7019 -1.5972  0.4563
   14CHTO   H46 5852   5.478   6.615   1.114  0.2835 -0.4880 -0.7060
   14CHTO   C33 5853   5.312   6.466   1.293  0.0034  0.4468  0.6572
   14CHTO   H61 5854   5.380   6.489   1.376 -0.1992 -0.2698  1.0221
   14CHTO   O18 5855   5.219   6.375   1.344 -1.0970  0.3041  0.0002
   14CHTO   C28 5856   5.256   6.233   1.348 -0.3204 -0.5908 -0.0532
   14CHTO   H56 5857   5.330   6.219   1.428  0.1109  2.7057  0.2171
   14CHTO   C35 5858   5.134   6.157   1.390 -0.1613  0.2671  0.2898
   14CHTO   O24 5859   5.035   6.152   1.277 -0.2317 -0.2613 -0.0934
   14CHTO   H39 5860   4.958   6.105   1.303 -0.6681  0.8012  0.5544
   14CHTO    O9 5861   5.250   6.593   1.261 -0.7469  0.0312 -0.5028
   14CHTO   C13 5862   5.214   6.691   1.390  0.1992  0.1126  0.2878
   14CHTO   H26 5863   5.204   6.619   1.475 -0.9617 -0.9156 -0.7064
   14CHTO   C11 5864   5.085   6.774   1.366  0.2185  0.3983  0.5490
   14CHTO   H24 5865   5.004   6.703   1.345 -0.1023  1.1906 -1.0227
   14CHTO    O8 5866   5.089   6.843   1.241 -0.2845 -0.3243 -0.0358
   14CHTO    H3 5867   5.002   6.860   1.210 -0.6530  0.3873  1.3416
   14CHTO    C9 5868   5.063   6.863   1.488  0.0046  0.4838  0.4951
   14CHTO   H22 5869   5.043   6.791   1.569  1.1889 -0.2911  0.1067
   14CHTO    N2 5870   4.933   6.932   1.479 -0.3302 -0.6311  0.7742
   14CHTO   H10 5871   4.921   6.983   1.574  2.4341  0.4527  0.5994
   14CHTO   H11 5872   4.851   6.863   1.477 -2.5985  2.0065 -1.6003
   14CHTO    C7 5873   5.185   6.955   1.505 -0.7500  0.0052 -0.3347
   14CHTO   H20 5874   5.175   7.013   1.600  0.8915 -0.3929  0.1099
   14CHTO    O4 5875   5.307   6.881   1.520 -0.0239  0.2905 -0.4142
   14CHTO   C14 5876   5.342   6.773   1.428  0.5063  0.2278  0.3935
   14CHTO   H27 5877   5.419   6.707   1.473 -1.1499 -3.0345 -1.4149
   14CHTO   C18 5878   5.411   6.834   1.299 -0.6912 -0.0048 -0.0765
   14CHTO   O13 5879   5.539   6.890   1.321  0.1258 -0.6509  0.0553
   14CHTO    H7 5880   5.546   6.971   1.275 -1.8407  0.6607  1.9805
   14CHTO    O2 5881   5.211   7.072   1.371  0.0121 -0.3464  0.7067
   14CHTO    C1 5882   5.261   7.202   1.402 -0.6162  0.1386  0.8985
   14CHTO   H14 5883   5.294   7.246   1.306  0.7529  1.0043  1.7524
   14CHTO    C2 5884   5.385   7.207   1.508  0.3604  0.3642 -0.2044
   14CHTO   H15 5885   5.343   7.167   1.602 -1.5067 -1.0765 -1.5946
   14CHTO    O6 5886   5.495   7.127   1.463 -0.3010 -0.0740 -0.1197
   14CHTO    H1 5887   5.529   7.160   1.383 -2.2023 -2.7837 -2.1218
   14CHTO    C3 5888   5.434   7.358   1.539 -0.2698 -0.5509  0.4677
   14CHTO   H16 5889   5.492   7.389   1.451 -0.0022 -0.3576  0.7149
   14CHTO    N1 5890   5.531   7.371   1.649 -0.6454  0.2325 -0.2232
   14CHTO    H8 5891   5.626   7.395   1.602  0.2020 -0.7573  0.9692
   14CHTO    H9 5892   5.540   7.281   1.707  0.1101  0.4974  0.0800
   14CHTO    C4 5893   5.309   7.451   1.555  0.3401  0.1909  1.0447
   14CHTO   H17 5894   5.270   7.437   1.656 -0.7466  1.1067  0.7599
   14CHTO    O1 5895   5.196   7.431   1.466 -0.1116 -0.1495 -0.4184
   14CHTO    C5 5896   5.152   7.293   1.463  0.3327 -0.4640 -0.3177
   14CHTO   H18 5897   5.134   7.260   1.565  0.5694 -0.4201 -0.2610
   14CHTO   C16 5898   5.016   7.291   1.374  0.1563  0.6052 -0.7345
   14CHTO   O11 5899   4.920   7.394   1.413 -0.1271  0.0018 -0.2302
   14CHTO    H5 5900   4.839   7.398   1.365 -1.6642 -0.9913  2.1410
   14CHTO    O3 5901   5.347   7.592   1.538  0.0315  1.2191 -0.0105
   14CHTO    C6 5902   5.280   7.701   1.596  0.6971  0.1738 -0.6082
   14CHTO   H19 5903   5.175   7.689   1.624  0.3132 -1.2790 -2.5109
   14CHTO    C8 5904   5.346   7.740   1.718  0.0811 -0.0887 -0.8551
   14CHTO   H21 5905   5.453   7.753   1.701 -0.1894  2.3930 -0.8641
   14CHTO    O7 5906   5.326   7.628   1.807 -0.0465 -1.0016 -0.7011
   14CHTO    H2 5907   5.390   7.563   1.783  0.3407  0.0598 -2.6353
   14CHTO   C12 5908   5.279   7.864   1.789  0.1363 -0.3265 -0.3281
   14CHTO   H25 5909   5.172   7.837   1.806  0.1545 -0.8118 -0.9592
   14CHTO    N3 5910   5.338   7.897   1.920 -0.8691 -0.1881 -0.3951
   14CHTO   H12 5911   5.402   7.983   1.925 -0.1388 -0.5138 -3.0802
   14CHTO   H13 5912   5.369   7.812   1.978 -0.7828  0.6254  0.7559
   14CHTO   C15 5913   5.286   7.983   1.678 -0.1778  0.3877 -0.4986
   14CHTO   H28 5914   5.390   8.015   1.667 -0.2577  0.6481 -0.5042
   14CHTO   O10 5915   5.200   8.106   1.704 -0.1798  0.0120 -0.3286
   14CHTO    H4 5916   5.174   8.119   1.793  1.1986 -0.5510  0.1859
   14CHTO    O5 5917   5.227   7.945   1.550 -0.4437  0.0161 -0.9984
   14CHTO   C10 5918   5.290   7.824   1.491  0.0609  0.3490 -0.5354
   14CHTO   H23 5919   5.393   7.850   1.470  0.4277 -0.8880 -0.3423
   14CHTO   C17 5920   5.220   7.787   1.366 -0.0174  0.0113 -0.1732
   14CHTO   O12 5921   5.081   7.772   1.377 -0.0169 -0.7271  0.3570
   14CHTO    H6 5922   5.026   7.812   1.312  0.2269  2.0542  1.7487
   15CHTO  H203 5923   7.331   4.784   1.540 -2.0811 -0.0592 -1.5599
   15CHTO   O82 5924   7.386   4.789   1.464  0.2498  0.4634  0.0766
   15CHTO  C123 5925   7.329   4.712   1.360 -0.1732  0.1932  0.0368
   15CHTO  H227 5926   7.289   4.623   1.411  0.0422  0.0094 -0.1204
   15CHTO   O77 5927   7.234   4.800   1.307 -0.3108  1.1450  0.0980
   15CHTO  C118 5928   7.160   4.741   1.200  0.4176 -1.0103  0.5716
   15CHTO  H222 5929   7.116   4.644   1.229  1.5087 -1.4405  0.7772
   15CHTO  C125 5930   7.044   4.845   1.170 -1.0416  0.5189  0.4398
   15CHTO   O84 5931   6.917   4.796   1.203  0.2680  0.2629 -0.2151
   15CHTO  H205 5932   6.920   4.764   1.291  0.9270  0.6419 -0.0965
   15CHTO  C114 5933   7.252   4.712   1.086  0.1116  0.2693  0.5229
   15CHTO  H218 5934   7.299   4.806   1.057 -0.4689  0.5966  0.6373
   15CHTO  C116 5935   7.381   4.625   1.124 -0.4351  0.4633 -0.3980
   15CHTO  H220 5936   7.356   4.518   1.142  0.9427  0.4685  1.6830
   15CHTO   O79 5937   7.484   4.622   1.021 -0.2734  0.5034  0.3496
   15CHTO  H201 5938   7.543   4.553   1.046 -0.7002  0.2873  0.7526
   15CHTO  C120 5939   7.439   4.684   1.250 -0.3150 -0.2225 -0.4036
   15CHTO  H224 5940   7.489   4.779   1.222 -3.2382  1.5082  0.0036
   15CHTO   N21 5941   7.552   4.591   1.304  0.7051 -0.1856  0.0035
   15CHTO  H211 5942   7.539   4.485   1.288  0.2805 -0.2929  1.0456
   15CHTO  H212 5943   7.648   4.631   1.272  0.4856 -0.0275 -0.4690
   15CHTO   O75 5944   7.185   4.660   0.977  0.1617 -0.2782 -0.3341
   15CHTO  C112 5945   7.135   4.498   0.992 -0.1819 -0.1175 -0.9558
   15CHTO  H216 5946   7.102   4.475   1.095 -0.3236  0.7110 -0.8112
   15CHTO   O73 5947   7.244   4.413   0.946  0.0474 -0.2813  0.7040
   15CHTO  C113 5948   7.210   4.271   0.946 -0.1491 -0.2274  0.2515
   15CHTO  H217 5949   7.181   4.256   1.053  4.0131 -0.4038  1.4181
   15CHTO  C124 5950   7.342   4.197   0.917 -0.5488  0.1010 -0.1046
   15CHTO   O83 5951   7.368   4.193   0.781  0.1000  0.1929 -0.0411
   15CHTO  H204 5952   7.410   4.112   0.757 -0.8038 -0.9955  2.2396
   15CHTO  C109 5953   7.088   4.239   0.858  0.2822 -0.6001 -0.6168
   15CHTO  H213 5954   7.119   4.254   0.754  4.1895  1.3157  0.7485
   15CHTO  C110 5955   6.965   4.327   0.899 -0.0558 -0.2543 -0.1230
   15CHTO  H214 5956   6.927   4.301   0.998  1.5178 -0.2297  0.5055
   15CHTO   O78 5957   6.858   4.305   0.808  0.1035 -0.9853  1.0834
   15CHTO  H200 5958   6.862   4.330   0.718  0.8571 -0.2939  1.3106
   15CHTO  C111 5959   7.003   4.479   0.900  0.4562  0.6241 -0.3775
   15CHTO  H215 5960   7.036   4.504   0.798  3.3913 -0.2328  0.3194
   15CHTO   N19 5961   6.899   4.578   0.934 -0.6702  0.6127 -0.2573
   15CHTO  H207 5962   6.844   4.600   0.844 -0.3915 -0.7435 -0.7686
   15CHTO  H208 5963   6.946   4.665   0.978  2.3163 -1.3326  0.5594
   15CHTO   O74 5964   7.049   4.103   0.877  0.4385 -0.7530 -0.2242
   15CHTO  C115 5965   6.988   4.036   0.742  0.1245  0.3004  0.3851
   15CHTO  H219 5966   6.916   4.099   0.691  0.6451 -0.3983 -1.2442
   15CHTO   O76 5967   7.093   4.023   0.640 -0.3139 -0.0862  0.0356
   15CHTO  C122 5968   7.176   3.905   0.634 -0.3427  0.6599 -0.3985
   15CHTO  H226 5969   7.243   3.913   0.720 -2.0182 -0.1374  1.0266
   15CHTO  C126 5970   7.267   3.923   0.513  0.7691  0.0918  0.1214
   15CHTO   O85 5971   7.374   3.824   0.515  0.0303  0.1396 -0.0180
   15CHTO  H206 5972   7.430   3.833   0.440  0.4847  2.8205  0.6193
   15CHTO  C121 5973   7.103   3.768   0.636 -0.1180  0.5895  0.9127
   15CHTO  H225 5974   7.109   3.722   0.535  1.3982  2.7989 -0.0509
   15CHTO   O81 5975   7.153   3.679   0.737 -0.4859  0.4929  0.2195
   15CHTO  H202 5976   7.227   3.639   0.694 -1.2400 -1.5334  0.7199
   15CHTO  C119 5977   6.952   3.788   0.670  0.1469  0.1682  0.2900
   15CHTO  H223 5978   6.908   3.822   0.576 -1.6993  0.5024  1.2451
   15CHTO  C117 5979   6.930   3.892   0.776  0.0710 -0.0825 -0.9585
   15CHTO  H221 5980   6.979   3.865   0.870  1.9500  1.0290 -1.5930
   15CHTO   N20 5981   6.780   3.904   0.808 -0.1999 -0.7695  0.3033
   15CHTO  H209 5982   6.772   3.922   0.914 -1.5392 -0.5092  0.1683
   15CHTO  H210 5983   6.730   3.984   0.755 -0.8286 -1.1936  0.2516
   15CHTO   O80 5984   6.869   3.655   0.697  0.6289  0.1057 -0.1316
   15CHTO  C103 5985   6.795   3.573   0.565 -0.0591  0.1149 -0.2955
   15CHTO  H190 5986   6.730   3.495   0.604 -0.2608 -0.3917 -1.6052
   15CHTO  C101 5987   6.716   3.669   0.452  0.4615  0.2645  0.0378
   15CHTO  H188 5988   6.787   3.735   0.401  0.6614  0.5112  0.6369
   15CHTO   O68 5989   6.618   3.769   0.527 -0.3902 -0.1164  0.2204
   15CHTO  H168 5990   6.530   3.746   0.507  0.1232 -0.8745 -1.2411
   15CHTO   C99 5991   6.643   3.572   0.345 -0.1511 -0.0004 -0.4469
   15CHTO  H186 5992   6.574   3.500   0.394  0.0901 -0.0010 -0.1102
   15CHTO   N17 5993   6.568   3.640   0.241 -0.2466  0.5563  0.7021
   15CHTO  H174 5994   6.628   3.677   0.159 -2.1746  0.7118 -0.6756
   15CHTO  H175 5995   6.511   3.717   0.290 -1.0606 -0.4460  1.3582
   15CHTO   C97 5996   6.748   3.476   0.285 -0.0621 -1.1096  0.5442
   15CHTO  H184 5997   6.811   3.528   0.211  1.2210  0.2245  2.5170
   15CHTO   O64 5998   6.830   3.413   0.387 -0.1502  0.0465  0.0936
   15CHTO  C104 5999   6.904   3.500   0.475 -0.7528  0.4705 -0.3230
   15CHTO  H191 6000   6.955   3.579   0.419 -0.6250  0.6026 -0.0248
   15CHTO  C108 6001   7.014   3.425   0.553  0.2752  0.3784 -0.3660
   15CHTO   O71 6002   7.141   3.445   0.488  0.1907 -0.0420  0.1137
   15CHTO  H171 6003   7.130   3.461   0.396 -0.0370  2.2720  0.5032
   15CHTO   O62 6004   6.680   3.365   0.228  0.0832  0.6721  0.0624
   15CHTO   C91 6005   6.751   3.270   0.146  0.7522 -0.5604  0.1548
   15CHTO  H178 6006   6.815   3.333   0.084  0.8356 -0.5447  0.2571
   15CHTO   C92 6007   6.652   3.214   0.042 -0.0584  0.3945 -0.1080
   15CHTO  H179 6008   6.597   3.286  -0.020 -1.2955  0.4892  1.0629
   15CHTO   O66 6009   6.729   3.137  -0.048  0.1452 -0.2702  1.1303
   15CHTO  H166 6010   6.676   3.099  -0.115  0.7008  1.8820 -0.5772
   15CHTO   C93 6011   6.562   3.112   0.111 -0.0921 -0.1539 -0.0833
   15CHTO  H180 6012   6.506   3.064   0.029  0.0755  1.2131 -1.0142
   15CHTO   N16 6013   6.450   3.172   0.190 -0.0918  0.6688  0.8081
   15CHTO  H172 6014   6.389   3.094   0.232 -1.2710  0.7851 -0.6075
   15CHTO  H173 6015   6.489   3.229   0.273 -2.7837  1.6153  1.4983
   15CHTO   C94 6016   6.649   3.011   0.190  0.0432  0.2634  0.5635
   15CHTO  H181 6017   6.634   3.016   0.298  0.1477  0.7323  0.5585
   15CHTO   O61 6018   6.787   3.032   0.182 -0.0536 -0.2980  0.1371
   15CHTO   C95 6019   6.828   3.160   0.226  0.3270  0.4121 -0.1622
   15CHTO  H182 6020   6.807   3.175   0.332 -0.0468 -1.1283 -0.0137
   15CHTO  C106 6021   6.991   3.167   0.210 -0.6111  0.3701 -0.4870
   15CHTO   O69 6022   7.050   3.065   0.291 -0.5509 -0.3519  0.5982
   15CHTO  H169 6023   7.013   3.054   0.376 -0.0383 -0.7053  0.7803
   15CHTO   O63 6024   6.641   2.862   0.117 -0.1944 -0.5507 -0.0413
   15CHTO   C96 6025   6.656   2.755   0.205  0.2402 -0.5358 -0.4546
   15CHTO  H183 6026   6.689   2.782   0.305  1.2789 -0.1867 -0.8906
   15CHTO   C98 6027   6.772   2.666   0.160  0.1995  0.6615 -0.3541
   15CHTO  H185 6028   6.779   2.669   0.050  0.5879  0.9358 -0.3218
   15CHTO   O67 6029   6.905   2.715   0.206 -0.0401  0.3822  0.9969
   15CHTO  H167 6030   6.906   2.718   0.300 -0.3191  0.0242  1.0154
   15CHTO  C102 6031   6.761   2.505   0.199  0.3303  0.2420 -0.4220
   15CHTO  H189 6032   6.789   2.500   0.306 -1.2159  0.1449 -0.0096
   15CHTO   N18 6033   6.855   2.420   0.121  0.2862 -0.4412  0.0499
   15CHTO  H176 6034   6.939   2.482   0.092 -1.2471  2.5497  1.7490
   15CHTO  H177 6035   6.881   2.328   0.172 -0.3936 -0.6210  0.0725
   15CHTO  C105 6036   6.608   2.462   0.187 -0.5532 -0.5543 -0.4144
   15CHTO  H192 6037   6.579   2.477   0.083  0.5694 -1.3958 -0.8540
   15CHTO   O65 6038   6.530   2.547   0.272  0.7758  0.0573  0.2492
   15CHTO  C100 6039   6.512   2.675   0.212  0.7016 -0.0492 -0.1310
   15CHTO  H187 6040   6.476   2.656   0.110  0.4887 -1.0107  0.1190
   15CHTO  C107 6041   6.414   2.760   0.298 -0.2511  0.1826  0.3923
   15CHTO   O70 6042   6.298   2.690   0.336  0.4677 -1.2106 -0.2969
   15CHTO  H170 6043   6.304   2.683   0.430 -1.1090 -0.5971 -0.1234
   15CHTO   O57 6044   6.598   2.309   0.227  0.4598 -0.2001  0.4536
   15CHTO   C85 6045   6.598   2.263   0.359  0.5256 -0.1022  0.3147
   15CHTO  H157 6046   6.628   2.340   0.434  0.9077 -0.8565  0.9491
   15CHTO   C83 6047   6.716   2.158   0.367 -0.5770 -0.0119  0.1452
   15CHTO  H155 6048   6.812   2.205   0.343  0.3556 -1.3111  1.2730
   15CHTO   O56 6049   6.701   2.054   0.264  0.3728  0.1948 -0.9591
   15CHTO  H135 6050   6.706   1.967   0.300 -1.6080 -0.2020 -1.6047
   15CHTO   C81 6051   6.722   2.103   0.511  0.0757 -0.2209  0.1546
   15CHTO  H153 6052   6.737   2.188   0.577  0.5755 -0.2782  0.1135
   15CHTO   N14 6053   6.841   2.012   0.532  0.1365  0.3265  0.6400
   15CHTO  H141 6054   6.908   2.037   0.611 -1.2305  1.6326  1.4007
   15CHTO  H142 6055   6.896   2.017   0.440  1.0553  2.9903  1.3056
   15CHTO   C79 6056   6.590   2.036   0.554  0.6217 -0.1680  1.3093
   15CHTO  H151 6057   6.599   1.996   0.655  0.3767  0.8184  1.7284
   15CHTO   O52 6058   6.478   2.132   0.537  0.6653 -0.0136 -0.5301
   15CHTO   C86 6059   6.469   2.192   0.398  0.6933  0.8661  0.0312
   15CHTO  H158 6060   6.453   2.097   0.342  2.1253  0.6387 -0.0175
   15CHTO   C90 6061   6.348   2.284   0.368  0.3172 -0.3918 -0.7705
   15CHTO   O60 6062   6.359   2.399   0.448  0.1181 -0.0215 -0.1059
   15CHTO  H138 6063   6.409   2.463   0.401  0.1014  0.6194  0.7404
   15CHTO   O50 6064   6.543   1.920   0.486 -0.3504  0.2493  0.2662
   15CHTO   C73 6065   6.421   1.844   0.461  0.2989 -0.2831 -0.2722
   15CHTO  H145 6066   6.341   1.906   0.418 -0.0408  0.8583  1.9263
   15CHTO   C74 6067   6.367   1.782   0.594 -0.6329  0.1422  0.3259
   15CHTO  H146 6068   6.341   1.868   0.657  0.4847  1.0288 -0.3955
   15CHTO   O54 6069   6.246   1.717   0.555  0.0771  0.2340 -0.2418
   15CHTO  H133 6070   6.270   1.636   0.513  0.9401  0.5586 -0.3748
   15CHTO   C75 6071   6.479   1.690   0.653 -0.8265  0.4721 -0.4009
   15CHTO  H147 6072   6.562   1.755   0.685 -2.3613  0.7307  3.3783
   15CHTO   N13 6073   6.440   1.623   0.777  0.2161  0.1597 -0.0600
   15CHTO  H139 6074   6.342   1.649   0.816  0.4998 -2.0645  2.3315
   15CHTO  H140 6075   6.439   1.516   0.765 -1.2028  0.0951  0.5538
   15CHTO   C76 6076   6.536   1.582   0.551  0.2255  0.3221 -0.1197
   15CHTO  H148 6077   6.470   1.496   0.550  0.5220  0.0665  1.0622
   15CHTO   O49 6078   6.555   1.633   0.415 -0.0110 -0.0334  0.2842
   15CHTO   C77 6079   6.462   1.727   0.354 -0.7614  0.0191 -0.2922
   15CHTO  H149 6080   6.370   1.672   0.332 -0.5841 -0.6098  0.5011
   15CHTO   C88 6081   6.506   1.799   0.228 -0.0444  0.1256 -0.3366
   15CHTO   O58 6082   6.393   1.867   0.169 -0.1150  0.1825  0.2363
   15CHTO  H136 6083   6.413   1.934   0.105 -0.2097  0.7569  0.8027
   15CHTO   O51 6084   6.699   1.537   0.611  0.3353  0.0819  0.1579
   15CHTO   C78 6085   6.766   1.442   0.503 -0.3533  0.1088 -0.1829
   15CHTO  H150 6086   6.722   1.449   0.401  1.6784  0.6291 -1.0695
   15CHTO   C80 6087   6.765   1.293   0.545  0.0169  0.1811  0.2574
   15CHTO  H152 6088   6.800   1.289   0.650 -1.6538  0.5900  0.8330
   15CHTO   O55 6089   6.628   1.246   0.532 -0.1737  0.2205 -0.3120
   15CHTO  H134 6090   6.609   1.187   0.602  0.7401 -0.4243 -0.5947
   15CHTO   C84 6091   6.857   1.201   0.452 -0.9052 -0.1080  0.3657
   15CHTO  H156 6092   6.812   1.196   0.353 -1.7913  2.1883  0.6188
   15CHTO   N15 6093   6.863   1.059   0.502  0.1788 -0.0392  0.2629
   15CHTO  H143 6094   6.804   1.051   0.591  0.3663  0.1776  0.4080
   15CHTO  H144 6095   6.819   0.999   0.426 -2.0414 -0.6567  2.0006
   15CHTO   C87 6096   6.997   1.267   0.455 -0.2088  0.2752  0.0948
   15CHTO  H159 6097   7.046   1.277   0.552  1.5075 -0.3339 -0.6829
   15CHTO   O53 6098   6.988   1.406   0.402  0.0294  0.3150  0.4851
   15CHTO   C82 6099   6.911   1.491   0.483  0.3145  0.6213 -0.0765
   15CHTO  H154 6100   6.960   1.502   0.579 -1.8279 -0.7941  1.2424
   15CHTO   C89 6101   6.913   1.633   0.416 -0.2458 -0.1610 -0.0644
   15CHTO   O59 6102   6.885   1.633   0.275  0.1324  0.2179 -0.4854
   15CHTO  H137 6103   6.792   1.637   0.263  0.1913 -0.9294 -1.4102
   15CHTO   O45 6104   7.121   1.170   0.371 -0.1285  0.5889  0.0902
   15CHTO   C67 6105   7.254   1.218   0.398  0.1766  0.2875 -0.6106
   15CHTO  H124 6106   7.253   1.323   0.429 -0.6169 -0.1143  0.7833
   15CHTO   C65 6107   7.337   1.142   0.518  1.0503 -0.2935 -0.0274
   15CHTO  H122 6108   7.296   1.041   0.516  1.0655 -0.2905 -1.7115
   15CHTO   O44 6109   7.296   1.216   0.637  0.5240 -0.2647 -0.5783
   15CHTO  H102 6110   7.350   1.182   0.705 -1.6870 -0.5228  1.0921
   15CHTO   C63 6111   7.496   1.122   0.485  0.3580 -0.1299  0.1783
   15CHTO  H120 6112   7.502   1.044   0.409 -0.6706 -0.4100  0.3730
   15CHTO   N11 6113   7.576   1.068   0.595 -0.1175  0.4849 -0.2877
   15CHTO  H108 6114   7.656   1.138   0.611 -0.2589  0.7293 -0.6421
   15CHTO  H109 6115   7.605   0.967   0.575  0.2895  0.5774 -0.1781
   15CHTO   C61 6116   7.551   1.252   0.417  0.6813  0.2113 -0.1110
   15CHTO  H118 6117   7.659   1.236   0.398  0.2973 -3.3198  0.5097
   15CHTO   O40 6118   7.487   1.280   0.299 -0.1174 -0.5933  0.1754
   15CHTO   C68 6119   7.356   1.211   0.275 -0.3298  0.5798 -0.4302
   15CHTO  H125 6120   7.368   1.104   0.252  0.3713 -0.1172  2.9450
   15CHTO   C72 6121   7.291   1.274   0.144 -0.4451  0.0278 -0.0097
   15CHTO   O48 6122   7.379   1.276   0.040 -0.7560  0.3748 -0.2879
   15CHTO  H105 6123   7.384   1.193  -0.004 -2.3656  0.9228 -1.5643
   15CHTO   O38 6124   7.528   1.359   0.516 -0.2297  0.5568  0.4126
   15CHTO   C55 6125   7.571   1.491   0.486 -0.5146 -0.1816  0.3821
   15CHTO  H112 6126   7.570   1.515   0.379  1.8053  4.2374  1.2558
   15CHTO   C56 6127   7.722   1.495   0.552 -0.2187 -0.5320  0.2350
   15CHTO  H113 6128   7.716   1.460   0.656 -0.5428  3.3198  1.6275
   15CHTO   O42 6129   7.802   1.409   0.466 -0.6032 -0.1012 -0.2441
   15CHTO  H100 6130   7.784   1.321   0.492 -0.4079 -0.3188 -0.8325
   15CHTO   C57 6131   7.775   1.649   0.545 -0.5483 -0.3890  0.0429
   15CHTO  H114 6132   7.775   1.672   0.438 -1.0440 -2.1931 -0.3545
   15CHTO   N10 6133   7.911   1.660   0.603 -0.2695 -0.1886 -0.3852
   15CHTO  H106 6134   7.918   1.570   0.662 -0.1596 -1.2176 -1.9656
   15CHTO  H107 6135   7.993   1.660   0.533 -1.6455 -1.2490 -2.0051
   15CHTO   C58 6136   7.669   1.744   0.612  0.2901  0.1217 -0.4186
   15CHTO  H115 6137   7.683   1.736   0.722 -0.1032  0.6452 -0.3327
   15CHTO   O37 6138   7.539   1.723   0.557 -0.8205 -0.1047 -0.0653
   15CHTO   C59 6139   7.482   1.594   0.560  0.3841 -0.0703 -1.3139
   15CHTO  H116 6140   7.470   1.566   0.665  1.1831 -0.7547 -1.3974
   15CHTO   C70 6141   7.344   1.604   0.499 -0.1623 -0.3208  0.5046
   15CHTO   O46 6142   7.343   1.623   0.363 -0.6549 -0.5982 -0.5156
   15CHTO  H103 6143   7.358   1.538   0.326 -2.0046 -1.8681  1.7324
   15CHTO   O39 6144   7.722   1.890   0.568 -0.4576  0.0325 -0.3139
   15CHTO   C60 6145   7.704   1.945   0.438 -0.0263  0.3894  0.2603
   15CHTO  H117 6146   7.692   1.867   0.363 -0.7415 -0.4192  1.2022
   15CHTO   C62 6147   7.575   2.020   0.432  0.6394  0.0982 -0.6336
   15CHTO  H119 6148   7.497   1.947   0.465  0.3087 -0.2068 -2.0732
   15CHTO   O43 6149   7.584   2.132   0.519  0.5021  0.1190  0.1534
   15CHTO  H101 6150   7.546   2.109   0.601 -0.2150 -2.3485 -0.8488
   15CHTO   C66 6151   7.542   2.055   0.279  0.8181  0.3509  0.7274
   15CHTO  H123 6152   7.536   1.962   0.222 -0.6746  0.9329 -0.0946
   15CHTO   N12 6153   7.400   2.101   0.263 -0.4250  0.3793  0.2758
   15CHTO  H110 6154   7.371   2.191   0.315 -0.3785 -1.2775  3.2802
   15CHTO  H111 6155   7.332   2.018   0.278 -0.7455  0.9918  2.3586
   15CHTO   C69 6156   7.656   2.144   0.224 -0.2012 -0.3546 -0.0767
   15CHTO  H126 6157   7.641   2.251   0.249  0.8411 -0.2732  0.2023
   15CHTO   O41 6158   7.790   2.093   0.246 -0.5324  0.5642 -0.1981
   15CHTO   C64 6159   7.820   2.040   0.384  0.6342 -0.0309 -0.0929
   15CHTO  H121 6160   7.831   2.129   0.450 -1.3300 -0.7125  1.1656
   15CHTO   C71 6161   7.958   1.968   0.391 -0.2303 -0.4286  0.4720
   15CHTO   O47 6162   7.958   1.862   0.301 -0.1491  0.1314 -0.0579
   15CHTO  H104 6163   8.043   1.832   0.276 -0.3547  0.6790 -1.5037
   15CHTO   O34 6164   7.638   2.140   0.079 -0.3764  0.9405 -0.2647
   15CHTO   C49 6165   7.587   2.209  -0.055  0.6870 -0.7372  0.9383
   15CHTO   H91 6166   7.597   2.135  -0.133  3.3977  0.2007  0.3400
   15CHTO   C47 6167   7.682   2.326  -0.097  1.0676  0.0664 -0.2158
   15CHTO   H89 6168   7.667   2.352  -0.203  3.8687  1.2208 -0.3830
   15CHTO   O33 6169   7.819   2.289  -0.070 -0.2635  0.0765  0.4791
   15CHTO   H70 6170   7.878   2.279  -0.142  0.7517  0.5716  1.2269
   15CHTO   C45 6171   7.648   2.463  -0.014 -0.7914 -0.3787  0.4466
   15CHTO   H87 6172   7.660   2.428   0.089 -0.3388  1.7432  1.1561
   15CHTO    N8 6173   7.748   2.572  -0.038  0.6533 -0.4269  0.3499
   15CHTO   H75 6174   7.718   2.628  -0.125  2.6145 -0.8161 -0.6091
   15CHTO   H76 6175   7.758   2.640   0.046  2.1779  1.0218 -0.9692
   15CHTO   C43 6176   7.492   2.500  -0.022  0.0183 -0.4965 -0.5198
   15CHTO   H85 6177   7.475   2.585   0.044 -0.8545 -0.5260 -0.7006
   15CHTO   O29 6178   7.398   2.389   0.006 -0.2783  0.0363 -0.7612
   15CHTO   C50 6179   7.438   2.265  -0.054 -0.5300  0.0489  0.6129
   15CHTO   H92 6180   7.374   2.191  -0.003 -2.2723  0.8512 -0.3421
   15CHTO   C54 6181   7.381   2.261  -0.199 -0.5700 -0.1732 -0.1914
   15CHTO   O36 6182   7.245   2.271  -0.213 -0.3231  0.0457 -0.6019
   15CHTO   H72 6183   7.218   2.323  -0.287  0.1614  3.2157  1.3848
   15CHTO   O27 6184   7.466   2.538  -0.159 -0.4189  0.0344 -0.6720
   15CHTO   C37 6185   7.366   2.616  -0.223  0.6084  0.8171  0.9239
   15CHTO   H79 6186   7.294   2.547  -0.270  0.7697  0.4427  1.2218
   15CHTO   C38 6187   7.295   2.707  -0.131 -0.8063 -0.1924 -0.7826
   15CHTO   H80 6188   7.367   2.771  -0.079 -1.2043  0.1229 -0.6189
   15CHTO   O31 6189   7.218   2.623  -0.041 -0.0335  0.5386  0.3777
   15CHTO   H68 6190   7.135   2.593  -0.074  1.8057 -4.1929 -0.3425
   15CHTO   C39 6191   7.198   2.805  -0.211 -0.2100  0.1604  0.1265
   15CHTO   H81 6192   7.118   2.740  -0.245  0.7952 -1.5799  0.9948
   15CHTO    N7 6193   7.136   2.907  -0.115 -0.4401  0.0778 -0.4885
   15CHTO   H73 6194   7.103   2.863  -0.022  0.3438 -0.7668 -0.6040
   15CHTO   H74 6195   7.199   2.992  -0.090 -1.0361  0.3943 -0.0478
   15CHTO   C40 6196   7.268   2.875  -0.333 -0.4463 -0.8361  0.1179
   15CHTO   H82 6197   7.328   2.957  -0.294  1.6899 -1.9491 -0.7533
   15CHTO   O26 6198   7.348   2.785  -0.406 -0.3299  0.0345 -0.4690
   15CHTO   C41 6199   7.436   2.698  -0.330  0.3677 -0.2554  0.2947
   15CHTO   H83 6200   7.511   2.761  -0.280  0.2481 -0.2106  0.4159
   15CHTO   C52 6201   7.509   2.618  -0.433  0.8044  0.0246  0.1563
   15CHTO   O35 6202   7.585   2.686  -0.515 -0.4402 -0.1722  0.3339
   15CHTO   H71 6203   7.628   2.761  -0.479 -0.7343  0.1885 -0.0645
   15CHTO   O28 6204   7.182   2.934  -0.435  0.4011  0.4745 -0.3714
   15CHTO   C42 6205   7.200   3.060  -0.510 -0.7936  0.1396 -0.5415
   15CHTO   H84 6206   7.141   3.036  -0.599  1.2929 -1.7249 -1.4686
   15CHTO   C44 6207   7.346   3.092  -0.560 -0.0270  0.0880  0.2940
   15CHTO   H86 6208   7.415   3.112  -0.479  2.6710 -0.9544 -1.6920
   15CHTO   O32 6209   7.393   2.983  -0.632 -0.6973  0.0143 -0.8385
   15CHTO   H69 6210   7.351   2.970  -0.715 -1.2706 -0.1559 -0.5231
   15CHTO   C48 6211   7.356   3.227  -0.643  0.1513  0.0830 -0.5337
   15CHTO   H90 6212   7.307   3.213  -0.740 -2.8064  0.4018  0.8492
   15CHTO    N9 6213   7.500   3.269  -0.673 -0.2687 -0.4861 -0.4220
   15CHTO   H77 6214   7.573   3.205  -0.626 -0.2363  0.0227  0.2214
   15CHTO   H78 6215   7.519   3.373  -0.650  0.8310 -0.6692 -0.4525
   15CHTO   C51 6216   7.263   3.341  -0.576 -0.3543  0.1497  0.0789
   15CHTO   H93 6217   7.322   3.385  -0.495 -0.8130  0.9052  0.0056
   15CHTO   O30 6218   7.139   3.290  -0.525 -0.2237 -0.7863 -0.6961
   15CHTO   C46 6219   7.138   3.185  -0.446 -0.1348  0.5391  0.5747
   15CHTO   H88 6220   7.181   3.210  -0.348 -0.7624 -0.3657  1.0828
   15CHTO   C53 6221   6.987   3.161  -0.399 -0.2048 -0.1200 -0.9203
   15CHTO   O72 6222   6.901   3.141  -0.506  0.0215 -0.0037  1.1607
   15CHTO  H199 6223   6.833   3.081  -0.482 -0.9501  0.6907  0.2202
   15CHTO   O22 6224   7.235   3.445  -0.676  0.0079 -0.5326  0.2121
   15CHTO   C31 6225   7.187   3.587  -0.647 -0.3546 -0.1861  0.4726
   15CHTO   H59 6226   7.217   3.640  -0.740  0.5582 -0.8026  0.4160
   15CHTO   C29 6227   7.031   3.601  -0.632  0.6051 -0.2070  0.4679
   15CHTO   H57 6228   6.995   3.507  -0.587  1.0495 -0.8045 -0.3973
   15CHTO   O21 6229   6.970   3.587  -0.760  0.4195 -0.1290 -0.3748
   15CHTO   H37 6230   6.877   3.576  -0.751 -0.1337  3.4526 -1.2004
   15CHTO   C27 6231   6.977   3.730  -0.564 -0.1544 -0.6619 -0.3923
   15CHTO   H55 6232   6.972   3.813  -0.636 -2.6767 -0.6767 -0.2786
   15CHTO    N5 6233   6.841   3.724  -0.497 -0.4183 -0.2059 -0.1790
   15CHTO   H43 6234   6.768   3.677  -0.562 -1.8912  3.1816 -1.0825
   15CHTO   H44 6235   6.814   3.825  -0.472 -1.8624  0.0157 -2.4738
   15CHTO   C25 6236   7.083   3.788  -0.460 -0.3662  0.7139 -0.1997
   15CHTO   H53 6237   7.083   3.736  -0.363  0.5536  0.8050 -0.1451
   15CHTO   O17 6238   7.215   3.779  -0.513 -0.5479 -0.1800  0.3123
   15CHTO   C32 6239   7.270   3.648  -0.533 -0.2092  0.0534 -0.0906
   15CHTO   H60 6240   7.260   3.583  -0.447 -0.1359  1.2275  0.8226
   15CHTO   C36 6241   7.423   3.648  -0.553  0.3140  0.2374 -0.1320
   15CHTO   O25 6242   7.486   3.694  -0.429  0.1152 -0.8934 -0.1798
   15CHTO   H40 6243   7.447   3.771  -0.394 -0.0406 -1.3449  0.6539
   15CHTO   O15 6244   7.057   3.933  -0.428  0.0434  0.6650  0.4457
   15CHTO   C19 6245   7.087   4.040  -0.338 -0.2146 -0.3432 -0.2117
   15CHTO   H47 6246   7.162   4.097  -0.395 -0.6867  1.1105  0.5834
   15CHTO   C20 6247   6.966   4.146  -0.320 -0.5817  0.3716 -0.4896
   15CHTO   H48 6248   6.886   4.104  -0.257 -1.0667 -1.7602 -2.4783
   15CHTO   O19 6249   6.901   4.169  -0.445  0.4239  0.1353  0.3683
   15CHTO   H35 6250   6.942   4.143  -0.525  1.3984  1.3070  0.4885
   15CHTO   C21 6251   7.028   4.276  -0.255  0.4191  0.5086  0.3546
   15CHTO   H49 6252   7.107   4.308  -0.323 -0.7809  0.5768 -1.0349
   15CHTO    N4 6253   6.939   4.397  -0.246  0.0500  0.1465  0.1125
   15CHTO   H41 6254   6.928   4.430  -0.143  0.4578  0.6869 -0.0175
   15CHTO   H42 6255   6.989   4.477  -0.299 -1.7940  0.7348 -0.7852
   15CHTO   C22 6256   7.084   4.234  -0.116  0.0622 -0.3725  0.4120
   15CHTO   H50 6257   7.003   4.204  -0.050  0.0560 -0.4145  0.3854
   15CHTO   O14 6258   7.179   4.129  -0.121  0.3606  0.3569  0.0352
   15CHTO   C23 6259   7.151   4.011  -0.200 -0.0823 -0.6419  0.3954
   15CHTO   H51 6260   7.082   3.949  -0.142 -1.4205 -0.1241 -0.5999
   15CHTO   C34 6261   7.289   3.941  -0.212  0.4726 -0.5049 -0.5749
   15CHTO   O23 6262   7.389   4.001  -0.296  0.5014 -0.0237  0.4468
   15CHTO   H38 6263   7.353   4.018  -0.381 -0.0588  0.3723  0.7533
   15CHTO   O16 6264   7.161   4.346  -0.064  0.0480  0.3812  0.4274
   15CHTO   C24 6265   7.133   4.378   0.099  0.5175 -0.7207  0.8330
   15CHTO   H52 6266   7.055   4.312   0.137 -0.0225 -1.3213 -1.2404
   15CHTO   C26 6267   7.085   4.526   0.119  0.0825 -0.3105  0.2326
   15CHTO   H54 6268   7.148   4.593   0.057 -0.8268 -1.7983 -2.3704
   15CHTO   O20 6269   6.954   4.550   0.062 -0.0523 -0.3793  0.3134
   15CHTO   H36 6270   6.954   4.532  -0.030 -1.1302  0.4245  0.1477
   15CHTO   C30 6271   7.098   4.581   0.266  0.1104  0.6162  0.6242
   15CHTO   H58 6272   7.032   4.518   0.328  0.1753 -1.9646 -1.8065
   15CHTO    N6 6273   7.054   4.724   0.279 -0.4265  0.1354 -0.5664
   15CHTO   H45 6274   6.999   4.755   0.192  0.4105 -0.2204 -1.2304
   15CHTO   H46 6275   7.137   4.792   0.287 -1.1475  1.1916 -1.9576
   15CHTO   C33 6276   7.243   4.548   0.311 -0.3433 -0.1512  0.0458
   15CHTO   H61 6277   7.304   4.594   0.232 -1.2814  1.0543  0.0098
   15CHTO   O18 6278   7.261   4.403   0.310  0.3755 -1.1746 -0.7422
   15CHTO   C28 6279   7.269   4.348   0.177 -0.2870  0.8873 -0.6642
   15CHTO   H56 6280   7.352   4.395   0.124  2.0450 -0.5714  1.5738
   15CHTO   C35 6281   7.300   4.195   0.191 -0.0894 -0.2458  0.0526
   15CHTO   O24 6282   7.431   4.167   0.236  0.9020  0.1090  0.1096
   15CHTO   H39 6283   7.459   4.079   0.224  0.3476  0.1927 -1.8700
   15CHTO    O9 6284   7.288   4.604   0.438  0.3536  0.4058 -0.3633
   15CHTO   C13 6285   7.440   4.672   0.440  0.1034 -0.0789 -0.6557
   15CHTO   H26 6286   7.424   4.771   0.393  3.6346  0.1915 -1.4384
   15CHTO   C11 6287   7.547   4.590   0.361 -0.6121 -0.4010  0.2461
   15CHTO   H24 6288   7.517   4.577   0.256  0.1749 -1.6218  0.1668
   15CHTO    O8 6289   7.550   4.456   0.418  0.3256  0.0324  0.0352
   15CHTO    H3 6290   7.594   4.395   0.362 -2.8165 -2.4376  0.1718
   15CHTO    C9 6291   7.684   4.661   0.391  0.2918 -0.2242 -0.1215
   15CHTO   H22 6292   7.670   4.765   0.355  2.0197  0.3942  0.9488
   15CHTO    N2 6293   7.793   4.614   0.302  0.0190  0.2365 -0.2773
   15CHTO   H10 6294   7.759   4.623   0.200  0.1263 -0.2133 -0.3537
   15CHTO   H11 6295   7.878   4.679   0.311  0.7640 -0.8474  0.8019
   15CHTO    C7 6296   7.710   4.649   0.543 -0.4533  0.0153 -0.8439
   15CHTO   H20 6297   7.766   4.742   0.564 -2.3175  1.7139 -3.1603
   15CHTO    O4 6298   7.596   4.649   0.633 -0.0471 -0.1190  0.1026
   15CHTO   C14 6299   7.467   4.691   0.593 -0.1521  0.0753  0.4016
   15CHTO   H27 6300   7.476   4.800   0.615 -1.6982  0.3403 -0.1775
   15CHTO   C18 6301   7.367   4.627   0.688 -0.0145 -0.3165 -0.3122
   15CHTO   O13 6302   7.341   4.486   0.669  0.0087 -0.6155 -0.2018
   15CHTO    H7 6303   7.418   4.432   0.668 -0.0797 -0.7648  0.5428
   15CHTO    O2 6304   7.798   4.515   0.576 -0.1247  0.4717  0.1124
   15CHTO    C1 6305   7.859   4.518   0.702 -0.0415  0.1564 -0.1340
   15CHTO   H14 6306   7.795   4.580   0.768  0.2653  1.8893 -1.4445
   15CHTO    C2 6307   8.001   4.586   0.693 -0.4898  0.5646 -0.0462
   15CHTO   H15 6308   8.042   4.519   0.616  0.4437  1.8015 -0.6374
   15CHTO    O6 6309   7.992   4.718   0.649 -0.3651 -0.2745 -0.4192
   15CHTO    H1 6310   8.078   4.753   0.635 -0.3473 -0.3238 -0.4385
   15CHTO    C3 6311   8.083   4.574   0.837  0.3036  0.5437 -0.8837
   15CHTO   H16 6312   8.022   4.627   0.911 -0.5324  0.8886 -1.8035
   15CHTO    N1 6313   8.224   4.628   0.829  0.1341 -0.9333  0.3697
   15CHTO    H8 6314   8.248   4.710   0.895  2.2422 -1.2884  0.0668
   15CHTO    H9 6315   8.302   4.554   0.839  0.6535 -0.3371  0.7460
   15CHTO    C4 6316   8.075   4.422   0.876  0.0990 -0.2392  0.1345
   15CHTO   H17 6317   8.128   4.366   0.799  0.2749  1.3250 -0.9063
   15CHTO    O1 6318   7.934   4.383   0.893  0.1107  0.3546 -0.4646
   15CHTO    C5 6319   7.860   4.379   0.770  0.2410 -0.6314  0.5327
   15CHTO   H18 6320   7.900   4.301   0.706  1.8249  1.8671 -1.5932
   15CHTO   C16 6321   7.710   4.349   0.802 -0.4299  0.2701  0.4099
   15CHTO   O11 6322   7.690   4.239   0.900  0.1002 -0.5490  0.1252
   15CHTO    H5 6323   7.673   4.153   0.868  0.5688  0.1530 -2.1457
   15CHTO    O3 6324   8.145   4.405   1.001  0.1149  0.2150 -0.1930
   15CHTO    C6 6325   8.166   4.268   1.051  0.4418  0.0746 -0.0271
   15CHTO   H19 6326   8.118   4.199   0.980  0.6784  1.2696 -1.3696
   15CHTO    C8 6327   8.317   4.233   1.060 -0.4602 -0.1295 -0.3148
   15CHTO   H21 6328   8.371   4.312   1.112 -0.1314 -0.1781 -0.5846
   15CHTO    O7 6329   8.367   4.230   0.924 -0.5629  0.0408 -0.3191
   15CHTO    H2 6330   8.416   4.310   0.912 -0.2026 -0.1211  0.0857
   15CHTO   C12 6331   8.352   4.097   1.127 -0.4081 -0.1223  0.3212
   15CHTO   H25 6332   8.320   4.017   1.058 -0.5262  1.1752 -1.1637
   15CHTO    N3 6333   8.504   4.078   1.127 -0.1876  0.2120  0.0752
   15CHTO   H12 6334   8.549   3.982   1.149  1.3089  1.5669  3.3144
   15CHTO   H13 6335   8.548   4.153   1.192  0.0919 -0.0831  0.2312
   15CHTO   C15 6336   8.282   4.082   1.259  0.5203  0.3759 -0.4457
   15CHTO   H28 6337   8.316   4.138   1.346 -2.9115  0.7495  0.7265
   15CHTO   O10 6338   8.262   3.948   1.301 -0.2219  0.3191  0.0328
   15CHTO    H4 6339   8.333   3.887   1.299 -1.2531 -0.8756 -0.8026
   15CHTO    O5 6340   8.140   4.107   1.240  0.8198  0.0974  0.2390
   15CHTO   C10 6341   8.100   4.240   1.196  0.7069 -0.3741 -0.0422
   15CHTO   H23 6342   8.135   4.315   1.266  0.8880 -1.1027  0.6529
   15CHTO   C17 6343   7.947   4.253   1.210 -0.1802  0.1787  0.2327
   15CHTO   O12 6344   7.911   4.388   1.174 -0.0369  0.1683  0.1278
   15CHTO    H6 6345   7.829   4.404   1.217  0.9707  1.5499  1.6184
   16CHTO  H203 6346   6.550   4.818  -0.143 -0.0968  0.0861  1.4686
   16CHTO   O82 6347   6.613   4.750  -0.126 -0.1235 -0.3952 -0.3372
   16CHTO  C123 6348   6.564   4.654  -0.032 -0.4010  0.7309 -0.3333
   16CHTO  H227 6349   6.454   4.655  -0.026 -0.4689 -0.7007 -1.2266
   16CHTO   O77 6350   6.602   4.531  -0.098 -0.4781 -0.5625 -0.0797
   16CHTO  C118 6351   6.570   4.414  -0.024 -0.0108 -0.7365  0.4345
   16CHTO  H222 6352   6.468   4.422   0.014 -0.9595  1.0266 -2.3202
   16CHTO  C125 6353   6.580   4.288  -0.116  0.0139 -0.1157  0.1950
   16CHTO   O84 6354   6.512   4.312  -0.244 -0.6858 -0.2376  0.8406
   16CHTO  H205 6355   6.499   4.236  -0.297 -1.4763  1.4094 -1.4155
   16CHTO  C114 6356   6.660   4.403   0.099  0.1067 -0.5983  0.3103
   16CHTO  H218 6357   6.764   4.407   0.067 -0.2151 -0.9559 -0.7835
   16CHTO  C116 6358   6.618   4.523   0.193  0.5309  0.8283 -0.4260
   16CHTO  H220 6359   6.518   4.494   0.231  1.3131 -0.1193  0.9419
   16CHTO   O79 6360   6.716   4.524   0.299  0.0048 -0.0975 -0.3739
   16CHTO  H201 6361   6.711   4.606   0.343 -0.0457 -0.3160  0.0288
   16CHTO  C120 6362   6.625   4.665   0.116 -0.3321 -0.0852 -0.0518
   16CHTO  H224 6363   6.732   4.693   0.114  0.3605 -2.7199 -1.5159
   16CHTO   N21 6364   6.564   4.763   0.204  0.2540  0.0832  0.1894
   16CHTO  H211 6365   6.641   4.787   0.276  0.1661  0.7453  0.0737
   16CHTO  H212 6366   6.463   4.742   0.237  0.7892  1.3621  2.8005
   16CHTO   O75 6367   6.637   4.273   0.157 -0.3147  0.0160 -0.3766
   16CHTO  C112 6368   6.754   4.154   0.133  0.4210  0.2213  0.6294
   16CHTO  H216 6369   6.829   4.204   0.070 -0.1185  0.5081  0.2030
   16CHTO   O73 6370   6.698   4.046   0.061  0.1103 -0.0949 -0.4701
   16CHTO  C113 6371   6.797   3.954   0.006 -0.6321 -0.4831 -0.2730
   16CHTO  H217 6372   6.859   4.023  -0.055 -0.0032  0.3495  1.2644
   16CHTO  C124 6373   6.724   3.858  -0.086 -0.1060 -0.2795  0.6238
   16CHTO   O83 6374   6.707   3.918  -0.215  0.2284  0.1452 -0.4127
   16CHTO  H204 6375   6.782   3.899  -0.267 -0.2706  1.1344 -1.5182
   16CHTO  C109 6376   6.881   3.880   0.118  0.0415  0.8569  0.0819
   16CHTO  H213 6377   6.816   3.799   0.155  0.9231 -0.1423 -0.5110
   16CHTO  C110 6378   6.927   3.986   0.232  0.2739 -0.3038 -0.0352
   16CHTO  H214 6379   7.010   4.050   0.202 -1.3888  1.0480 -1.9035
   16CHTO   O78 6380   6.977   3.910   0.347 -0.1205  0.0566 -0.6865
   16CHTO  H200 6381   7.021   3.969   0.405  1.4017 -2.4173  0.8182
   16CHTO  C111 6382   6.810   4.085   0.271 -0.2275 -0.0892  0.2151
   16CHTO  H215 6383   6.727   4.025   0.310 -0.4301 -0.3482 -0.6103
   16CHTO   N19 6384   6.842   4.189   0.370  0.1595  0.4965 -0.0219
   16CHTO  H207 6385   6.754   4.249   0.390 -0.7214  0.0040 -2.2935
   16CHTO  H208 6386   6.875   4.151   0.465 -1.2847  1.5894  0.9473
   16CHTO   O74 6387   7.005   3.826   0.056 -0.1458 -0.2159  0.1962
   16CHTO  C115 6388   7.028   3.678   0.105 -0.1769  0.0954  0.8368
   16CHTO  H219 6389   6.994   3.663   0.208 -0.3367  3.2895  1.2885
   16CHTO   O76 6390   6.944   3.573   0.012  0.7835 -0.0993 -0.5027
   16CHTO  C122 6391   6.998   3.549  -0.117  0.2552  0.0261 -0.2426
   16CHTO  H226 6392   7.003   3.643  -0.171 -1.6815  0.2101 -0.1102
   16CHTO  C126 6393   6.902   3.453  -0.189  0.2824 -0.7615 -0.9175
   16CHTO   O85 6394   6.797   3.525  -0.249  0.0779  0.2883  0.1852
   16CHTO  H206 6395   6.842   3.549  -0.328  2.9374  1.6909  2.1130
   16CHTO  C121 6396   7.145   3.478  -0.101  0.6860  0.2046  0.4546
   16CHTO  H225 6397   7.114   3.372  -0.114 -1.0778  0.4499  2.3428
   16CHTO   O81 6398   7.237   3.525  -0.209 -0.1264  0.3248 -0.0013
   16CHTO  H202 6399   7.326   3.499  -0.195 -0.5932 -1.3457 -0.1278
   16CHTO  C119 6400   7.203   3.500   0.041 -0.2571  0.3309 -0.2175
   16CHTO  H223 6401   7.149   3.443   0.117  0.5020  2.2196  1.7806
   16CHTO  C117 6402   7.183   3.648   0.089  0.3578 -0.3037 -0.2529
   16CHTO  H221 6403   7.209   3.718   0.010  0.6893 -0.1461 -0.0087
   16CHTO   N20 6404   7.266   3.682   0.203 -0.5689 -0.0919 -0.4765
   16CHTO  H209 6405   7.218   3.733   0.285  0.9365 -1.3525  1.2665
   16CHTO  H210 6406   7.346   3.740   0.159  1.2962 -3.0795 -1.2368
   16CHTO   O80 6407   7.358   3.439   0.063 -0.3812 -0.2401 -0.5126
   16CHTO  C103 6408   7.384   3.279   0.062 -0.0436  0.5145  0.0855
   16CHTO  H190 6409   7.294   3.220   0.045 -0.6934  2.0469 -2.0295
   16CHTO  C101 6410   7.472   3.220  -0.049 -0.3225  0.1939 -0.2002
   16CHTO  H188 6411   7.568   3.271  -0.045  0.6099 -1.5797  0.8283
   16CHTO   O68 6412   7.404   3.245  -0.178 -0.0874 -0.2987  0.0793
   16CHTO  H168 6413   7.434   3.327  -0.211 -0.7936  0.3265  0.9480
   16CHTO   C99 6414   7.490   3.056  -0.034  0.4670 -0.1032  0.4292
   16CHTO  H186 6415   7.390   3.011  -0.055  0.2941  0.3367  0.3099
   16CHTO   N17 6416   7.599   3.003  -0.132  0.2493 -0.4849  0.2143
   16CHTO  H174 6417   7.548   2.981  -0.225  0.4254  0.4446 -0.1032
   16CHTO  H175 6418   7.631   2.910  -0.087  0.2786 -0.7236 -0.2995
   16CHTO   C97 6419   7.524   3.012   0.108 -0.5708 -0.1728  0.6995
   16CHTO  H184 6420   7.631   3.032   0.122 -0.2628 -1.1400 -0.1808
   16CHTO   O64 6421   7.441   3.087   0.205  0.4582  0.3454  0.4839
   16CHTO  C104 6422   7.448   3.232   0.201  0.3504 -0.0624  0.7902
   16CHTO  H191 6423   7.547   3.275   0.215  0.6645 -0.3377 -0.4527
   16CHTO  C108 6424   7.359   3.298   0.309 -0.1948  0.0716 -0.1372
   16CHTO   O71 6425   7.395   3.247   0.440  0.2507 -0.0654  0.1926
   16CHTO  H171 6426   7.323   3.207   0.484  1.7240 -0.9842  1.8265
   16CHTO   O62 6427   7.509   2.870   0.121 -0.2384  0.3991  0.4625
   16CHTO   C91 6428   7.528   2.826   0.253 -0.4709 -0.0009 -0.5660
   16CHTO  H178 6429   7.540   2.907   0.325 -1.4088 -2.9194  3.0243
   16CHTO   C92 6430   7.653   2.731   0.265  0.4139  0.3325 -0.4667
   16CHTO  H179 6431   7.653   2.648   0.192  2.2927  1.1948 -1.4933
   16CHTO   O66 6432   7.769   2.811   0.231  0.2732  0.0208  1.0883
   16CHTO  H166 6433   7.801   2.871   0.295 -1.4040 -0.2083  2.1904
   16CHTO   C93 6434   7.673   2.672   0.409 -0.3176 -0.2839  0.3898
   16CHTO  H180 6435   7.695   2.759   0.472 -0.7511  1.2297 -1.4774
   16CHTO   N16 6436   7.781   2.573   0.416  0.0551  0.5655  0.9025
   16CHTO  H172 6437   7.853   2.595   0.338 -1.4003 -0.5876 -0.8298
   16CHTO  H173 6438   7.735   2.475   0.412  0.2181  0.5160  0.1274
   16CHTO   C94 6439   7.536   2.609   0.457  0.7596 -0.2241  0.0278
   16CHTO  H181 6440   7.502   2.530   0.390  0.7178  0.2225 -0.4846
   16CHTO   O61 6441   7.436   2.706   0.450 -0.1485 -0.0460 -0.0857
   16CHTO   C95 6442   7.399   2.743   0.314 -0.1250  0.5726  0.0986
   16CHTO  H182 6443   7.380   2.653   0.256 -0.7504  0.3311  0.6738
   16CHTO  C106 6444   7.279   2.835   0.314  0.2679 -0.3188  0.1577
   16CHTO   O69 6445   7.163   2.757   0.328 -0.4938 -0.3217  0.4145
   16CHTO  H169 6446   7.090   2.814   0.341  0.2169  0.7723 -0.2814
   16CHTO   O63 6447   7.543   2.545   0.625  0.0058 -0.2022  1.1511
   16CHTO   C96 6448   7.412   2.511   0.678  0.8102 -0.9799 -0.0910
   16CHTO  H183 6449   7.410   2.453   0.771 -1.6284 -0.9592 -0.1038
   16CHTO   C98 6450   7.318   2.422   0.581  0.7382 -0.2691 -0.7389
   16CHTO  H185 6451   7.334   2.471   0.484  0.9182  0.6443 -0.2475
   16CHTO   O67 6452   7.357   2.280   0.561  0.2025  0.0165  0.8097
   16CHTO  H167 6453   7.382   2.246   0.644 -0.5148  0.2875  1.1372
   16CHTO  C102 6454   7.162   2.439   0.619 -0.2956  0.3955  0.2531
   16CHTO  H189 6455   7.143   2.379   0.710  1.3614 -1.7731 -0.7701
   16CHTO   N18 6456   7.071   2.381   0.513 -0.5399  0.1279  0.1387
   16CHTO  H176 6457   6.973   2.423   0.531  0.1648  0.7118  2.8684
   16CHTO  H177 6458   7.098   2.411   0.413 -1.5019 -0.0995 -0.1965
   16CHTO  C105 6459   7.134   2.589   0.651  0.3530  0.9122  0.2851
   16CHTO  H192 6460   7.165   2.651   0.567  2.3706 -0.1302  0.2465
   16CHTO   O65 6461   7.211   2.625   0.767  0.6146 -0.3043 -0.3225
   16CHTO  C100 6462   7.349   2.649   0.732  0.5965 -0.2611 -0.4525
   16CHTO  H187 6463   7.366   2.730   0.658  1.2841 -1.1440 -1.2775
   16CHTO  C107 6464   7.429   2.701   0.850 -0.0113 -0.3039  0.2864
   16CHTO   O70 6465   7.400   2.833   0.907  0.1752 -0.5530 -0.2387
   16CHTO  H170 6466   7.408   2.905   0.848  0.0966 -1.4553 -1.3808
   16CHTO   O57 6467   6.959   2.590   0.677  0.2424 -0.2763  0.1026
   16CHTO   C85 6468   6.886   2.694   0.608 -0.1556 -0.2052 -0.4816
   16CHTO  H157 6469   6.917   2.695   0.501 -2.4057  0.5107 -1.1459
   16CHTO   C83 6470   6.940   2.830   0.657  0.0560  0.0806 -0.4429
   16CHTO  H155 6471   7.047   2.838   0.637  0.5837 -0.4013  1.9127
   16CHTO   O56 6472   6.914   2.831   0.802  0.4258 -0.0743 -0.1610
   16CHTO  H135 6473   6.822   2.821   0.816  0.4794 -0.0039  0.2552
   16CHTO   C81 6474   6.863   2.940   0.574  0.5669  0.0130 -0.1876
   16CHTO  H153 6475   6.879   2.924   0.468 -1.4423 -0.5806 -0.4309
   16CHTO   N14 6476   6.909   3.077   0.598  0.2901  0.5006  0.4811
   16CHTO  H141 6477   6.882   3.110   0.697  0.8143  1.1445  0.4164
   16CHTO  H142 6478   7.014   3.094   0.585  0.0937  0.0542 -1.8337
   16CHTO   C79 6479   6.705   2.938   0.595 -1.0511  0.1256 -0.0196
   16CHTO  H151 6480   6.666   3.014   0.528 -0.6235 -0.0987 -0.5373
   16CHTO   O52 6481   6.664   2.805   0.552  0.4480 -0.3498 -0.0742
   16CHTO   C86 6482   6.733   2.700   0.620  0.7368 -0.0769  0.3057
   16CHTO  H158 6483   6.712   2.721   0.727 -2.0529  0.3619 -0.2700
   16CHTO   C90 6484   6.669   2.563   0.586  0.4523 -0.1985  0.2737
   16CHTO   O60 6485   6.527   2.573   0.612 -0.2918 -0.3712  0.0786
   16CHTO  H138 6486   6.470   2.521   0.558 -0.7932 -0.4632  0.6872
   16CHTO   O50 6487   6.669   2.968   0.731 -0.3972 -0.0332 -0.2496
   16CHTO   C73 6488   6.543   2.983   0.805  0.2258  0.2936 -0.7551
   16CHTO  H145 6489   6.508   2.891   0.853 -1.8930  2.0602  1.1891
   16CHTO   C74 6490   6.413   3.036   0.729 -0.0973 -0.4669  0.0561
   16CHTO  H146 6491   6.390   2.966   0.648 -0.0227 -0.2876 -0.1190
   16CHTO   O54 6492   6.298   3.023   0.812 -0.6475 -0.7329  0.4699
   16CHTO  H133 6493   6.255   3.094   0.856 -2.5628 -1.4037 -0.2611
   16CHTO   C75 6494   6.446   3.183   0.680 -0.3365  0.3715  0.0006
   16CHTO  H147 6495   6.537   3.179   0.618 -0.8425 -1.2021 -0.6677
   16CHTO   N13 6496   6.340   3.250   0.596  0.0975  0.2842 -0.0952
   16CHTO  H139 6497   6.312   3.188   0.511 -0.5636  0.2911  0.1151
   16CHTO  H140 6498   6.257   3.284   0.655  0.6151 -0.5831  1.1523
   16CHTO   C76 6499   6.477   3.275   0.808  0.2318  0.4572  0.1095
   16CHTO  H148 6500   6.389   3.277   0.872  1.4567  0.6759  1.8171
   16CHTO   O49 6501   6.588   3.218   0.878 -0.1164  0.1773  0.2327
   16CHTO   C77 6502   6.572   3.084   0.921  0.5399  0.0028  0.1227
   16CHTO  H149 6503   6.492   3.074   0.995 -0.0785  0.2803 -0.5085
   16CHTO   C88 6504   6.695   3.057   1.009  0.2933 -0.0594  0.8097
   16CHTO   O58 6505   6.703   2.923   1.059 -0.1573  0.0584  0.0982
   16CHTO  H136 6506   6.760   2.933   1.132 -0.4653  0.7662  0.2501
   16CHTO   O51 6507   6.514   3.433   0.771  0.6499  0.3531 -0.3527
   16CHTO   C78 6508   6.479   3.517   0.890 -0.5773 -0.0127 -0.1878
   16CHTO  H150 6509   6.441   3.456   0.975  1.6415 -0.2525  0.6497
   16CHTO   C80 6510   6.367   3.612   0.841  0.2768 -0.7618 -0.4973
   16CHTO  H152 6511   6.409   3.668   0.754  0.7502 -4.2311 -2.6357
   16CHTO   O55 6512   6.262   3.518   0.814  0.3093 -0.1294 -0.0300
   16CHTO  H134 6513   6.178   3.559   0.811 -0.3169 -1.4569 -1.4285
   16CHTO   C84 6514   6.328   3.731   0.939 -0.0137 -0.3763 -0.3522
   16CHTO  H156 6515   6.293   3.686   1.031 -2.9166  1.3441 -0.5315
   16CHTO   N15 6516   6.230   3.837   0.882  0.2073  0.2500 -0.4742
   16CHTO  H143 6517   6.147   3.832   0.950 -0.0864 -1.6327 -0.9466
   16CHTO  H144 6518   6.203   3.805   0.784  0.4081  1.2336 -0.8563
   16CHTO   C87 6519   6.455   3.802   0.980  0.3602 -0.6149  0.1323
   16CHTO  H159 6520   6.506   3.852   0.898  0.9131 -1.4688 -0.0570
   16CHTO   O53 6521   6.545   3.692   1.047 -0.2179  0.3785 -0.4772
   16CHTO   C82 6522   6.595   3.608   0.940 -0.1693  0.1878 -0.3504
   16CHTO  H154 6523   6.639   3.654   0.852  2.0506  0.6688  0.9871
   16CHTO   C89 6524   6.708   3.529   1.009  0.3557  0.6428  0.8150
   16CHTO   O59 6525   6.796   3.488   0.905 -0.0504  0.2721  0.3598
   16CHTO  H137 6526   6.752   3.450   0.832 -1.6321  0.9670  0.9323
   16CHTO   O45 6527   6.430   3.915   1.094 -0.6780 -0.5292 -0.2910
   16CHTO   C67 6528   6.544   3.980   1.153 -0.3013  0.2126  0.5372
   16CHTO  H124 6529   6.631   3.931   1.109 -1.4188 -1.8158  0.4928
   16CHTO   C65 6530   6.551   4.128   1.119 -0.1649  0.8378  0.0884
   16CHTO  H122 6531   6.448   4.160   1.102 -0.6287  0.5448  2.2840
   16CHTO   O44 6532   6.618   4.131   0.989 -0.1602 -0.0827 -0.5016
   16CHTO  H102 6533   6.712   4.130   0.993  0.0367 -1.8616 -3.6606
   16CHTO   C63 6534   6.603   4.225   1.227  1.1025 -0.5411 -0.6795
   16CHTO  H120 6535   6.530   4.240   1.306  3.9491  2.9002  1.4698
   16CHTO   N11 6536   6.647   4.370   1.194 -0.0374  0.5305 -0.2339
   16CHTO  H108 6537   6.703   4.376   1.103  1.4899  1.3943  0.7403
   16CHTO  H109 6538   6.700   4.424   1.269  0.6661  0.2511 -0.5225
   16CHTO   C61 6539   6.710   4.151   1.310  0.7818 -0.2689 -0.0907
   16CHTO  H118 6540   6.745   4.216   1.391  1.9833 -0.6647 -0.2739
   16CHTO   O40 6541   6.667   4.021   1.368 -0.0109 -0.0978 -0.1487
   16CHTO   C68 6542   6.547   3.965   1.314  0.2152 -0.3312 -0.5701
   16CHTO  H125 6543   6.467   4.022   1.367  0.4219  0.5390 -1.1848
   16CHTO   C72 6544   6.539   3.821   1.370 -0.6648  0.1021 -0.0764
   16CHTO   O48 6545   6.413   3.760   1.343  0.4345  0.5277  0.2762
   16CHTO  H105 6546   6.378   3.693   1.398  1.4784 -2.2695 -2.3131
   16CHTO   O38 6547   6.832   4.127   1.236  0.4232  0.7494  0.0414
   16CHTO   C55 6548   6.940   4.054   1.293 -0.3664  0.7580 -0.2466
   16CHTO  H112 6549   6.898   4.008   1.384  1.5391 -1.4860 -0.4704
   16CHTO   C56 6550   7.061   4.160   1.329  0.3211  0.3645  0.0073
   16CHTO  H113 6551   7.075   4.224   1.241  0.4122 -0.9180 -0.9237
   16CHTO   O42 6552   7.032   4.254   1.429 -0.3903  1.1769  0.3673
   16CHTO  H100 6553   7.103   4.311   1.452 -0.5561  1.5625 -0.0796
   16CHTO   C57 6554   7.190   4.079   1.370  0.4238  0.4196 -0.1078
   16CHTO  H114 6555   7.184   4.044   1.473 -0.2256 -0.0477 -0.3046
   16CHTO   N10 6556   7.316   4.156   1.372 -0.3003  0.0136 -0.0189
   16CHTO  H106 6557   7.354   4.185   1.276  1.5223 -1.9961  0.0471
   16CHTO  H107 6558   7.314   4.240   1.440 -1.2439 -0.3886  0.4674
   16CHTO   C58 6559   7.220   3.960   1.272 -0.4393 -1.1493  0.1546
   16CHTO  H115 6560   7.229   4.007   1.172 -2.0509 -0.6561  0.2322
   16CHTO   O37 6561   7.105   3.874   1.262  0.6797 -0.2169 -0.6412
   16CHTO   C59 6562   6.990   3.938   1.199  0.2457 -0.3010 -0.6649
   16CHTO  H116 6563   7.013   3.976   1.099 -0.7896  0.0637 -0.7653
   16CHTO   C70 6564   6.886   3.825   1.194  0.4285 -0.3360 -0.0855
   16CHTO   O46 6565   6.928   3.723   1.107  0.5295 -0.0886 -0.2295
   16CHTO  H103 6566   6.867   3.697   1.041  1.1589  1.1815 -1.3247
   16CHTO   O39 6567   7.339   3.862   1.325 -0.0366  0.6958 -0.2970
   16CHTO   C60 6568   7.405   3.794   1.217 -0.0979  0.3298  0.4372
   16CHTO  H117 6569   7.342   3.804   1.128  0.7958  1.3895 -0.0786
   16CHTO   C62 6570   7.550   3.850   1.200  0.0780  0.4730 -0.3675
   16CHTO  H119 6571   7.541   3.961   1.193 -5.0716  0.2571  0.8401
   16CHTO   O43 6572   7.632   3.823   1.323  0.2209 -0.1306 -0.3109
   16CHTO  H101 6573   7.608   3.741   1.361 -0.7539  0.6422  0.7818
   16CHTO   C66 6574   7.628   3.789   1.078  0.4076  0.0637 -0.3149
   16CHTO  H123 6575   7.565   3.814   0.993  1.0941  3.2432  0.0363
   16CHTO   N12 6576   7.759   3.866   1.051  0.2634  0.4916 -0.0991
   16CHTO  H110 6577   7.805   3.866   1.149 -0.8833 -0.5024  0.4585
   16CHTO  H111 6578   7.819   3.807   0.982  1.0169 -0.9540  1.7403
   16CHTO   C69 6579   7.652   3.635   1.090 -0.3265 -0.2244  0.2123
   16CHTO  H126 6580   7.723   3.635   1.176 -0.0153 -1.5245 -0.0352
   16CHTO   O41 6581   7.513   3.545   1.152 -0.4515  0.8449  0.2440
   16CHTO   C64 6582   7.405   3.644   1.246 -0.0895  0.1542 -0.0376
   16CHTO  H121 6583   7.430   3.620   1.352 -0.7151 -2.4415 -0.4499
   16CHTO   C71 6584   7.259   3.598   1.232 -0.7051 -0.4239  0.4341
   16CHTO   O47 6585   7.238   3.557   1.101  0.3652 -0.0017 -0.0562
   16CHTO  H104 6586   7.146   3.541   1.092  0.5263 -0.8090 -0.3435
   16CHTO   O34 6587   7.724   3.575   0.971  0.3231 -0.5121  0.3007
   16CHTO   C49 6588   7.708   3.575   0.814 -0.0732 -0.0410 -0.1157
   16CHTO   H91 6589   7.712   3.679   0.783  1.2011 -0.0613 -0.0557
   16CHTO   C47 6590   7.570   3.513   0.776  0.3091 -0.0565 -0.2941
   16CHTO   H89 6591   7.570   3.507   0.665  1.1513 -0.9774 -0.2560
   16CHTO   O33 6592   7.466   3.601   0.829 -0.5110 -0.2639 -0.1937
   16CHTO   H70 6593   7.380   3.565   0.835 -0.7174  0.2771  0.1909
   16CHTO   C45 6594   7.567   3.365   0.835  0.8521  0.6861  0.3691
   16CHTO   H87 6595   7.539   3.381   0.940  2.3650  0.5725  0.7925
   16CHTO    N8 6596   7.455   3.287   0.776  0.1422 -0.7323  0.4910
   16CHTO   H75 6597   7.475   3.183   0.798 -0.0935 -1.4728 -2.6626
   16CHTO   H76 6598   7.453   3.294   0.669  0.5457 -2.5475  0.3523
   16CHTO   C43 6599   7.715   3.298   0.836  0.3927  0.0125  0.4479
   16CHTO   H85 6600   7.758   3.323   0.933  0.8921  0.7865  0.0322
   16CHTO   O29 6601   7.794   3.347   0.730  0.1028 -0.1120 -0.1835
   16CHTO   C50 6602   7.820   3.488   0.751 -0.0397 -0.4293 -0.1443
   16CHTO   H92 6603   7.908   3.486   0.817 -0.8549 -1.3467  0.9491
   16CHTO   C54 6604   7.861   3.544   0.614 -0.5936 -0.6354 -0.0461
   16CHTO   O36 6605   7.909   3.678   0.626 -0.8376 -0.6213  0.2886
   16CHTO   H72 6606   7.904   3.726   0.546  1.7198  2.7312  2.0404
   16CHTO   O27 6607   7.702   3.156   0.842  0.1659  0.4468 -0.3413
   16CHTO   C37 6608   7.777   3.047   0.896 -0.0925 -0.2988 -0.8200
   16CHTO   H79 6609   7.874   3.089   0.927 -1.3941  0.6711  2.1421
   16CHTO   C38 6610   7.720   3.012   1.034 -0.4186  0.6756 -0.1535
   16CHTO   H80 6611   7.617   2.975   1.031 -0.0494 -0.4035  0.3217
   16CHTO   O31 6612   7.726   3.132   1.118  0.0293 -0.0455  0.0624
   16CHTO   H68 6613   7.656   3.135   1.180 -0.8533  0.1485 -0.9387
   16CHTO   C39 6614   7.801   2.893   1.100 -0.1286  0.8093 -0.1039
   16CHTO   H81 6615   7.902   2.932   1.112  0.0444 -0.7743  4.4484
   16CHTO    N7 6616   7.751   2.847   1.226 -0.5005  0.1218 -0.1727
   16CHTO   H73 6617   7.826   2.866   1.302 -0.2472  1.6804 -0.8077
   16CHTO   H74 6618   7.651   2.882   1.250 -1.7649 -2.7948 -0.9998
   16CHTO   C40 6619   7.810   2.771   0.995 -0.7422  0.8308  0.0286
   16CHTO   H82 6620   7.711   2.732   0.973 -1.1923  1.5237  0.7816
   16CHTO   O26 6621   7.878   2.826   0.875  0.1244 -0.0423  0.6655
   16CHTO   C41 6622   7.797   2.927   0.803  0.3687 -0.1628 -0.0699
   16CHTO   H83 6623   7.702   2.894   0.759  1.3878 -0.3384 -2.2054
   16CHTO   C52 6624   7.882   2.969   0.682 -1.1551  0.4946 -0.1249
   16CHTO   O35 6625   7.928   2.869   0.589  0.0268  0.2243 -0.5740
   16CHTO   H71 6626   8.004   2.832   0.629 -0.7813 -0.7048  0.1195
   16CHTO   O28 6627   7.890   2.660   1.044  0.2614  0.0726 -0.1296
   16CHTO   C42 6628   7.849   2.516   1.010 -0.3879 -0.8085  0.6187
   16CHTO   H84 6629   7.935   2.458   1.042  1.2260  1.2120  0.0685
   16CHTO   C44 6630   7.829   2.488   0.853  0.5001 -0.2609 -0.2241
   16CHTO   H86 6631   7.740   2.538   0.814  1.1363  1.2800  0.2289
   16CHTO   O32 6632   7.941   2.553   0.800  1.0405  0.5757  0.1681
   16CHTO   H69 6633   7.940   2.638   0.841  1.8079  0.6473  0.0349
   16CHTO   C48 6634   7.810   2.335   0.830  0.4484  0.1077  0.1071
   16CHTO   H90 6635   7.885   2.273   0.879  0.1695 -0.4395 -0.1536
   16CHTO    N9 6636   7.814   2.291   0.689  0.1384 -0.3397 -0.1329
   16CHTO   H77 6637   7.904   2.320   0.636  0.4001  0.1393  0.5607
   16CHTO   H78 6638   7.723   2.302   0.632  0.3236 -0.3765 -0.4400
   16CHTO   C51 6639   7.683   2.293   0.906  0.2126  0.3199  0.2485
   16CHTO   H93 6640   7.604   2.353   0.861 -0.1305 -1.4810 -1.6123
   16CHTO   O30 6641   7.694   2.314   1.043 -0.0270  0.0527  0.7589
   16CHTO   C46 6642   7.726   2.462   1.081  0.5351  1.2144 -0.0260
   16CHTO   H88 6643   7.634   2.516   1.059 -0.1681  0.2933  0.6019
   16CHTO   C53 6644   7.751   2.479   1.234 -0.4139  0.4802 -0.1326
   16CHTO   O72 6645   7.642   2.465   1.321 -0.0854 -0.1964 -0.2276
   16CHTO  H199 6646   7.633   2.378   1.355 -0.1574  0.2532  0.9214
   16CHTO   O22 6647   7.649   2.157   0.887 -0.1638 -0.2229  0.0470
   16CHTO   C31 6648   7.524   2.089   0.921  0.0461 -0.0763 -0.2724
   16CHTO   H59 6649   7.495   2.143   1.014  0.3005 -3.0589  1.6209
   16CHTO   C29 6650   7.401   2.087   0.826  0.1928  0.1203 -0.5106
   16CHTO   H57 6651   7.444   2.053   0.731  2.7596 -1.0710  0.9873
   16CHTO   O21 6652   7.363   2.224   0.814  0.0695  0.1500  0.3695
   16CHTO   H37 6653   7.418   2.265   0.749  1.0916  0.0470  1.1481
   16CHTO   C27 6654   7.276   1.999   0.863  0.1795  0.8550 -0.5959
   16CHTO   H55 6655   7.219   2.052   0.941  1.7047 -1.1132  1.9431
   16CHTO    N5 6656   7.185   1.977   0.752  0.6409 -0.2781  0.0189
   16CHTO   H43 6657   7.246   1.975   0.663  0.0003  0.9959 -0.4663
   16CHTO   H44 6658   7.105   2.048   0.740  0.3444 -0.8985 -1.9626
   16CHTO   C25 6659   7.319   1.858   0.926 -0.2161 -0.4072  0.3132
   16CHTO   H53 6660   7.358   1.794   0.845  0.3013 -1.2889  1.2442
   16CHTO   O17 6661   7.421   1.891   1.026 -0.1532 -0.8004  0.1467
   16CHTO   C32 6662   7.544   1.944   0.967 -0.1440 -0.2888 -0.3959
   16CHTO   H60 6663   7.571   1.885   0.880  1.9874 -2.2258  1.5095
   16CHTO   C36 6664   7.653   1.930   1.084  0.0517 -0.2127 -0.0930
   16CHTO   O25 6665   7.628   2.026   1.187  0.1337 -0.0658  0.7081
   16CHTO   H40 6666   7.665   2.109   1.162 -0.7086 -0.1665 -0.9690
   16CHTO   O15 6667   7.197   1.776   1.000  0.0139 -0.0700 -0.4606
   16CHTO   C19 6668   7.085   1.791   1.086 -0.7043  0.5533 -0.8756
   16CHTO   H47 6669   7.061   1.690   1.123 -0.7602  0.7933 -0.2568
   16CHTO   C20 6670   7.118   1.894   1.205 -0.2278 -0.3287  0.6654
   16CHTO   H48 6671   7.135   1.995   1.163 -3.1077  0.2985  0.9409
   16CHTO   O19 6672   7.234   1.837   1.274  0.1147 -0.2826 -0.1322
   16CHTO   H35 6673   7.307   1.821   1.217 -0.7403  0.2232 -1.3650
   16CHTO   C21 6674   6.992   1.902   1.308 -0.4297  0.3758 -0.2417
   16CHTO   H49 6675   6.969   1.802   1.345  0.1272  0.1993 -0.3548
   16CHTO    N4 6676   7.003   1.997   1.417 -0.2504  0.6422 -0.3372
   16CHTO   H41 6677   7.084   1.966   1.480 -0.9968  1.1240  0.8809
   16CHTO   H42 6678   7.024   2.097   1.381 -0.8329  0.8276 -0.1720
   16CHTO   C22 6679   6.859   1.935   1.229  0.5355 -0.4963  0.0063
   16CHTO   H50 6680   6.865   2.039   1.195  2.7104 -1.0475 -1.4301
   16CHTO   O14 6681   6.848   1.842   1.120 -0.1516 -0.6029  0.3688
   16CHTO   C23 6682   6.962   1.847   1.022  0.0058  0.3137 -0.0811
   16CHTO   H51 6683   6.978   1.947   0.979 -0.3308 -0.0420 -1.0294
   16CHTO   C34 6684   6.914   1.755   0.907 -0.2448 -0.0464  0.3149
   16CHTO   O23 6685   6.799   1.791   0.828  0.1152 -0.6756  0.1338
   16CHTO   H38 6686   6.723   1.762   0.875  0.1413 -0.8499  0.0687
   16CHTO   O16 6687   6.732   1.928   1.301  0.6941  0.1912 -0.6317
   16CHTO   C24 6688   6.625   2.034   1.249  0.5974 -0.5781  0.4149
   16CHTO   H52 6689   6.645   2.064   1.147 -0.9206 -1.9617 -0.3255
   16CHTO   C26 6690   6.609   2.146   1.351  0.2367 -0.0447  0.2421
   16CHTO   H54 6691   6.601   2.094   1.449  0.6831  0.0089  0.3080
   16CHTO   O20 6692   6.724   2.231   1.367 -0.3763  0.5386 -0.2956
   16CHTO   H36 6693   6.803   2.181   1.378 -0.6357 -0.1018 -1.3380
   16CHTO   C30 6694   6.477   2.225   1.334  0.0176  0.3967  0.5833
   16CHTO   H58 6695   6.482   2.284   1.242  1.9949 -0.2603  0.2476
   16CHTO    N6 6696   6.467   2.331   1.437  0.0220  0.0156  0.1572
   16CHTO   H45 6697   6.465   2.432   1.397  0.9744  0.4911  1.2670
   16CHTO   H46 6698   6.381   2.315   1.500 -0.9271 -2.7661 -1.7950
   16CHTO   C33 6699   6.363   2.124   1.317 -0.4302  0.2034 -0.1741
   16CHTO   H61 6700   6.344   2.072   1.413 -0.8589  1.1774  0.2785
   16CHTO   O18 6701   6.397   2.030   1.215  0.2815 -0.0868  0.3406
   16CHTO   C28 6702   6.503   1.941   1.236 -0.1066  0.3800  0.4823
   16CHTO   H56 6703   6.494   1.877   1.324  0.1349  0.2419  0.4084
   16CHTO   C35 6704   6.509   1.851   1.113  0.2705  0.0973  0.3717
   16CHTO   O24 6705   6.585   1.734   1.132 -0.3788  0.4705 -0.2550
   16CHTO   H39 6706   6.531   1.690   1.195 -1.2405  4.2020  1.7862
   16CHTO    O9 6707   6.247   2.200   1.284 -0.7098  0.0489  0.1508
   16CHTO   C13 6708   6.114   2.175   1.388 -0.6730  0.0489 -0.0282
   16CHTO   H26 6709   6.158   2.196   1.488  1.5027 -0.2313 -0.8881
   16CHTO   C11 6710   6.064   2.023   1.385  0.0660  0.6044  0.3302
   16CHTO   H24 6711   6.141   1.965   1.436 -0.4835  0.1078  0.6032
   16CHTO    O8 6712   6.050   1.987   1.244  0.1429  0.2972 -0.3359
   16CHTO    H3 6713   6.130   1.995   1.196  0.4264 -0.5982 -0.0137
   16CHTO    C9 6714   5.920   2.017   1.447  1.1564 -0.3882 -1.0630
   16CHTO   H22 6715   5.930   2.059   1.548 -0.3789  1.0565 -1.4798
   16CHTO    N2 6716   5.888   1.872   1.475  0.3520 -0.1875 -0.1191
   16CHTO   H10 6717   5.891   1.817   1.382  0.5960 -0.0546 -0.1914
   16CHTO   H11 6718   5.973   1.841   1.535 -0.2215  0.4920  1.0512
   16CHTO    C7 6719   5.822   2.108   1.364  0.5162 -0.1589 -0.0838
   16CHTO   H20 6720   5.749   2.146   1.438  0.5580 -1.2213  0.5040
   16CHTO    O4 6721   5.884   2.223   1.305 -0.1951  0.2437  0.0480
   16CHTO   C14 6722   5.993   2.282   1.370  0.0598  0.7662 -0.0484
   16CHTO   H27 6723   5.959   2.316   1.471 -0.5941 -1.6100  0.5723
   16CHTO   C18 6724   6.040   2.405   1.296 -0.5179 -0.5658 -0.1627
   16CHTO   O13 6725   6.142   2.489   1.359 -0.2074 -0.3976  0.1471
   16CHTO    H7 6726   6.157   2.564   1.306  3.0821  0.2175  1.8711
   16CHTO    O2 6727   5.732   2.030   1.249  0.2013 -0.0580  0.3793
   16CHTO    C1 6728   5.590   2.065   1.215 -0.5999 -0.1630  0.1977
   16CHTO   H14 6729   5.553   1.987   1.145  0.5038  0.1399 -0.7442
   16CHTO    C2 6730   5.573   2.199   1.145  0.6411  0.1959 -0.5298
   16CHTO   H15 6731   5.602   2.271   1.222  0.4302  1.5701 -1.7121
   16CHTO    O6 6732   5.663   2.204   1.033  0.3848 -0.6318  0.1667
   16CHTO    H1 6733   5.660   2.124   0.985  2.3156 -0.0205 -1.0416
   16CHTO    C3 6734   5.415   2.213   1.110  0.0331  0.0734  0.2921
   16CHTO   H16 6735   5.383   2.139   1.036 -1.1472  0.1672  0.7028
   16CHTO    N1 6736   5.397   2.346   1.050 -0.7053 -0.5761  0.6198
   16CHTO    H8 6737   5.292   2.359   1.026 -0.2431  0.4407 -0.8682
   16CHTO    H9 6738   5.455   2.360   0.960 -1.2242 -0.5777  0.2796
   16CHTO    C4 6739   5.323   2.184   1.235  0.4020  0.6120 -0.1746
   16CHTO   H17 6740   5.330   2.264   1.308 -0.2587  1.0513 -0.5796
   16CHTO    O1 6741   5.360   2.067   1.303 -0.0316  0.2097  0.3405
   16CHTO    C5 6742   5.493   2.050   1.333  0.3289  0.4564  0.4737
   16CHTO   H18 6743   5.511   2.121   1.414 -1.7714  1.6677 -0.0819
   16CHTO   C16 6744   5.498   1.909   1.398 -0.0983 -0.7097  0.4954
   16CHTO   O11 6745   5.457   1.803   1.310 -0.0996  0.1189  0.6168
   16CHTO    H5 6746   5.516   1.793   1.238  2.1337 -0.4190  2.4629
   16CHTO    O3 6747   5.185   2.161   1.199  0.3830 -0.3066 -0.4307
   16CHTO    C6 6748   5.093   2.228   1.284 -0.0637 -0.0050 -0.1668
   16CHTO   H19 6749   5.141   2.281   1.367  1.8672 -1.3748 -0.3739
   16CHTO    C8 6750   5.018   2.340   1.209  0.1716 -0.4921  0.0999
   16CHTO   H21 6751   4.981   2.295   1.117  0.0665  1.6424 -0.9392
   16CHTO    O7 6752   5.114   2.445   1.171 -0.2207  0.1297  0.1231
   16CHTO    H2 6753   5.196   2.409   1.145 -0.0674  0.8971 -0.4565
   16CHTO   C12 6754   4.907   2.392   1.304 -0.2735 -0.0156  0.3096
   16CHTO   H25 6755   4.965   2.442   1.384  3.6832 -2.1453 -1.0733
   16CHTO    N3 6756   4.828   2.494   1.222  0.3468  0.2659  0.3435
   16CHTO   H12 6757   4.838   2.593   1.264  0.9731  0.1905  0.3664
   16CHTO   H13 6758   4.726   2.458   1.211  0.4153 -0.2703  1.3789
   16CHTO   C15 6759   4.820   2.281   1.370 -0.2992  0.0804 -0.0493
   16CHTO   H28 6760   4.763   2.235   1.289 -0.2759  2.4346 -1.4388
   16CHTO   O10 6761   4.728   2.350   1.482 -0.0114 -0.6398 -0.4085
   16CHTO    H4 6762   4.772   2.355   1.565 -1.8250 -2.1207  0.7175
   16CHTO    O5 6763   4.903   2.186   1.440 -0.4579 -0.1511 -0.1067
   16CHTO   C10 6764   4.998   2.124   1.350 -0.2033  0.5180 -0.7424
   16CHTO   H23 6765   4.949   2.076   1.266 -0.7584 -1.6980  0.7959
   16CHTO   C17 6766   5.065   2.012   1.431 -0.0322 -0.4100  0.0124
   16CHTO   O12 6767   4.972   1.910   1.461 -0.0240  0.1293 -0.2006
   16CHTO    H6 6768   5.013   1.868   1.534 -1.9165  0.7742  1.2912
   17CHTO  H203 6769   5.832   4.223  -0.046  1.6945 -0.8521 -1.6029
   17CHTO   O82 6770   5.885   4.300  -0.041  0.8425 -0.3480  0.0000
   17CHTO  C123 6771   5.815   4.421   0.009 -0.8042  0.3232  0.3122
   17CHTO  H227 6772   5.767   4.398   0.105 -1.2157  0.3916  0.1240
   17CHTO   O77 6773   5.918   4.528   0.027  0.5135 -0.3270 -0.0845
   17CHTO  C118 6774   5.867   4.645   0.088  0.0942 -0.2536  0.4713
   17CHTO  H222 6775   5.811   4.615   0.177  0.6740 -0.6624  0.6960
   17CHTO  C125 6776   5.984   4.747   0.126 -0.0763 -0.5036  0.2912
   17CHTO   O84 6777   6.058   4.766   0.005 -0.1379 -0.1599 -0.2147
   17CHTO  H205 6778   6.144   4.799   0.023 -0.1833  0.2712 -0.7994
   17CHTO  C114 6779   5.771   4.714  -0.014 -0.3900 -0.0730 -0.2333
   17CHTO  H218 6780   5.822   4.724  -0.110  0.8388 -0.9293  0.3126
   17CHTO  C116 6781   5.651   4.619  -0.042  0.1394  0.5187  0.9043
   17CHTO  H220 6782   5.583   4.596   0.043 -0.9316  3.1042  0.7832
   17CHTO   O79 6783   5.565   4.680  -0.139 -0.1829 -0.0154 -0.4457
   17CHTO  H201 6784   5.612   4.697  -0.218 -0.7905  2.1033 -0.3636
   17CHTO  C120 6785   5.708   4.476  -0.090  0.3941  0.0464  0.7522
   17CHTO  H224 6786   5.749   4.496  -0.191 -0.4563  0.1928  0.4380
   17CHTO   N21 6787   5.601   4.370  -0.110  0.3400  0.2788  0.0265
   17CHTO  H211 6788   5.639   4.304  -0.187 -0.4255 -0.2838  0.1192
   17CHTO  H212 6789   5.551   4.326  -0.025 -1.0578 -0.8357 -1.3356
   17CHTO   O75 6790   5.739   4.841   0.049  0.7521 -0.1418 -0.2893
   17CHTO  C112 6791   5.707   4.966  -0.067 -0.2239 -0.3428 -1.1099
   17CHTO  H216 6792   5.670   4.922  -0.160  0.2662  1.8939 -2.3885
   17CHTO   O73 6793   5.833   5.027  -0.087  0.2647  0.0756  0.1891
   17CHTO  C113 6794   5.841   5.139  -0.181  0.2439  0.8564  0.0637
   17CHTO  H217 6795   5.793   5.111  -0.277 -0.2107 -0.4751  0.6689
   17CHTO  C124 6796   5.985   5.178  -0.224  0.1313  0.1887 -0.4664
   17CHTO   O83 6797   6.059   5.215  -0.108 -0.1159 -0.3845  0.1755
   17CHTO  H204 6798   6.103   5.139  -0.075  1.8425  0.3744 -0.6243
   17CHTO  C109 6799   5.755   5.258  -0.135 -0.4036 -0.3252 -0.0361
   17CHTO  H213 6800   5.789   5.290  -0.035 -0.8960  0.6521 -0.1647
   17CHTO  C110 6801   5.611   5.197  -0.127  1.3575 -0.1301 -0.5608
   17CHTO  H214 6802   5.583   5.174  -0.230 -0.7582 -1.1143  0.2065
   17CHTO   O78 6803   5.515   5.298  -0.099  0.4324 -0.7898 -0.0979
   17CHTO  H200 6804   5.550   5.342  -0.024 -1.1782 -2.7689  1.8681
   17CHTO  C111 6805   5.604   5.075  -0.026 -0.2349  0.4592 -0.2861
   17CHTO  H215 6806   5.629   5.116   0.072  0.2797  1.6962 -0.9317
   17CHTO   N19 6807   5.465   5.017  -0.015 -0.3342  0.3528 -0.5003
   17CHTO  H207 6808   5.433   4.963  -0.103 -0.5307 -2.1997  1.0671
   17CHTO  H208 6809   5.459   4.946   0.067 -2.0752  0.3022 -0.6507
   17CHTO   O74 6810   5.771   5.375  -0.220  0.5010  0.5031  0.4096
   17CHTO  C115 6811   5.763   5.518  -0.135 -0.2465 -0.0083  0.8803
   17CHTO  H219 6812   5.681   5.518  -0.063 -1.8620  3.0165 -0.8547
   17CHTO   O76 6813   5.895   5.531  -0.040  0.5102 -0.0126  0.0434
   17CHTO  C122 6814   6.013   5.598  -0.095 -0.0359 -0.0960 -0.6611
   17CHTO  H226 6815   6.058   5.547  -0.180 -0.8444 -1.6883 -0.1711
   17CHTO  C126 6816   6.138   5.612   0.012 -0.2041  0.1972  0.4547
   17CHTO   O85 6817   6.256   5.531  -0.021 -0.3808 -0.6443 -0.6710
   17CHTO  H206 6818   6.314   5.526   0.053 -0.8445 -1.9802 -0.3785
   17CHTO  C121 6819   5.972   5.749  -0.152  0.3550 -0.4173 -0.2219
   17CHTO  H225 6820   6.001   5.817  -0.070 -0.8016 -0.9748  0.6776
   17CHTO   O81 6821   6.067   5.776  -0.256 -0.1814  0.8299  0.5066
   17CHTO  H202 6822   6.046   5.857  -0.299 -0.1912  1.6243  1.9885
   17CHTO  C119 6823   5.825   5.773  -0.190  0.2752  0.6208  0.8717
   17CHTO  H223 6824   5.787   5.784  -0.089 -0.5603 -2.2976  0.9212
   17CHTO  C117 6825   5.760   5.641  -0.244 -0.5458  0.0111 -0.0329
   17CHTO  H221 6826   5.814   5.602  -0.331 -2.2975 -1.6087 -0.4252
   17CHTO   N20 6827   5.619   5.669  -0.292 -0.5688 -0.1957  0.2641
   17CHTO  H209 6828   5.567   5.711  -0.208  0.9837 -0.0644  1.1790
   17CHTO  H210 6829   5.574   5.576  -0.325  0.5152 -1.1642  1.4502
   17CHTO   O80 6830   5.801   5.923  -0.265  0.0710 -0.0614 -0.2281
   17CHTO  C103 6831   5.840   6.075  -0.189  0.6465  0.9251  0.1519
   17CHTO  H190 6832   5.822   6.068  -0.082 -2.3423 -0.9597 -0.3991
   17CHTO  C101 6833   5.981   6.133  -0.221 -0.1287  0.1827  0.1280
   17CHTO  H188 6834   5.993   6.143  -0.329 -2.1603  2.6985  0.1011
   17CHTO   O68 6835   6.095   6.040  -0.174 -0.3575  0.0491 -0.4211
   17CHTO  H168 6836   6.062   6.011  -0.091 -1.2938  1.5437 -0.2461
   17CHTO   C99 6837   6.003   6.278  -0.162  0.4942  0.4642 -0.0419
   17CHTO  H186 6838   5.983   6.265  -0.054 -0.1848 -0.4899 -0.2832
   17CHTO   N17 6839   6.140   6.343  -0.187  0.8566  0.1644  0.0557
   17CHTO  H174 6840   6.125   6.423  -0.258  1.7456  0.0351 -0.2824
   17CHTO  H175 6841   6.194   6.262  -0.232  0.4862 -0.1371  0.1525
   17CHTO   C97 6842   5.881   6.363  -0.210 -0.4342  0.3079 -0.1626
   17CHTO  H184 6843   5.891   6.377  -0.319 -0.1441 -0.1323 -0.1934
   17CHTO   O64 6844   5.752   6.302  -0.173  0.2299  0.0984 -0.3942
   17CHTO  C104 6845   5.741   6.179  -0.249 -0.2784 -0.0332 -0.3328
   17CHTO  H191 6846   5.752   6.201  -0.355 -1.6627  2.2396 -0.0406
   17CHTO  C108 6847   5.598   6.125  -0.239  0.1903  0.8444 -0.2456
   17CHTO   O71 6848   5.510   6.198  -0.325  0.4411  0.2327 -0.2464
   17CHTO  H171 6849   5.519   6.291  -0.313 -2.5411  0.6874 -1.2738
   17CHTO   O62 6850   5.867   6.491  -0.137  0.1211 -0.1216  0.2144
   17CHTO   C91 6851   5.800   6.599  -0.208 -0.4262  0.9124 -0.8135
   17CHTO  H178 6852   5.730   6.543  -0.269 -0.8498 -0.5991  1.0192
   17CHTO   C92 6853   5.896   6.674  -0.302  1.1633 -0.1543  0.2580
   17CHTO  H179 6854   5.954   6.609  -0.370  0.1808 -0.1044 -0.6448
   17CHTO   O66 6855   5.817   6.758  -0.388  0.1805 -0.1863 -0.1536
   17CHTO  H166 6856   5.810   6.728  -0.476 -0.6765  0.1874 -0.2217
   17CHTO   C93 6857   5.989   6.775  -0.222  0.1304 -0.5044 -0.0171
   17CHTO  H180 6858   6.016   6.845  -0.303 -2.1434  0.2344 -0.1633
   17CHTO   N16 6859   6.121   6.712  -0.185 -0.1274 -0.0304  0.2858
   17CHTO  H172 6860   6.209   6.767  -0.216  0.6835 -2.3445 -1.6530
   17CHTO  H173 6861   6.126   6.686  -0.080  1.8903  0.6055  0.3682
   17CHTO   C94 6862   5.910   6.855  -0.112 -0.1769 -0.0317 -0.5138
   17CHTO  H181 6863   5.943   6.831  -0.011 -1.5705 -2.0559 -0.5210
   17CHTO   O61 6864   5.765   6.827  -0.112 -0.1624 -0.3356  0.1623
   17CHTO   C95 6865   5.716   6.695  -0.108 -0.3904  0.3460  0.1273
   17CHTO  H182 6866   5.721   6.654  -0.007 -1.3504 -0.7551 -0.2536
   17CHTO  C106 6867   5.569   6.707  -0.145  0.1210  0.2392 -0.0888
   17CHTO   O69 6868   5.493   6.586  -0.161 -0.3739 -0.1859  0.3124
   17CHTO  H169 6869   5.525   6.537  -0.234  2.8610  1.2650  0.6417
   17CHTO   O63 6870   5.934   7.004  -0.131 -0.1896 -0.3597 -0.2508
   17CHTO   C96 6871   5.897   7.086   0.015  0.3359  0.8218 -0.2043
   17CHTO  H183 6872   5.890   7.015   0.097 -0.4244  0.6955 -0.3734
   17CHTO   C98 6873   5.759   7.165   0.015  0.3984 -0.2522 -0.6686
   17CHTO  H185 6874   5.740   7.224  -0.076 -1.0113 -1.3231 -1.0879
   17CHTO   O67 6875   5.659   7.062   0.017 -0.7371  0.4356 -0.1031
   17CHTO  H167 6876   5.655   7.023   0.102  0.5566  0.9513  0.2035
   17CHTO  C102 6877   5.738   7.261   0.146 -0.0788  0.9464  0.2088
   17CHTO  H189 6878   5.732   7.197   0.235 -0.9863 -0.9051 -1.1518
   17CHTO   N18 6879   5.611   7.335   0.141  0.3353 -0.5225  0.0904
   17CHTO  H176 6880   5.621   7.384   0.046  0.4298 -2.6011 -0.9960
   17CHTO  H177 6881   5.601   7.407   0.221 -0.1865  0.3313 -0.7465
   17CHTO  C105 6882   5.864   7.343   0.164  0.1862 -0.0840 -0.0029
   17CHTO  H192 6883   5.867   7.414   0.082 -0.9096  0.9058  0.7847
   17CHTO   O65 6884   5.984   7.259   0.166 -0.1985 -0.0040 -0.0691
   17CHTO  C100 6885   6.016   7.182   0.052  0.4157 -0.5030 -0.8500
   17CHTO  H187 6886   6.035   7.250  -0.032  0.8797  1.1814  0.5861
   17CHTO  C107 6887   6.145   7.090   0.081  0.2423 -0.5564 -0.2056
   17CHTO   O70 6888   6.269   7.170   0.082 -0.0104  0.3515  0.7363
   17CHTO  H170 6889   6.352   7.125   0.087  1.1458  2.3114 -0.2599
   17CHTO   O57 6890   5.840   7.422   0.299 -0.2442 -0.1340  0.1981
   17CHTO   C85 6891   5.941   7.520   0.341  0.7269 -0.5072  0.6567
   17CHTO  H157 6892   5.998   7.548   0.250  0.9535 -2.8401  0.0532
   17CHTO   C83 6893   6.047   7.450   0.427  0.3849  0.0751 -0.5110
   17CHTO  H155 6894   6.098   7.382   0.359 -0.2195 -0.2198 -0.6743
   17CHTO   O56 6895   5.978   7.374   0.532 -0.4269 -0.6361 -0.2309
   17CHTO  H135 6896   5.888   7.363   0.509 -0.7569 -0.6959  1.0980
   17CHTO   C81 6897   6.145   7.558   0.483  0.0456 -0.2110 -0.2318
   17CHTO  H153 6898   6.178   7.620   0.399  1.0089 -1.7973 -1.0488
   17CHTO   N14 6899   6.277   7.511   0.536 -0.1244  0.4058 -0.4701
   17CHTO  H141 6900   6.303   7.543   0.635 -0.6703  0.8083 -0.4531
   17CHTO  H142 6901   6.347   7.556   0.469  1.6391  1.1205  1.7971
   17CHTO   C79 6902   6.064   7.648   0.580  0.0589  0.5909  0.1160
   17CHTO  H151 6903   6.133   7.724   0.617  0.4445  0.5457 -0.4958
   17CHTO   O52 6904   5.961   7.723   0.506 -0.0885  0.0319 -0.1361
   17CHTO   C86 6905   5.876   7.653   0.416  0.9094 -0.2731  0.5156
   17CHTO  H158 6906   5.798   7.620   0.489  0.4526 -1.4107 -0.4739
   17CHTO   C90 6907   5.804   7.751   0.319 -0.0026 -0.0674  0.1644
   17CHTO   O60 6908   5.910   7.831   0.268  0.5479  0.1369 -0.2900
   17CHTO  H138 6909   5.869   7.907   0.230  0.5656  1.1851  1.7475
   17CHTO   O50 6910   5.999   7.591   0.690  0.2832  0.5475  0.3228
   17CHTO   C73 6911   5.946   7.574   0.823 -0.6151 -0.5644 -0.0852
   17CHTO  H145 6912   5.890   7.665   0.849  0.4834 -0.4241  1.9576
   17CHTO   C74 6913   6.060   7.556   0.926 -0.4999  0.4130 -0.6924
   17CHTO  H146 6914   6.128   7.642   0.942  1.5209 -1.1215 -0.8698
   17CHTO   O54 6915   6.002   7.552   1.054  0.1650 -0.4982 -0.0137
   17CHTO  H133 6916   5.926   7.608   1.053  1.7246  1.6779 -0.2167
   17CHTO   C75 6917   6.137   7.429   0.876  0.0350  0.8545  0.2605
   17CHTO  H147 6918   6.162   7.435   0.769 -0.3432 -3.8209 -0.1549
   17CHTO   N13 6919   6.266   7.428   0.944  0.3380  0.4989  0.5042
   17CHTO  H139 6920   6.275   7.430   1.052  1.9370  1.6046  0.3656
   17CHTO  H140 6921   6.328   7.344   0.917 -2.1727 -1.0037 -0.7822
   17CHTO   C76 6922   6.051   7.302   0.904  0.4446 -0.5093  0.0868
   17CHTO  H148 6923   6.026   7.290   1.009  1.0969  0.1938  0.3303
   17CHTO   O49 6924   5.917   7.313   0.833  0.0362 -0.4592 -0.6965
   17CHTO   C77 6925   5.854   7.447   0.831  0.2602  0.1692 -0.3166
   17CHTO  H149 6926   5.789   7.465   0.916  0.7173  1.9381 -0.3122
   17CHTO   C88 6927   5.750   7.446   0.714 -0.3143 -0.0192  0.1718
   17CHTO   O58 6928   5.686   7.563   0.691 -0.1869 -0.7753 -0.1971
   17CHTO  H136 6929   5.709   7.632   0.750 -0.2925  0.3614 -1.4397
   17CHTO   O51 6930   6.120   7.170   0.850 -0.2519  0.0693 -0.1476
   17CHTO   C78 6931   6.022   7.049   0.797 -0.6207 -0.4625 -0.3285
   17CHTO  H150 6932   5.942   7.083   0.728 -0.4670 -1.0090 -0.7909
   17CHTO   C80 6933   5.961   6.976   0.917 -0.4789 -0.2966 -0.4202
   17CHTO  H152 6934   6.043   6.946   0.985 -0.2117  1.1626 -0.0733
   17CHTO   O55 6935   5.871   7.066   0.986 -0.4100  0.2206 -0.5702
   17CHTO  H134 6936   5.899   7.155   0.976 -0.1593  0.1043 -0.9038
   17CHTO   C84 6937   5.889   6.848   0.869 -0.2178 -0.3854 -0.5224
   17CHTO  H156 6938   5.801   6.879   0.813 -0.5764  1.0113  0.7632
   17CHTO   N15 6939   5.839   6.780   0.991  0.3808  0.9326  0.2042
   17CHTO  H143 6940   5.779   6.696   0.964 -0.4116  1.1852  1.1186
   17CHTO  H144 6941   5.777   6.843   1.051 -0.8682 -0.5523  0.5216
   17CHTO   C87 6942   5.959   6.753   0.764  0.0173  0.7764 -0.2494
   17CHTO  H159 6943   6.006   6.660   0.795 -2.1467 -0.5731 -0.8397
   17CHTO   O53 6944   6.041   6.840   0.672 -0.1395  0.7272 -0.9792
   17CHTO   C82 6945   6.114   6.951   0.720 -0.3008  0.6270 -0.0671
   17CHTO  H154 6946   6.195   6.921   0.786 -0.6358 -1.0958 -0.3944
   17CHTO   C89 6947   6.172   7.017   0.591 -0.0108  0.3964  0.5694
   17CHTO   O59 6948   6.065   7.062   0.512  0.5623 -0.1460 -0.2243
   17CHTO  H137 6949   6.026   7.137   0.552 -3.6556 -1.5100 -1.5117
   17CHTO   O45 6950   5.845   6.663   0.663  0.5606 -0.2963 -0.4910
   17CHTO   C67 6951   5.711   6.631   0.709 -0.2108 -0.6422  0.1439
   17CHTO  H124 6952   5.687   6.668   0.809  0.2539  1.9302 -0.6638
   17CHTO   C65 6953   5.614   6.690   0.609  0.8041 -0.1129 -0.4681
   17CHTO  H122 6954   5.660   6.755   0.535  0.9481 -0.0405 -0.3153
   17CHTO   O44 6955   5.517   6.763   0.691 -0.0992 -0.1258 -0.0058
   17CHTO  H102 6956   5.448   6.800   0.640 -0.4041 -0.3588  0.2439
   17CHTO   C63 6957   5.538   6.588   0.513 -0.0884 -0.1409  0.3140
   17CHTO  H120 6958   5.609   6.538   0.447 -0.8810  0.6688 -1.1583
   17CHTO   N11 6959   5.446   6.653   0.411  0.0897 -0.2891 -0.6228
   17CHTO  H108 6960   5.488   6.738   0.362  1.6031 -1.5470 -1.5314
   17CHTO  H109 6961   5.409   6.579   0.343  1.1427 -2.2375  0.8753
   17CHTO   C61 6962   5.468   6.482   0.612 -0.5065 -0.8238 -0.0575
   17CHTO  H118 6963   5.448   6.396   0.547  1.4680  0.6479 -2.7162
   17CHTO   O40 6964   5.556   6.433   0.720 -0.0020 -0.0492 -0.0588
   17CHTO   C68 6965   5.690   6.473   0.722 -0.1888 -0.2008  0.1060
   17CHTO  H125 6966   5.734   6.431   0.629 -0.5024  0.3965 -0.3103
   17CHTO   C72 6967   5.771   6.407   0.839  0.2952  0.3285  0.0029
   17CHTO   O48 6968   5.903   6.369   0.814  0.4978  0.5060  0.1446
   17CHTO  H105 6969   5.951   6.359   0.894  2.8367 -1.0780 -1.3666
   17CHTO   O38 6970   5.348   6.536   0.673 -0.6308  0.4439 -0.2292
   17CHTO   C55 6971   5.277   6.461   0.770  0.2228  0.5186 -1.0725
   17CHTO  H112 6972   5.339   6.431   0.856  0.3305  1.6187 -0.7687
   17CHTO   C56 6973   5.206   6.331   0.706  0.3558 -0.1662  0.4357
   17CHTO  H113 6974   5.179   6.362   0.605  0.4262  0.5934  0.6481
   17CHTO   O42 6975   5.310   6.235   0.687 -0.2616  0.0443 -0.3465
   17CHTO  H100 6976   5.278   6.170   0.629 -0.8154 -2.3329  2.4849
   17CHTO   C57 6977   5.093   6.262   0.792  0.5768  0.2576  0.4562
   17CHTO  H114 6978   5.138   6.202   0.871  2.1904 -1.9496 -2.0702
   17CHTO   N10 6979   5.013   6.169   0.707 -0.4037  0.0295  0.0589
   17CHTO  H106 6980   5.010   6.203   0.605  1.9727  0.2494  0.0349
   17CHTO  H107 6981   4.914   6.159   0.750  0.2659  2.8775  2.4487
   17CHTO   C58 6982   5.002   6.371   0.849  0.3366  0.3845 -0.5370
   17CHTO  H115 6983   4.954   6.428   0.766 -1.1888  2.2011  1.5116
   17CHTO   O37 6984   5.080   6.477   0.915 -0.7586 -0.1000 -0.0836
   17CHTO   C59 6985   5.169   6.553   0.838 -0.3385  0.4958  0.7654
   17CHTO  H116 6986   5.110   6.597   0.757  0.2347 -1.1688 -0.5929
   17CHTO   C70 6987   5.237   6.662   0.927  0.0109  0.1595  0.4351
   17CHTO   O46 6988   5.125   6.751   0.959 -0.1499  0.5247  0.0773
   17CHTO  H103 6989   5.156   6.816   1.019 -1.4712  2.1962 -1.0074
   17CHTO   O39 6990   4.892   6.306   0.959  0.4823 -0.5969 -0.3254
   17CHTO   C60 6991   4.769   6.390   0.989 -0.3493  0.2104  0.4950
   17CHTO  H117 6992   4.779   6.490   0.947  0.1212  0.5277  1.3503
   17CHTO   C62 6993   4.642   6.338   0.918 -0.2355  0.1626  0.3776
   17CHTO  H119 6994   4.667   6.334   0.810  0.2217 -0.3348  0.4960
   17CHTO   O43 6995   4.624   6.200   0.958  0.5481  0.1318  0.6019
   17CHTO  H101 6996   4.619   6.186   1.050  1.9765  1.9543  0.9654
   17CHTO   C66 6997   4.521   6.439   0.946 -0.1158  0.3077 -0.2376
   17CHTO  H123 6998   4.550   6.538   0.910 -1.3079 -0.0152 -2.0948
   17CHTO   N12 6999   4.401   6.403   0.867 -0.1122 -0.4371 -0.5628
   17CHTO  H110 7000   4.346   6.328   0.921 -0.8024  0.1041 -0.4990
   17CHTO  H111 7001   4.341   6.490   0.845  0.6422 -0.2107 -1.7812
   17CHTO   C69 7002   4.494   6.443   1.101 -0.2232 -0.4835 -0.6859
   17CHTO  H126 7003   4.458   6.348   1.144  2.4477 -1.5828 -0.7477
   17CHTO   O41 7004   4.642   6.471   1.177 -0.2127 -0.1384 -0.3087
   17CHTO   C64 7005   4.755   6.400   1.140 -0.3434  0.0294 -0.0861
   17CHTO  H121 7006   4.733   6.297   1.175 -0.9704 -0.9104 -3.0587
   17CHTO   C71 7007   4.890   6.454   1.195  0.3643  0.1418  0.3055
   17CHTO   O47 7008   4.892   6.431   1.335  0.7929 -0.0160  0.2134
   17CHTO  H104 7009   4.967   6.477   1.369  0.4966  0.3401  0.3926
   17CHTO   O34 7010   4.395   6.550   1.138 -0.1054 -0.1294 -0.1739
   17CHTO   C49 7011   4.298   6.682   1.161 -0.3180 -0.0580 -0.3078
   17CHTO   H91 7012   4.359   6.771   1.170 -0.0566 -0.0997 -1.5304
   17CHTO   C47 7013   4.226   6.666   1.298  0.4201  0.7700 -0.2028
   17CHTO   H89 7014   4.182   6.768   1.310  0.6483  0.6960  1.3455
   17CHTO   O33 7015   4.325   6.656   1.399  0.3263 -0.5553 -0.2060
   17CHTO   H70 7016   4.366   6.572   1.389  1.6927  0.3644 -2.7647
   17CHTO   C45 7017   4.122   6.540   1.294 -0.7590  0.0506  0.3093
   17CHTO   H87 7018   4.171   6.453   1.339 -0.5121  1.2987  2.5611
   17CHTO    N8 7019   4.005   6.582   1.378  0.1795  0.1534 -0.2402
   17CHTO   H75 7020   3.918   6.521   1.359 -0.4305  0.8031  0.4577
   17CHTO   H76 7021   3.975   6.685   1.368  0.0242  0.2167  0.7773
   17CHTO   C43 7022   4.093   6.491   1.139  0.0028  0.5567 -0.0587
   17CHTO   H85 7023   4.175   6.426   1.110 -0.2120  1.1065 -1.9775
   17CHTO   O29 7024   4.079   6.598   1.044 -0.1452 -0.1142 -0.4440
   17CHTO   C50 7025   4.185   6.691   1.048  0.7715 -0.2526  0.0581
   17CHTO   H92 7026   4.236   6.675   0.952  0.5998  0.0257 -0.0794
   17CHTO   C54 7027   4.123   6.830   1.055  0.2743 -0.6769  0.2814
   17CHTO   O36 7028   4.048   6.859   0.939  0.0502 -0.0229  0.4028
   17CHTO   H72 7029   4.055   6.951   0.923  1.3160 -0.3463 -1.0814
   17CHTO   O27 7030   3.977   6.405   1.136 -0.4075  0.1486 -0.2992
   17CHTO   C37 7031   3.950   6.280   1.070  0.6791 -0.1619  0.2500
   17CHTO   H79 7032   3.845   6.248   1.070  0.4008  0.7288  0.0147
   17CHTO   C38 7033   3.979   6.304   0.915 -0.1424  0.8233  0.1964
   17CHTO   H80 7034   4.075   6.356   0.898  0.8433 -0.3593  2.0154
   17CHTO   O31 7035   3.876   6.383   0.847 -0.6345  0.2690 -0.6144
   17CHTO   H68 7036   3.907   6.415   0.764  0.6923 -1.6520 -0.8819
   17CHTO   C39 7037   3.990   6.158   0.845 -0.0296 -0.0226  0.3230
   17CHTO   H81 7038   3.889   6.126   0.820 -0.4933  0.9324  0.9243
   17CHTO    N7 7039   4.048   6.182   0.705  0.1200  0.1581  0.1661
   17CHTO   H73 7040   4.063   6.089   0.653 -0.5667  1.8686 -3.2027
   17CHTO   H74 7041   4.144   6.228   0.724  0.8120 -0.9624 -0.6107
   17CHTO   C40 7042   4.066   6.047   0.929  0.0871  0.7285 -0.3071
   17CHTO   H82 7043   4.174   6.066   0.927  0.5637 -1.4854  1.2255
   17CHTO   O26 7044   4.019   6.051   1.069  0.0878 -0.4447  0.7340
   17CHTO   C41 7045   4.042   6.173   1.135  0.4609  1.0815 -0.3686
   17CHTO   H83 7046   4.148   6.202   1.131  0.6975  0.6268  1.8445
   17CHTO   C52 7047   4.010   6.161   1.287 -0.1525 -0.3848 -0.5149
   17CHTO   O35 7048   4.096   6.091   1.365  0.0547  0.8767 -0.7820
   17CHTO   H71 7049   4.180   6.131   1.376 -0.5192  2.2123 -1.1364
   17CHTO   O28 7050   4.035   5.913   0.878  0.2873 -0.3823  0.4256
   17CHTO   C42 7051   4.121   5.796   0.871 -0.1657  0.1697  0.2786
   17CHTO   H84 7052   4.052   5.712   0.861 -1.2959  1.1768 -0.5360
   17CHTO   C44 7053   4.210   5.774   1.001 -1.1990  0.0216  0.4675
   17CHTO   H86 7054   4.254   5.867   1.037  0.9519 -0.9378  0.3640
   17CHTO   O32 7055   4.121   5.723   1.101 -0.4070  0.0160  0.6453
   17CHTO   H69 7056   4.169   5.655   1.144  1.2704 -0.7253 -2.2724
   17CHTO   C48 7057   4.331   5.679   0.970 -0.4570  0.2747 -0.5478
   17CHTO   H90 7058   4.294   5.579   0.947  0.8515 -0.6137  1.0749
   17CHTO    N9 7059   4.426   5.673   1.091 -0.1750 -0.0557 -0.1756
   17CHTO   H77 7060   4.373   5.620   1.169 -2.1337 -0.0826 -1.5114
   17CHTO   H78 7061   4.430   5.772   1.135  1.0106 -0.8175  1.4905
   17CHTO   C51 7062   4.410   5.719   0.834 -0.1335 -0.4550  0.6211
   17CHTO   H93 7063   4.434   5.824   0.849 -0.9327 -0.6933  4.0658
   17CHTO   O30 7064   4.312   5.700   0.729  0.4030 -0.2828 -0.2445
   17CHTO   C46 7065   4.207   5.799   0.738 -0.8160 -0.0821 -0.6036
   17CHTO   H88 7066   4.248   5.900   0.737 -0.3323 -0.2584  0.4760
   17CHTO   C53 7067   4.108   5.780   0.620  0.2354  0.0076  0.2466
   17CHTO   O72 7068   4.171   5.792   0.492  0.1705 -0.0088 -0.5898
   17CHTO  H199 7069   4.108   5.825   0.431  0.5947  1.9796 -0.0071
   17CHTO   O22 7070   4.516   5.631   0.801 -0.0877 -0.2194  0.2077
   17CHTO   C31 7071   4.598   5.650   0.676  0.4111 -0.1203  0.3104
   17CHTO   H59 7072   4.700   5.613   0.698  0.4636 -0.5166 -0.5541
   17CHTO   C29 7073   4.542   5.562   0.563  0.4205 -0.1454 -0.7321
   17CHTO   H57 7074   4.434   5.585   0.555  0.1661 -1.3013 -0.7603
   17CHTO   O21 7075   4.548   5.426   0.617 -0.3885 -0.1286 -0.0120
   17CHTO   H37 7076   4.636   5.394   0.621 -0.5109 -0.3763  0.6579
   17CHTO   C27 7077   4.606   5.589   0.424 -0.3959  0.5488  0.7507
   17CHTO   H55 7078   4.715   5.579   0.435 -0.4202 -1.1553 -0.4071
   17CHTO    N5 7079   4.558   5.509   0.313  0.1762 -1.0035 -0.0940
   17CHTO   H43 7080   4.454   5.490   0.336 -0.4170  2.1686 -0.0041
   17CHTO   H44 7081   4.613   5.416   0.304  2.1777  0.1401  0.0367
   17CHTO   C25 7082   4.597   5.739   0.388  0.1158 -0.4799  0.5416
   17CHTO   H53 7083   4.491   5.766   0.383  0.4160  0.3777 -1.8870
   17CHTO   O17 7084   4.664   5.813   0.494 -0.0690  0.5920 -0.5119
   17CHTO   C32 7085   4.615   5.796   0.620 -0.0911  0.8979  0.8082
   17CHTO   H60 7086   4.514   5.839   0.620  0.4293  2.1711  2.0348
   17CHTO   C36 7087   4.696   5.891   0.711  0.1027 -0.2756  0.6092
   17CHTO   O25 7088   4.645   6.023   0.696  0.0518 -0.1367 -0.5777
   17CHTO   H40 7089   4.645   6.045   0.605  2.4729  0.8984 -0.3690
   17CHTO   O15 7090   4.682   5.783   0.257 -0.3500 -0.0486  0.1756
   17CHTO   C19 7091   4.716   5.926   0.240 -0.1776  0.6761 -0.8004
   17CHTO   H47 7092   4.740   5.919   0.133  2.6361 -3.0399 -0.0435
   17CHTO   C20 7093   4.592   6.022   0.255 -0.3303  0.1953  0.4242
   17CHTO   H48 7094   4.548   6.014   0.356  0.5802  2.8402  1.0679
   17CHTO   O19 7095   4.488   5.987   0.161  0.2060  0.2512 -0.1102
   17CHTO   H35 7096   4.513   5.984   0.071  1.3912 -0.0455  0.2259
   17CHTO   C21 7097   4.627   6.171   0.245 -1.0378 -0.1576 -0.4751
   17CHTO   H49 7098   4.658   6.193   0.143  0.1576  3.1448  0.5346
   17CHTO    N4 7099   4.510   6.256   0.275  0.5214 -0.1712 -0.1072
   17CHTO   H41 7100   4.498   6.241   0.382  2.8461  0.5015  0.2711
   17CHTO   H42 7101   4.557   6.351   0.257 -0.4344  0.2500 -0.4284
   17CHTO   C22 7102   4.758   6.204   0.326  0.0719  1.3132  0.5787
   17CHTO   H50 7103   4.741   6.192   0.433  1.2464  1.4302  0.7865
   17CHTO   O14 7104   4.869   6.116   0.294  0.0387  0.3871 -0.0114
   17CHTO   C23 7105   4.841   5.977   0.322 -0.7135 -0.2626  0.1183
   17CHTO   H51 7106   4.832   5.964   0.431 -0.8494 -0.5114  0.0758
   17CHTO   C34 7107   4.963   5.896   0.277 -0.1552  0.3516 -0.1235
   17CHTO   O23 7108   4.980   5.756   0.302  0.4533 -0.0268  0.4796
   17CHTO   H38 7109   5.057   5.716   0.268  1.3321 -0.1095  2.4850
   17CHTO   O16 7110   4.795   6.342   0.313 -0.0825  0.0718  0.1070
   17CHTO   C24 7111   4.855   6.415   0.429 -0.1300  0.3886 -0.9290
   17CHTO   H52 7112   4.886   6.349   0.509  0.2247  1.6188 -0.0323
   17CHTO   C26 7113   4.752   6.512   0.487  0.1225 -0.5172 -0.2841
   17CHTO   H54 7114   4.692   6.556   0.404  0.7388  1.0447  0.0824
   17CHTO   O20 7115   4.654   6.448   0.564  0.2823 -0.3220 -0.3667
   17CHTO   H36 7116   4.626   6.367   0.524 -1.0760  0.3311 -0.7683
   17CHTO   C30 7117   4.820   6.621   0.572 -0.0732 -0.4052  0.4344
   17CHTO   H58 7118   4.847   6.584   0.672  1.8363  0.0340  0.0945
   17CHTO    N6 7119   4.725   6.727   0.602  0.4130 -0.0110  0.2203
   17CHTO   H45 7120   4.651   6.689   0.672 -0.0799  1.1776  0.3447
   17CHTO   H46 7121   4.784   6.799   0.657 -0.7192  0.4084  0.9193
   17CHTO   C33 7122   4.953   6.669   0.501  1.1033  0.4325 -0.4260
   17CHTO   H61 7123   4.917   6.710   0.406  1.1245  0.7975 -0.2755
   17CHTO   O18 7124   5.042   6.559   0.471  0.1365 -0.0227  0.3751
   17CHTO   C28 7125   4.987   6.477   0.370 -0.6449  0.1438 -0.2681
   17CHTO   H56 7126   4.964   6.531   0.278  3.0537 -2.0502 -2.6303
   17CHTO   C35 7127   5.093   6.366   0.336  0.3739  0.6241 -0.0888
   17CHTO   O24 7128   5.206   6.433   0.281  0.1135 -0.5479 -0.4831
   17CHTO   H39 7129   5.193   6.467   0.195 -0.2941  1.5793  0.3988
   17CHTO    O9 7130   5.021   6.781   0.569  0.5722  0.3047  0.0080
   17CHTO   C13 7131   5.111   6.873   0.462 -0.0590  0.1126 -0.2071
   17CHTO   H26 7132   5.152   6.802   0.387  0.2468 -2.4717  2.3201
   17CHTO   C11 7133   5.227   6.954   0.531  0.6848  0.6316  0.5652
   17CHTO   H24 7134   5.294   6.876   0.570 -0.8086 -1.0009 -0.0642
   17CHTO    O8 7135   5.169   7.023   0.644  0.8322  0.1405  0.1178
   17CHTO    H3 7136   5.193   7.112   0.627  0.9878 -0.0262 -0.5701
   17CHTO    C9 7137   5.293   7.040   0.419  0.0880 -0.3254  0.2348
   17CHTO   H22 7138   5.318   6.968   0.340  2.7559 -1.1292  1.7605
   17CHTO    N2 7139   5.425   7.100   0.447 -0.0015 -0.8794  0.6464
   17CHTO   H10 7140   5.451   7.180   0.380  0.1090 -1.1796  0.3304
   17CHTO   H11 7141   5.417   7.146   0.545 -1.1137 -0.6280  0.4348
   17CHTO    C7 7142   5.190   7.142   0.362  0.1115 -0.5538 -0.3294
   17CHTO   H20 7143   5.237   7.201   0.281  0.9379  0.7774  1.0767
   17CHTO    O4 7144   5.070   7.091   0.314  0.4284  0.0824  0.3749
   17CHTO   C14 7145   5.011   6.972   0.376 -0.0425  1.0115 -0.1855
   17CHTO   H27 7146   4.977   6.922   0.283  1.9107 -0.6152 -0.0594
   17CHTO   C18 7147   4.885   7.015   0.451 -0.2972  0.3740 -0.1191
   17CHTO   O13 7148   4.774   7.015   0.356  0.5228 -0.2321 -0.3781
   17CHTO    H7 7149   4.737   6.929   0.351  0.9252 -0.3166 -2.5653
   17CHTO    O2 7150   5.150   7.249   0.487  0.2490  0.1764  0.3064
   17CHTO    C1 7151   5.095   7.379   0.457  0.2347  0.1383 -0.0869
   17CHTO   H14 7152   5.027   7.380   0.370 -0.5151  0.3369  0.4855
   17CHTO    C2 7153   5.210   7.483   0.444 -0.1832  0.3947  0.2050
   17CHTO   H15 7154   5.267   7.473   0.538 -0.7890 -0.2953  0.4964
   17CHTO    O6 7155   5.295   7.448   0.333  0.0661 -0.0131  0.6091
   17CHTO    H1 7156   5.281   7.365   0.291 -1.3527  0.4129  0.2168
   17CHTO    C3 7157   5.148   7.636   0.427  0.0718 -0.0849 -0.9809
   17CHTO   H16 7158   5.085   7.636   0.336  0.5147  0.6120 -1.2939
   17CHTO    N1 7159   5.254   7.749   0.411  0.3067 -0.3302  0.1323
   17CHTO    H8 7160   5.331   7.744   0.487  0.2083  3.6573  0.6415
   17CHTO    H9 7161   5.216   7.850   0.413  2.8836  0.7436 -1.6933
   17CHTO    C4 7162   5.050   7.655   0.547  0.1362 -0.8727 -0.6702
   17CHTO   H17 7163   5.108   7.656   0.640  0.9384  0.7404 -1.1763
   17CHTO    O1 7164   4.949   7.551   0.546 -0.4993 -0.5664 -0.3469
   17CHTO    C5 7165   5.013   7.427   0.573 -0.5653  0.4175 -0.0231
   17CHTO   H18 7166   5.082   7.429   0.658  0.6030 -0.2340 -0.9321
   17CHTO   C16 7167   4.901   7.321   0.598  0.7665 -0.8546  1.0008
   17CHTO   O11 7168   4.829   7.357   0.717 -0.0585 -0.4277 -0.1951
   17CHTO    H5 7169   4.759   7.295   0.724 -0.4932  0.0979  0.1497
   17CHTO    O3 7170   4.980   7.777   0.532 -0.3143 -0.9930  0.0996
   17CHTO    C6 7171   4.940   7.856   0.646  0.2211 -0.8799 -0.1908
   17CHTO   H19 7172   4.843   7.904   0.628 -0.3871 -1.3004  1.8762
   17CHTO    C8 7173   4.926   7.773   0.781  0.0572 -0.6324  0.4003
   17CHTO   H21 7174   5.023   7.727   0.802 -0.0220 -1.7586 -1.5550
   17CHTO    O7 7175   4.826   7.671   0.745  0.0468 -0.0318  0.1612
   17CHTO    H2 7176   4.739   7.706   0.738 -0.2254 -0.9230 -1.1605
   17CHTO   C12 7177   4.877   7.861   0.904  0.5373 -0.3647  0.2417
   17CHTO   H25 7178   4.775   7.898   0.883 -0.2055 -0.5489  3.2738
   17CHTO    N3 7179   4.871   7.775   1.025  0.1150  0.2791  0.1303
   17CHTO   H12 7180   4.828   7.824   1.112  1.2292 -0.5311  1.1520
   17CHTO   H13 7181   4.973   7.754   1.052 -0.0808  0.5130  1.0760
   17CHTO   C15 7182   4.985   7.980   0.908 -0.0611  0.6264  0.1233
   17CHTO   H28 7183   5.083   7.951   0.946  0.8362  0.7818 -1.9846
   17CHTO   O10 7184   4.939   8.088   1.008  0.5225  0.4815  0.3953
   17CHTO    H4 7185   5.006   8.152   1.023  2.4953 -2.0159  2.6455
   17CHTO    O5 7186   4.991   8.044   0.784  0.1787  0.5865  0.3753
   17CHTO   C10 7187   5.034   7.968   0.668  0.2716  0.1525  0.2176
   17CHTO   H23 7188   5.137   7.935   0.678  0.3806  0.7717  1.1761
   17CHTO   C17 7189   5.046   8.063   0.546 -0.3928 -0.4164 -0.3707
   17CHTO   O12 7190   4.929   8.143   0.520  0.4986  0.0025  0.3819
   17CHTO    H6 7191   4.929   8.237   0.525 -0.5376  0.0166  0.1952
   18CHTO  H203 7192   6.304   7.984   1.495 -0.4776  0.0214 -0.3539
   18CHTO   O82 7193   6.361   7.940   1.434 -0.2042 -0.0272 -0.0663
   18CHTO  C123 7194   6.322   7.947   1.294  0.3461 -0.5100  0.1102
   18CHTO  H227 7195   6.212   7.956   1.291  0.4239  0.3728 -0.3053
   18CHTO   O77 7196   6.399   8.064   1.245 -0.3195  0.4622  0.0275
   18CHTO  C118 7197   6.368   8.100   1.114  0.5706 -0.0571 -0.6955
   18CHTO  H222 7198   6.260   8.119   1.102  0.2967 -1.2046 -0.1507
   18CHTO  C125 7199   6.447   8.231   1.081  0.4940  0.0830 -0.1256
   18CHTO   O84 7200   6.408   8.335   1.174  0.4311 -0.3926 -0.3641
   18CHTO  H205 7201   6.314   8.341   1.168  0.5889  1.1075 -1.7406
   18CHTO  C114 7202   6.409   7.979   1.020 -0.4993  0.6221  0.0446
   18CHTO  H218 7203   6.517   7.966   1.028 -0.4880 -1.5971 -2.7573
   18CHTO  C116 7204   6.350   7.844   1.063  0.4346  0.2290  0.2927
   18CHTO  H220 7205   6.244   7.836   1.031  0.9563  1.0392 -1.7244
   18CHTO   O79 7206   6.410   7.740   0.984  0.2405 -0.3974  0.1461
   18CHTO  H201 7207   6.377   7.654   1.003 -3.5287  0.3100 -2.6221
   18CHTO  C120 7208   6.355   7.816   1.220  1.2419  0.5618 -0.2781
   18CHTO  H224 7209   6.459   7.781   1.240  0.5663 -1.9290 -0.9273
   18CHTO   N21 7210   6.266   7.700   1.256 -0.1487  0.0992 -0.3551
   18CHTO  H211 7211   6.266   7.627   1.176  0.9019 -1.5388  1.0984
   18CHTO  H212 7212   6.167   7.737   1.277  0.1737 -0.1012  1.6314
   18CHTO   O75 7213   6.372   8.020   0.889 -0.2637  0.7334  0.0124
   18CHTO  C112 7214   6.499   8.033   0.779  0.4662  0.6262  0.2745
   18CHTO  H216 7215   6.585   7.974   0.813  0.3337  0.3534  0.1376
   18CHTO   O73 7216   6.529   8.173   0.772  0.0396  0.2486 -0.1354
   18CHTO  C113 7217   6.642   8.202   0.691  0.2011 -0.5379  0.1251
   18CHTO  H217 7218   6.728   8.149   0.738  1.3163  2.8352  2.0297
   18CHTO  C124 7219   6.672   8.343   0.730 -0.1524 -0.6690 -0.0378
   18CHTO   O83 7220   6.785   8.400   0.667 -0.1252 -0.5902 -0.1269
   18CHTO  H204 7221   6.858   8.375   0.720  0.6750  0.2618 -0.8329
   18CHTO  C109 7222   6.613   8.175   0.542 -0.2312 -0.0401  0.3555
   18CHTO  H213 7223   6.535   8.246   0.512  0.1596 -0.0044 -0.5853
   18CHTO  C110 7224   6.542   8.035   0.524  0.1984 -0.1509  0.2272
   18CHTO  H214 7225   6.621   7.961   0.514  1.0403  0.4355  2.3173
   18CHTO   O78 7226   6.466   8.042   0.398 -0.2623  0.2204  0.3342
   18CHTO  H200 7227   6.376   8.066   0.401  0.0407  1.6121 -1.0633
   18CHTO  C111 7228   6.451   7.982   0.639 -0.3200 -0.1382 -0.2715
   18CHTO  H215 7229   6.348   8.017   0.622 -0.6334 -1.3283 -0.8707
   18CHTO   N19 7230   6.435   7.832   0.641 -0.7573  0.2403 -0.2873
   18CHTO  H207 7231   6.336   7.787   0.642 -0.8097  0.3721  0.2581
   18CHTO  H208 7232   6.479   7.795   0.549  0.4468  1.8915 -0.3958
   18CHTO   O74 7233   6.743   8.203   0.465  0.5900  0.1036  0.1092
   18CHTO  C115 7234   6.727   8.241   0.326 -0.1756 -0.2141  0.1608
   18CHTO  H219 7235   6.634   8.204   0.283  1.1303 -3.9285  0.3330
   18CHTO   O76 7236   6.723   8.382   0.307 -0.5335 -0.5622 -0.1026
   18CHTO  C122 7237   6.728   8.439   0.176 -0.6435  0.0186  0.3468
   18CHTO  H226 7238   6.752   8.545   0.177  0.7864 -0.2734 -1.0802
   18CHTO  C126 7239   6.584   8.431   0.106  0.1946 -0.4522 -0.6066
   18CHTO   O85 7240   6.488   8.500   0.188  0.1073 -0.2476 -0.1903
   18CHTO  H206 7241   6.403   8.482   0.153  0.2093 -2.4907  0.6245
   18CHTO  C121 7242   6.828   8.377   0.078  0.2403 -0.7153  0.3491
   18CHTO  H225 7243   6.798   8.409  -0.024  1.8463  0.6535  0.2795
   18CHTO   O81 7244   6.967   8.421   0.098 -0.2344 -0.3688  0.0073
   18CHTO  H202 7245   7.025   8.361   0.055 -0.8428 -0.5746 -0.5325
   18CHTO  C119 7246   6.817   8.227   0.088  0.6627 -0.1940 -1.0077
   18CHTO  H223 7247   6.718   8.190   0.061  1.0836 -0.9525 -1.5276
   18CHTO  C117 7248   6.846   8.185   0.236  0.2579  0.5295  0.5153
   18CHTO  H221 7249   6.936   8.232   0.277  0.9259 -1.5815  1.5575
   18CHTO   N20 7250   6.863   8.037   0.252  0.5031  0.4619 -0.0690
   18CHTO  H209 7251   6.883   8.012   0.356 -1.3573  0.2013  0.2511
   18CHTO  H210 7252   6.943   8.004   0.188 -0.3209  1.1323 -1.4473
   18CHTO   O80 7253   6.908   8.157  -0.025 -0.5758  0.5953 -0.1591
   18CHTO  C103 7254   6.834   8.073  -0.161  1.0290 -0.1037  0.5081
   18CHTO  H190 7255   6.909   8.055  -0.238 -2.2199  1.6709 -3.2468
   18CHTO  C101 7256   6.766   7.937  -0.115  0.9412 -0.5297 -0.0893
   18CHTO  H188 7257   6.695   7.947  -0.032 -1.4843  1.7058 -2.3358
   18CHTO   O68 7258   6.891   7.849  -0.074 -0.0338  0.2654  0.8123
   18CHTO  H168 7259   6.929   7.810  -0.150 -0.0340 -2.1631  2.0119
   18CHTO   C99 7260   6.678   7.877  -0.229 -0.6267 -0.0832 -0.0795
   18CHTO  H186 7261   6.745   7.871  -0.318 -1.2127 -2.6160 -0.4033
   18CHTO   N17 7262   6.641   7.731  -0.217 -0.1691  1.0918 -0.0909
   18CHTO  H174 7263   6.710   7.678  -0.153 -0.5878 -3.2710 -3.0159
   18CHTO  H175 7264   6.541   7.730  -0.175 -0.0064  1.5266  0.3223
   18CHTO   C97 7265   6.565   7.982  -0.259  0.3411  0.2363 -0.7412
   18CHTO  H184 7266   6.514   8.003  -0.164 -1.2660 -1.4380 -1.1930
   18CHTO   O64 7267   6.637   8.103  -0.314  0.0047 -0.8614 -0.0536
   18CHTO  C104 7268   6.724   8.165  -0.221 -0.6236  0.5493  0.1920
   18CHTO  H191 7269   6.668   8.209  -0.138 -0.8045 -0.1633  0.4480
   18CHTO  C108 7270   6.779   8.281  -0.307  0.3404  0.2726  0.4224
   18CHTO   O71 7271   6.867   8.376  -0.237 -0.6717 -0.2659 -0.0047
   18CHTO  H171 7272   6.875   8.455  -0.287  1.2209 -0.1262  0.4603
   18CHTO   O62 7273   6.470   7.940  -0.367 -0.2084  0.2058 -0.8023
   18CHTO   C91 7274   6.335   7.979  -0.351 -0.0870  0.3288 -0.8172
   18CHTO  H178 7275   6.317   7.969  -0.244 -1.3712  1.1543 -0.9406
   18CHTO   C92 7276   6.243   7.892  -0.432  0.2927 -0.2008 -0.0040
   18CHTO  H179 7277   6.285   7.902  -0.533 -1.2492  4.0372 -0.3008
   18CHTO   O66 7278   6.265   7.760  -0.374  0.4001 -0.2447 -0.8827
   18CHTO  H166 7279   6.213   7.690  -0.409 -2.0145 -0.3807  2.6576
   18CHTO   C93 7280   6.088   7.931  -0.431 -0.2535  0.5384 -0.1568
   18CHTO  H180 7281   6.049   7.917  -0.329  0.1151 -0.6342 -0.1684
   18CHTO   N16 7282   6.000   7.846  -0.513  0.4199 -0.5533 -0.8244
   18CHTO  H172 7283   5.940   7.780  -0.453 -0.3398 -0.7177 -1.7401
   18CHTO  H173 7284   6.066   7.787  -0.575  0.6459  0.5302 -1.6338
   18CHTO   C94 7285   6.061   8.075  -0.477  0.8506 -0.3056 -0.3995
   18CHTO  H181 7286   6.083   8.085  -0.584  0.3306 -1.3539 -0.6054
   18CHTO   O61 7287   6.164   8.158  -0.409  0.1947  0.6054  0.4902
   18CHTO   C95 7288   6.302   8.126  -0.388  0.2638 -0.3816  0.5307
   18CHTO  H182 7289   6.352   8.153  -0.481  0.9429  2.0531  1.5532
   18CHTO  C106 7290   6.351   8.234  -0.290 -0.0492  0.0251  0.8826
   18CHTO   O69 7291   6.274   8.240  -0.174  0.6678  0.0036 -0.0204
   18CHTO  H169 7292   6.232   8.323  -0.174  0.4702 -0.0971 -0.0267
   18CHTO   O63 7293   5.915   8.149  -0.421 -0.1631 -0.1486  0.7783
   18CHTO   C96 7294   5.877   8.274  -0.499 -0.0290 -0.3289 -0.9738
   18CHTO  H183 7295   5.940   8.286  -0.588  0.2111 -1.0487 -0.8986
   18CHTO   C98 7296   5.876   8.412  -0.419  0.2128 -0.4108  0.0335
   18CHTO  H185 7297   5.812   8.408  -0.329 -0.2716  2.7727 -0.1074
   18CHTO   O67 7298   6.006   8.433  -0.369  0.2510 -0.5317 -0.0682
   18CHTO  H167 7299   6.074   8.440  -0.433  1.0319 -1.0713  0.6808
   18CHTO  C102 7300   5.818   8.532  -0.518  0.1990  0.1263 -0.2756
   18CHTO  H189 7301   5.895   8.549  -0.595 -1.5062  0.7403 -1.8723
   18CHTO   N18 7302   5.811   8.663  -0.453 -0.1990  0.5134  0.2393
   18CHTO  H176 7303   5.720   8.717  -0.471  0.3762  1.6972  0.7962
   18CHTO  H177 7304   5.897   8.726  -0.473  2.0542 -2.9896 -1.4785
   18CHTO  C105 7305   5.681   8.493  -0.582  0.0187  0.2033 -0.0639
   18CHTO  H192 7306   5.601   8.498  -0.508  0.7398 -0.7730  0.8069
   18CHTO   O65 7307   5.687   8.352  -0.633 -0.0255 -0.3052 -0.0295
   18CHTO  C100 7308   5.730   8.257  -0.542  0.0113  0.1534  0.0257
   18CHTO  H187 7309   5.671   8.266  -0.449  2.7135  0.6843  1.7360
   18CHTO  C107 7310   5.704   8.119  -0.609  0.2878 -0.1919  0.3746
   18CHTO   O70 7311   5.668   8.027  -0.510 -0.0385 -0.0772 -1.3044
   18CHTO  H170 7312   5.716   7.948  -0.527  0.6441  0.1817 -0.6030
   18CHTO   O57 7313   5.643   8.583  -0.700  0.0682  0.0253 -0.3067
   18CHTO   C85 7314   5.516   8.590  -0.774 -0.1298 -0.1132 -0.0310
   18CHTO  H157 7315   5.550   8.638  -0.868 -1.8085 -1.0364 -1.1254
   18CHTO   C83 7316   5.415   8.684  -0.708  0.3704 -0.3105 -0.2607
   18CHTO  H155 7317   5.454   8.786  -0.708 -3.0115  1.0914 -3.3899
   18CHTO   O56 7318   5.406   8.662  -0.565 -0.3073  0.2940  0.9254
   18CHTO  H135 7319   5.373   8.575  -0.554 -1.7396  0.4328 -1.9563
   18CHTO   C81 7320   5.278   8.688  -0.781  0.3672  0.4070 -0.1342
   18CHTO  H153 7321   5.302   8.718  -0.883  2.2063  3.2040  1.0559
   18CHTO   N14 7322   5.170   8.775  -0.728 -0.0347  0.6123 -0.6331
   18CHTO  H141 7323   5.081   8.778  -0.788 -0.5026 -1.3462 -0.0439
   18CHTO  H142 7324   5.207   8.874  -0.710 -0.6935  0.7521 -0.0361
   18CHTO   C79 7325   5.225   8.534  -0.775  0.6377 -0.4699 -0.4969
   18CHTO  H151 7326   5.133   8.532  -0.833  1.1113 -0.6854 -1.2502
   18CHTO   O52 7327   5.311   8.443  -0.845 -0.1252 -0.2332  0.3175
   18CHTO   C86 7328   5.449   8.448  -0.805 -0.5166 -0.1350 -0.0188
   18CHTO  H158 7329   5.454   8.385  -0.714 -0.8177  0.7224  0.5934
   18CHTO   C90 7330   5.531   8.374  -0.909  0.5250 -0.2638  0.8241
   18CHTO   O60 7331   5.525   8.228  -0.900 -0.3258 -0.5928 -0.1333
   18CHTO  H138 7332   5.554   8.194  -0.982 -1.8567  0.7606 -1.2727
   18CHTO   O50 7333   5.219   8.482  -0.638  0.2856  0.3535  0.0246
   18CHTO   C73 7334   5.128   8.383  -0.594  0.1075 -0.4927 -0.0280
   18CHTO  H145 7335   5.118   8.312  -0.677  1.7974 -0.0913 -0.6080
   18CHTO   C74 7336   4.987   8.436  -0.549 -0.0613  0.3149 -0.7748
   18CHTO  H146 7337   4.950   8.497  -0.633  0.6181 -1.2791 -2.2647
   18CHTO   O54 7338   4.890   8.327  -0.537  0.2322  0.5305 -0.1275
   18CHTO  H133 7339   4.818   8.351  -0.483  0.2331  0.6331 -0.1725
   18CHTO   C75 7340   5.004   8.524  -0.414  0.2839 -0.0820  0.4849
   18CHTO  H147 7341   5.068   8.611  -0.434 -2.5921  2.3831  1.5223
   18CHTO   N13 7342   4.865   8.577  -0.372 -0.0487  0.2229 -0.2046
   18CHTO  H139 7343   4.871   8.670  -0.317  0.1274  0.4239 -0.5652
   18CHTO  H140 7344   4.796   8.583  -0.454  0.4998 -0.0703 -0.6908
   18CHTO   C76 7345   5.073   8.435  -0.296  0.1327  0.1796 -0.1035
   18CHTO  H148 7346   4.999   8.368  -0.252 -1.9408  2.9364  0.7684
   18CHTO   O49 7347   5.192   8.360  -0.343  0.1072 -0.2020  0.0778
   18CHTO   C77 7348   5.188   8.297  -0.476  0.3332  0.0696  0.2779
   18CHTO  H149 7349   5.126   8.208  -0.465 -1.0484  0.9431 -0.4106
   18CHTO   C88 7350   5.325   8.242  -0.518  0.3212  0.3321 -0.0624
   18CHTO   O58 7351   5.380   8.183  -0.398 -0.0031  0.1318 -0.1635
   18CHTO  H136 7352   5.386   8.239  -0.323 -2.6139 -0.9264  0.8961
   18CHTO   O51 7353   5.139   8.535  -0.188  0.0650  0.3551  0.0148
   18CHTO   C78 7354   5.176   8.486  -0.052 -0.0185  0.4086 -0.4961
   18CHTO  H150 7355   5.185   8.375  -0.051  1.5697  0.5157 -0.8670
   18CHTO   C80 7356   5.069   8.531   0.048 -0.3291 -0.7213  0.1758
   18CHTO  H152 7357   5.049   8.638   0.029  1.6549 -0.6419 -1.6684
   18CHTO   O55 7358   4.958   8.459  -0.006  0.4672  0.3678  0.4982
   18CHTO  H134 7359   4.878   8.481   0.037  1.2017  0.7763  1.6833
   18CHTO   C84 7360   5.110   8.493   0.199  0.4551 -1.0285  0.3013
   18CHTO  H156 7361   5.114   8.385   0.211 -1.3106 -1.0542  0.8221
   18CHTO   N15 7362   4.992   8.533   0.282  0.1557  0.0199 -0.0167
   18CHTO  H143 7363   4.903   8.555   0.228  0.3903  2.2939  0.4580
   18CHTO  H144 7364   4.966   8.475   0.367 -0.3925 -1.0838 -0.9369
   18CHTO   C87 7365   5.238   8.571   0.231 -0.0912 -0.3557 -0.4525
   18CHTO  H159 7366   5.225   8.678   0.217 -0.2152 -0.2524  0.4381
   18CHTO   O53 7367   5.347   8.522   0.122 -0.4664  0.3952  0.0538
   18CHTO   C82 7368   5.312   8.544  -0.020  0.8703  0.7785  0.2917
   18CHTO  H154 7369   5.307   8.649  -0.046  1.0811  0.5604 -0.6351
   18CHTO   C89 7370   5.422   8.483  -0.114  0.0640 -0.3080  0.2675
   18CHTO   O59 7371   5.542   8.442  -0.054 -0.0282  0.1004 -0.0243
   18CHTO  H137 7372   5.527   8.396   0.027 -0.7517 -0.1031 -0.2655
   18CHTO   O45 7373   5.291   8.539   0.372 -0.0292  0.2873  0.2177
   18CHTO   C67 7374   5.418   8.595   0.394 -0.2930 -0.6693 -0.1990
   18CHTO  H124 7375   5.472   8.594   0.299  1.3888  0.7524  0.7111
   18CHTO   C65 7376   5.397   8.750   0.430 -0.2280 -0.6612  0.0297
   18CHTO  H122 7377   5.303   8.753   0.486  0.1374 -0.3687  0.6323
   18CHTO   O44 7378   5.397   8.822   0.307  0.2629  0.6368 -0.1269
   18CHTO  H102 7379   5.474   8.875   0.302 -0.8717  2.3005  0.0105
   18CHTO   C63 7380   5.504   8.796   0.537 -0.0954  0.1773  0.2551
   18CHTO  H120 7381   5.473   8.777   0.640  1.4714  0.9100  0.8811
   18CHTO   N11 7382   5.521   8.944   0.550 -0.5231 -0.2150  0.1200
   18CHTO  H108 7383   5.625   8.965   0.555 -0.5817  0.5569 -1.4747
   18CHTO  H109 7384   5.493   8.987   0.456 -0.4542  1.0241  0.6562
   18CHTO   C61 7385   5.643   8.719   0.519 -0.1144  0.4271 -0.8710
   18CHTO  H118 7386   5.704   8.736   0.609  0.9269  0.6739 -1.6203
   18CHTO   O40 7387   5.640   8.572   0.495  0.6481  0.8939 -0.4302
   18CHTO   C68 7388   5.503   8.514   0.491  0.4887  0.5558  0.5614
   18CHTO  H125 7389   5.449   8.517   0.588  2.4923  1.2151  1.6805
   18CHTO   C72 7390   5.521   8.366   0.442  0.3198 -0.1592 -0.1618
   18CHTO   O48 7391   5.395   8.292   0.441  0.0248 -0.1746 -0.8372
   18CHTO  H105 7392   5.383   8.237   0.365 -0.4700  0.7877 -1.4682
   18CHTO   O38 7393   5.712   8.769   0.401  0.6072  0.0177 -0.0761
   18CHTO   C55 7394   5.844   8.719   0.371 -0.1134  0.2432  0.2984
   18CHTO  H112 7395   5.873   8.630   0.429  0.8180 -0.0399 -0.5668
   18CHTO   C56 7396   5.953   8.839   0.388 -0.1939 -0.3188 -0.0934
   18CHTO  H113 7397   5.942   8.915   0.309 -0.9249  1.9323  2.1084
   18CHTO   O42 7398   5.930   8.909   0.517  0.3599  0.3879 -0.3270
   18CHTO  H100 7399   5.842   8.941   0.523  0.6175  0.8975  0.7355
   18CHTO   C57 7400   6.099   8.782   0.385  0.0074 -0.1211 -0.4440
   18CHTO  H114 7401   6.097   8.726   0.478  0.5100 -0.4302 -0.6204
   18CHTO   N10 7402   6.219   8.874   0.387 -0.0054  0.0206  0.2734
   18CHTO  H106 7403   6.250   8.884   0.490 -0.7963 -2.2254  0.7681
   18CHTO  H107 7404   6.189   8.971   0.350  2.5827  1.1870  1.1616
   18CHTO   C58 7405   6.113   8.682   0.263 -0.6669 -0.6798 -0.1279
   18CHTO  H115 7406   6.158   8.733   0.176  0.3167 -1.0031  0.1917
   18CHTO   O37 7407   5.997   8.610   0.218 -0.3341 -0.1765  0.0550
   18CHTO   C59 7408   5.866   8.666   0.228  0.4277  0.0756 -0.3710
   18CHTO  H116 7409   5.865   8.755   0.165 -1.4885 -1.0240 -1.9721
   18CHTO   C70 7410   5.761   8.564   0.178 -0.0904  0.2550 -0.4480
   18CHTO   O46 7411   5.799   8.494   0.064  0.8401  0.1459  0.5925
   18CHTO  H103 7412   5.807   8.552  -0.009 -0.4200 -0.5071 -0.0961
   18CHTO   O39 7413   6.231   8.565   0.311  0.4469  0.1252 -0.1101
   18CHTO   C60 7414   6.176   8.462   0.400  0.0106  0.5529 -0.3277
   18CHTO  H117 7415   6.101   8.498   0.470 -0.2755 -0.4031 -0.1289
   18CHTO   C62 7416   6.093   8.343   0.332  0.1729  0.2302  0.5109
   18CHTO  H119 7417   6.005   8.383   0.277 -0.2774 -3.1961 -1.3834
   18CHTO   O43 7418   6.175   8.291   0.230 -0.6884 -0.1537  0.0277
   18CHTO  H101 7419   6.198   8.358   0.169 -0.3067 -0.4760 -0.1830
   18CHTO   C66 7420   6.041   8.250   0.442  0.6516 -0.3161  0.6328
   18CHTO  H123 7421   5.981   8.310   0.511 -0.3789  1.1116 -1.4487
   18CHTO   N12 7422   5.944   8.139   0.389  0.7091 -1.3036  0.6313
   18CHTO  H110 7423   5.986   8.107   0.295 -1.0267  0.6277 -0.8431
   18CHTO  H111 7424   5.962   8.068   0.468 -0.2279 -2.5328 -0.2443
   18CHTO   C69 7425   6.156   8.184   0.525 -0.0553  0.0132 -0.1943
   18CHTO  H126 7426   6.220   8.122   0.459 -1.2771 -0.9738 -0.4536
   18CHTO   O41 7427   6.246   8.309   0.588  0.5287  0.3780  0.5337
   18CHTO   C64 7428   6.295   8.413   0.487  0.8187  0.9435  0.1962
   18CHTO  H121 7429   6.378   8.374   0.423  0.1480  0.9881 -0.7154
   18CHTO   C71 7430   6.349   8.528   0.571 -0.6131 -0.0188  0.2170
   18CHTO   O47 7431   6.444   8.598   0.497  0.5252 -0.4124 -0.1050
   18CHTO  H104 7432   6.454   8.680   0.542  0.0709 -0.2683 -0.2602
   18CHTO   O34 7433   6.096   8.079   0.653 -0.9388  0.5135  0.3072
   18CHTO   C49 7434   6.047   8.113   0.785  0.0956  0.3507  0.3544
   18CHTO   H91 7435   6.132   8.097   0.852 -0.9386  3.5146  2.5454
   18CHTO   C47 7436   5.943   8.011   0.823 -0.3972  0.0110 -0.2324
   18CHTO   H89 7437   5.910   8.030   0.928 -1.1701 -1.4180 -0.1929
   18CHTO   O33 7438   5.995   7.878   0.814  0.2921 -0.1045  0.1963
   18CHTO   H70 7439   5.957   7.824   0.880  2.8315  0.0339  1.8096
   18CHTO   C45 7440   5.815   8.039   0.733 -0.2459 -0.3805  0.0328
   18CHTO   H87 7441   5.848   8.032   0.628 -1.6610  0.3862 -0.4806
   18CHTO    N8 7442   5.710   7.945   0.758  0.5392 -0.2991  0.7338
   18CHTO   H75 7443   5.625   7.970   0.696  0.7460 -0.0197  0.5622
   18CHTO   H76 7444   5.669   7.946   0.858  0.8561  0.9112  0.8590
   18CHTO   C43 7445   5.758   8.193   0.748 -0.4713 -0.1408  0.1851
   18CHTO   H85 7446   5.685   8.201   0.668  0.3890 -4.2598 -1.1561
   18CHTO   O29 7447   5.865   8.287   0.738  0.0679 -0.4784 -0.3750
   18CHTO   C50 7448   5.991   8.255   0.801 -0.1211 -0.6162  1.0340
   18CHTO   H92 7449   6.066   8.325   0.762 -0.2171  0.0901  2.0955
   18CHTO   C54 7450   5.996   8.299   0.945 -0.6073  0.1510  0.7738
   18CHTO   O36 7451   6.128   8.336   0.995 -0.1566  0.6193  0.7822
   18CHTO   H72 7452   6.180   8.265   1.028 -0.0345  0.7701  0.9180
   18CHTO   O27 7453   5.688   8.220   0.872 -0.1285  0.0306  0.1450
   18CHTO   C37 7454   5.594   8.318   0.927  0.3671 -0.0370 -0.2196
   18CHTO   H79 7455   5.564   8.282   1.027 -0.9659  0.9168 -0.2771
   18CHTO   C38 7456   5.658   8.461   0.942 -0.3332 -0.5584  0.1967
   18CHTO   H80 7457   5.721   8.479   0.854 -1.1143 -1.8843 -0.6566
   18CHTO   O31 7458   5.741   8.453   1.057  0.2858  0.0189  0.2608
   18CHTO   H68 7459   5.804   8.383   1.057 -0.2087 -0.4367 -1.1269
   18CHTO   C39 7460   5.545   8.578   0.965 -0.3903 -0.0453 -0.4040
   18CHTO   H81 7461   5.511   8.570   1.068 -0.9170  0.1666 -0.5583
   18CHTO    N7 7462   5.604   8.712   0.963  0.0405  0.5572 -0.9399
   18CHTO   H73 7463   5.553   8.777   0.893  1.7927  1.1144 -1.7094
   18CHTO   H74 7464   5.704   8.707   0.922  0.3526 -0.6659 -0.0289
   18CHTO   C40 7465   5.416   8.554   0.878  0.0078  0.2138 -0.1805
   18CHTO   H82 7466   5.444   8.583   0.777  2.2868  0.9001  0.6243
   18CHTO   O26 7467   5.375   8.418   0.886 -0.4389  0.3494 -0.0431
   18CHTO   C41 7468   5.469   8.318   0.833  0.2414  0.1077  0.1664
   18CHTO   H83 7469   5.500   8.348   0.732  3.4194 -3.5139 -0.0948
   18CHTO   C52 7470   5.385   8.188   0.826  0.2033 -0.1384 -0.4897
   18CHTO   O35 7471   5.290   8.194   0.727 -0.3707 -0.5553 -0.3315
   18CHTO   H71 7472   5.287   8.109   0.687  0.4292 -0.2227 -1.1318
   18CHTO   O28 7473   5.316   8.654   0.904 -0.1354  0.5058 -0.5767
   18CHTO   C42 7474   5.177   8.622   0.931  0.2375 -0.2724 -0.0055
   18CHTO   H84 7475   5.131   8.719   0.915 -0.9424 -1.0631 -1.6193
   18CHTO   C44 7476   5.139   8.571   1.074 -0.4524  0.2944  0.0808
   18CHTO   H86 7477   5.168   8.466   1.086  0.4443  0.5804  0.3807
   18CHTO   O32 7478   5.214   8.651   1.165  0.2040 -0.2973 -0.6518
   18CHTO   H69 7479   5.229   8.611   1.249 -2.6806  1.4830  0.8171
   18CHTO   C48 7480   4.987   8.576   1.102  0.2106 -0.1309  0.2336
   18CHTO   H90 7481   4.962   8.682   1.104  0.5143 -0.0499 -0.1273
   18CHTO    N9 7482   4.951   8.522   1.234  0.4192 -0.1562  0.1843
   18CHTO   H77 7483   4.856   8.555   1.275  0.5336  1.6051 -0.9344
   18CHTO   H78 7484   4.938   8.415   1.239  0.3860 -0.1527  0.1475
   18CHTO   C51 7485   4.901   8.500   0.989  0.6000 -0.4136  0.0773
   18CHTO   H93 7486   4.898   8.393   1.008 -0.7461  0.1232  3.2908
   18CHTO   O30 7487   4.949   8.533   0.859 -0.1162 -0.1161 -0.5939
   18CHTO   C46 7488   5.100   8.529   0.826 -0.0217  0.1282 -0.0789
   18CHTO   H88 7489   5.135   8.427   0.844 -0.1501  0.4319  1.9734
   18CHTO   C53 7490   5.115   8.568   0.677 -0.0685  0.1800  0.2514
   18CHTO   O72 7491   5.046   8.478   0.596  0.3179  0.2670 -0.0189
   18CHTO  H199 7492   5.101   8.414   0.556  1.3717  0.0416  1.7132
   18CHTO   O22 7493   4.768   8.553   0.994 -0.2951  0.4645  0.7451
   18CHTO   C31 7494   4.666   8.542   0.883 -0.3573 -0.6110  0.2047
   18CHTO   H59 7495   4.569   8.563   0.932  1.1100  2.7043  1.8676
   18CHTO   C29 7496   4.678   8.645   0.765 -0.2117  0.0957 -0.2883
   18CHTO   H57 7497   4.785   8.641   0.741 -0.4711 -1.3071 -1.3123
   18CHTO   O21 7498   4.658   8.783   0.809 -0.2930  0.7412 -0.0880
   18CHTO   H37 7499   4.568   8.795   0.836 -0.2827 -1.6388  1.2272
   18CHTO   C27 7500   4.591   8.610   0.641 -0.2789 -0.3065  0.9206
   18CHTO   H55 7501   4.483   8.615   0.663 -0.3534  0.2761  0.4368
   18CHTO    N5 7502   4.617   8.691   0.520 -0.8564 -0.3528  0.2988
   18CHTO   H43 7503   4.649   8.644   0.428 -2.0600 -1.6322  0.5238
   18CHTO   H44 7504   4.526   8.743   0.493 -0.0593 -0.8211 -3.6705
   18CHTO   C25 7505   4.596   8.459   0.603  0.0559 -0.6496 -0.0673
   18CHTO   H53 7506   4.695   8.440   0.559 -0.4186 -1.3838 -0.8348
   18CHTO   O17 7507   4.571   8.372   0.718 -1.0834  0.0769  0.1159
   18CHTO   C32 7508   4.659   8.391   0.827  0.4687  0.1931  0.1621
   18CHTO   H60 7509   4.762   8.358   0.809 -0.3010 -1.2405 -1.7977
   18CHTO   C36 7510   4.602   8.288   0.923 -0.2373  0.1163  0.4028
   18CHTO   O25 7511   4.601   8.150   0.891  0.2079 -0.3179 -0.1952
   18CHTO   H40 7512   4.658   8.116   0.825  0.2473  0.9339 -0.8038
   18CHTO   O15 7513   4.481   8.421   0.494 -0.2125  0.9034 -0.2327
   18CHTO   C19 7514   4.506   8.368   0.356  0.6876 -0.4177  0.4561
   18CHTO   H47 7515   4.405   8.334   0.328  1.2704 -0.6780 -1.4003
   18CHTO   C20 7516   4.565   8.464   0.247  0.1128  0.3251  0.0303
   18CHTO   H48 7517   4.668   8.493   0.271 -0.3034  2.1145 -0.2768
   18CHTO   O19 7518   4.480   8.580   0.246  0.1128 -0.7899  0.2438
   18CHTO   H35 7519   4.475   8.621   0.330  2.6583  0.3360 -0.1110
   18CHTO   C21 7520   4.567   8.392   0.110  0.0039 -0.1892  0.4452
   18CHTO   H49 7521   4.466   8.356   0.086 -0.5462  1.4256  0.3113
   18CHTO    N4 7522   4.615   8.476   0.001 -0.0535 -0.6236  0.4833
   18CHTO   H41 7523   4.649   8.423  -0.086  1.9562  2.0436 -0.3858
   18CHTO   H42 7524   4.538   8.545  -0.030  0.6302 -0.2804 -0.4422
   18CHTO   C22 7525   4.657   8.266   0.128 -0.4187 -0.0928  0.1895
   18CHTO   H50 7526   4.755   8.301   0.163 -0.3737  0.2879 -0.3165
   18CHTO   O14 7527   4.593   8.182   0.227  0.9848  0.5284 -0.3600
   18CHTO   C23 7528   4.597   8.243   0.354 -0.1445  0.0150 -0.2073
   18CHTO   H51 7529   4.700   8.266   0.385 -0.0498  1.6234 -1.6919
   18CHTO   C34 7530   4.558   8.143   0.458 -0.0155  0.4858  0.5056
   18CHTO   O23 7531   4.654   8.035   0.472 -0.0651 -0.7602  0.2007
   18CHTO   H38 7532   4.656   7.972   0.402 -1.4964 -0.8997  0.2845
   18CHTO   O16 7533   4.662   8.187   0.010 -0.8041  0.7830  0.3597
   18CHTO   C24 7534   4.833   8.149  -0.048 -0.1621 -0.7166 -0.0523
   18CHTO   H52 7535   4.899   8.236  -0.044  1.0357 -1.6021 -0.3498
   18CHTO   C26 7536   4.837   8.110  -0.197 -0.3257  0.1236 -0.5525
   18CHTO   H54 7537   4.774   8.020  -0.209  0.6876 -0.9069  1.5625
   18CHTO   O20 7538   4.780   8.213  -0.279  0.6755  0.0506  0.2572
   18CHTO   H36 7539   4.836   8.287  -0.290 -0.3109  0.7932  0.1037
   18CHTO   C30 7540   4.974   8.061  -0.252 -0.1532  0.3171 -0.4795
   18CHTO   H58 7541   5.025   8.152  -0.287 -1.3059  1.2014  0.1182
   18CHTO    N6 7542   4.961   7.982  -0.378  0.0124 -0.3094  0.1627
   18CHTO   H45 7543   4.881   7.910  -0.368  1.2689 -1.6289  1.0304
   18CHTO   H46 7544   5.055   7.929  -0.385  0.2082  0.0033  0.4015
   18CHTO   C33 7545   5.068   7.989  -0.148  0.1848  0.5629  0.0401
   18CHTO   H61 7546   5.046   7.883  -0.160 -0.2408  0.2874  2.8531
   18CHTO   O18 7547   5.037   8.025  -0.011 -0.3026 -0.2817 -0.2318
   18CHTO   C28 7548   4.902   8.040   0.035  0.3316  0.3914 -0.2687
   18CHTO   H56 7549   4.846   7.947   0.031 -1.4775  1.5176 -1.7347
   18CHTO   C35 7550   4.909   8.071   0.190  0.6843 -0.0514  0.4612
   18CHTO   O24 7551   4.946   7.963   0.279 -0.3268 -0.2625  0.3219
   18CHTO   H39 7552   4.907   7.982   0.362 -0.3630 -0.9168  0.4568
   18CHTO    O9 7553   5.210   8.000  -0.176  0.1790  1.1133  0.2751
   18CHTO   C13 7554   5.305   7.921  -0.074 -0.0735  0.0470  0.3316
   18CHTO   H26 7555   5.240   7.866  -0.003 -2.0198  0.5129 -1.0294
   18CHTO   C11 7556   5.396   8.027  -0.003 -0.0299 -0.1608 -0.6194
   18CHTO   H24 7557   5.324   8.095   0.046  0.2972  0.3345 -0.8299
   18CHTO    O8 7558   5.466   8.117  -0.093  0.2203 -0.4491 -1.1807
   18CHTO    H3 7559   5.473   8.079  -0.179  3.2657 -0.8853 -0.7708
   18CHTO    C9 7560   5.491   7.952   0.094 -0.1841 -0.1525 -0.2416
   18CHTO   H22 7561   5.424   7.902   0.165  0.5254  1.8865  1.9081
   18CHTO    N2 7562   5.574   8.049   0.173 -0.6694 -0.3229 -0.6179
   18CHTO   H10 7563   5.678   8.022   0.165 -0.1491  1.2015  0.8715
   18CHTO   H11 7564   5.543   8.072   0.274  0.6859 -1.8878  0.1836
   18CHTO    C7 7565   5.584   7.852   0.008  0.1026 -0.0889  0.2501
   18CHTO   H20 7566   5.650   7.804   0.083 -0.3293  1.3536  1.5664
   18CHTO    O4 7567   5.504   7.755  -0.064  0.2767 -0.1018 -0.1112
   18CHTO   C14 7568   5.388   7.805  -0.143 -0.2774 -0.2567 -0.3599
   18CHTO   H27 7569   5.323   7.716  -0.154  1.8133 -1.6911 -1.4024
   18CHTO   C18 7570   5.438   7.848  -0.288  0.3593 -0.1952 -0.3180
   18CHTO   O13 7571   5.482   7.733  -0.362  0.0311 -0.2709 -0.7816
   18CHTO    H7 7572   5.417   7.712  -0.427  0.8797  1.0939 -2.1202
   18CHTO    O2 7573   5.671   7.938  -0.107  0.4669 -0.2686 -0.0738
   18CHTO    C1 7574   5.805   7.889  -0.136 -0.8056  0.0061 -0.6772
   18CHTO   H14 7575   5.831   7.920  -0.239  1.2417  2.5113  0.5233
   18CHTO    C2 7576   5.827   7.733  -0.118  0.2668  0.2486 -0.1339
   18CHTO   H15 7577   5.794   7.708  -0.016  0.3315 -0.2498 -0.2345
   18CHTO    O6 7578   5.742   7.661  -0.211 -0.0019 -0.3619 -0.5186
   18CHTO    H1 7579   5.680   7.612  -0.163  1.2194 -1.6202 -0.2079
   18CHTO    C3 7580   5.987   7.708  -0.130 -0.1101  0.9237 -0.0086
   18CHTO   H16 7581   6.027   7.743  -0.227 -0.6419  0.8923 -0.2408
   18CHTO    N1 7582   6.011   7.561  -0.138 -0.5589  0.2986 -0.9579
   18CHTO    H8 7583   6.055   7.523  -0.047  0.0604  2.2678 -0.4189
   18CHTO    H9 7584   6.080   7.546  -0.220 -0.3794 -1.0918 -0.5784
   18CHTO    C4 7585   6.061   7.797  -0.020 -0.1423 -1.3981  0.6844
   18CHTO   H17 7586   6.029   7.757   0.077 -2.3827 -0.3195  0.4348
   18CHTO    O1 7587   6.037   7.939  -0.039 -0.5271 -0.3328  0.0055
   18CHTO    C5 7588   5.900   7.973  -0.036 -0.0006  0.4900 -0.1843
   18CHTO   H18 7589   5.860   7.951   0.063  0.0169  0.1528 -0.2536
   18CHTO   C16 7590   5.877   8.122  -0.071 -0.0137 -0.0490  0.0972
   18CHTO   O11 7591   5.949   8.204   0.020 -0.5770 -0.1001 -0.1700
   18CHTO    H5 7592   6.041   8.185   0.016 -0.3537  1.0444 -0.6279
   18CHTO    O3 7593   6.204   7.787  -0.037  0.8250  0.1522 -0.2903
   18CHTO    C6 7594   6.293   7.773   0.074 -0.0493  0.0295 -0.2724
   18CHTO   H19 7595   6.242   7.783   0.170 -0.0651  0.0421 -0.2824
   18CHTO    C8 7596   6.356   7.630   0.071  0.1787  0.0647 -0.0732
   18CHTO   H21 7597   6.408   7.625  -0.025  0.6225  0.6145  0.1344
   18CHTO    O7 7598   6.258   7.524   0.081  0.1715 -0.0065 -0.4609
   18CHTO    H2 7599   6.294   7.438   0.070 -0.5404 -0.3335 -0.2538
   18CHTO   C12 7600   6.469   7.608   0.182 -0.5162  0.4519 -0.1042
   18CHTO   H25 7601   6.415   7.602   0.279  0.0789  1.0792  0.2763
   18CHTO    N3 7602   6.545   7.474   0.163 -0.1114  0.0029 -0.5389
   18CHTO   H12 7603   6.614   7.495   0.082 -1.7297  3.1481 -1.2091
   18CHTO   H13 7604   6.588   7.451   0.259 -4.4455  0.8231  1.6949
   18CHTO   C15 7605   6.567   7.726   0.193  0.5501  0.6670  0.0258
   18CHTO   H28 7606   6.645   7.726   0.118  1.1915  1.8817  0.6795
   18CHTO   O10 7607   6.620   7.736   0.327  0.8075 -0.0520 -0.2301
   18CHTO    H4 7608   6.647   7.651   0.354  0.2778 -0.3810 -0.7262
   18CHTO    O5 7609   6.493   7.848   0.193 -0.5111  0.4907 -0.3545
   18CHTO   C10 7610   6.405   7.877   0.082  0.1401 -0.1398  0.1401
   18CHTO   H23 7611   6.469   7.866  -0.006  0.0575  2.8443 -0.3284
   18CHTO   C17 7612   6.358   8.022   0.078 -0.1848 -0.0053  0.0081
   18CHTO   O12 7613   6.447   8.132   0.104  0.2006 -0.1352  0.5533
   18CHTO    H6 7614   6.449   8.154   0.195  0.5357 -0.5665  0.6515
   19CHTO  H203 7615   4.922   9.782   2.037 -1.4567 -3.1462 -0.4156
   19CHTO   O82 7616   4.943   9.787   1.946 -0.1304 -0.0598 -0.0063
   19CHTO  C123 7617   4.908   9.662   1.880  0.0852 -0.1652 -0.5775
   19CHTO  H227 7618   4.821   9.676   1.814  0.2783 -1.2151 -1.0676
   19CHTO   O77 7619   5.023   9.629   1.797 -0.1479  0.1265 -0.0075
   19CHTO  C118 7620   5.001   9.531   1.699  0.2602  0.1836 -0.1655
   19CHTO  H222 7621   4.909   9.546   1.640  1.3175  0.5496 -1.7700
   19CHTO  C125 7622   5.122   9.530   1.598 -0.4695  0.2974  0.3217
   19CHTO   O84 7623   5.109   9.427   1.496 -0.5020 -0.4398  0.0494
   19CHTO  H205 7624   5.116   9.467   1.411 -0.0557  0.1243  0.3416
   19CHTO  C114 7625   4.982   9.393   1.769  0.0967  0.0420 -0.1785
   19CHTO  H218 7626   5.078   9.371   1.816 -0.7918 -0.0478  1.6207
   19CHTO  C116 7627   4.874   9.401   1.883  0.2888  0.2785  0.0155
   19CHTO  H220 7628   4.772   9.392   1.840  1.1593  2.2671 -2.5683
   19CHTO   O79 7629   4.901   9.291   1.975 -0.4097 -0.0186 -0.2819
   19CHTO  H201 7630   4.906   9.207   1.933 -0.3371 -1.4197  2.4000
   19CHTO  C120 7631   4.887   9.536   1.970  0.4738  0.8644  0.5821
   19CHTO  H224 7632   4.983   9.516   2.022  0.5055 -1.2001 -0.2034
   19CHTO   N21 7633   4.783   9.550   2.071  0.1564  0.5699 -0.1058
   19CHTO  H211 7634   4.819   9.528   2.171 -0.4301 -0.1938 -0.0556
   19CHTO  H212 7635   4.700   9.484   2.051  0.9399 -0.6150  0.4885
   19CHTO   O75 7636   4.940   9.290   1.672 -0.4826  0.2426  0.7503
   19CHTO  C112 7637   5.025   9.149   1.685  0.6363  0.6295  0.4706
   19CHTO  H216 7638   5.020   9.100   1.784 -2.4114 -1.2633 -0.5744
   19CHTO   O73 7639   5.159   9.174   1.640 -0.0482  0.2937 -0.2612
   19CHTO  C113 7640   5.240   9.056   1.641 -0.0494 -0.2161 -0.0982
   19CHTO  H217 7641   5.255   9.030   1.748 -0.1147 -2.3601 -0.5897
   19CHTO  C124 7642   5.383   9.083   1.591  0.5703  0.4587  0.5523
   19CHTO   O83 7643   5.388   9.154   1.471  0.3010  0.0162  0.2535
   19CHTO  H204 7644   5.415   9.103   1.398  1.5513  0.7070  0.2144
   19CHTO  C109 7645   5.181   8.932   1.566  0.2581 -0.6175 -0.0741
   19CHTO  H213 7646   5.198   8.955   1.460  0.3099  1.8426  0.4470
   19CHTO  C110 7647   5.034   8.910   1.607 -1.1930 -0.2120 -0.6268
   19CHTO  H214 7648   5.038   8.885   1.713  1.0410 -0.8008 -0.8337
   19CHTO   O78 7649   4.971   8.807   1.527 -0.1661  0.2916 -0.5744
   19CHTO  H200 7650   4.879   8.795   1.541  0.2650 -1.3059  1.1214
   19CHTO  C111 7651   4.961   9.046   1.590  0.6653 -0.2482 -1.1576
   19CHTO  H215 7652   4.976   9.077   1.485 -0.5214  0.6045 -1.0812
   19CHTO   N19 7653   4.813   9.040   1.612 -0.3518  0.2349  0.3726
   19CHTO  H207 7654   4.766   8.944   1.624  0.5604 -0.3749 -0.8153
   19CHTO  H208 7655   4.796   9.103   1.699  1.9133  0.2993  0.8083
   19CHTO   O74 7656   5.261   8.820   1.600  0.2688  0.3129 -0.1922
   19CHTO  C115 7657   5.309   8.729   1.481 -0.1477 -0.2030 -0.0267
   19CHTO  H219 7658   5.231   8.720   1.405  0.8109 -1.3219 -0.8998
   19CHTO   O76 7659   5.436   8.799   1.400 -0.2104 -0.4933 -0.1247
   19CHTO  C122 7660   5.569   8.763   1.441 -0.1147 -0.1961 -0.1066
   19CHTO  H226 7661   5.584   8.797   1.543 -1.2918 -1.0592  0.3569
   19CHTO  C126 7662   5.668   8.847   1.342  0.1292 -0.2015  0.0545
   19CHTO   O85 7663   5.801   8.840   1.396  0.2970  0.0042  0.0541
   19CHTO  H206 7664   5.828   8.922   1.433 -1.0141  1.1095 -1.3863
   19CHTO  C121 7665   5.597   8.614   1.427 -0.4800 -0.1170  0.5836
   19CHTO  H225 7666   5.638   8.601   1.325 -1.5840  0.3145  0.0877
   19CHTO   O81 7667   5.688   8.584   1.536 -0.8476 -0.0459  0.1442
   19CHTO  H202 7668   5.779   8.601   1.517 -1.2195  1.4220 -0.3931
   19CHTO  C119 7669   5.467   8.528   1.440 -0.3768 -0.3755 -0.8292
   19CHTO  H223 7670   5.427   8.530   1.339 -1.7919 -4.0034 -0.4255
   19CHTO  C117 7671   5.353   8.592   1.537 -0.3684 -0.2405  0.0988
   19CHTO  H221 7672   5.381   8.603   1.642 -0.8877 -0.2395  0.2353
   19CHTO   N20 7673   5.239   8.503   1.542 -0.1975  0.0468 -0.4213
   19CHTO  H209 7674   5.270   8.399   1.545 -2.1494 -0.5992 -2.0025
   19CHTO  H210 7675   5.167   8.514   1.462 -0.3824 -1.1550 -0.4318
   19CHTO   O80 7676   5.484   8.379   1.453  0.5441  0.5755  0.2208
   19CHTO  C103 7677   5.552   8.297   1.346  0.0232 -0.6670  0.7154
   19CHTO  H190 7678   5.565   8.353   1.254 -3.1703 -1.1089 -0.0753
   19CHTO  C101 7679   5.701   8.245   1.384 -0.0956 -0.1731 -0.1664
   19CHTO  H188 7680   5.700   8.190   1.478 -5.1838 -1.5908 -0.9342
   19CHTO   O68 7681   5.813   8.365   1.386 -0.3171  0.2169  0.7011
   19CHTO  H168 7682   5.897   8.332   1.410  0.6714 -0.3041 -3.1686
   19CHTO   C99 7683   5.737   8.140   1.272 -0.1181 -0.1441  0.2103
   19CHTO  H186 7684   5.739   8.185   1.171  0.0374  0.7196  0.5897
   19CHTO   N17 7685   5.875   8.077   1.298  0.5711 -0.3861 -0.5670
   19CHTO  H174 7686   5.948   8.155   1.314  0.1378  0.0805 -0.8853
   19CHTO  H175 7687   5.896   8.002   1.223 -3.2512 -1.8497 -0.2597
   19CHTO   C97 7688   5.624   8.031   1.268 -0.5176 -0.5532  0.0023
   19CHTO  H184 7689   5.614   7.986   1.367  2.7234 -1.3477  0.0245
   19CHTO   O64 7690   5.500   8.100   1.220  0.5982  0.0954  0.7646
   19CHTO  C104 7691   5.443   8.182   1.317  0.1817  0.0238 -0.2555
   19CHTO  H191 7692   5.417   8.137   1.413 -0.9705  1.2993  0.0546
   19CHTO  C108 7693   5.314   8.238   1.263  0.6580  0.2665  0.3038
   19CHTO   O71 7694   5.229   8.138   1.215  0.2797 -0.5938 -0.0597
   19CHTO  H171 7695   5.142   8.164   1.237 -0.0746 -0.4640 -1.5534
   19CHTO   O62 7696   5.643   7.933   1.162 -0.1355  0.2099  0.4042
   19CHTO   C91 7697   5.585   7.802   1.178 -0.4480  0.2930 -0.0476
   19CHTO  H178 7698   5.515   7.810   1.261 -0.7361  2.3983 -0.4711
   19CHTO   C92 7699   5.704   7.701   1.217 -0.3179  0.5211 -0.3916
   19CHTO  H179 7700   5.781   7.711   1.140 -0.9511 -1.9173 -1.3975
   19CHTO   O66 7701   5.753   7.750   1.339 -0.4714  0.6167 -0.0399
   19CHTO  H166 7702   5.814   7.690   1.377 -0.4449  0.7150  0.0735
   19CHTO   C93 7703   5.650   7.551   1.225 -0.0995  0.0058  0.5778
   19CHTO  H180 7704   5.581   7.556   1.311 -2.2974 -3.7979 -0.8144
   19CHTO   N16 7705   5.744   7.436   1.256 -0.2804 -0.4093 -0.0024
   19CHTO  H172 7706   5.677   7.355   1.282 -1.1541  0.1262 -0.5720
   19CHTO  H173 7707   5.814   7.413   1.177  0.1662  1.0438 -0.0406
   19CHTO   C94 7708   5.557   7.523   1.098 -0.2242  0.0396  0.0332
   19CHTO  H181 7709   5.612   7.518   1.004  0.5032 -0.3538  0.4750
   19CHTO   O61 7710   5.453   7.621   1.087  0.0132  0.5589 -0.0413
   19CHTO   C95 7711   5.502   7.749   1.054  0.0693 -0.2721  0.4092
   19CHTO  H182 7712   5.560   7.742   0.962 -0.4640  0.4520  0.0033
   19CHTO  C106 7713   5.375   7.840   1.018 -0.0737  0.2139  0.0194
   19CHTO   O69 7714   5.313   7.803   0.895  0.3457 -0.3768 -0.1607
   19CHTO  H169 7715   5.226   7.838   0.887  0.3547 -0.1893  0.5863
   19CHTO   O63 7716   5.473   7.381   1.117  0.5258  0.5691  0.2403
   19CHTO   C96 7717   5.450   7.327   0.987 -0.5501  0.1028  0.1380
   19CHTO  H183 7718   5.545   7.321   0.934 -2.5978  0.0668 -3.7804
   19CHTO   C98 7719   5.351   7.408   0.896 -0.4242  0.2807 -0.4167
   19CHTO  H185 7720   5.385   7.512   0.888 -1.7206  0.8552  1.2685
   19CHTO   O67 7721   5.362   7.354   0.765 -0.0515 -0.2149  0.6088
   19CHTO  H167 7722   5.355   7.261   0.774  0.0988 -0.3139 -0.2755
   19CHTO  C102 7723   5.202   7.390   0.948 -0.2218  0.0206 -0.6156
   19CHTO  H189 7724   5.140   7.400   0.858  1.5750  0.5136 -1.8231
   19CHTO   N18 7725   5.153   7.485   1.044 -0.6454  0.2991  0.3077
   19CHTO  H176 7726   5.068   7.442   1.095 -0.6806 -2.3810 -1.9264
   19CHTO  H177 7727   5.238   7.508   1.107 -1.4213  1.7972  0.8398
   19CHTO  C105 7728   5.175   7.243   0.984  1.0381 -0.3167 -0.0030
   19CHTO  H192 7729   5.167   7.235   1.093 -1.9296  1.5126 -0.0236
   19CHTO   O65 7730   5.277   7.150   0.942 -0.0216  0.2743  0.5111
   19CHTO  C100 7731   5.404   7.171   1.002 -0.3927 -0.0077 -0.3086
   19CHTO  H187 7732   5.402   7.157   1.111  1.5097  1.3242 -0.0841
   19CHTO  C107 7733   5.522   7.081   0.951  0.5948  0.0131  0.5553
   19CHTO   O70 7734   5.474   6.947   0.974 -0.5436  0.7349 -0.0436
   19CHTO  H170 7735   5.469   6.939   1.067  0.2766  1.0269  0.0360
   19CHTO   O57 7736   5.010   7.222   0.918 -0.3027 -0.2380  0.5283
   19CHTO   C85 7737   4.926   7.152   1.006  0.1308 -0.6616 -0.1454
   19CHTO  H157 7738   4.978   7.113   1.096 -1.2425  1.1236  1.4842
   19CHTO   C83 7739   4.885   7.015   0.940 -0.0682  0.2129  0.1626
   19CHTO  H155 7740   4.978   6.968   0.910  1.0241  2.9859 -1.0071
   19CHTO   O56 7741   4.816   7.039   0.813  0.1295  0.3781 -0.2588
   19CHTO  H135 7742   4.877   7.052   0.742  1.9309 -0.2758  1.1174
   19CHTO   C81 7743   4.810   6.929   1.050  0.1540 -1.2050  0.8528
   19CHTO  H153 7744   4.878   6.917   1.135  0.9936  1.3268  0.5717
   19CHTO   N14 7745   4.771   6.796   1.003 -0.3704 -0.4539 -0.4665
   19CHTO  H141 7746   4.856   6.765   0.945  0.7784  0.4156  0.7147
   19CHTO  H142 7747   4.760   6.731   1.087 -0.0226 -0.0814 -0.1334
   19CHTO   C79 7748   4.683   7.015   1.098  0.1628  0.6609 -0.2151
   19CHTO  H151 7749   4.639   6.958   1.181  1.3165  2.2223  1.5091
   19CHTO   O52 7750   4.720   7.152   1.151  0.7051 -0.1708 -0.4284
   19CHTO   C86 7751   4.789   7.220   1.043 -0.0787  0.0649 -0.3704
   19CHTO  H158 7752   4.718   7.218   0.959  1.1687 -0.7515 -1.4321
   19CHTO   C90 7753   4.802   7.365   1.088  0.2208  0.2104 -0.2131
   19CHTO   O60 7754   4.807   7.459   0.986 -0.0088 -1.0035 -0.0251
   19CHTO  H138 7755   4.757   7.438   0.910  1.7004 -0.9560 -1.1985
   19CHTO   O50 7756   4.582   7.024   0.997  0.2604  0.1728 -0.7115
   19CHTO   C73 7757   4.438   7.025   0.980 -0.4541 -1.1314 -0.0624
   19CHTO  H145 7758   4.398   6.929   1.012  2.4232 -1.7647  1.7976
   19CHTO   C74 7759   4.400   7.060   0.830 -0.7598  0.8676  0.2922
   19CHTO  H146 7760   4.440   6.979   0.768 -0.2396 -0.4083  2.2518
   19CHTO   O54 7761   4.259   7.057   0.826 -0.2254  0.5708  0.1100
   19CHTO  H133 7762   4.222   6.971   0.830  3.0867 -0.8195  3.0918
   19CHTO   C75 7763   4.467   7.201   0.793 -0.4727 -0.8618 -0.3551
   19CHTO  H147 7764   4.575   7.184   0.803 -0.0929  0.1550 -2.4943
   19CHTO   N13 7765   4.430   7.242   0.660  0.4425  0.1681 -0.3879
   19CHTO  H139 7766   4.376   7.335   0.659  1.7836  0.9495 -0.7803
   19CHTO  H140 7767   4.517   7.259   0.598  0.6338 -2.1063 -0.8107
   19CHTO   C76 7768   4.426   7.311   0.900 -0.0016  1.0142 -0.5960
   19CHTO  H148 7769   4.319   7.319   0.883  0.0557  0.9489 -0.9777
   19CHTO   O49 7770   4.439   7.267   1.037  0.8493  0.5514 -0.2736
   19CHTO   C77 7771   4.373   7.141   1.067 -0.1530  0.4284 -0.4203
   19CHTO  H149 7772   4.266   7.146   1.044 -0.3085 -1.5106 -0.2677
   19CHTO   C88 7773   4.384   7.108   1.216 -0.5486  0.1108 -0.2599
   19CHTO   O58 7774   4.315   6.991   1.249 -0.3677  0.1086  0.1848
   19CHTO  H136 7775   4.359   6.913   1.221 -0.9250 -0.3071  0.4523
   19CHTO   O51 7776   4.504   7.445   0.897 -0.6295  0.2655  0.3544
   19CHTO   C78 7777   4.409   7.578   0.916 -0.2237 -0.2543  0.2309
   19CHTO  H150 7778   4.302   7.548   0.914  0.3137 -2.3559  1.0894
   19CHTO   C80 7779   4.431   7.685   0.807  0.2483 -0.1332 -0.2956
   19CHTO  H152 7780   4.535   7.722   0.809  0.2815 -0.0458 -2.9018
   19CHTO   O55 7781   4.384   7.638   0.679  0.2114  0.9256 -0.2990
   19CHTO  H134 7782   4.291   7.622   0.677  0.6296 -3.0777  3.9014
   19CHTO   C84 7783   4.350   7.820   0.838  0.2807  0.3863  1.0466
   19CHTO  H156 7784   4.249   7.806   0.800  0.6016  0.3588  0.2135
   19CHTO   N15 7785   4.391   7.938   0.764 -0.1416 -0.2305  0.5602
   19CHTO  H143 7786   4.324   8.014   0.799 -2.9764 -1.2940 -2.2951
   19CHTO  H144 7787   4.492   7.961   0.791 -0.0196 -0.4586  0.3053
   19CHTO   C87 7788   4.352   7.852   0.987 -0.2840  0.5147  0.0248
   19CHTO  H159 7789   4.445   7.899   1.020 -1.4825  0.8162  3.1271
   19CHTO   O53 7790   4.334   7.744   1.069 -0.8611  0.4122  0.6450
   19CHTO   C82 7791   4.431   7.643   1.055 -0.3019 -0.4212  0.1899
   19CHTO  H154 7792   4.532   7.682   1.068 -0.2432  0.2613 -2.0575
   19CHTO   C89 7793   4.413   7.538   1.166  0.5160  0.3131 -0.2317
   19CHTO   O59 7794   4.426   7.602   1.286 -0.2068  0.5012 -0.2035
   19CHTO  H137 7795   4.340   7.612   1.321  1.1557  0.9393  3.2163
   19CHTO   O45 7796   4.241   7.963   1.023 -0.2487  0.2951  0.6136
   19CHTO   C67 7797   4.223   8.020   1.154  0.0879 -0.7700 -0.4828
   19CHTO  H124 7798   4.187   7.937   1.214  0.0506 -1.3866 -1.3493
   19CHTO   C65 7799   4.365   8.058   1.208 -0.2858  0.5183 -0.3326
   19CHTO  H122 7800   4.432   8.077   1.125  1.8948  1.8172  1.6672
   19CHTO   O44 7801   4.412   7.945   1.286 -0.0047 -0.2843 -0.1184
   19CHTO  H102 7802   4.359   7.938   1.364 -0.6233  1.9446 -0.3105
   19CHTO   C63 7803   4.367   8.202   1.273 -0.8635  0.3060 -0.0040
   19CHTO  H120 7804   4.357   8.276   1.193 -0.3475  1.9795  1.4462
   19CHTO   N11 7805   4.497   8.244   1.337  0.3895  0.0590 -0.3659
   19CHTO  H108 7806   4.499   8.207   1.437  2.0299 -1.7042 -1.0251
   19CHTO  H109 7807   4.502   8.351   1.336 -1.7429  0.1832 -0.3907
   19CHTO   C61 7808   4.240   8.216   1.362 -0.4764 -0.2387  0.1879
   19CHTO  H118 7809   4.240   8.320   1.400 -0.1585 -0.8693  1.9531
   19CHTO   O40 7810   4.117   8.200   1.283 -0.1934 -0.0312  0.6284
   19CHTO   C68 7811   4.118   8.133   1.157 -1.0204 -0.2182  0.3318
   19CHTO  H125 7812   4.153   8.203   1.078  2.3246 -1.4181  0.6651
   19CHTO   C72 7813   3.973   8.087   1.117  0.3085  0.0569 -0.4491
   19CHTO   O48 7814   3.962   8.029   0.985  0.5283  0.4963 -0.1682
   19CHTO  H105 7815   3.882   8.049   0.939  0.5425 -0.3205 -0.5427
   19CHTO   O38 7816   4.248   8.120   1.471 -0.4455 -0.7731  0.2076
   19CHTO   C55 7817   4.133   8.060   1.527 -0.7102  0.5495  0.1831
   19CHTO  H112 7818   4.083   7.999   1.450 -0.2285  0.0405  0.2637
   19CHTO   C56 7819   4.031   8.156   1.599  0.1202 -0.0501  0.8246
   19CHTO  H113 7820   4.081   8.215   1.676 -2.5489 -0.4277  2.9285
   19CHTO   O42 7821   3.984   8.254   1.507 -0.0074 -0.7918  0.6772
   19CHTO  H100 7822   4.058   8.292   1.465  0.5079 -2.2083  0.2941
   19CHTO   C57 7823   3.911   8.072   1.661 -0.8434 -0.5057 -1.1085
   19CHTO  H114 7824   3.853   8.030   1.579 -0.3001  0.0471 -1.7868
   19CHTO   N10 7825   3.817   8.153   1.751 -0.1281  0.1685 -0.1968
   19CHTO  H106 7826   3.834   8.258   1.735 -2.3537  0.8862  1.9455
   19CHTO  H107 7827   3.712   8.133   1.738 -0.5293  1.0677  1.5374
   19CHTO   C58 7828   3.961   7.958   1.751 -0.0828  0.1617 -0.1692
   19CHTO  H115 7829   4.003   7.997   1.846 -0.1004 -3.0849  1.2474
   19CHTO   O37 7830   4.073   7.890   1.691  0.0144  0.2104 -0.4135
   19CHTO   C59 7831   4.178   7.954   1.632 -0.0427  0.3385 -0.0448
   19CHTO  H116 7832   4.239   7.988   1.715 -0.7150  1.2759  0.0796
   19CHTO   C70 7833   4.268   7.841   1.567 -0.3810 -0.1777 -0.2662
   19CHTO   O46 7834   4.352   7.770   1.658 -0.0716 -0.1249  0.3971
   19CHTO  H103 7835   4.393   7.823   1.723  0.5924  0.2204 -0.2929
   19CHTO   O39 7836   3.842   7.829   1.777 -0.2496  0.3943 -0.0420
   19CHTO   C60 7837   3.853   7.712   1.696  0.4125 -0.1452  0.0018
   19CHTO  H117 7838   3.914   7.748   1.612  0.6627  1.1304  0.7024
   19CHTO   C62 7839   3.919   7.593   1.777 -0.4097  0.7599 -0.5441
   19CHTO  H119 7840   4.017   7.631   1.811 -1.1609  0.0476  2.6297
   19CHTO   O43 7841   3.836   7.552   1.891 -0.3438 -1.1096 -0.2996
   19CHTO  H101 7842   3.837   7.627   1.947  0.9928  0.1789 -2.0033
   19CHTO   C66 7843   3.931   7.472   1.681  0.0671 -0.3578  0.2787
   19CHTO  H123 7844   3.991   7.501   1.595 -0.2751  2.1109  0.8337
   19CHTO   N12 7845   4.006   7.356   1.733 -0.4962  0.2528 -0.2366
   19CHTO  H110 7846   3.961   7.341   1.830  1.1010 -0.3302  0.4278
   19CHTO  H111 7847   4.108   7.389   1.746 -1.5685  3.0608  1.6694
   19CHTO   C69 7848   3.799   7.423   1.618  0.8762  0.3061 -0.0458
   19CHTO  H126 7849   3.735   7.358   1.681 -0.7720 -0.1094 -2.0907
   19CHTO   O41 7850   3.720   7.537   1.556  0.5560  0.1539  0.0688
   19CHTO   C64 7851   3.712   7.681   1.641  0.1603 -0.0177  0.4121
   19CHTO  H121 7852   3.651   7.659   1.731  0.1129 -3.7401 -0.4258
   19CHTO   C71 7853   3.641   7.794   1.563  0.1995 -1.2398  0.4810
   19CHTO   O47 7854   3.498   7.778   1.533 -0.0234 -0.2356  0.3275
   19CHTO  H104 7855   3.473   7.688   1.541  0.6611 -0.5383 -0.7117
   19CHTO   O34 7856   3.850   7.314   1.488  0.2192 -0.7010  0.7609
   19CHTO   C49 7857   3.900   7.305   1.338 -0.0463  0.1152  1.1426
   19CHTO   H91 7858   3.938   7.203   1.329 -0.7201 -0.2125  2.0152
   19CHTO   C47 7859   4.009   7.412   1.307  0.4672 -0.5159  0.5118
   19CHTO   H89 7860   4.060   7.392   1.211  1.7690  5.1058 -0.1713
   19CHTO   O33 7861   4.114   7.405   1.404 -0.2319  0.1955  0.1793
   19CHTO   H70 7862   4.082   7.418   1.491 -0.5455 -1.3373  0.3090
   19CHTO   C45 7863   3.947   7.560   1.295  0.0547 -0.2640 -1.3774
   19CHTO   H87 7864   3.889   7.583   1.386  0.5307 -0.3767 -1.0484
   19CHTO    N8 7865   4.049   7.673   1.282 -0.3985 -0.2509 -0.0200
   19CHTO   H75 7866   4.108   7.660   1.193 -2.1147 -1.6461 -0.9944
   19CHTO   H76 7867   4.109   7.676   1.372  0.6888 -1.4418 -0.7082
   19CHTO   C43 7868   3.827   7.565   1.179 -0.1489 -0.2347  0.1761
   19CHTO   H85 7869   3.787   7.665   1.195 -0.7742 -0.5624  0.6967
   19CHTO   O29 7870   3.729   7.467   1.221 -1.1441 -0.0229  0.1793
   19CHTO   C50 7871   3.775   7.336   1.241 -0.1403  0.9284 -1.1693
   19CHTO   H92 7872   3.696   7.268   1.277  1.6216 -1.0045 -0.9149
   19CHTO   C54 7873   3.804   7.264   1.102 -0.1938  0.1235  0.4381
   19CHTO   O36 7874   3.836   7.127   1.121  0.7698  0.6458 -0.2282
   19CHTO   H72 7875   3.820   7.081   1.042 -0.7287 -1.0828  1.0439
   19CHTO   O27 7876   3.885   7.560   1.049  0.4280 -0.1380  0.1952
   19CHTO   C37 7877   3.863   7.573   0.911 -0.0008 -0.1699 -0.6928
   19CHTO   H79 7878   3.793   7.492   0.888 -3.3474  2.6233 -0.6264
   19CHTO   C38 7879   3.802   7.706   0.860 -0.1715 -0.0069 -0.4709
   19CHTO   H80 7880   3.854   7.789   0.910 -2.1290  1.3838 -0.6989
   19CHTO   O31 7881   3.670   7.703   0.913  0.3386 -0.0078 -0.5347
   19CHTO   H68 7882   3.601   7.724   0.853  0.7998 -1.6655 -1.6645
   19CHTO   C39 7883   3.821   7.728   0.703  0.2209  0.0576  0.0067
   19CHTO   H81 7884   3.764   7.648   0.656  1.5323 -0.0906 -1.3602
   19CHTO    N7 7885   3.762   7.859   0.666 -0.2177 -0.0267  0.2857
   19CHTO   H73 7886   3.766   7.866   0.558  0.5113  0.4846  0.3445
   19CHTO   H74 7887   3.659   7.857   0.698 -0.1748  0.9146  0.4859
   19CHTO   C40 7888   3.974   7.707   0.661 -0.6371 -0.7580 -0.1662
   19CHTO   H82 7889   4.034   7.789   0.701 -1.5539 -0.6492  1.0247
   19CHTO   O26 7890   4.015   7.571   0.705  0.2388  0.0658 -0.3690
   19CHTO   C41 7891   4.007   7.547   0.853 -0.6244  0.4897  0.6033
   19CHTO   H83 7892   4.077   7.611   0.908  0.9576 -0.3985 -0.3234
   19CHTO   C52 7893   4.049   7.399   0.871  0.4310  0.5052 -0.5601
   19CHTO   O35 7894   3.970   7.300   0.793 -0.4092  0.2367 -0.3385
   19CHTO   H71 7895   3.946   7.336   0.710  0.0448 -2.4904 -1.7111
   19CHTO   O28 7896   4.000   7.697   0.519 -0.6431  0.2794 -0.1385
   19CHTO   C42 7897   4.128   7.737   0.468  0.4665 -0.3168 -0.4056
   19CHTO   H84 7898   4.190   7.751   0.557  1.0230 -0.5295 -0.7552
   19CHTO   C44 7899   4.133   7.872   0.386 -0.7820  0.4993  0.4314
   19CHTO   H86 7900   4.080   7.862   0.291 -1.7398 -1.2138  1.1215
   19CHTO   O32 7901   4.075   7.970   0.470 -0.0938  0.0599  0.7769
   19CHTO   H69 7902   3.983   7.954   0.478 -0.1689  0.2882  0.3441
   19CHTO   C48 7903   4.284   7.909   0.343  0.7181  0.1794 -0.0495
   19CHTO   H90 7904   4.327   7.956   0.431 -0.1269 -3.0954  2.2330
   19CHTO    N9 7905   4.275   8.023   0.249 -0.6950  0.3262 -0.4095
   19CHTO   H77 7906   4.373   8.062   0.224 -0.5605 -0.2543 -0.7886
   19CHTO   H78 7907   4.229   7.980   0.162 -1.6264 -1.5978  1.0054
   19CHTO   C51 7908   4.353   7.784   0.286  0.3971  0.1646  0.2994
   19CHTO   H93 7909   4.318   7.763   0.185  0.0955  0.2372  0.3865
   19CHTO   O30 7910   4.325   7.672   0.375 -0.0320 -0.3267  0.2159
   19CHTO   C46 7911   4.199   7.632   0.381 -0.0284  0.1501  0.6782
   19CHTO   H88 7912   4.154   7.631   0.282  0.7664 -1.1404  0.3131
   19CHTO   C53 7913   4.213   7.493   0.444 -0.3017 -0.3882  0.6306
   19CHTO   O72 7914   4.091   7.426   0.444 -0.0115  0.0356  0.2273
   19CHTO  H199 7915   4.084   7.350   0.499 -0.5772 -0.8210 -1.0161
   19CHTO   O22 7916   4.494   7.790   0.288 -0.3596  0.2657  0.3971
   19CHTO   C31 7917   4.568   7.686   0.215  0.3354 -0.0896 -0.2327
   19CHTO   H59 7918   4.495   7.608   0.185 -0.4413 -0.1014  1.6349
   19CHTO   C29 7919   4.643   7.731   0.087 -0.3850 -1.3961  0.8232
   19CHTO   H57 7920   4.700   7.820   0.118  1.2253 -2.4077  0.8226
   19CHTO   O21 7921   4.545   7.780  -0.011  0.2846 -0.7800 -0.1311
   19CHTO   H37 7922   4.531   7.726  -0.086 -2.8518 -0.1740 -0.0843
   19CHTO   C27 7923   4.750   7.624   0.032 -0.2653  0.1830 -0.2268
   19CHTO   H55 7924   4.691   7.542  -0.012  0.4299  0.7587 -2.2742
   19CHTO    N5 7925   4.834   7.675  -0.077 -0.1545 -0.2930 -0.0577
   19CHTO   H43 7926   4.794   7.646  -0.173  0.6127  0.5049 -0.6213
   19CHTO   H44 7927   4.933   7.631  -0.074  0.8204  1.8777  2.0166
   19CHTO   C25 7928   4.838   7.564   0.140 -0.3277 -0.5789 -0.1165
   19CHTO   H53 7929   4.909   7.643   0.169 -1.2826  0.0454  0.5684
   19CHTO   O17 7930   4.752   7.524   0.251 -0.2220  0.1252  0.2523
   19CHTO   C32 7931   4.677   7.622   0.313 -0.1195  0.0688  0.3374
   19CHTO   H60 7932   4.749   7.701   0.333 -1.0922  0.4432  2.5683
   19CHTO   C36 7933   4.636   7.567   0.454 -0.1451 -0.2363 -0.2255
   19CHTO   O25 7934   4.574   7.439   0.439 -0.4901 -0.6671 -0.0135
   19CHTO   H40 7935   4.604   7.379   0.504 -1.1620 -1.9000 -0.8110
   19CHTO   O15 7936   4.920   7.435   0.089 -0.1342 -0.2867  0.2897
   19CHTO   C19 7937   5.012   7.376   0.004 -0.4038 -0.4326  0.4258
   19CHTO   H47 7938   4.990   7.417  -0.096 -2.1704  3.2913  2.2091
   19CHTO   C20 7939   5.162   7.424   0.010 -0.2005  0.3231  0.3205
   19CHTO   H48 7940   5.217   7.374   0.091  2.5178 -1.9228 -2.7777
   19CHTO   O19 7941   5.167   7.563   0.041 -0.5432  0.1801  0.3299
   19CHTO   H35 7942   5.158   7.610  -0.040  0.9702 -0.1193 -0.0266
   19CHTO   C21 7943   5.236   7.370  -0.119  0.3508  0.3253  0.0204
   19CHTO   H49 7944   5.190   7.409  -0.210  2.2794 -1.4864 -1.8109
   19CHTO    N4 7945   5.379   7.409  -0.127  0.2047 -0.1217  0.0311
   19CHTO   H41 7946   5.415   7.394  -0.228 -0.9921 -1.6579 -0.1806
   19CHTO   H42 7947   5.438   7.358  -0.052 -1.3619 -1.0298  0.6775
   19CHTO   C22 7948   5.207   7.219  -0.129  0.7189  0.1412 -0.2379
   19CHTO   H50 7949   5.250   7.165  -0.044  0.7954 -1.5315 -1.3173
   19CHTO   O14 7950   5.066   7.187  -0.132 -0.5214 -0.5486  0.1006
   19CHTO   C23 7951   5.005   7.224  -0.009 -0.0600 -0.0479 -0.0079
   19CHTO   H51 7952   5.063   7.177   0.072 -0.2411  1.7767  1.2048
   19CHTO   C34 7953   4.869   7.158  -0.020 -0.1633 -0.4835 -0.0755
   19CHTO   O23 7954   4.779   7.196   0.088 -0.6098  0.5196 -0.2210
   19CHTO   H38 7955   4.699   7.146   0.081  1.4961 -3.1058  0.4588
   19CHTO   O16 7956   5.259   7.167  -0.248  0.0406 -1.0787 -0.0715
   19CHTO   C24 7957   5.289   6.994  -0.269  0.2465  0.5057 -0.0030
   19CHTO   H52 7958   5.391   6.964  -0.245  0.5507  1.4489 -0.0706
   19CHTO   C26 7959   5.264   6.967  -0.420 -0.3489 -0.8939  0.6873
   19CHTO   H54 7960   5.160   6.999  -0.443 -0.9260 -1.1697  2.7452
   19CHTO   O20 7961   5.362   7.048  -0.498  0.3313  0.3740  0.0013
   19CHTO   H36 7962   5.359   7.133  -0.458 -2.0622 -1.0945  3.1371
   19CHTO   C30 7963   5.268   6.817  -0.465  0.3090 -0.0640  0.5787
   19CHTO   H58 7964   5.374   6.788  -0.462  0.6306  1.1515  1.3830
   19CHTO    N6 7965   5.229   6.805  -0.607  0.7145  0.5716  0.5409
   19CHTO   H45 7966   5.161   6.722  -0.615 -0.9771  1.6333  3.1367
   19CHTO   H46 7967   5.316   6.790  -0.669 -0.1274 -1.9259 -0.0783
   19CHTO   C33 7968   5.189   6.733  -0.357 -0.3649 -0.0925  0.2098
   19CHTO   H61 7969   5.081   6.751  -0.361 -0.3929 -0.1382  0.7062
   19CHTO   O18 7970   5.230   6.764  -0.227 -0.1148 -0.1157  0.6629
   19CHTO   C28 7971   5.201   6.901  -0.186 -0.3267  0.1860  0.3520
   19CHTO   H56 7972   5.095   6.919  -0.201  0.0958  2.3721 -0.1407
   19CHTO   C35 7973   5.226   6.912  -0.035  0.0077 -0.1230  0.4690
   19CHTO   O24 7974   5.130   6.837   0.049 -0.6522 -0.3521  0.2267
   19CHTO   H39 7975   5.143   6.844   0.141 -0.1101  1.2664  0.0470
   19CHTO    O9 7976   5.204   6.594  -0.387 -0.0431  1.0225 -0.3257
   19CHTO   C13 7977   5.094   6.503  -0.345  0.6947  0.0668 -0.4488
   19CHTO   H26 7978   4.996   6.548  -0.373  0.6422 -0.5488 -1.2785
   19CHTO   C11 7979   5.101   6.473  -0.187 -0.7927 -0.2347 -0.0187
   19CHTO   H24 7980   5.085   6.561  -0.123  1.7201 -0.1280  0.5185
   19CHTO    O8 7981   5.227   6.417  -0.152  0.2527  0.0723 -0.1306
   19CHTO    H3 7982   5.301   6.471  -0.169  1.5132 -0.7738  2.4265
   19CHTO    C9 7983   4.994   6.371  -0.143 -0.1081  0.1265  0.9670
   19CHTO   H22 7984   4.905   6.421  -0.183  0.8781  2.4034  1.5238
   19CHTO    N2 7985   4.970   6.354   0.000  0.2703  0.1605  0.0783
   19CHTO   H10 7986   5.057   6.387   0.056  0.3030 -0.7768  0.5878
   19CHTO   H11 7987   4.945   6.251   0.023  0.6350 -0.3605 -1.7830
   19CHTO    C7 7988   5.009   6.242  -0.233  0.2885  0.2038  0.4482
   19CHTO   H20 7989   4.906   6.216  -0.266  0.8725 -0.5808 -0.7953
   19CHTO    O4 7990   5.104   6.249  -0.344 -0.5940 -0.6971 -0.5752
   19CHTO   C14 7991   5.095   6.365  -0.430  0.1785  0.5537 -0.2850
   19CHTO   H27 7992   5.005   6.368  -0.494 -0.0874 -0.9422  0.0037
   19CHTO   C18 7993   5.219   6.346  -0.525 -0.0135 -0.0371  0.4687
   19CHTO   O13 7994   5.209   6.417  -0.650  0.1022 -0.1544 -0.4162
   19CHTO    H7 7995   5.289   6.407  -0.698 -0.6986 -1.8759 -1.4440
   19CHTO    O2 7996   5.054   6.106  -0.149 -0.1477 -0.0823 -0.1932
   19CHTO    C1 7997   5.011   5.981  -0.208 -0.2022  0.3804 -0.2435
   19CHTO   H14 7998   5.031   5.967  -0.317 -2.6907 -0.9927 -0.5418
   19CHTO    C2 7999   4.861   5.941  -0.175 -0.0154 -0.4162 -0.2914
   19CHTO   H15 8000   4.846   5.954  -0.066  0.6225 -1.0243 -0.1229
   19CHTO    O6 8001   4.773   6.021  -0.251 -0.7007 -0.3532  0.2949
   19CHTO    H1 8002   4.781   6.113  -0.265  0.9639 -0.8618 -2.4981
   19CHTO    C3 8003   4.841   5.781  -0.201  0.4679  0.6361 -0.0342
   19CHTO   H16 8004   4.876   5.769  -0.305 -1.2591 -0.2111 -0.5385
   19CHTO    N1 8005   4.699   5.737  -0.180  0.0839 -0.6478 -0.2921
   19CHTO    H8 8006   4.665   5.692  -0.272  0.3014 -3.0911  0.7873
   19CHTO    H9 8007   4.638   5.815  -0.137 -2.1871 -1.9958 -0.9767
   19CHTO    C4 8008   4.947   5.702  -0.107  0.2518 -0.0219 -1.0540
   19CHTO   H17 8009   4.930   5.732  -0.004 -0.3372  1.6514 -1.6174
   19CHTO    O1 8010   5.077   5.743  -0.148 -0.3314  0.5628  0.3454
   19CHTO    C5 8011   5.104   5.882  -0.130 -0.6100 -0.2127 -0.1631
   19CHTO   H18 8012   5.087   5.907  -0.025 -1.1956 -1.1068 -0.0374
   19CHTO   C16 8013   5.251   5.908  -0.161 -0.6028  1.0181  0.3009
   19CHTO   O11 8014   5.336   5.834  -0.072 -0.5200  0.2409  0.1881
   19CHTO    H5 8015   5.420   5.828  -0.112  0.0652 -1.0459  1.5596
   19CHTO    O3 8016   4.936   5.558  -0.108 -0.0069 -0.1704  0.0617
   19CHTO    C6 8017   4.926   5.487   0.024  0.2920  0.3095  0.2429
   19CHTO   H19 8018   4.893   5.550   0.107  0.3359  1.4145 -0.5612
   19CHTO    C8 8019   4.824   5.373   0.009  0.4642  0.3627 -0.3798
   19CHTO   H21 8020   4.846   5.323  -0.086 -0.9047 -1.0853  0.0570
   19CHTO    O7 8021   4.693   5.435   0.015 -0.2798  0.3269  0.6986
   19CHTO    H2 8022   4.683   5.479   0.097 -0.2812 -0.3796  1.0838
   19CHTO   C12 8023   4.840   5.260   0.122  0.1460  0.0610  0.1095
   19CHTO   H25 8024   4.800   5.303   0.216 -0.2830  0.8337 -0.4259
   19CHTO    N3 8025   4.747   5.137   0.110  0.1639 -0.6110 -0.3458
   19CHTO   H12 8026   4.646   5.173   0.107  0.3723 -0.1167 -2.1834
   19CHTO   H13 8027   4.767   5.076   0.023  2.2166 -3.5738  2.0882
   19CHTO   C15 8028   4.988   5.223   0.143 -0.4786  0.2089 -0.3099
   19CHTO   H28 8029   5.035   5.175   0.058 -0.4742  1.6565 -1.1563
   19CHTO   O10 8030   5.018   5.138   0.266  0.5332 -0.1089  0.1281
   19CHTO    H4 8031   4.963   5.165   0.337 -2.2850 -2.7620 -0.8901
   19CHTO    O5 8032   5.059   5.339   0.173 -0.2284 -0.7708 -0.2806
   19CHTO   C10 8033   5.068   5.434   0.065 -0.3429  0.2759 -0.0019
   19CHTO   H23 8034   5.116   5.393  -0.024  0.0919 -1.8690  1.1862
   19CHTO   C17 8035   5.153   5.555   0.118  0.0515  1.0072  0.1258
   19CHTO   O12 8036   5.293   5.528   0.094 -0.1664  0.0212 -0.1659
   19CHTO    H6 8037   5.328   5.458   0.146 -0.0682 -0.6254 -1.0893
   20CHTO  H203 8038   4.902   1.223   4.286  0.0848 -1.2037 -0.1862
   20CHTO   O82 8039   4.980   1.255   4.246 -0.0373 -0.5964  0.0692
   20CHTO  C123 8040   4.956   1.369   4.174 -0.0276  0.5801  0.2250
   20CHTO  H227 8041   4.881   1.434   4.222  0.6157  1.4213  0.1021
   20CHTO   O77 8042   5.084   1.448   4.189 -0.2989 -0.4112 -0.2624
   20CHTO  C118 8043   5.097   1.564   4.106  0.5076 -0.2584 -0.8027
   20CHTO  H222 8044   5.011   1.630   4.123  0.1579 -1.2176  1.3367
   20CHTO  C125 8045   5.237   1.637   4.151 -0.5159  0.3814 -0.5825
   20CHTO   O84 8046   5.238   1.700   4.278 -0.6634  0.0006  1.0569
   20CHTO  H205 8047   5.206   1.641   4.344 -1.6302 -3.0581 -1.9954
   20CHTO  C114 8048   5.099   1.524   3.961 -0.1191 -0.2944  0.4938
   20CHTO  H218 8049   5.186   1.464   3.937  0.4107  1.8781 -3.4723
   20CHTO  C116 8050   4.968   1.446   3.928 -0.6169 -0.8051  0.3510
   20CHTO  H220 8051   4.883   1.517   3.915 -0.3651 -0.7634 -1.1800
   20CHTO   O79 8052   4.976   1.393   3.794  0.1161 -0.2828 -0.0313
   20CHTO  H201 8053   5.027   1.315   3.784  1.7022  0.7538 -0.1284
   20CHTO  C120 8054   4.930   1.337   4.028 -0.4560  0.8784 -0.0016
   20CHTO  H224 8055   5.000   1.254   4.006 -0.9959  0.3611  0.2027
   20CHTO   N21 8056   4.792   1.280   4.002 -0.4552 -0.3076 -0.0900
   20CHTO  H211 8057   4.783   1.172   4.001 -1.9352 -0.1952 -0.0809
   20CHTO  H212 8058   4.713   1.333   4.053  1.7710  2.7164  0.3611
   20CHTO   O75 8059   5.112   1.639   3.876 -0.1781  0.0561 -0.1923
   20CHTO  C112 8060   5.230   1.624   3.763  0.0391  0.0496 -0.2429
   20CHTO  H216 8061   5.207   1.535   3.703 -1.5801  0.7361 -0.6829
   20CHTO   O73 8062   5.359   1.617   3.829 -0.6341  0.0828  0.1681
   20CHTO  C113 8063   5.462   1.582   3.740  0.6598  0.9911  0.4529
   20CHTO  H217 8064   5.426   1.494   3.684  1.6541  0.0388  1.2777
   20CHTO  C124 8065   5.581   1.530   3.826 -0.8585 -0.4718  0.3296
   20CHTO   O83 8066   5.689   1.468   3.752 -0.1835 -0.2101 -0.1035
   20CHTO  H204 8067   5.773   1.485   3.791 -0.4689 -2.8382  1.8243
   20CHTO  C109 8068   5.487   1.706   3.653  0.3286 -0.4754  0.4088
   20CHTO  H213 8069   5.523   1.786   3.720 -0.0048 -1.2694  1.5461
   20CHTO  C110 8070   5.361   1.753   3.574 -0.3711  0.0899 -0.8477
   20CHTO  H214 8071   5.327   1.686   3.495 -2.3475 -1.2751  1.0782
   20CHTO   O78 8072   5.392   1.879   3.515 -0.0928 -0.1920 -0.0632
   20CHTO  H200 8073   5.428   1.872   3.429  0.7237 -0.8899  0.3302
   20CHTO  C111 8074   5.237   1.755   3.666  0.3661 -0.5144  0.7900
   20CHTO  H215 8075   5.254   1.840   3.734  4.3227  0.4531 -1.2167
   20CHTO   N19 8076   5.108   1.778   3.598  0.0836  0.1811 -0.6829
   20CHTO  H207 8077   5.132   1.811   3.497 -2.0384  2.3989 -0.5283
   20CHTO  H208 8078   5.061   1.858   3.653  0.1172 -0.4804  0.3038
   20CHTO   O74 8079   5.596   1.675   3.558  0.5331 -0.1063  0.5389
   20CHTO  C115 8080   5.713   1.805   3.552  1.0826  0.2147 -0.8397
   20CHTO  H219 8081   5.683   1.887   3.618  0.9055 -0.8279  0.3951
   20CHTO   O76 8082   5.862   1.752   3.597  0.0327  0.1210 -0.2498
   20CHTO  C122 8083   5.897   1.634   3.525 -0.2425  0.7027  0.6090
   20CHTO  H226 8084   5.842   1.545   3.554 -0.9599  0.7362 -0.5904
   20CHTO  C126 8085   6.051   1.601   3.551  0.0153  0.2313  0.3353
   20CHTO   O85 8086   6.110   1.482   3.498  0.4880  0.6877 -0.0039
   20CHTO  H206 8087   6.111   1.473   3.405  0.0098  1.8114 -0.1290
   20CHTO  C121 8088   5.869   1.642   3.363  0.1938  0.2582 -0.4578
   20CHTO  H225 8089   5.956   1.604   3.307 -0.8242 -0.1468 -1.8001
   20CHTO   O81 8090   5.757   1.554   3.330 -0.1369 -0.3501 -0.4546
   20CHTO  H202 8091   5.783   1.492   3.265  0.0868 -0.6259 -0.1062
   20CHTO  C119 8092   5.835   1.792   3.321  0.6336 -0.0921  0.6424
   20CHTO  H223 8093   5.926   1.848   3.341  0.1130  1.1483 -0.3786
   20CHTO  C117 8094   5.714   1.852   3.404  0.3124 -0.0578 -0.3254
   20CHTO  H221 8095   5.616   1.820   3.368 -0.0807  2.6743 -1.8021
   20CHTO   N20 8096   5.711   2.003   3.400  0.7766 -0.4549 -0.0297
   20CHTO  H209 8097   5.610   2.041   3.397  0.4212 -1.3487  0.7600
   20CHTO  H210 8098   5.762   2.061   3.324 -1.6229  1.4134 -0.2681
   20CHTO   O80 8099   5.835   1.805   3.163  0.2399  0.1586 -0.4763
   20CHTO  C103 8100   5.968   1.803   3.078  0.4199  0.7536 -0.0639
   20CHTO  H190 8101   6.053   1.791   3.145  0.2155  0.2111  0.0958
   20CHTO  C101 8102   5.984   1.712   2.947  0.8138  0.0474  0.0356
   20CHTO  H188 8103   5.885   1.686   2.908  1.4950 -0.0778 -1.6789
   20CHTO   O68 8104   6.054   1.581   2.996 -0.0081  0.2387  0.4134
   20CHTO  H168 8105   6.145   1.592   3.015 -0.4099  2.8364  0.9712
   20CHTO   C99 8106   6.068   1.766   2.821 -0.6308 -0.4946  0.4266
   20CHTO  H186 8107   6.177   1.769   2.843 -0.8301 -1.0865  1.5434
   20CHTO   N17 8108   6.043   1.693   2.695  0.4076 -0.5864 -0.2189
   20CHTO  H174 8109   5.992   1.749   2.617  1.9546 -2.3642 -2.5694
   20CHTO  H175 8110   6.137   1.651   2.661  1.2183  1.5730 -0.8006
   20CHTO   C97 8111   6.032   1.917   2.807  0.0201  0.3619 -0.5203
   20CHTO  H184 8112   5.923   1.926   2.792 -0.5204 -1.6841  1.8422
   20CHTO   O64 8113   6.071   1.986   2.928  0.0536  0.4471 -0.4916
   20CHTO  C104 8114   5.969   1.956   3.031 -0.3442  0.6402 -0.8210
   20CHTO  H191 8115   5.871   1.984   2.993  0.2427  0.6208 -2.3909
   20CHTO  C108 8116   6.001   2.056   3.150  0.4433 -0.5731 -0.1314
   20CHTO   O71 8117   6.123   2.036   3.216 -0.1055 -0.4027  0.2780
   20CHTO  H171 8118   6.132   1.942   3.217 -0.9025 -0.5370 -1.9195
   20CHTO   O62 8119   6.107   1.990   2.709  0.3449  0.0424 -0.0500
   20CHTO   C91 8120   6.067   2.118   2.660 -0.5898  0.2035  0.6492
   20CHTO  H178 8121   6.035   2.181   2.744  0.6842  2.6425 -0.6428
   20CHTO   C92 8122   5.943   2.121   2.560 -0.3643  0.4923  0.3470
   20CHTO  H179 8123   5.963   2.058   2.472  0.2731  1.4232 -0.1804
   20CHTO   O66 8124   5.843   2.054   2.630 -0.5824 -0.1393 -0.2293
   20CHTO  H166 8125   5.803   2.092   2.706 -0.9827  0.4582 -0.7342
   20CHTO   C93 8126   5.907   2.267   2.525 -0.0045  0.2488 -0.1278
   20CHTO  H180 8127   5.866   2.320   2.612  1.1132 -1.3539  1.3972
   20CHTO   N16 8128   5.803   2.264   2.415 -0.0004  0.0444  0.3372
   20CHTO  H172 8129   5.805   2.358   2.361 -0.5907  0.6790  1.3889
   20CHTO  H173 8130   5.704   2.235   2.447 -0.4033 -0.3748 -1.2376
   20CHTO   C94 8131   6.037   2.342   2.479  0.1481 -0.6170  0.0150
   20CHTO  H181 8132   6.073   2.296   2.387 -0.2868 -0.3162 -0.3055
   20CHTO   O61 8133   6.138   2.334   2.576  0.2492  0.2176 -0.0825
   20CHTO   C95 8134   6.187   2.203   2.596 -0.2006 -0.3104  0.6993
   20CHTO  H182 8135   6.218   2.165   2.498 -1.3718  0.9467 -0.1711
   20CHTO  C106 8136   6.315   2.206   2.694 -0.5033  0.4109  0.1032
   20CHTO   O69 8137   6.389   2.086   2.699  0.2251  0.4135  0.3012
   20CHTO  H169 8138   6.374   2.049   2.784  1.0449  2.4252  1.3459
   20CHTO   O63 8139   6.012   2.496   2.471 -0.8605 -0.2716 -0.7017
   20CHTO   C96 8140   5.997   2.563   2.344  0.3826 -0.2243 -0.3979
   20CHTO  H183 8141   5.930   2.500   2.286 -1.9515  0.6323  1.3161
   20CHTO   C98 8142   6.122   2.587   2.261  0.2121 -1.3067 -0.3312
   20CHTO  H185 8143   6.206   2.626   2.320 -0.4987 -1.1085  0.5594
   20CHTO   O67 8144   6.170   2.457   2.217  0.8990  0.0444 -0.0201
   20CHTO  H167 8145   6.176   2.401   2.292 -1.2027  2.1360  1.7719
   20CHTO  C102 8146   6.092   2.683   2.131 -0.7918 -0.5303 -0.3025
   20CHTO  H189 8147   6.039   2.625   2.054 -0.1884 -2.2268  0.5237
   20CHTO   N18 8148   6.216   2.734   2.063  0.7466  1.1160 -0.6108
   20CHTO  H176 8149   6.298   2.709   2.129 -0.6474 -1.9416  0.0119
   20CHTO  H177 8150   6.239   2.690   1.967 -1.2039 -1.2485 -0.0312
   20CHTO  C105 8151   5.995   2.794   2.162  0.4361  0.1349  0.7933
   20CHTO  H192 8152   6.047   2.873   2.216 -0.8765  0.8059  1.0971
   20CHTO   O65 8153   5.881   2.748   2.235  0.7050 -0.0073 -0.1340
   20CHTO  C100 8154   5.923   2.701   2.367  0.6015  0.9973 -0.6712
   20CHTO  H187 8155   5.985   2.774   2.422  1.5120 -0.0404 -0.3062
   20CHTO  C107 8156   5.789   2.678   2.439  0.4988 -0.0817  0.0306
   20CHTO   O70 8157   5.717   2.799   2.449 -0.2590 -0.2194  0.2410
   20CHTO  H170 8158   5.769   2.876   2.465 -1.0962  0.2741  0.6484
   20CHTO   O57 8159   5.937   2.848   2.016  0.3059  0.1453  0.1768
   20CHTO   C85 8160   5.880   2.981   2.012  0.4213  0.4831 -0.3577
   20CHTO  H157 8161   5.852   3.011   2.115 -0.5589 -2.7470  0.3888
   20CHTO   C83 8162   5.753   2.963   1.925  0.5017 -0.3366 -0.1791
   20CHTO  H155 8163   5.684   2.897   1.978 -0.8309  1.5409  0.4644
   20CHTO   O56 8164   5.791   2.901   1.807  0.2655 -0.3944  0.8752
   20CHTO  H135 8165   5.728   2.833   1.796 -1.8706  1.7052 -0.3930
   20CHTO   C81 8166   5.679   3.100   1.908  0.0824 -0.0586 -0.0911
   20CHTO  H153 8167   5.668   3.139   2.009  1.6009  0.7348 -0.2274
   20CHTO   N14 8168   5.545   3.098   1.846  0.2117 -0.1287  0.4171
   20CHTO  H141 8169   5.489   3.015   1.884  0.2387 -0.9236 -1.2276
   20CHTO  H142 8170   5.491   3.189   1.855  0.5101  0.0520  0.3757
   20CHTO   C79 8171   5.777   3.191   1.828  0.1788 -0.4782 -0.4708
   20CHTO  H151 8172   5.734   3.291   1.836  0.4863 -0.0970 -3.1761
   20CHTO   O52 8173   5.907   3.206   1.901 -0.3126 -0.2656  0.6379
   20CHTO   C86 8174   5.972   3.085   1.941  0.2382  0.4182 -0.9119
   20CHTO  H158 8175   6.003   3.050   1.840  1.8133  1.3808 -0.7797
   20CHTO   C90 8176   6.099   3.116   2.016 -0.7935 -0.0119  0.1976
   20CHTO   O60 8177   6.068   3.189   2.137 -0.4502  0.0179 -0.0128
   20CHTO  H138 8178   6.133   3.254   2.153  0.3841 -1.1550  1.4804
   20CHTO   O50 8179   5.799   3.162   1.692  0.1798 -0.1770 -0.1880
   20CHTO   C73 8180   5.887   3.162   1.580  0.4623 -0.3210 -0.6025
   20CHTO  H145 8181   5.943   3.068   1.588 -1.5755 -1.4457  0.8798
   20CHTO   C74 8182   5.984   3.289   1.587  0.5233  0.3067 -0.5542
   20CHTO  H146 8183   6.030   3.288   1.686  0.2986 -0.3311 -0.4492
   20CHTO   O54 8184   6.089   3.243   1.492  0.0353 -0.0083 -0.4834
   20CHTO  H133 8185   6.168   3.247   1.542  0.6280 -3.0350 -1.0301
   20CHTO   C75 8186   5.899   3.421   1.563 -0.7758 -0.3699  0.2273
   20CHTO  H147 8187   5.845   3.441   1.657  1.7295  0.8956  1.4425
   20CHTO   N13 8188   5.989   3.543   1.556  0.6597 -0.0959 -0.5120
   20CHTO  H139 8189   6.018   3.577   1.654 -0.4392 -1.3132  0.2539
   20CHTO  H140 8190   5.948   3.620   1.493  1.6430  2.0874  1.4612
   20CHTO   C76 8191   5.806   3.408   1.441  0.6056  0.0685  1.1096
   20CHTO  H148 8192   5.873   3.411   1.356 -0.5095  2.1979  0.2714
   20CHTO   O49 8193   5.726   3.284   1.441 -0.1954 -0.0689 -0.2890
   20CHTO   C77 8194   5.805   3.159   1.453 -0.2005  0.2790 -0.3709
   20CHTO  H149 8195   5.862   3.142   1.362  1.3770 -2.8682  1.1283
   20CHTO   C88 8196   5.698   3.047   1.451  0.3254 -0.6246 -0.0832
   20CHTO   O58 8197   5.760   2.903   1.452  0.0938 -0.1198  0.1044
   20CHTO  H136 8198   5.832   2.899   1.392  0.1395 -0.7218  0.1955
   20CHTO   O51 8199   5.691   3.540   1.429 -0.3598  0.3042  0.2675
   20CHTO   C78 8200   5.583   3.538   1.544  0.0521 -1.0521  0.4300
   20CHTO  H150 8201   5.613   3.484   1.637 -1.9684 -0.7014  1.3215
   20CHTO   C80 8202   5.447   3.477   1.500  0.9510 -0.2427 -0.4528
   20CHTO  H152 8203   5.414   3.544   1.418  2.9479  0.6137 -0.5955
   20CHTO   O55 8204   5.469   3.336   1.466 -0.1163  0.3439 -0.0545
   20CHTO  H134 8205   5.399   3.279   1.490 -2.0188  2.1357 -1.1892
   20CHTO   C84 8206   5.338   3.490   1.616 -0.0778 -0.4601 -0.5591
   20CHTO  H156 8207   5.379   3.423   1.691  0.7150  0.4821 -0.1371
   20CHTO   N15 8208   5.206   3.437   1.562 -0.1157  0.4041  0.1998
   20CHTO  H143 8209   5.176   3.466   1.464  0.6092 -0.8286 -0.4079
   20CHTO  H144 8210   5.127   3.454   1.632 -1.2331 -3.2526 -0.0398
   20CHTO   C87 8211   5.327   3.627   1.682 -0.3692 -0.2436  0.2014
   20CHTO  H159 8212   5.286   3.695   1.607 -0.3977  1.0672  1.3783
   20CHTO   O53 8213   5.477   3.679   1.707 -0.2132 -0.0351 -0.2996
   20CHTO   C82 8214   5.565   3.682   1.593 -0.1487 -0.8139  0.0940
   20CHTO  H154 8215   5.531   3.748   1.512 -2.3397  1.5308  2.8378
   20CHTO   C89 8216   5.694   3.752   1.650  0.2975 -0.4518  0.2682
   20CHTO   O59 8217   5.760   3.673   1.752  0.3082  0.2822 -0.3028
   20CHTO  H137 8218   5.853   3.667   1.739  0.4523 -0.8535  1.1077
   20CHTO   O45 8219   5.229   3.607   1.827 -0.6322 -0.3802 -0.0862
   20CHTO   C67 8220   5.307   3.560   1.939 -0.2462  0.2303 -0.0164
   20CHTO  H124 8221   5.366   3.472   1.913 -1.9051 -1.6627  2.4163
   20CHTO   C65 8222   5.397   3.661   2.005 -0.0650 -0.3660 -0.0515
   20CHTO  H122 8223   5.394   3.753   1.948 -2.5608 -0.5581 -0.2674
   20CHTO   O44 8224   5.529   3.609   1.998  0.4317 -0.1569 -0.6365
   20CHTO  H102 8225   5.592   3.674   2.023  1.5987 -1.1504 -0.9542
   20CHTO   C63 8226   5.351   3.713   2.146 -0.0020  0.0739  0.1035
   20CHTO  H120 8227   5.252   3.757   2.134 -1.5927 -3.5530 -0.7885
   20CHTO   N11 8228   5.429   3.831   2.197 -0.0692 -0.1368  0.3025
   20CHTO  H108 8229   5.418   3.914   2.130  2.2849  0.4143  0.5495
   20CHTO  H109 8230   5.392   3.856   2.294 -0.9196  1.6368 -0.4706
   20CHTO   C61 8231   5.346   3.585   2.237  0.5039  0.3770  0.3533
   20CHTO  H118 8232   5.285   3.611   2.325 -1.4597 -0.1859 -0.8088
   20CHTO   O40 8233   5.280   3.477   2.174  0.2239 -0.2041 -0.5500
   20CHTO   C68 8234   5.206   3.509   2.051 -0.3209  0.2178  0.0498
   20CHTO  H125 8235   5.122   3.579   2.065 -0.2568  0.7498 -2.0866
   20CHTO   C72 8236   5.145   3.370   1.992 -0.2443  1.1645 -0.2401
   20CHTO   O48 8237   5.059   3.385   1.876 -0.7080  0.3443  0.3814
   20CHTO  H105 8238   4.973   3.357   1.902  0.1234 -2.1337  0.5664
   20CHTO   O38 8239   5.474   3.527   2.283  0.0333  0.3405  0.8362
   20CHTO   C55 8240   5.471   3.437   2.397  0.2534 -0.1470  0.9028
   20CHTO  H112 8241   5.366   3.406   2.411  0.4374 -1.8404 -1.2319
   20CHTO   C56 8242   5.527   3.505   2.523 -0.5894 -0.7353 -0.3191
   20CHTO  H113 8243   5.630   3.536   2.500 -0.7389 -0.6223 -0.8444
   20CHTO   O42 8244   5.457   3.630   2.549 -0.2527 -0.0869 -0.1108
   20CHTO  H100 8245   5.365   3.614   2.560  0.1086 -2.2481 -0.0917
   20CHTO   C57 8246   5.533   3.406   2.646  0.5102  0.7982  0.7873
   20CHTO  H114 8247   5.432   3.390   2.684  1.5815  1.2832  4.0250
   20CHTO   N10 8248   5.612   3.466   2.757  0.8776 -0.3394  0.6163
   20CHTO  H106 8249   5.589   3.571   2.770 -2.2396 -0.6409 -1.7857
   20CHTO  H107 8250   5.582   3.416   2.848 -2.1345 -0.1240 -0.2226
   20CHTO   C58 8251   5.591   3.267   2.607  0.1334  0.1102  0.7657
   20CHTO  H115 8252   5.702   3.271   2.601  0.0152  1.4912 -0.8715
   20CHTO   O37 8253   5.546   3.222   2.473 -0.4065  0.1904 -0.1290
   20CHTO   C59 8254   5.563   3.319   2.368  0.1520 -0.2420 -0.1950
   20CHTO  H116 8255   5.670   3.339   2.370  0.3640 -1.2680 -0.7552
   20CHTO   C70 8256   5.530   3.255   2.233  1.0604 -0.8554 -0.3703
   20CHTO   O46 8257   5.396   3.205   2.229  0.0789  0.1550  0.2602
   20CHTO  H103 8258   5.335   3.260   2.273  0.6017  1.0943 -0.1789
   20CHTO   O39 8259   5.540   3.171   2.712 -0.0719 -0.2032 -0.3391
   20CHTO   C60 8260   5.634   3.065   2.730  0.5542 -0.1065 -0.2025
   20CHTO  H117 8261   5.670   3.030   2.634  0.0761 -2.8924  0.5932
   20CHTO   C62 8262   5.765   3.091   2.815  0.5319 -0.0603 -0.2036
   20CHTO  H119 8263   5.823   3.159   2.749 -1.9923  1.8930 -0.5004
   20CHTO   O43 8264   5.725   3.158   2.942 -0.1498  0.1321  0.1620
   20CHTO  H101 8265   5.735   3.251   2.937 -2.0283  0.2921 -1.1502
   20CHTO   C66 8266   5.845   2.948   2.849 -0.0171 -0.6024 -0.6902
   20CHTO  H123 8267   5.886   2.905   2.757 -0.3822  1.9287 -2.0671
   20CHTO   N12 8268   5.962   2.965   2.937 -0.3358  0.0481  0.0612
   20CHTO  H110 8269   6.015   3.053   2.905 -0.3071  0.7155  1.9224
   20CHTO  H111 8270   5.940   2.979   3.042 -0.6240 -2.9491  0.4632
   20CHTO   C69 8271   5.751   2.838   2.917  0.2664 -0.8112  0.5659
   20CHTO  H126 8272   5.700   2.864   3.012 -0.1543  0.2364  0.0529
   20CHTO   O41 8273   5.634   2.813   2.821  0.0287  0.2417  0.2059
   20CHTO   C64 8274   5.556   2.945   2.798 -0.2535  0.2864  0.5225
   20CHTO  H121 8275   5.526   2.978   2.900  0.0245 -1.6995  1.2742
   20CHTO   C71 8276   5.428   2.923   2.723  0.9163 -0.1512 -0.1944
   20CHTO   O47 8277   5.335   2.836   2.790 -0.0924  0.6634 -0.0247
   20CHTO  H104 8278   5.296   2.780   2.726  0.0345 -0.3893  0.7911
   20CHTO   O34 8279   5.828   2.691   2.936  0.4974 -0.0887 -0.0530
   20CHTO   C49 8280   5.782   2.570   2.983 -0.3026 -0.4091 -0.3552
   20CHTO   H91 8281   5.712   2.524   2.913 -0.5205 -0.0983 -0.3378
   20CHTO   C47 8282   5.701   2.587   3.113 -0.4598 -0.1152 -0.1420
   20CHTO   H89 8283   5.603   2.631   3.084 -1.1609 -0.9200  0.9538
   20CHTO   O33 8284   5.771   2.679   3.199 -0.3935 -0.2829 -0.3940
   20CHTO   H70 8285   5.715   2.713   3.266  1.5249  0.6542  0.7857
   20CHTO   C45 8286   5.684   2.454   3.205  0.1725  0.0143  0.5927
   20CHTO   H87 8287   5.748   2.460   3.295  1.0910 -0.1827 -0.0437
   20CHTO    N8 8288   5.539   2.441   3.246  0.0625  0.1753  0.0300
   20CHTO   H75 8289   5.484   2.384   3.172 -0.6251  1.1233 -0.1944
   20CHTO   H76 8290   5.539   2.384   3.338  1.3228 -0.1870 -0.1908
   20CHTO   C43 8291   5.729   2.323   3.125  0.9116 -0.6910  0.0535
   20CHTO   H85 8292   5.729   2.230   3.183  0.7473  0.5761  2.1311
   20CHTO   O29 8293   5.859   2.344   3.071  0.0270  1.1026  0.5938
   20CHTO   C50 8294   5.896   2.465   3.007  0.2101  0.0864 -0.0724
   20CHTO   H92 8295   5.966   2.513   3.078  0.3579 -0.6743  0.3108
   20CHTO   C54 8296   5.971   2.454   2.872  1.1644 -0.1782  0.5816
   20CHTO   O36 8297   6.103   2.406   2.887  0.1348 -0.0489  0.4508
   20CHTO   H72 8298   6.151   2.411   2.806  0.0586 -2.5431  0.2187
   20CHTO   O27 8299   5.648   2.285   3.012  0.0544 -0.0723  0.0255
   20CHTO   C37 8300   5.546   2.247   2.918  0.4803  0.2136 -0.1847
   20CHTO   H79 8301   5.447   2.238   2.965  0.8252  0.7776  0.6502
   20CHTO   C38 8302   5.519   2.339   2.797 -0.1099  0.6960 -0.6715
   20CHTO   H80 8303   5.618   2.374   2.764  0.3778 -0.2617 -0.2548
   20CHTO   O31 8304   5.448   2.458   2.845 -0.7213 -0.2584 -0.2509
   20CHTO   H68 8305   5.409   2.517   2.782  2.6678  0.4880 -1.7460
   20CHTO   C39 8306   5.433   2.269   2.681 -0.1098 -0.1002 -0.0940
   20CHTO   H81 8307   5.335   2.252   2.724 -0.6766 -1.0026 -1.6968
   20CHTO    N7 8308   5.423   2.353   2.563 -0.6360  0.5067  0.5803
   20CHTO   H73 8309   5.324   2.392   2.547 -0.8120 -0.8974 -1.9756
   20CHTO   H74 8310   5.494   2.434   2.562 -0.1579  0.0972  0.8677
   20CHTO   C40 8311   5.496   2.127   2.647  0.1275 -1.1116 -0.2371
   20CHTO   H82 8312   5.594   2.141   2.601  1.6231 -2.9347  2.2141
   20CHTO   O26 8313   5.503   2.048   2.769 -0.8382 -0.2510 -0.5525
   20CHTO   C41 8314   5.588   2.102   2.873 -0.4301  0.5727 -0.4820
   20CHTO   H83 8315   5.685   2.122   2.826  0.5030  2.2106  1.9978
   20CHTO   C52 8316   5.583   1.998   2.984 -0.0254 -0.3481 -0.7072
   20CHTO   O35 8317   5.642   1.866   2.945 -0.3720  0.2602 -0.1274
   20CHTO   H71 8318   5.592   1.793   2.975  1.2792 -0.5125  0.8038
   20CHTO   O28 8319   5.411   2.045   2.565 -0.0077 -0.3483 -0.0229
   20CHTO   C42 8320   5.467   1.931   2.482  0.3611 -0.5712 -0.0553
   20CHTO   H84 8321   5.381   1.880   2.436  1.1185 -3.1397  1.2990
   20CHTO   C44 8322   5.542   1.822   2.559  0.2786  0.4472 -0.1860
   20CHTO   H86 8323   5.628   1.868   2.608 -0.4249  1.0130  0.5329
   20CHTO   O32 8324   5.446   1.774   2.658  0.4908 -0.4201 -0.0462
   20CHTO   H69 8325   5.475   1.777   2.747 -1.3905  1.7257  0.5487
   20CHTO   C48 8326   5.584   1.715   2.459 -0.3802  0.1844 -0.1260
   20CHTO   H90 8327   5.499   1.663   2.414 -0.8139 -0.6286  1.5985
   20CHTO    N9 8328   5.658   1.598   2.529 -0.2430  0.5941  0.2982
   20CHTO   H77 8329   5.669   1.515   2.462 -0.4861  1.2962 -0.6148
   20CHTO   H78 8330   5.604   1.577   2.620  1.0695  0.6741  1.1194
   20CHTO   C51 8331   5.680   1.774   2.345  0.0862  0.0814 -0.6063
   20CHTO   H93 8332   5.761   1.824   2.398  0.3005 -0.1889 -0.6833
   20CHTO   O30 8333   5.600   1.869   2.275  0.5578  0.0751  0.0529
   20CHTO   C46 8334   5.551   1.979   2.364 -0.4789 -0.5768  0.6893
   20CHTO   H88 8335   5.633   2.033   2.410 -0.5122  2.1820 -2.3131
   20CHTO   C53 8336   5.473   2.090   2.280 -0.5143 -0.0762  0.2900
   20CHTO   O72 8337   5.554   2.172   2.196 -0.8036 -0.2402  0.1326
   20CHTO  H199 8338   5.544   2.160   2.104  2.2365  1.1631 -0.4345
   20CHTO   O22 8339   5.734   1.685   2.249  0.0188  0.0905 -0.2640
   20CHTO   C31 8340   5.878   1.670   2.207  0.7860  0.2929  0.2686
   20CHTO   H59 8341   5.879   1.639   2.100 -2.8435 -1.1099  0.5516
   20CHTO   C29 8342   5.954   1.801   2.215  0.4853  0.2902  0.8294
   20CHTO   H57 8343   5.949   1.842   2.317 -0.0137 -0.6303  1.1800
   20CHTO   O21 8344   5.882   1.894   2.123 -0.0636 -0.5549  0.0278
   20CHTO   H37 8345   5.927   1.975   2.136  1.7966 -0.7862 -4.3487
   20CHTO   C27 8346   6.102   1.781   2.167  0.5983 -0.0480  0.1146
   20CHTO   H55 8347   6.104   1.730   2.069  0.5935  1.9814 -0.9735
   20CHTO    N5 8348   6.174   1.913   2.165  0.3150 -0.0626  0.7174
   20CHTO   H43 8349   6.131   1.990   2.103 -0.2550 -0.5569  0.4914
   20CHTO   H44 8350   6.276   1.902   2.130 -0.5732 -0.4668 -1.8200
   20CHTO   C25 8351   6.171   1.675   2.249 -0.3075 -0.6900 -0.8332
   20CHTO   H53 8352   6.195   1.696   2.355 -2.4884  0.1999 -0.4779
   20CHTO   O17 8353   6.089   1.555   2.250  0.3781  0.8398 -0.2895
   20CHTO   C32 8354   5.954   1.564   2.284 -0.4775 -0.6463 -0.0229
   20CHTO   H60 8355   5.948   1.592   2.389  0.8696 -1.4047  0.2752
   20CHTO   C36 8356   5.881   1.436   2.264 -0.3734  0.0035  0.0679
   20CHTO   O25 8357   5.928   1.330   2.353  0.4031  0.6054  0.3474
   20CHTO   H40 8358   5.912   1.354   2.442  0.8512  0.5799  0.4407
   20CHTO   O15 8359   6.307   1.631   2.170 -0.0349 -0.3129  0.3966
   20CHTO   C19 8360   6.442   1.615   2.109 -0.0104  0.7005  0.1121
   20CHTO   H47 8361   6.427   1.664   2.012  0.4253 -0.3440 -0.4837
   20CHTO   C20 8362   6.553   1.687   2.190 -0.6941 -0.2112  0.1246
   20CHTO   H48 8363   6.579   1.639   2.286  1.8747  2.0450  0.6250
   20CHTO   O19 8364   6.496   1.811   2.222  0.3071 -0.0230  0.0759
   20CHTO   H35 8365   6.429   1.805   2.287 -0.4489  3.8537 -0.2210
   20CHTO   C21 8366   6.683   1.689   2.096  0.4023  0.3005 -0.1778
   20CHTO   H49 8367   6.654   1.735   2.002  0.3767  0.6235 -0.0135
   20CHTO    N4 8368   6.801   1.759   2.152 -0.1586 -0.2996 -0.3649
   20CHTO   H41 8369   6.759   1.853   2.185  2.5251  0.2841  1.5483
   20CHTO   H42 8370   6.876   1.775   2.077  0.0298 -1.8478 -0.5300
   20CHTO   C22 8371   6.719   1.541   2.067 -0.2335  0.9891 -0.2862
   20CHTO   H50 8372   6.724   1.493   2.165 -1.7073 -0.1757 -0.7525
   20CHTO   O14 8373   6.604   1.478   1.999 -0.8364  0.0344 -0.0632
   20CHTO   C23 8374   6.497   1.472   2.083  0.0284  0.1109 -0.1187
   20CHTO   H51 8375   6.521   1.419   2.176 -0.1112  3.0294  1.6536
   20CHTO   C34 8376   6.379   1.393   2.024  0.0752  1.1254  0.1233
   20CHTO   O23 8377   6.310   1.455   1.915  0.0883  0.2558  0.1706
   20CHTO   H38 8378   6.291   1.392   1.848  3.8969  0.2943 -1.0283
   20CHTO   O16 8379   6.832   1.519   1.987 -0.7683  0.0890  0.4005
   20CHTO   C24 8380   6.900   1.385   1.988 -0.1138 -0.0719 -0.0625
   20CHTO   H52 8381   6.826   1.304   1.991 -0.9598  0.6020 -1.8731
   20CHTO   C26 8382   6.985   1.372   2.118 -0.2708  0.5706 -0.0083
   20CHTO   H54 8383   7.029   1.472   2.136 -0.6640  0.6615  0.4683
   20CHTO   O20 8384   6.903   1.350   2.238  0.1650  0.1547  0.1919
   20CHTO   H36 8385   6.871   1.433   2.267 -0.1337  0.1764 -0.1926
   20CHTO   C30 8386   7.103   1.266   2.117  0.1777 -1.1059 -0.6555
   20CHTO   H58 8387   7.111   1.206   2.209 -2.6995  0.8321  0.9309
   20CHTO    N6 8388   7.238   1.327   2.093  0.1891 -0.5522  0.2600
   20CHTO   H45 8389   7.234   1.435   2.086 -0.1061 -0.5535  0.4363
   20CHTO   H46 8390   7.266   1.287   1.997 -1.1608 -0.4507 -0.1869
   20CHTO   C33 8391   7.066   1.162   2.003 -0.7015  0.0761 -0.0200
   20CHTO   H61 8392   7.147   1.088   1.998 -0.5482  0.1132  1.7611
   20CHTO   O18 8393   7.047   1.225   1.876  0.7108 -0.3353 -0.1106
   20CHTO   C28 8394   6.991   1.357   1.863  0.2361 -1.4236 -0.5060
   20CHTO   H56 8395   7.072   1.429   1.849 -0.6037 -0.5062 -0.6836
   20CHTO   C35 8396   6.912   1.364   1.729 -0.1588 -0.2448  0.5727
   20CHTO   O24 8397   6.795   1.283   1.726 -0.8593 -0.4011 -0.4873
   20CHTO   H39 8398   6.753   1.269   1.809 -1.3840 -1.3220 -0.9050
   20CHTO    O9 8399   6.953   1.088   2.050 -0.0943  0.0659 -0.3471
   20CHTO   C13 8400   6.897   0.972   1.976  0.1456  0.1946 -0.1258
   20CHTO   H26 8401   6.964   0.949   1.891 -0.8121 -1.9439 -0.3387
   20CHTO   C11 8402   6.745   1.005   1.928  0.3404  0.0245  0.1327
   20CHTO   H24 8403   6.744   1.086   1.854 -0.0548  0.0936  0.2180
   20CHTO    O8 8404   6.658   1.046   2.039 -0.0246 -0.1819  0.0104
   20CHTO    H3 8405   6.721   1.068   2.105  0.0067  0.3702 -0.1917
   20CHTO    C9 8406   6.692   0.881   1.853  0.7456  0.3396  0.9788
   20CHTO   H22 8407   6.767   0.852   1.778  0.1870  1.6349 -0.1139
   20CHTO    N2 8408   6.569   0.898   1.770 -0.0977  0.7181 -0.0944
   20CHTO   H10 8409   6.571   0.983   1.704 -3.6194  2.8571  2.3644
   20CHTO   H11 8410   6.544   0.808   1.716 -0.4057  1.6749 -1.5830
   20CHTO    C7 8411   6.688   0.762   1.958 -0.1522 -0.0084  0.0838
   20CHTO   H20 8412   6.656   0.669   1.907  1.3161 -1.7623  2.2562
   20CHTO    O4 8413   6.816   0.731   2.016 -0.3860  0.2726  0.4130
   20CHTO   C14 8414   6.900   0.839   2.064 -0.3975 -0.2886 -0.0553
   20CHTO   H27 8415   7.002   0.797   2.061 -1.3361 -2.6276  0.0127
   20CHTO   C18 8416   6.871   0.873   2.213 -0.3376  0.2938  0.5264
   20CHTO   O13 8417   6.899   0.766   2.297  0.4406  0.8009  0.1525
   20CHTO    H7 8418   6.991   0.749   2.293  0.5523  1.5327 -0.5083
   20CHTO    O2 8419   6.575   0.788   2.069  0.1741  0.4789 -0.0022
   20CHTO    C1 8420   6.477   0.683   2.106  0.4871 -0.4969  0.4644
   20CHTO   H14 8421   6.454   0.710   2.211  0.9093 -0.0102  0.4330
   20CHTO    C2 8422   6.533   0.533   2.093  0.5330 -0.7743 -0.0229
   20CHTO   H15 8423   6.566   0.521   1.989  1.2580  0.8662  0.0144
   20CHTO    O6 8424   6.647   0.528   2.178  0.1552 -0.6301 -0.8111
   20CHTO    H1 8425   6.706   0.457   2.156  1.2136  0.2103 -0.7435
   20CHTO    C3 8426   6.420   0.431   2.134 -0.0019  0.4024 -0.0597
   20CHTO   H16 8427   6.418   0.443   2.243 -1.1079 -0.0394 -0.0344
   20CHTO    N1 8428   6.458   0.295   2.099  0.2028 -0.7539 -0.6695
   20CHTO    H8 8429   6.558   0.270   2.132  0.1893 -0.9734 -0.7933
   20CHTO    H9 8430   6.445   0.264   1.996 -0.9615 -0.5040 -0.6041
   20CHTO    C4 8431   6.276   0.468   2.081  0.8687 -0.0508 -0.4477
   20CHTO   H17 8432   6.264   0.431   1.979  1.1288 -0.3769 -0.3633
   20CHTO    O1 8433   6.251   0.607   2.081 -0.3983 -0.3126  0.0751
   20CHTO    C5 8434   6.349   0.692   2.024 -0.6968 -0.7910  0.4226
   20CHTO   H18 8435   6.366   0.655   1.923  0.0802 -1.8083  0.9129
   20CHTO   C16 8436   6.295   0.838   2.018  0.0716  0.7110  0.2250
   20CHTO   O11 8437   6.175   0.854   1.946 -0.3680 -0.5424 -0.4617
   20CHTO    H5 8438   6.114   0.787   1.973 -0.9362  0.4388  0.7492
   20CHTO    O3 8439   6.175   0.411   2.174  0.1021 -0.2229  1.3295
   20CHTO    C6 8440   6.042   0.389   2.109 -0.6354  0.1430 -0.1442
   20CHTO   H19 8441   6.041   0.453   2.021  1.3116  1.2360  0.5968
   20CHTO    C8 8442   6.017   0.233   2.071 -0.3037  0.8289  0.5383
   20CHTO   H21 8443   6.038   0.171   2.158 -3.7605 -0.7824  0.3024
   20CHTO    O7 8444   6.115   0.203   1.976 -0.1574 -0.0666 -0.8088
   20CHTO    H2 8445   6.157   0.120   1.989 -0.8766 -0.6074 -1.8000
   20CHTO   C12 8446   5.871   0.217   2.026 -0.6003  0.5310 -0.3660
   20CHTO   H25 8447   5.857   0.277   1.934  0.6579  0.5071 -0.5821
   20CHTO    N3 8448   5.834   0.076   1.994 -0.3488  0.2346  0.1744
   20CHTO   H12 8449   5.727   0.069   1.979 -0.3312  1.7701 -0.8018
   20CHTO   H13 8450   5.888   0.030   1.913 -0.4169 -0.1170  0.3283
   20CHTO   C15 8451   5.770   0.271   2.133 -0.1030 -0.0709 -0.1405
   20CHTO   H28 8452   5.791   0.225   2.230  1.2907  2.2936  0.7134
   20CHTO   O10 8453   5.629   0.291   2.105 -0.5340  0.1589  0.0213
   20CHTO    H4 8454   5.577   0.217   2.130  0.9243 -1.2845 -1.1518
   20CHTO    O5 8455   5.802   0.410   2.152 -0.0925  0.1566 -0.0950
   20CHTO   C10 8456   5.933   0.446   2.197 -0.0787 -0.4232  0.0790
   20CHTO   H23 8457   5.938   0.407   2.298 -3.2415 -0.5915  0.1940
   20CHTO   C17 8458   5.962   0.602   2.208 -0.6684 -0.1302 -0.0458
   20CHTO   O12 8459   5.878   0.677   2.295 -0.4635 -0.3872 -0.4984
   20CHTO    H6 8460   5.929   0.691   2.373 -0.1684  0.0625 -0.7696
   21GLOH   H03 8461   2.909   9.059   1.339 -0.6918  2.5553 -2.1236
   21GLOH    O1 8462   2.827   9.009   1.325  0.3722  0.1496 -0.0513
   21GLOH    C1 8463   2.848   8.920   1.211  0.4852  0.2529 -0.2485
   21GLOH   H02 8464   2.886   8.823   1.240 -1.8026 -1.3650 -2.3867
   21GLOH   H08 8465   2.912   8.961   1.133 -1.5493 -0.0689 -2.1469
   21GLOH    C2 8466   2.719   8.877   1.137  0.5621  0.5954 -0.0649
   21GLOH   H04 8467   2.647   8.960   1.129 -1.6164 -1.1533  0.8880
   21GLOH    O2 8468   2.752   8.820   1.015 -0.3004 -0.3313 -0.3138
   21GLOH   H05 8469   2.845   8.837   0.990 -0.0079 -0.8209  0.4342
   21GLOH    C3 8470   2.643   8.769   1.219 -0.0743  0.2672 -0.4246
   21GLOH   H06 8471   2.719   8.691   1.227 -0.2905  0.0556 -0.4387
   21GLOH   H07 8472   2.554   8.733   1.168 -1.0900  2.4875 -0.2810
   21GLOH    O3 8473   2.601   8.806   1.350 -0.3567  0.2605  1.3195
   21GLOH   H01 8474   2.561   8.895   1.344 -0.2141  0.1106 -2.7456
   22GLOH   H03 8475   2.803   8.196  -0.146 -0.2918  0.1203 -0.9550
   22GLOH    O1 8476   2.722   8.215  -0.094  0.1533  0.0565 -0.2381
   22GLOH    C1 8477   2.653   8.094  -0.072 -0.4297  1.0707 -0.6207
   22GLOH   H02 8478   2.719   8.026  -0.018 -3.1800 -4.3908 -3.6584
   22GLOH   H08 8479   2.644   8.043  -0.168  0.8989  1.3278 -0.8936
   22GLOH    C2 8480   2.517   8.092  -0.003  0.8212  0.3001 -0.3703
   22GLOH   H04 8481   2.445   8.158  -0.054 -0.9002 -1.0390  0.2810
   22GLOH    O2 8482   2.453   7.963  -0.023 -0.2904  0.5330  0.2262
   22GLOH   H05 8483   2.493   7.893   0.032  1.1826  0.3991 -0.9828
   22GLOH    C3 8484   2.538   8.160   0.135 -0.0353 -0.0028 -0.2675
   22GLOH   H06 8485   2.605   8.097   0.193  0.1078 -1.4158 -1.9483
   22GLOH   H07 8486   2.439   8.164   0.181 -0.8386 -1.6754 -1.8181
   22GLOH    O3 8487   2.594   8.295   0.123 -0.2494  0.5491  0.0164
   22GLOH   H01 8488   2.648   8.274   0.045  0.0082 -0.4210  0.4453
   23GLOH   H03 8489   3.615   5.131   2.511  1.2185  0.8251  1.2462
   23GLOH    O1 8490   3.579   5.216   2.482  0.2984  0.0750  0.1675
   23GLOH    C1 8491   3.510   5.276   2.593 -0.5220  0.6087 -0.0005
   23GLOH   H02 8492   3.583   5.321   2.660 -0.3978 -0.8328  0.8593
   23GLOH   H08 8493   3.452   5.205   2.652 -0.0095 -0.6148 -0.9631
   23GLOH    C2 8494   3.426   5.399   2.547  0.2002 -0.0057 -0.2042
   23GLOH   H04 8495   3.351   5.361   2.476 -1.7363  1.1007  1.2385
   23GLOH    O2 8496   3.357   5.458   2.652  0.0821  0.7080 -0.3353
   23GLOH   H05 8497   3.340   5.552   2.637  0.4767  1.1402  1.8627
   23GLOH    C3 8498   3.508   5.495   2.462 -0.0419 -0.1517 -0.2474
   23GLOH   H06 8499   3.563   5.434   2.391 -1.7420 -0.3995 -1.3770
   23GLOH   H07 8500   3.579   5.551   2.523 -2.5435  0.8508  1.8611
   23GLOH    O3 8501   3.432   5.583   2.379  0.5174  0.5820  0.2842
   23GLOH   H01 8502   3.404   5.659   2.433  0.3876 -0.0270  1.0902
   24GLOH   H03 8503   4.894   1.793   2.097  0.8196  1.0408  3.0369
   24GLOH    O1 8504   4.984   1.758   2.103  0.4711 -0.6255 -0.2271
   24GLOH    C1 8505   4.991   1.679   2.222 -0.4880  0.5652  0.0437
   24GLOH   H02 8506   5.079   1.616   2.224 -1.7664 -1.2256  0.6194
   24GLOH   H08 8507   4.901   1.620   2.239 -2.3753  2.8011 -1.6588
   24GLOH    C2 8508   5.004   1.774   2.338 -0.1163  0.2944  0.2262
   24GLOH   H04 8509   4.926   1.851   2.329 -1.1464 -0.9721 -2.0560
   24GLOH    O2 8510   5.001   1.708   2.467  0.1297  0.2029 -0.2918
   24GLOH   H05 8511   4.979   1.768   2.540 -3.4656 -1.8258  0.4334
   24GLOH    C3 8512   5.135   1.849   2.321  0.6834 -0.0538  0.3182
   24GLOH   H06 8513   5.221   1.782   2.323  1.3964  0.8122 -0.8246
   24GLOH   H07 8514   5.150   1.912   2.409  0.1881  1.7359 -0.8586
   24GLOH    O3 8515   5.143   1.927   2.202 -0.0599  0.0420  0.1242
   24GLOH   H01 8516   5.091   1.874   2.139  0.1487 -0.6679  0.5381
   25GLOH   H03 8517   4.079   1.842   0.857  0.4862 -0.0113 -1.0917
   25GLOH    O1 8518   4.144   1.906   0.891 -0.2951  0.3942 -0.3532
   25GLOH    C1 8519   4.171   1.844   1.024 -0.2299 -0.6820  0.1969
   25GLOH   H02 8520   4.272   1.868   1.057  0.7508 -0.8916 -2.4810
   25GLOH   H08 8521   4.154   1.736   1.023 -2.5692 -0.3372  0.2733
   25GLOH    C2 8522   4.079   1.915   1.131 -0.8834 -0.2662  0.5874
   25GLOH   H04 8523   3.973   1.889   1.118 -0.5807 -1.1946 -0.1233
   25GLOH    O2 8524   4.129   1.865   1.260 -0.5546  0.4226  0.1560
   25GLOH   H05 8525   4.051   1.827   1.303 -0.5809 -0.0386 -0.3045
   25GLOH    C3 8526   4.090   2.070   1.128  0.6429  0.5538 -0.0346
   25GLOH   H06 8527   4.197   2.090   1.131  0.6233  1.0199 -1.7458
   25GLOH   H07 8528   4.051   2.110   1.221  2.2386  1.1024  0.4113
   25GLOH    O3 8529   4.032   2.132   1.011  0.1256 -0.6338  0.3050
   25GLOH   H01 8530   4.066   2.080   0.935  2.2430 -1.0585  1.4879
   26GLOH   H03 8531   5.236   2.987   1.365 -2.0120 -0.3615 -2.0237
   26GLOH    O1 8532   5.169   2.980   1.436 -0.1420 -1.0264 -0.2650
   26GLOH    C1 8533   5.078   3.084   1.404 -0.5584  0.2452 -0.2541
   26GLOH   H02 8534   5.119   3.180   1.434  0.0178  0.1514 -0.7263
   26GLOH   H08 8535   4.989   3.072   1.465  0.3919 -0.9523  0.9322
   26GLOH    C2 8536   5.029   3.091   1.261  0.1247  1.0106  0.1469
   26GLOH   H04 8537   4.994   2.991   1.231 -0.9077  1.4276 -0.0656
   26GLOH    O2 8538   4.929   3.193   1.229  0.4256  0.1051 -0.7616
   26GLOH   H05 8539   4.875   3.201   1.310 -0.3418 -0.1871 -1.2321
   26GLOH    C3 8540   5.149   3.104   1.167  0.5833  0.0204 -0.3680
   26GLOH   H06 8541   5.194   3.203   1.172  1.7656 -0.5895  1.7053
   26GLOH   H07 8542   5.118   3.103   1.063  2.8111  0.2221 -1.0513
   26GLOH    O3 8543   5.243   2.990   1.185  0.0733 -0.3552  0.8043
   26GLOH   H01 8544   5.209   2.911   1.138 -0.9248  0.7443 -0.3536
   27GLOH   H03 8545   4.336   3.511   1.536  0.9087 -1.2366 -0.9662
   27GLOH    O1 8546   4.415   3.549   1.577 -0.3408  0.2115  0.1619
   27GLOH    C1 8547   4.436   3.691   1.559 -0.5818 -0.5382  0.0153
   27GLOH   H02 8548   4.394   3.717   1.461  0.2618  0.7339 -0.0274
   27GLOH   H08 8549   4.541   3.719   1.553 -0.7171  0.0833  0.5021
   27GLOH    C2 8550   4.361   3.777   1.664  0.0075 -0.0198  0.7171
   27GLOH   H04 8551   4.394   3.762   1.768  4.8990  0.7139 -0.6190
   27GLOH    O2 8552   4.394   3.914   1.630 -0.7036  0.2713 -0.1038
   27GLOH   H05 8553   4.381   3.967   1.710  0.3577 -0.3229  0.4620
   27GLOH    C3 8554   4.209   3.757   1.652  0.5885 -0.2867 -0.0451
   27GLOH   H06 8555   4.181   3.652   1.645  0.9888 -0.3935 -0.0375
   27GLOH   H07 8556   4.170   3.787   1.555 -1.7928 -0.7329  0.7385
   27GLOH    O3 8557   4.137   3.821   1.757 -0.7982 -0.0576 -0.2350
   27GLOH   H01 8558   4.170   3.786   1.842  0.6683 -0.5896 -1.0061
   28GLOH   H03 8559   3.234   0.793   1.969  0.6664 -1.1611 -0.2968
   28GLOH    O1 8560   3.167   0.734   1.930 -0.0914 -0.4041 -0.1479
   28GLOH    C1 8561   3.056   0.796   1.872 -0.0391  0.8528  0.2865
   28GLOH   H02 8562   3.069   0.789   1.764  1.6294 -1.1002  0.5726
   28GLOH   H08 8563   3.040   0.900   1.899  1.2753  0.7720  1.4004
   28GLOH    C2 8564   2.925   0.724   1.918  0.2788 -0.0481 -0.3781
   28GLOH   H04 8565   2.915   0.741   2.027  2.5603  1.5024 -0.3818
   28GLOH    O2 8566   2.823   0.779   1.830 -0.1329  0.2735 -0.8233
   28GLOH   H05 8567   2.741   0.779   1.881  1.4105 -2.3779  1.7524
   28GLOH    C3 8568   2.932   0.577   1.891 -0.1788 -0.5919  0.0143
   28GLOH   H06 8569   2.941   0.579   1.782  1.2506  1.1001  0.1270
   28GLOH   H07 8570   2.835   0.532   1.912 -1.3567  1.4364 -0.9449
   28GLOH    O3 8571   3.046   0.519   1.962  0.0172  0.1611  0.5237
   28GLOH   H01 8572   3.117   0.585   1.961 -1.7826  2.1297 -1.7250
   29GLOH   H03 8573   3.686   1.486   1.796 -1.2894  0.9636 -1.2509
   29GLOH    O1 8574   3.713   1.433   1.719 -0.0334 -0.0678 -0.1280
   29GLOH    C1 8575   3.607   1.357   1.679  0.5171  0.0376  0.0933
   29GLOH   H02 8576   3.538   1.422   1.627  1.0240  0.5918  0.0990
   29GLOH   H08 8577   3.555   1.322   1.768  2.0994  0.0279  1.0498
   29GLOH    C2 8578   3.632   1.235   1.585  0.6003 -0.5882 -0.7460
   29GLOH   H04 8579   3.687   1.275   1.499  1.3717 -0.9793 -0.4318
   29GLOH    O2 8580   3.718   1.138   1.654  0.0279 -0.6185  0.0273
   29GLOH   H05 8581   3.804   1.139   1.611  0.8222  0.8726  1.6021
   29GLOH    C3 8582   3.498   1.178   1.539  0.4301  0.9458  0.7751
   29GLOH   H06 8583   3.430   1.155   1.620 -2.2000  2.7812 -0.8547
   29GLOH   H07 8584   3.520   1.086   1.486 -1.2857  1.4417 -0.8518
   29GLOH    O3 8585   3.437   1.267   1.444 -0.3410 -0.3669  0.0329
   29GLOH   H01 8586   3.374   1.214   1.392  0.4025  0.0669 -1.3495
   30GLOH   H03 8587   5.400   4.021   0.166 -1.4635  0.2220 -0.6583
   30GLOH    O1 8588   5.392   4.036   0.262 -0.0286 -1.0672 -0.3148
   30GLOH    C1 8589   5.311   3.940   0.325 -0.2101  0.8856  0.3204
   30GLOH   H02 8590   5.232   3.913   0.255  0.6568  0.8027 -0.6276
   30GLOH   H08 8591   5.263   3.986   0.412  0.6199 -0.7963  1.6903
   30GLOH    C2 8592   5.375   3.811   0.370 -0.3166  0.0319 -0.1616
   30GLOH   H04 8593   5.442   3.824   0.457  0.7805 -0.7028 -0.8770
   30GLOH    O2 8594   5.275   3.724   0.423  0.4370 -0.0469 -0.6068
   30GLOH   H05 8595   5.309   3.640   0.459 -0.6870  0.2824  1.3033
   30GLOH    C3 8596   5.459   3.750   0.257 -0.3989  0.2786 -0.3203
   30GLOH   H06 8597   5.502   3.659   0.301 -4.2437 -1.9985 -1.0578
   30GLOH   H07 8598   5.541   3.821   0.250 -0.8196  0.6549 -1.4203
   30GLOH    O3 8599   5.398   3.742   0.123 -0.0797  0.0529 -0.3866
   30GLOH   H01 8600   5.321   3.682   0.124  0.0486 -0.1026  0.0366
   31GLOH   H03 8601   5.072   2.626   2.562  1.5534 -0.9798  0.8588
   31GLOH    O1 8602   5.040   2.564   2.493 -0.1108  1.0022 -0.1858
   31GLOH    C1 8603   4.916   2.606   2.439 -0.1288 -1.0163 -0.1159
   31GLOH   H02 8604   4.903   2.714   2.428  0.4868 -1.0829 -1.6681
   31GLOH   H08 8605   4.836   2.568   2.503 -0.4163  0.5094  0.4547
   31GLOH    C2 8606   4.899   2.542   2.305  0.7759  0.6389  0.2276
   31GLOH   H04 8607   4.899   2.432   2.309 -0.2712  0.6305  0.1332
   31GLOH    O2 8608   4.771   2.578   2.258  0.2487  0.0594 -0.3387
   31GLOH   H05 8609   4.711   2.552   2.331  0.6630 -0.7345 -0.2767
   31GLOH    C3 8610   5.014   2.587   2.214 -0.7598  0.0213  0.2232
   31GLOH   H06 8611   5.022   2.694   2.198  1.1027 -0.3875 -1.9479
   31GLOH   H07 8612   5.003   2.541   2.115 -0.6959 -0.9875  0.6739
   31GLOH    O3 8613   5.137   2.539   2.265  0.0295  0.5233  0.3387
   31GLOH   H01 8614   5.130   2.571   2.357 -2.3691 -1.1840  0.8038
   32GLOH   H03 8615   3.132   9.781   1.289 -1.0729 -0.0182 -1.4320
   32GLOH    O1 8616   3.040   9.768   1.321 -0.9056 -0.2057 -1.0278
   32GLOH    C1 8617   3.011   9.628   1.314  0.8523 -0.5122 -0.5645
   32GLOH   H02 8618   3.054   9.569   1.395  0.1033 -1.2227 -0.6787
   32GLOH   H08 8619   3.044   9.585   1.219  1.3932  0.1720 -0.6916
   32GLOH    C2 8620   2.862   9.602   1.331  0.3490  0.2299 -0.1995
   32GLOH   H04 8621   2.838   9.652   1.427 -1.3305  0.3263 -0.6472
   32GLOH    O2 8622   2.782   9.639   1.214  0.1131  0.2991 -0.8761
   32GLOH   H05 8623   2.826   9.711   1.166  1.5505  0.1520  0.1943
   32GLOH    C3 8624   2.838   9.452   1.350 -0.0488 -0.1602 -0.1560
   32GLOH   H06 8625   2.731   9.446   1.330 -0.2940  1.6227  0.5028
   32GLOH   H07 8626   2.873   9.416   1.446 -0.5991 -0.5598 -0.1003
   32GLOH    O3 8627   2.912   9.370   1.255 -0.2140  0.1003  0.1818
   32GLOH   H01 8628   2.881   9.394   1.166  1.0490 -2.6510 -1.0586
   33GLOH   H03 8629   2.501   5.461   1.298  0.1324  0.4454 -0.0153
   33GLOH    O1 8630   2.537   5.461   1.389  0.6917 -0.4894 -0.2352
   33GLOH    C1 8631   2.440   5.522   1.479  0.5600  0.0889  0.1822
   33GLOH   H02 8632   2.464   5.503   1.584 -2.0158 -0.6182  0.6544
   33GLOH   H08 8633   2.342   5.479   1.460  1.1893 -1.4638  0.3508
   33GLOH    C2 8634   2.420   5.677   1.470  0.7506 -0.2846 -0.1332
   33GLOH   H04 8635   2.376   5.700   1.371  2.6950  0.2730 -0.8850
   33GLOH    O2 8636   2.313   5.709   1.561  0.5060 -0.0538  0.7128
   33GLOH   H05 8637   2.324   5.663   1.646  2.0184 -1.4395 -0.2094
   33GLOH    C3 8638   2.553   5.758   1.474  0.2442 -0.0417  0.2998
   33GLOH   H06 8639   2.601   5.728   1.381 -1.7839 -2.0311 -0.1521
   33GLOH   H07 8640   2.614   5.708   1.549  0.1289 -0.2077  0.2840
   33GLOH    O3 8641   2.532   5.902   1.484  0.5898  0.4755  0.1146
   33GLOH   H01 8642   2.613   5.946   1.452  2.6899 -2.8326  0.6030
   34GLOH   H03 8643   3.297   4.000   0.557  0.4149  0.4470  0.6802
   34GLOH    O1 8644   3.227   3.978   0.622  0.0474  0.2282  0.2152
   34GLOH    C1 8645   3.285   3.896   0.731 -0.1228 -0.2359  0.2448
   34GLOH   H02 8646   3.302   3.795   0.694 -2.6540  0.4244 -2.9109
   34GLOH   H08 8647   3.224   3.885   0.821  0.9989 -3.8988  0.6383
   34GLOH    C2 8648   3.422   3.944   0.776 -1.1986 -0.3819  0.2180
   34GLOH   H04 8649   3.488   3.947   0.688 -2.2085 -0.8418 -0.5526
   34GLOH    O2 8650   3.424   4.078   0.826 -1.1461  0.0469 -0.1665
   34GLOH   H05 8651   3.346   4.080   0.884 -0.9510  1.0149  0.0773
   34GLOH    C3 8652   3.482   3.859   0.894  0.7556  0.3873 -1.0707
   34GLOH   H06 8653   3.422   3.871   0.985  0.2665 -4.3217 -0.6536
   34GLOH   H07 8654   3.580   3.899   0.921  0.3963  0.9693 -0.6103
   34GLOH    O3 8655   3.494   3.717   0.867  0.2568  0.1117 -0.0773
   34GLOH   H01 8656   3.462   3.655   0.935 -0.7942  1.2937  0.5208
   35GLOH   H03 8657   3.084   6.137   0.907  1.5084 -0.0548  0.9014
   35GLOH    O1 8658   3.099   6.053   0.861 -0.6449 -0.2054  0.4104
   35GLOH    C1 8659   3.017   5.952   0.920  0.1343  0.0908  0.3047
   35GLOH   H02 8660   3.006   5.866   0.854  3.7670  0.5995 -1.0686
   35GLOH   H08 8661   2.919   5.986   0.952  0.1578  0.5748 -0.1251
   35GLOH    C2 8662   3.089   5.892   1.040  0.7351 -0.8115  0.0817
   35GLOH   H04 8663   3.116   5.978   1.103 -2.1250 -1.0108  1.6493
   35GLOH    O2 8664   3.003   5.807   1.107 -0.0778 -0.4131 -0.5605
   35GLOH   H05 8665   2.911   5.838   1.108  0.2591  0.5912  0.4947
   35GLOH    C3 8666   3.219   5.827   0.991 -0.7324 -0.1871 -0.0182
   35GLOH   H06 8667   3.269   5.784   1.078  0.0046  0.5117 -0.0861
   35GLOH   H07 8668   3.284   5.907   0.954 -0.0506 -0.2410  1.0431
   35GLOH    O3 8669   3.193   5.727   0.897 -0.0628 -0.4869  0.8531
   35GLOH   H01 8670   3.273   5.673   0.883 -0.5623 -1.4167  1.4914
   36GLOH   H03 8671   2.836   6.576   2.160  1.1796 -1.2160 -2.0562
   36GLOH    O1 8672   2.793   6.619   2.084 -0.3557  0.8454 -0.1038
   36GLOH    C1 8673   2.897   6.689   2.017  0.0098  0.4939 -0.4746
   36GLOH   H02 8674   2.947   6.626   1.943  1.0025  0.7579 -0.0452
   36GLOH   H08 8675   2.979   6.711   2.086 -0.1221  2.0638 -0.8044
   36GLOH    C2 8676   2.862   6.823   1.954  0.2273 -0.2055 -0.2989
   36GLOH   H04 8677   2.830   6.898   2.029 -1.5324 -2.2706  1.0640
   36GLOH    O2 8678   2.983   6.870   1.881  0.8110 -0.0479 -0.0002
   36GLOH   H05 8679   3.063   6.833   1.923  0.3446 -0.1387  0.8145
   36GLOH    C3 8680   2.742   6.809   1.854  0.1326  0.4623  0.6011
   36GLOH   H06 8681   2.755   6.744   1.767 -2.3077  0.6736  0.0526
   36GLOH   H07 8682   2.721   6.908   1.816  0.8995  0.1789 -0.6030
   36GLOH    O3 8683   2.632   6.761   1.929 -0.3496 -0.0233 -0.3029
   36GLOH   H01 8684   2.666   6.686   1.981 -0.2421 -0.4437 -0.9701
   37GLOH   H03 8685   4.901   3.171   2.641 -1.0232 -0.3688  0.9483
   37GLOH    O1 8686   4.940   3.207   2.723  0.0991  0.1412  0.2139
   37GLOH    C1 8687   5.074   3.154   2.737 -0.4944 -0.1999 -0.0695
   37GLOH   H02 8688   5.076   3.046   2.726  1.6641 -0.0547 -1.2783
   37GLOH   H08 8689   5.116   3.175   2.835 -0.5192 -0.4075 -0.0134
   37GLOH    C2 8690   5.167   3.223   2.636  0.3524  0.6888  0.1144
   37GLOH   H04 8691   5.271   3.190   2.649  0.4781  1.2937  0.6837
   37GLOH    O2 8692   5.130   3.180   2.504  0.6576 -0.7430  0.2524
   37GLOH   H05 8693   5.068   3.244   2.466  1.1861 -0.5158 -0.2335
   37GLOH    C3 8694   5.154   3.378   2.661 -0.6542 -0.0359  0.0139
   37GLOH   H06 8695   5.055   3.414   2.631 -1.0788  0.3463  1.8392
   37GLOH   H07 8696   5.226   3.438   2.605 -0.0509 -2.0845 -1.4454
   37GLOH    O3 8697   5.175   3.406   2.802  0.1715 -0.5187 -0.1769
   37GLOH   H01 8698   5.147   3.494   2.832 -1.4375 -1.1447  0.2036
   38GLOH   H03 8699   3.220   6.803   1.224  0.2235  0.3811 -0.3318
   38GLOH    O1 8700   3.268   6.745   1.162  0.2955  0.0171  0.0597
   38GLOH    C1 8701   3.168   6.660   1.107 -0.8395  0.3440  0.1074
   38GLOH   H02 8702   3.073   6.713   1.098 -1.4759 -0.7182  0.4248
   38GLOH   H08 8703   3.147   6.576   1.173  2.1482  1.5657  2.7896
   38GLOH    C2 8704   3.211   6.605   0.966 -0.3086 -0.2896  0.3270
   38GLOH   H04 8705   3.299   6.543   0.986  0.7049  0.8616 -0.5134
   38GLOH    O2 8706   3.119   6.516   0.911  0.5057 -0.1888 -0.0148
   38GLOH   H05 8707   3.036   6.561   0.888  1.4790  1.4293 -0.4199
   38GLOH    C3 8708   3.254   6.719   0.866 -0.3658  0.4657 -0.3277
   38GLOH   H06 8709   3.302   6.672   0.781  0.7121 -0.6923  0.9097
   38GLOH   H07 8710   3.332   6.785   0.905 -0.5673  0.6975 -0.3124
   38GLOH    O3 8711   3.151   6.815   0.835  0.4741  0.1516  0.1768
   38GLOH   H01 8712   3.118   6.802   0.744 -1.1951  1.5605  0.5394
   39GLOH   H03 8713   4.444   1.102   0.287 -0.8378  3.6449 -0.0799
   39GLOH    O1 8714   4.398   1.105   0.202 -0.7474  0.1419 -0.2958
   39GLOH    C1 8715   4.260   1.064   0.218  0.3511 -0.0100 -0.5189
   39GLOH   H02 8716   4.261   0.955   0.219 -1.6088 -0.0424  0.9332
   39GLOH   H08 8717   4.202   1.084   0.128 -1.0996 -3.5657 -0.4520
   39GLOH    C2 8718   4.194   1.140   0.338  0.0708  0.6350  0.6777
   39GLOH   H04 8719   4.210   1.248   0.330 -0.4605  0.5636 -1.7673
   39GLOH    O2 8720   4.055   1.095   0.313 -0.0020 -0.0267 -0.1330
   39GLOH   H05 8721   4.018   1.144   0.238  0.3121  0.2722 -0.0924
   39GLOH    C3 8722   4.243   1.090   0.471 -0.1464 -0.5263  0.2999
   39GLOH   H06 8723   4.213   0.986   0.484 -3.5220  0.6840  2.9777
   39GLOH   H07 8724   4.200   1.141   0.557  0.8053  1.4791 -0.3796
   39GLOH    O3 8725   4.388   1.107   0.483 -0.2228  0.1341 -0.1661
   39GLOH   H01 8726   4.409   1.199   0.506 -0.4807 -0.1100  1.0602
   40GLOH   H03 8727   2.621   9.767   0.166 -1.6286  0.7082 -0.2861
   40GLOH    O1 8728   2.621   9.801   0.258 -0.1320  0.1691 -0.0782
   40GLOH    C1 8729   2.670   9.931   0.268 -0.5965 -0.0105 -0.4996
   40GLOH   H02 8730   2.593  10.002   0.237 -0.8991 -0.2364 -0.2651
   40GLOH   H08 8731   2.761   9.953   0.212  0.0729  0.7184  0.8510
   40GLOH    C2 8732   2.698   9.960   0.416 -0.2929  0.5114 -0.1722
   40GLOH   H04 8733   2.762   9.882   0.459 -2.2394 -0.3502  1.2289
   40GLOH    O2 8734   2.754  10.086   0.432 -0.0778  0.0635  0.2121
   40GLOH   H05 8735   2.742  10.123   0.343  1.5132 -1.7826 -0.7908
   40GLOH    C3 8736   2.566   9.952   0.505  0.1007  0.5098 -0.0711
   40GLOH   H06 8737   2.502  10.037   0.481 -0.6948 -0.0715 -0.0462
   40GLOH   H07 8738   2.603   9.970   0.606 -0.1134  1.4629 -0.1548
   40GLOH    O3 8739   2.504   9.826   0.497  0.1933  0.3917  0.2389
   40GLOH   H01 8740   2.502   9.789   0.407 -0.0660 -0.9387  0.7761
   41GLOH   H03 8741   4.077   0.494   0.283 -1.3671 -3.0331  2.0993
   41GLOH    O1 8742   4.085   0.434   0.207 -0.7714 -0.1359 -0.2144
   41GLOH    C1 8743   4.140   0.310   0.271  0.1343  0.3278  0.4787
   41GLOH   H02 8744   4.162   0.321   0.377 -0.3371 -2.6537  0.9412
   41GLOH   H08 8745   4.232   0.290   0.216 -0.1685 -3.5184  1.2490
   41GLOH    C2 8746   4.036   0.198   0.259  0.1031  0.5363 -0.7242
   41GLOH   H04 8747   4.072   0.099   0.288 -1.4491 -0.1774 -1.2020
   41GLOH    O2 8748   3.933   0.234   0.362  0.4174 -0.0711 -0.6971
   41GLOH   H05 8749   3.879   0.306   0.325 -0.7943  0.0820  1.2692
   41GLOH    C3 8750   3.975   0.186   0.118 -0.5139 -0.4296  0.9655
   41GLOH   H06 8751   3.934   0.283   0.088 -2.9737 -0.7523  3.1523
   41GLOH   H07 8752   3.892   0.116   0.123 -0.6748 -0.2467  0.8566
   41GLOH    O3 8753   4.071   0.146   0.017  0.2566 -0.7931 -0.2660
   41GLOH   H01 8754   4.090   0.051   0.029 -0.9022 -0.7644  2.1134
   42GLOH   H03 8755   3.200   4.776  -0.043 -0.3713  0.1127  0.5003
   42GLOH    O1 8756   3.141   4.785   0.034 -0.3643 -0.0891  0.5285
   42GLOH    C1 8757   3.109   4.925   0.045 -0.1395 -0.3176  0.0596
   42GLOH   H02 8758   3.023   4.940   0.111 -0.6602 -1.8413 -0.2520
   42GLOH   H08 8759   3.090   4.969  -0.053 -0.1039 -0.6714 -0.1062
   42GLOH    C2 8760   3.231   5.003   0.098 -0.6584 -0.1989 -0.8717
   42GLOH   H04 8761   3.319   4.989   0.034 -0.2886  0.2299 -0.4648
   42GLOH    O2 8762   3.206   5.144   0.097  0.0227 -0.0989 -0.2085
   42GLOH   H05 8763   3.273   5.195   0.144  0.0284  0.1144 -0.4489
   42GLOH    C3 8764   3.258   4.954   0.243 -0.2874  0.1406 -0.6620
   42GLOH   H06 8765   3.291   4.850   0.246 -0.2299  0.1733  0.1478
   42GLOH   H07 8766   3.161   4.948   0.293  0.7256 -0.5967  1.3131
   42GLOH    O3 8767   3.342   5.032   0.327 -0.0051  0.3471 -0.3698
   42GLOH   H01 8768   3.433   5.028   0.293  0.3743  2.1695  0.3775
   43GLOH   H03 8769   3.982   9.863   2.834 -0.4074 -0.0855  0.1452
   43GLOH    O1 8770   4.054   9.887   2.773 -0.2078  0.2064  0.4911
   43GLOH    C1 8771   4.139   9.771   2.749  0.6401 -0.5173 -0.2527
   43GLOH   H02 8772   4.165   9.722   2.842 -0.4190 -0.1834  0.2261
   43GLOH   H08 8773   4.230   9.800   2.696  0.5652  1.1343  0.4893
   43GLOH    C2 8774   4.073   9.649   2.676 -0.3612 -0.9840  0.3925
   43GLOH   H04 8775   4.145   9.566   2.665  0.8661  0.1308 -0.1536
   43GLOH    O2 8776   3.960   9.590   2.744  0.1965  0.2725 -0.2157
   43GLOH   H05 8777   3.876   9.615   2.703  1.0822  1.5769 -1.3068
   43GLOH    C3 8778   4.018   9.680   2.534  0.3165  0.9324 -0.5900
   43GLOH   H06 8779   3.940   9.754   2.552 -0.8358 -0.4549  0.2217
   43GLOH   H07 8780   3.975   9.591   2.489  2.5612  0.9510 -2.8945
   43GLOH    O3 8781   4.118   9.738   2.447  0.5485 -0.0344 -0.3886
   43GLOH   H01 8782   4.131   9.834   2.460  0.6877  0.0165 -0.9216
   44GLOH   H03 8783   3.868   4.835   1.664 -0.8435 -1.3504 -0.5820
   44GLOH    O1 8784   3.853   4.785   1.747 -0.8454 -0.7636 -0.2285
   44GLOH    C1 8785   3.966   4.695   1.753 -0.1408  0.7553  0.1040
   44GLOH   H02 8786   4.055   4.744   1.712  0.1717  0.2440  0.1690
   44GLOH   H08 8787   3.956   4.602   1.698  1.1122 -0.1517  1.3426
   44GLOH    C2 8788   3.992   4.656   1.898 -0.9888  0.1626  0.8516
   44GLOH   H04 8789   3.900   4.615   1.942  0.0911 -1.1460  1.8815
   44GLOH    O2 8790   4.083   4.543   1.899  0.2265  0.2507  0.5464
   44GLOH   H05 8791   4.102   4.539   1.994  2.1162 -0.6917  0.1479
   44GLOH    C3 8792   4.039   4.777   1.982  0.3310 -0.7382  0.5457
   44GLOH   H06 8793   4.134   4.812   1.942  0.7316 -1.6233  0.7253
   44GLOH   H07 8794   4.040   4.737   2.083 -1.9903  0.5672  1.1131
   44GLOH    O3 8795   3.945   4.887   1.973 -0.5672 -0.2442 -0.0357
   44GLOH   H01 8796   3.876   4.854   1.912  1.0314 -0.2515 -1.9082
   45GLOH   H03 8797   4.903   1.618   0.465 -0.5563 -3.7073  2.2703
   45GLOH    O1 8798   4.898   1.666   0.550 -0.4126  0.1566  0.2509
   45GLOH    C1 8799   4.892   1.813   0.534 -0.7611  0.1693 -1.0395
   45GLOH   H02 8800   4.994   1.852   0.540  0.3155 -2.0340 -3.5782
   45GLOH   H08 8801   4.828   1.859   0.609  0.4731  1.2707 -0.6403
   45GLOH    C2 8802   4.826   1.857   0.402  0.4295  0.3270 -0.3243
   45GLOH   H04 8803   4.726   1.812   0.398  0.4073  0.4723 -1.8962
   45GLOH    O2 8804   4.813   2.001   0.400 -0.3535 -0.1106  0.1649
   45GLOH   H05 8805   4.724   2.027   0.428 -0.0107 -0.4494  1.6020
   45GLOH    C3 8806   4.891   1.806   0.276 -0.2804  0.1432  0.1030
   45GLOH   H06 8807   4.987   1.857   0.262 -0.1357  0.5673  2.4158
   45GLOH   H07 8808   4.827   1.820   0.188  0.9012  1.0474 -0.6453
   45GLOH    O3 8809   4.919   1.666   0.291  0.4139 -0.6119  0.6280
   45GLOH   H01 8810   4.901   1.626   0.204 -0.3365  0.8740  0.0835
   46GLOH   H03 8811   3.128   8.111   1.561 -1.1477  0.2619 -0.0868
   46GLOH    O1 8812   3.163   8.084   1.474  0.0972 -0.7115  0.7005
   46GLOH    C1 8813   3.164   7.942   1.476 -1.1873 -0.3604  0.3076
   46GLOH   H02 8814   3.146   7.916   1.580 -0.2603  2.1666  1.1424
   46GLOH   H08 8815   3.256   7.901   1.436 -1.2096 -0.4332  0.3314
   46GLOH    C2 8816   3.055   7.883   1.394  0.5501 -0.0239 -0.0671
   46GLOH   H04 8817   2.955   7.883   1.438  1.0413  2.6721  1.0986
   46GLOH    O2 8818   3.045   7.954   1.267 -0.0585  0.5009  0.2621
   46GLOH   H05 8819   3.076   8.044   1.288  1.9867  0.5008 -2.6146
   46GLOH    C3 8820   3.076   7.735   1.351 -0.1317  0.1587 -0.5507
   46GLOH   H06 8821   3.164   7.732   1.287  1.8030  1.4178  1.9518
   46GLOH   H07 8822   2.994   7.694   1.292 -2.2569  1.1301  1.6294
   46GLOH    O3 8823   3.087   7.657   1.475 -0.0626 -0.0907  0.7026
   46GLOH   H01 8824   3.020   7.689   1.539 -1.1109 -2.8244  1.0071
   47GLOH   H03 8825   3.244   6.241   2.630 -0.6325  0.0495  0.5919
   47GLOH    O1 8826   3.188   6.278   2.559  0.2803  0.6739  0.1989
   47GLOH    C1 8827   3.052   6.286   2.606 -0.5057 -0.6446  0.5217
   47GLOH   H02 8828   3.023   6.198   2.663 -1.6102 -0.6088  0.0283
   47GLOH   H08 8829   2.980   6.293   2.525  0.3401 -0.3087 -0.2189
   47GLOH    C2 8830   3.022   6.403   2.710 -0.8328  0.3556 -0.0397
   47GLOH   H04 8831   2.919   6.392   2.748 -0.3468 -2.4726  0.5359
   47GLOH    O2 8832   3.111   6.408   2.828 -0.5569  0.3296  0.2109
   47GLOH   H05 8833   3.080   6.482   2.883 -1.0471  1.4085 -1.4821
   47GLOH    C3 8834   3.028   6.532   2.627  0.0857 -0.7713  0.2738
   47GLOH   H06 8835   3.123   6.555   2.578  0.8850  1.2044  2.6408
   47GLOH   H07 8836   3.018   6.609   2.703  1.9784 -0.0053 -0.2201
   47GLOH    O3 8837   2.924   6.531   2.530  0.1162 -0.7541 -0.4539
   47GLOH   H01 8838   2.840   6.544   2.577  2.0608  1.5373  2.5858
   48GLOH   H03 8839   3.264   7.227   2.455 -1.3457 -2.0745  0.5792
   48GLOH    O1 8840   3.265   7.227   2.358  0.0474 -0.7698  0.5820
   48GLOH    C1 8841   3.127   7.250   2.321 -0.1439  0.3008  0.3033
   48GLOH   H02 8842   3.129   7.342   2.263 -0.7102  0.9152  1.2300
   48GLOH   H08 8843   3.076   7.279   2.413  0.1180  0.5286  0.3737
   48GLOH    C2 8844   3.063   7.131   2.253 -0.2947  0.1011  0.4829
   48GLOH   H04 8845   3.063   7.053   2.330 -1.7920  1.4412  1.8710
   48GLOH    O2 8846   2.924   7.164   2.220  0.3439 -0.2478 -0.3537
   48GLOH   H05 8847   2.874   7.145   2.302  1.1990 -0.3579  0.1549
   48GLOH    C3 8848   3.145   7.092   2.133  0.2221  0.0362  0.0257
   48GLOH   H06 8849   3.159   7.188   2.083 -1.3539 -0.0450 -0.5759
   48GLOH   H07 8850   3.089   7.021   2.072  0.3707  0.6885 -0.8825
   48GLOH    O3 8851   3.279   7.051   2.178  0.1925 -0.9000  0.1366
   48GLOH   H01 8852   3.299   7.102   2.259 -0.2769 -0.2543 -0.1528
   49GLOH   H03 8853   4.787   2.925   0.281 -0.5683  0.9146 -0.0271
   49GLOH    O1 8854   4.861   2.878   0.323 -0.6861 -0.0732 -0.9112
   49GLOH    C1 8855   4.850   2.883   0.469  0.6374  0.4407  0.3339
   49GLOH   H02 8856   4.803   2.793   0.508 -0.1087  0.9807  0.7044
   49GLOH   H08 8857   4.780   2.964   0.492  2.7820  1.9199  1.8392
   49GLOH    C2 8858   4.978   2.914   0.537 -0.2748  0.3633 -0.4425
   49GLOH   H04 8859   5.002   3.017   0.507  3.6013  0.0902  1.4365
   49GLOH    O2 8860   4.965   2.915   0.675 -0.5611 -0.0332 -0.8702
   49GLOH   H05 8861   5.029   2.980   0.709 -0.5424  0.6075 -2.1157
   49GLOH    C3 8862   5.091   2.821   0.481 -0.0518 -0.4831 -0.3765
   49GLOH   H06 8863   5.070   2.716   0.503 -0.0983 -0.4702 -0.3587
   49GLOH   H07 8864   5.177   2.846   0.542 -0.6584  1.7353 -0.3837
   49GLOH    O3 8865   5.122   2.836   0.343  0.8350 -0.0901  0.2190
   49GLOH   H01 8866   5.038   2.840   0.293 -0.3184 -1.9247  1.9387
   50GLOH   H03 8867   2.504   4.490   1.485  0.0145  1.2035 -0.6348
   50GLOH    O1 8868   2.521   4.492   1.581 -0.0990 -0.0689 -0.5780
   50GLOH    C1 8869   2.600   4.380   1.622 -0.0847  0.2246 -0.2099
   50GLOH   H02 8870   2.570   4.288   1.572  0.3611 -0.8831  1.4793
   50GLOH   H08 8871   2.597   4.356   1.729  3.0883 -0.2991 -0.1850
   50GLOH    C2 8872   2.747   4.399   1.587  0.0312 -0.0976  0.4677
   50GLOH   H04 8873   2.780   4.497   1.625  0.2138 -0.2399  0.6780
   50GLOH    O2 8874   2.824   4.297   1.656 -0.5768 -0.3860  0.2533
   50GLOH   H05 8875   2.785   4.216   1.619 -0.8691  0.6008 -1.7026
   50GLOH    C3 8876   2.781   4.401   1.434  0.8203 -0.4827 -0.5889
   50GLOH   H06 8877   2.878   4.446   1.409  0.7959 -0.1244 -0.0441
   50GLOH   H07 8878   2.713   4.464   1.377 -0.2953 -1.4193 -0.2947
   50GLOH    O3 8879   2.776   4.276   1.373  0.1053  0.2960  0.3134
   50GLOH   H01 8880   2.863   4.234   1.385  0.4960  0.4519 -1.8254
   51GLOH   H03 8881   3.000   5.612   2.148 -2.8538  0.5600 -3.2600
   51GLOH    O1 8882   3.026   5.706   2.151  0.1375 -0.2556 -0.0336
   51GLOH    C1 8883   3.009   5.767   2.022  0.1960  0.1953 -0.1510
   51GLOH   H02 8884   3.066   5.715   1.944 -0.0028 -1.8605  1.0291
   51GLOH   H08 8885   3.050   5.868   2.018  0.2834  0.3181  2.7245
   51GLOH    C2 8886   2.861   5.767   1.976 -0.1247 -0.2409 -0.5011
   51GLOH   H04 8887   2.814   5.668   1.982 -3.1085  1.1645  0.0353
   51GLOH    O2 8888   2.774   5.855   2.060 -0.3866 -0.1830  0.3972
   51GLOH   H05 8889   2.736   5.798   2.130  1.3273 -0.6998  0.9223
   51GLOH    C3 8890   2.855   5.803   1.826  0.3740  0.6372 -0.0357
   51GLOH   H06 8891   2.754   5.780   1.793  1.1484 -0.6055 -1.5801
   51GLOH   H07 8892   2.926   5.742   1.770  1.4137  0.8652  1.0012
   51GLOH    O3 8893   2.884   5.940   1.792 -0.0341 -0.0981  0.1025
   51GLOH   H01 8894   2.803   5.993   1.792 -0.8683 -1.3549 -0.7943
   52GLOH   H03 8895   3.992   1.211   0.928  0.6108 -2.0693 -0.0485
   52GLOH    O1 8896   3.910   1.218   0.982  0.7734 -0.0325 -0.0211
   52GLOH    C1 8897   3.867   1.358   0.985 -0.2443  0.2347  0.2115
   52GLOH   H02 8898   3.759   1.362   1.005 -0.4517  0.1423 -0.8649
   52GLOH   H08 8899   3.885   1.404   0.888  1.2064 -1.9925 -0.6222
   52GLOH    C2 8900   3.951   1.437   1.087 -0.1044  0.1590 -0.2690
   52GLOH   H04 8901   4.053   1.438   1.046  0.0077 -3.6716 -0.2625
   52GLOH    O2 8902   3.908   1.571   1.089  0.1311  0.2240  0.0980
   52GLOH   H05 8903   3.811   1.571   1.080  0.2232 -1.1752 -1.0436
   52GLOH    C3 8904   3.947   1.376   1.225 -1.4467 -0.1276 -0.4508
   52GLOH   H06 8905   3.845   1.379   1.262 -0.4512  0.1738  2.3865
   52GLOH   H07 8906   4.008   1.430   1.298 -0.5369 -0.4946 -0.9280
   52GLOH    O3 8907   3.996   1.242   1.219  0.1558  0.7215 -0.6199
   52GLOH   H01 8908   3.944   1.196   1.151  1.0052 -1.0482 -0.0853
   53GLOH   H03 8909   2.359   7.529   0.659 -1.6477 -0.3681 -0.7998
   53GLOH    O1 8910   2.400   7.552   0.574 -0.5922 -0.0352 -0.1998
   53GLOH    C1 8911   2.500   7.457   0.537  0.9454 -0.6811  0.0687
   53GLOH   H02 8912   2.502   7.437   0.430  1.6164 -0.4928  0.0430
   53GLOH   H08 8913   2.476   7.365   0.591  0.6592 -1.2353 -0.9854
   53GLOH    C2 8914   2.645   7.483   0.589  0.5567 -0.3597  0.2745
   53GLOH   H04 8915   2.646   7.486   0.699 -0.5932  1.6548  0.2662
   53GLOH    O2 8916   2.732   7.379   0.546  0.3393 -0.0197 -0.1746
   53GLOH   H05 8917   2.824   7.407   0.531  0.9939 -0.8608  2.0824
   53GLOH    C3 8918   2.684   7.629   0.554  0.0834  0.3247 -0.2269
   53GLOH   H06 8919   2.688   7.650   0.447  1.3383  1.3459  0.0036
   53GLOH   H07 8920   2.783   7.654   0.594 -0.0540 -0.3618  0.5471
   53GLOH    O3 8921   2.588   7.711   0.611 -0.0760  0.1497  0.2086
   53GLOH   H01 8922   2.504   7.664   0.600 -0.2968  0.0971  1.9065
   54GLOH   H03 8923   5.309   3.360   0.672  0.4510  2.9114 -1.5439
   54GLOH    O1 8924   5.396   3.361   0.715 -0.1822  0.1774 -0.0647
   54GLOH    C1 8925   5.501   3.343   0.609 -0.2665 -0.3032  0.7243
   54GLOH   H02 8926   5.474   3.271   0.532  1.2637  1.7382 -1.8167
   54GLOH   H08 8927   5.591   3.305   0.658  0.9565 -0.9309 -1.9152
   54GLOH    C2 8928   5.522   3.470   0.535 -0.6439 -0.5197 -0.9133
   54GLOH   H04 8929   5.586   3.447   0.449  0.9436  0.3826  0.0007
   54GLOH    O2 8930   5.402   3.520   0.483  0.2476 -0.0285  0.0071
   54GLOH   H05 8931   5.368   3.459   0.415  0.7830  1.0607 -1.2685
   54GLOH    C3 8932   5.597   3.578   0.613  0.1731 -0.3746 -0.4134
   54GLOH   H06 8933   5.550   3.600   0.709 -0.6253  0.9095 -1.0764
   54GLOH   H07 8934   5.594   3.665   0.548 -0.8256 -1.3606 -1.7289
   54GLOH    O3 8935   5.733   3.541   0.634 -0.1379  0.7057  0.8499
   54GLOH   H01 8936   5.747   3.499   0.721  0.7906 -0.4679  0.1382
   55GLOH   H03 8937   2.748   6.708   0.660  0.1170 -0.0332 -1.0025
   55GLOH    O1 8938   2.803   6.787   0.646  0.2341  0.1143  0.2123
   55GLOH    C1 8939   2.717   6.903   0.635  0.3066 -0.6967 -0.0170
   55GLOH   H02 8940   2.705   6.943   0.735  0.0977  1.0733 -0.7263
   55GLOH   H08 8941   2.613   6.876   0.615  0.4175 -1.1661  0.0277
   55GLOH    C2 8942   2.770   7.030   0.555  0.1135  0.2767  1.1372
   55GLOH   H04 8943   2.795   6.997   0.453  0.0707  1.6416  0.6731
   55GLOH    O2 8944   2.668   7.128   0.555 -0.2891  0.1244  0.4480
   55GLOH   H05 8945   2.703   7.219   0.561 -2.0967  0.9787 -1.5015
   55GLOH    C3 8946   2.897   7.076   0.622 -0.3290 -0.2880 -0.4175
   55GLOH   H06 8947   2.932   7.161   0.563 -1.5675  0.1812 -0.4826
   55GLOH   H07 8948   2.966   6.992   0.627 -0.1723 -0.1087  0.7066
   55GLOH    O3 8949   2.876   7.114   0.758  0.1500 -0.1721  0.4300
   55GLOH   H01 8950   2.910   7.204   0.774  0.3249 -0.0908 -0.3778
   56GLOH   H03 8951   4.735   2.864   1.474  1.2359 -1.5664 -0.4801
   56GLOH    O1 8952   4.729   2.923   1.397  0.4262 -0.4960  0.3902
   56GLOH    C1 8953   4.734   2.831   1.288 -0.0320 -0.5607 -0.2548
   56GLOH   H02 8954   4.676   2.742   1.311 -3.4149  1.2825 -1.2939
   56GLOH   H08 8955   4.835   2.801   1.258  0.4012 -0.0253  0.6486
   56GLOH    C2 8956   4.670   2.900   1.166 -0.3292  0.1283 -0.1131
   56GLOH   H04 8957   4.718   2.996   1.145 -0.0774  0.3728  1.4941
   56GLOH    O2 8958   4.689   2.814   1.051 -0.2638  0.5622 -0.0635
   56GLOH   H05 8959   4.636   2.732   1.054  0.2068  0.2103 -0.9895
   56GLOH    C3 8960   4.521   2.934   1.195 -0.5962  0.6223  0.1161
   56GLOH   H06 8961   4.528   3.004   1.278  3.5611  0.5298 -0.0793
   56GLOH   H07 8962   4.474   2.841   1.228 -1.0229  0.8438  0.1408
   56GLOH    O3 8963   4.449   2.977   1.079  0.9714  0.2458 -0.0428
   56GLOH   H01 8964   4.505   3.036   1.025  1.2307  0.1542  0.1254
   57GLOH   H03 8965   2.902   6.495   2.385 -1.0603  0.4008 -0.9678
   57GLOH    O1 8966   2.892   6.477   2.290  0.0199 -1.0024 -0.8314
   57GLOH    C1 8967   2.908   6.333   2.263  0.6583  0.4546 -0.5073
   57GLOH   H02 8968   2.840   6.278   2.328  1.1493  1.3705  0.8201
   57GLOH   H08 8969   3.004   6.293   2.298 -0.9353 -1.2584  2.0186
   57GLOH    C2 8970   2.910   6.288   2.119 -0.2676  0.6876 -0.3014
   57GLOH   H04 8971   2.819   6.324   2.070 -0.6133 -1.5604 -1.3753
   57GLOH    O2 8972   3.027   6.344   2.047  0.0300  0.6420  0.0050
   57GLOH   H05 8973   2.992   6.346   1.956  0.8148 -0.3566 -0.3226
   57GLOH    C3 8974   2.903   6.136   2.112  0.1666  0.3367  0.2515
   57GLOH   H06 8975   2.984   6.080   2.159  1.0873  0.6365 -0.9840
   57GLOH   H07 8976   2.917   6.117   2.006  0.2162  0.2768  0.2688
   57GLOH    O3 8977   2.771   6.095   2.148  0.1262 -0.6826 -0.0187
   57GLOH   H01 8978   2.753   6.015   2.096  3.6965 -1.8334  0.4119
   58GLOH   H03 8979   2.485   7.054   0.181  0.0344  0.3129 -0.3977
   58GLOH    O1 8980   2.551   7.017   0.120  0.3298 -0.3596  0.3245
   58GLOH    C1 8981   2.677   7.004   0.186  0.0621 -0.1582 -0.1741
   58GLOH   H02 8982   2.662   6.931   0.266 -1.7984  0.8571  0.4345
   58GLOH   H08 8983   2.706   7.099   0.231  0.9067  0.4029 -1.8870
   58GLOH    C2 8984   2.788   6.947   0.096  0.6432 -0.2580 -0.7422
   58GLOH   H04 8985   2.788   7.004   0.002 -0.7232  1.4780  0.2741
   58GLOH    O2 8986   2.918   6.969   0.161  0.2333 -1.0531 -0.8260
   58GLOH   H05 8987   2.930   7.065   0.172  3.3643 -1.4343 -0.4732
   58GLOH    C3 8988   2.768   6.801   0.058  0.1143 -0.1659  0.7228
   58GLOH   H06 8989   2.747   6.743   0.149 -1.6498 -1.1402 -0.2729
   58GLOH   H07 8990   2.861   6.769   0.012 -1.1617 -1.0711 -1.3266
   58GLOH    O3 8991   2.660   6.777  -0.035 -0.0456  0.3442 -0.3486
   58GLOH   H01 8992   2.670   6.685  -0.066 -0.5380 -0.3351  1.3981
   59GLOH   H03 8993   4.534   4.397   1.656 -0.1272  0.6709  0.4861
   59GLOH    O1 8994   4.482   4.359   1.729 -0.5231  0.4088  0.0722
   59GLOH    C1 8995   4.586   4.313   1.815  0.2095 -0.3924  0.2362
   59GLOH   H02 8996   4.546   4.246   1.892  0.2835 -1.6311 -0.7889
   59GLOH   H08 8997   4.627   4.397   1.872 -1.7115  0.4408  0.4436
   59GLOH    C2 8998   4.701   4.226   1.758  0.2897  0.8119  0.2451
   59GLOH   H04 8999   4.730   4.278   1.665 -0.4219  1.1191  0.1948
   59GLOH    O2 9000   4.806   4.216   1.856  0.2107 -0.1277 -0.7699
   59GLOH   H05 9001   4.774   4.241   1.944 -0.6947 -0.8165 -0.8939
   59GLOH    C3 9002   4.644   4.085   1.730 -0.0042 -0.0622 -0.7306
   59GLOH   H06 9003   4.549   4.092   1.676 -0.4191 -0.0194  0.0050
   59GLOH   H07 9004   4.616   4.037   1.824  0.3993  1.7775  0.3460
   59GLOH    O3 9005   4.746   4.004   1.664 -0.0396 -0.0343 -0.1164
   59GLOH   H01 9006   4.741   3.916   1.706 -1.4927  0.5760  1.0352
   60GLOH   H03 9007   2.604   5.091   0.660  0.6747  0.0056  1.1565
   60GLOH    O1 9008   2.624   5.078   0.565 -0.6312  0.1712  0.8469
   60GLOH    C1 9009   2.745   5.154   0.533  1.1513 -0.1565 -0.2523
   60GLOH   H02 9010   2.770   5.232   0.605  0.8363 -0.5008  0.2395
   60GLOH   H08 9011   2.734   5.217   0.444  1.0389  0.4675  0.2002
   60GLOH    C2 9012   2.866   5.065   0.517 -0.8925 -1.1075 -0.1487
   60GLOH   H04 9013   2.858   4.982   0.445  1.9267 -1.8036  0.2699
   60GLOH    O2 9014   2.982   5.134   0.468  0.2583 -0.5145  0.0869
   60GLOH   H05 9015   2.974   5.124   0.371 -1.8933 -1.3857  0.3240
   60GLOH    C3 9016   2.906   4.991   0.644 -0.2234  0.1271  0.2561
   60GLOH   H06 9017   2.942   5.061   0.719 -0.5055  0.2158  0.3096
   60GLOH   H07 9018   2.995   4.937   0.612 -0.9064  0.5554 -2.5022
   60GLOH    O3 9019   2.807   4.896   0.691 -0.4405 -0.3360 -0.0103
   60GLOH   H01 9020   2.820   4.889   0.787  1.9371 -0.6828 -0.3273
   61GLOH   H03 9021   3.960   5.025   0.218 -1.4067  1.1938 -0.3396
   61GLOH    O1 9022   4.025   5.093   0.193  0.4432 -0.3683  0.1483
   61GLOH    C1 9023   4.058   5.184   0.305  0.1701  0.6390 -0.2770
   61GLOH   H02 9024   4.064   5.118   0.391  1.3716 -1.2734 -1.7885
   61GLOH   H08 9025   3.972   5.247   0.327 -0.2620 -1.0432  3.2327
   61GLOH    C2 9026   4.192   5.262   0.294  0.3787  0.0650 -0.6169
   61GLOH   H04 9027   4.193   5.307   0.194  0.2475  0.5128 -0.4147
   61GLOH    O2 9028   4.219   5.363   0.389 -0.0834  0.2655  0.0958
   61GLOH   H05 9029   4.243   5.447   0.346  1.7412 -0.5298 -0.4753
   61GLOH    C3 9030   4.301   5.152   0.276 -0.5649 -0.3335 -0.1503
   61GLOH   H06 9031   4.290   5.092   0.366  0.7815 -0.3292  0.0286
   61GLOH   H07 9032   4.398   5.201   0.268 -0.7605 -0.1307 -1.5103
   61GLOH    O3 9033   4.279   5.081   0.146  0.0501  0.2158 -0.0930
   61GLOH   H01 9034   4.183   5.065   0.145 -0.0486  0.7889 -0.1081
   62GLOH   H03 9035   4.530   4.253   0.737  1.4977 -0.8893 -0.4310
   62GLOH    O1 9036   4.537   4.315   0.662 -0.2469  0.1143  0.2117
   62GLOH    C1 9037   4.619   4.421   0.716 -0.0518  0.1243 -0.7857
   62GLOH   H02 9038   4.720   4.380   0.724 -0.8491 -1.5249  1.0364
   62GLOH   H08 9039   4.579   4.445   0.814 -0.5674  1.6251 -1.3439
   62GLOH    C2 9040   4.624   4.559   0.642 -0.0980  0.3329  0.2981
   62GLOH   H04 9041   4.540   4.630   0.653 -0.6458 -0.2609  0.0081
   62GLOH    O2 9042   4.731   4.651   0.694 -0.0572  0.5807  0.4379
   62GLOH   H05 9043   4.814   4.602   0.679 -3.1334 -4.1071 -2.4857
   62GLOH    C3 9044   4.633   4.535   0.492 -0.7354  0.1634  0.1029
   62GLOH   H06 9045   4.713   4.462   0.480  0.6396  1.4136  1.4723
   62GLOH   H07 9046   4.668   4.623   0.438  0.9852 -1.4741 -1.5022
   62GLOH    O3 9047   4.508   4.472   0.442 -0.4522 -0.9815 -0.0904
   62GLOH   H01 9048   4.474   4.417   0.515 -1.2529 -0.4418 -0.0582
   63GLOH   H03 9049   5.436   3.457   0.829  2.0087  1.8949 -2.6986
   63GLOH    O1 9050   5.457   3.507   0.910  0.3027 -0.5542 -0.6829
   63GLOH    C1 9051   5.346   3.593   0.932  0.9411 -0.4259  0.4483
   63GLOH   H02 9052   5.274   3.581   0.852  3.0416 -2.0142 -1.2808
   63GLOH   H08 9053   5.378   3.696   0.916 -0.2333 -0.3082 -1.1982
   63GLOH    C2 9054   5.280   3.594   1.075  0.2834 -0.6677  0.1945
   63GLOH   H04 9055   5.364   3.617   1.142 -0.1869 -2.4664  1.4736
   63GLOH    O2 9056   5.175   3.688   1.085  0.1189  0.3812 -0.0800
   63GLOH   H05 9057   5.201   3.778   1.058  1.1562 -0.6826 -2.8520
   63GLOH    C3 9058   5.232   3.452   1.114 -0.1247  0.2162 -0.9051
   63GLOH   H06 9059   5.151   3.418   1.048  0.2453 -2.9702  0.1892
   63GLOH   H07 9060   5.198   3.456   1.217  0.3162  2.2475 -0.8235
   63GLOH    O3 9061   5.340   3.365   1.091 -0.0340 -0.2145 -0.3145
   63GLOH   H01 9062   5.402   3.389   1.020 -0.2032 -0.3081 -0.4976
   64GLOH   H03 9063   4.066   4.051   2.060  2.3778  0.3180  3.0945
   64GLOH    O1 9064   4.127   3.979   2.037  0.1951 -0.7079  0.2615
   64GLOH    C1 9065   4.075   3.859   2.099  0.3818  0.1766 -0.2396
   64GLOH   H02 9066   3.978   3.828   2.058  0.6154 -0.5508 -0.2411
   64GLOH   H08 9067   4.053   3.878   2.204 -0.5727  0.2444 -0.4447
   64GLOH    C2 9068   4.173   3.741   2.101 -0.6169 -0.7608  0.0435
   64GLOH   H04 9069   4.114   3.652   2.128 -0.1545 -1.5612 -1.5734
   64GLOH    O2 9070   4.227   3.720   1.969 -0.2177 -0.1950  0.1031
   64GLOH   H05 9071   4.200   3.631   1.937 -0.4213 -0.0033 -0.2640
   64GLOH    C3 9072   4.282   3.769   2.202  0.5018 -0.1681 -0.2118
   64GLOH   H06 9073   4.243   3.746   2.301  0.8314  1.9797  0.4531
   64GLOH   H07 9074   4.298   3.877   2.199 -1.3017  0.0983 -0.9141
   64GLOH    O3 9075   4.403   3.697   2.192 -0.6103 -0.1037 -0.0373
   64GLOH   H01 9076   4.417   3.657   2.279  1.9955 -0.0420 -0.3800
   65GLOH   H03 9077   2.811   8.459   0.496  0.7854 -0.5556 -1.6412
   65GLOH    O1 9078   2.863   8.519   0.552 -0.4562 -0.3320 -0.6915
   65GLOH    C1 9079   2.996   8.475   0.519 -0.1197  0.1218 -0.3947
   65GLOH   H02 9080   3.011   8.520   0.421  0.3466  0.4849 -0.1601
   65GLOH   H08 9081   3.019   8.368   0.514  0.8582  0.3990 -2.3795
   65GLOH    C2 9082   3.103   8.543   0.606 -0.4388  0.6564  0.6172
   65GLOH   H04 9083   3.085   8.497   0.704  0.9937  0.9293  1.0208
   65GLOH    O2 9084   3.236   8.505   0.565 -0.0269 -0.6000  0.0229
   65GLOH   H05 9085   3.248   8.418   0.606  0.5340 -0.3569  0.3837
   65GLOH    C3 9086   3.097   8.699   0.613  0.6879  0.4479  0.6234
   65GLOH   H06 9087   3.116   8.751   0.518  0.8374 -0.4861  0.1388
   65GLOH   H07 9088   3.177   8.734   0.678  0.4688 -1.5481  1.9736
   65GLOH    O3 9089   2.970   8.741   0.671  0.4365 -0.0295  0.4072
   65GLOH   H01 9090   2.892   8.713   0.619  0.6072 -2.7553  1.5399
   66GLOH   H03 9091   2.738   8.373   2.078 -0.5798 -1.3387 -0.7347
   66GLOH    O1 9092   2.809   8.395   2.014 -0.5051  0.1171 -0.1713
   66GLOH    C1 9093   2.747   8.469   1.906  0.4102  0.8412 -0.0926
   66GLOH   H02 9094   2.739   8.573   1.938  1.4005  0.9392 -0.1283
   66GLOH   H08 9095   2.650   8.432   1.875 -0.1362  1.4362  0.8944
   66GLOH    C2 9096   2.848   8.468   1.788  0.0001  0.3606  0.0671
   66GLOH   H04 9097   2.852   8.365   1.749 -0.1550 -0.2122  1.5520
   66GLOH    O2 9098   2.811   8.567   1.691 -0.5247 -0.5180  0.5946
   66GLOH   H05 9099   2.750   8.627   1.737  0.2590  0.0344  0.9216
   66GLOH    C3 9100   2.997   8.501   1.824 -0.1709 -0.6078 -0.4620
   66GLOH   H06 9101   3.028   8.452   1.915  0.9560  0.4178 -0.2824
   66GLOH   H07 9102   3.005   8.608   1.844 -0.6222 -0.1241 -2.7373
   66GLOH    O3 9103   3.095   8.471   1.721  0.2142  0.4274 -0.1382
   66GLOH   H01 9104   3.075   8.509   1.633 -0.0748 -3.7624 -1.9773
   67GLOH   H03 9105   4.873   3.393   2.458 -0.6301 -0.0369 -1.2231
   67GLOH    O1 9106   4.857   3.300   2.480 -0.0188  0.0254 -0.4855
   67GLOH    C1 9107   4.809   3.220   2.371 -0.0598 -0.5067 -0.5942
   67GLOH   H02 9108   4.897   3.174   2.326  1.8076  3.4785 -1.1934
   67GLOH   H08 9109   4.760   3.290   2.304  0.4298 -0.1298 -0.5582
   67GLOH    C2 9110   4.718   3.104   2.400 -0.1167  0.8656 -0.2633
   67GLOH   H04 9111   4.690   3.056   2.305 -1.7618  2.5515 -0.6528
   67GLOH    O2 9112   4.789   3.012   2.484  0.5993 -0.0543 -0.2521
   67GLOH   H05 9113   4.868   2.983   2.437 -0.5553 -1.4736 -1.3657
   67GLOH    C3 9114   4.595   3.160   2.480  0.3017  0.3122  0.1626
   67GLOH   H06 9115   4.636   3.221   2.560  1.8870  1.7767 -1.7077
   67GLOH   H07 9116   4.556   3.070   2.529 -0.3443  0.4087 -0.1652
   67GLOH    O3 9117   4.494   3.229   2.398 -0.2948 -0.1029 -0.8647
   67GLOH   H01 9118   4.471   3.170   2.324  0.1008 -0.6289 -0.5656
   68GLOH   H03 9119   3.225   5.634   0.388 -0.7012  0.0976 -0.3921
   68GLOH    O1 9120   3.314   5.602   0.362 -0.5282 -0.3037  0.6556
   68GLOH    C1 9121   3.339   5.690   0.250  0.0016 -0.4756 -0.3165
   68GLOH   H02 9122   3.250   5.696   0.188  0.1557  0.0340 -0.4887
   68GLOH   H08 9123   3.411   5.638   0.188 -0.6566 -0.4401 -1.1148
   68GLOH    C2 9124   3.382   5.835   0.282  0.1178  0.2695  0.6165
   68GLOH   H04 9125   3.300   5.895   0.324  0.4432  0.9286  0.3156
   68GLOH    O2 9126   3.483   5.827   0.386 -0.0081 -0.4849 -0.0315
   68GLOH   H05 9127   3.450   5.807   0.475  0.5266 -3.4083 -0.4449
   68GLOH    C3 9128   3.436   5.900   0.150  0.2784  0.3720 -0.9462
   68GLOH   H06 9129   3.522   5.856   0.099  0.1935  1.2972 -1.9010
   68GLOH   H07 9130   3.477   5.995   0.184 -0.9020  0.5092  0.1153
   68GLOH    O3 9131   3.335   5.921   0.055 -0.0016 -0.3135 -0.3593
   68GLOH   H01 9132   3.298   6.011   0.062 -1.4267 -0.8219 -0.9992
   69GLOH   H03 9133   2.795   3.180   0.558  2.3554 -0.8833 -0.2423
   69GLOH    O1 9134   2.830   3.267   0.534  0.3705 -0.1386 -0.5335
   69GLOH    C1 9135   2.937   3.296   0.629 -0.4878 -0.0330 -0.3410
   69GLOH   H02 9136   2.908   3.374   0.699 -1.5680  2.1332 -3.1529
   69GLOH   H08 9137   3.021   3.341   0.575 -1.0329  0.7576 -0.5302
   69GLOH    C2 9138   2.995   3.173   0.703 -0.0321 -0.5844 -0.2741
   69GLOH   H04 9139   3.021   3.105   0.621  0.7748  1.4257 -1.7212
   69GLOH    O2 9140   3.110   3.216   0.777  0.1613  0.0569  0.1569
   69GLOH   H05 9141   3.188   3.160   0.762 -1.5505 -2.5342  0.5954
   69GLOH    C3 9142   2.885   3.115   0.795 -0.8853 -0.2793 -0.0325
   69GLOH   H06 9143   2.878   3.182   0.881  0.7964 -0.0395 -0.0540
   69GLOH   H07 9144   2.925   3.020   0.831 -0.9619 -0.5654 -0.6896
   69GLOH    O3 9145   2.760   3.093   0.729 -0.3093  0.5504  0.3126
   69GLOH   H01 9146   2.697   3.162   0.755  0.7105  1.1250  1.2994
   70GLOH   H03 9147   3.326   6.410   1.826 -3.8427 -0.5137 -1.0238
   70GLOH    O1 9148   3.336   6.504   1.804  0.0233 -0.6603 -0.0750
   70GLOH    C1 9149   3.283   6.586   1.906  0.3235  0.1997 -0.1489
   70GLOH   H02 9150   3.357   6.597   1.985 -0.5829  0.6342  0.6511
   70GLOH   H08 9151   3.205   6.531   1.958  1.0589  0.8718  1.7006
   70GLOH    C2 9152   3.225   6.727   1.867 -0.2998 -0.0214 -0.0956
   70GLOH   H04 9153   3.130   6.702   1.818 -0.7123  0.0872  0.6495
   70GLOH    O2 9154   3.206   6.807   1.985  0.2430  0.4875 -0.1677
   70GLOH   H05 9155   3.292   6.848   2.004 -0.6400  1.9519  0.7393
   70GLOH    C3 9156   3.318   6.793   1.767 -0.6553 -0.5532 -0.3899
   70GLOH   H06 9157   3.416   6.788   1.814 -0.5870 -0.6808 -0.5483
   70GLOH   H07 9158   3.298   6.901   1.770  2.3447  0.0196  1.5848
   70GLOH    O3 9159   3.317   6.720   1.643 -0.3700 -0.2472 -1.2510
   70GLOH   H01 9160   3.353   6.631   1.658 -0.2989 -0.2280 -1.3095
   71GLOH   H03 9161   3.391   0.438   2.377 -2.4318 -0.9172 -2.7636
   71GLOH    O1 9162   3.343   0.522   2.369 -0.7332  0.4242  0.0668
   71GLOH    C1 9163   3.370   0.579   2.242  0.3220 -1.2772  0.0544
   71GLOH   H02 9164   3.462   0.635   2.260  1.0299 -1.4837 -2.7441
   71GLOH   H08 9165   3.297   0.645   2.195  1.4478  0.0699  0.1529
   71GLOH    C2 9166   3.407   0.479   2.143 -0.4869 -0.0608  0.0362
   71GLOH   H04 9167   3.327   0.404   2.130 -0.6560 -0.4029  2.8778
   71GLOH    O2 9168   3.437   0.533   2.021  0.1097 -0.4533  0.2728
   71GLOH   H05 9169   3.513   0.591   2.041  1.4590 -1.8128 -0.7855
   71GLOH    C3 9170   3.526   0.395   2.187 -0.0176  0.4149  0.6486
   71GLOH   H06 9171   3.609   0.466   2.191 -0.7163  1.2010  1.3507
   71GLOH   H07 9172   3.546   0.311   2.121 -0.0127 -0.8994  2.2976
   71GLOH    O3 9173   3.508   0.344   2.321 -0.3653 -0.0706 -0.1045
   71GLOH   H01 9174   3.550   0.257   2.331 -1.6866 -0.5261  1.6368
   72GLOH   H03 9175   3.518   9.653   0.903 -0.6704  1.5871  0.2579
   72GLOH    O1 9176   3.602   9.629   0.947 -0.7616  0.0487 -0.3704
   72GLOH    C1 9177   3.581   9.505   1.016  0.0837 -0.3871  0.3230
   72GLOH   H02 9178   3.473   9.500   1.025 -0.0315 -1.7603 -1.4168
   72GLOH   H08 9179   3.629   9.517   1.113  3.7462  0.9621 -1.5511
   72GLOH    C2 9180   3.634   9.374   0.951 -0.2171  0.1976 -0.2744
   72GLOH   H04 9181   3.641   9.303   1.035 -1.0310  0.0224 -0.3558
   72GLOH    O2 9182   3.548   9.318   0.852  0.1327 -0.1631 -0.2567
   72GLOH   H05 9183   3.457   9.335   0.879 -0.5456 -0.9083 -1.9944
   72GLOH    C3 9184   3.768   9.396   0.880  0.1212 -0.1680 -0.2635
   72GLOH   H06 9185   3.771   9.485   0.817  0.9335  1.1257  1.5616
   72GLOH   H07 9186   3.786   9.318   0.806  0.9617 -0.5221  0.3169
   72GLOH    O3 9187   3.877   9.399   0.979  0.1508 -0.2068 -0.4952
   72GLOH   H01 9188   3.964   9.393   0.935  0.8577 -1.5898  1.0350
   73GLOH   H03 9189   3.759   8.269   1.346  1.6362 -0.0772  0.6442
   73GLOH    O1 9190   3.787   8.362   1.340 -0.2600  0.4497 -0.6776
   73GLOH    C1 9191   3.715   8.443   1.437  0.1055  0.0721  0.3067
   73GLOH   H02 9192   3.739   8.410   1.538  1.1180  0.6685  0.2740
   73GLOH   H08 9193   3.609   8.419   1.428  0.2758 -0.2871 -0.8362
   73GLOH    C2 9194   3.756   8.591   1.427  0.0040  0.2874 -0.1198
   73GLOH   H04 9195   3.723   8.612   1.324  2.3119 -2.9667 -1.6129
   73GLOH    O2 9196   3.694   8.680   1.530 -0.5876  0.4857 -0.8711
   73GLOH   H05 9197   3.605   8.648   1.555  0.4026  0.4122  2.9507
   73GLOH    C3 9198   3.905   8.620   1.420 -0.1477  0.1370 -0.7098
   73GLOH   H06 9199   3.956   8.592   1.512 -2.4568 -1.3997  0.1377
   73GLOH   H07 9200   3.922   8.727   1.407 -0.3837  0.0070 -2.0856
   73GLOH    O3 9201   3.971   8.546   1.314 -0.3606 -0.4761  0.2402
   73GLOH   H01 9202   3.902   8.482   1.291 -1.0854  0.3572  0.0418
   74GLOH   H03 9203   5.132   2.472   0.293  1.4356  2.4426 -0.2711
   74GLOH    O1 9204   5.088   2.487   0.207 -0.7738  0.4844  0.4694
   74GLOH    C1 9205   4.952   2.531   0.222  0.5552  0.0643  0.2264
   74GLOH   H02 9206   4.946   2.599   0.307 -0.0644 -1.5654  1.5082
   74GLOH   H08 9207   4.882   2.452   0.247 -0.4518  0.1265 -2.1957
   74GLOH    C2 9208   4.889   2.606   0.099 -0.1713  0.3338  0.4553
   74GLOH   H04 9209   4.894   2.541   0.009 -2.0297  1.7788 -0.7336
   74GLOH    O2 9210   4.756   2.645   0.130 -0.2734 -0.4378  0.5669
   74GLOH   H05 9211   4.717   2.700   0.060 -0.0877 -2.8307 -1.4557
   74GLOH    C3 9212   4.975   2.719   0.064 -0.5480 -0.2241  0.2039
   74GLOH   H06 9213   4.979   2.790   0.148  1.7835 -0.2542  0.1502
   74GLOH   H07 9214   4.932   2.772  -0.021  2.0919  2.0305  0.1752
   74GLOH    O3 9215   5.106   2.672   0.033 -0.2540 -0.3620  0.3930
   74GLOH   H01 9216   5.133   2.596   0.089 -0.8094 -1.3248 -0.6338
   75GLOH   H03 9217   3.405   5.620   2.216  0.6642 -1.1540 -0.5001
   75GLOH    O1 9218   3.383   5.644   2.124 -0.8228  0.0298  0.1296
   75GLOH    C1 9219   3.281   5.542   2.099  0.3926 -0.5085 -0.1967
   75GLOH   H02 9220   3.214   5.588   2.027  0.5841  1.1756  0.6677
   75GLOH   H08 9221   3.221   5.511   2.185 -0.3066 -0.8194 -0.7941
   75GLOH    C2 9222   3.347   5.418   2.039  0.3974  0.0455 -0.3856
   75GLOH   H04 9223   3.435   5.396   2.101 -0.5278  0.1773  1.0156
   75GLOH    O2 9224   3.259   5.305   2.059  0.3384 -0.0376 -0.0470
   75GLOH   H05 9225   3.288   5.264   2.142 -0.3164  1.2805  0.8592
   75GLOH    C3 9226   3.388   5.437   1.893  0.2481 -0.5433  0.2670
   75GLOH   H06 9227   3.469   5.370   1.867 -0.9950 -1.4114 -1.4520
   75GLOH   H07 9228   3.444   5.530   1.894  3.0341 -2.1507 -0.9684
   75GLOH    O3 9229   3.275   5.434   1.805  0.5802 -0.4965 -0.3549
   75GLOH   H01 9230   3.283   5.356   1.747 -1.2655 -1.4553  0.6287
   76GLOH   H03 9231   2.832   2.928   1.794  0.1639 -0.9917  0.2606
   76GLOH    O1 9232   2.882   2.934   1.711 -0.1438  0.1282  0.1531
   76GLOH    C1 9233   2.810   2.906   1.585 -0.6067  0.1026 -0.1078
   76GLOH   H02 9234   2.855   2.971   1.509  0.5750 -0.6617 -0.0647
   76GLOH   H08 9235   2.707   2.939   1.599 -0.9658 -0.8716 -0.4468
   76GLOH    C2 9236   2.830   2.759   1.529  0.5070  0.4612  0.1372
   76GLOH   H04 9237   2.788   2.763   1.428  0.1766  0.8418  0.2872
   76GLOH    O2 9238   2.966   2.722   1.518  0.0424  0.5782  0.1226
   76GLOH   H05 9239   3.012   2.764   1.443 -1.8090  0.4472 -1.0998
   76GLOH    C3 9240   2.758   2.661   1.618  0.0389  0.6246  0.1102
   76GLOH   H06 9241   2.772   2.701   1.719  1.6738  2.1553 -0.6799
   76GLOH   H07 9242   2.819   2.571   1.627  0.0006  0.7214  1.4787
   76GLOH    O3 9243   2.620   2.640   1.584 -0.2357 -0.4574 -0.2678
   76GLOH   H01 9244   2.603   2.571   1.516 -1.5044  0.0400 -0.4725
   77GLOH   H03 9245   3.613   8.149   1.462 -0.9334  1.2109 -0.7086
   77GLOH    O1 9246   3.677   8.147   1.388  0.2911  0.1470  0.3315
   77GLOH    C1 9247   3.600   8.114   1.268 -0.3497  0.0733 -0.3964
   77GLOH   H02 9248   3.651   8.031   1.219  0.7151 -1.0236  2.4710
   77GLOH   H08 9249   3.602   8.197   1.198  1.4866  1.7014  1.5219
   77GLOH    C2 9250   3.453   8.063   1.291 -0.2634  0.0257 -1.0588
   77GLOH   H04 9251   3.452   7.999   1.380  1.5672  3.2982  1.4392
   77GLOH    O2 9252   3.363   8.174   1.321 -0.4744  0.0129 -0.5908
   77GLOH   H05 9253   3.302   8.143   1.390 -1.1117  1.2404 -0.5964
   77GLOH    C3 9254   3.398   7.987   1.169 -0.0405  0.1056 -0.1347
   77GLOH   H06 9255   3.400   8.070   1.098 -0.9166 -0.6262 -1.0393
   77GLOH   H07 9256   3.294   7.953   1.174 -0.2488  0.7660  0.1367
   77GLOH    O3 9257   3.478   7.882   1.115  0.8502 -0.1479  0.2262
   77GLOH   H01 9258   3.468   7.810   1.180 -0.7760 -0.3794 -0.2549
   78GLOH   H03 9259   4.280   3.530   0.147 -0.1179 -0.7224  2.4016
   78GLOH    O1 9260   4.355   3.468   0.156  0.9719  0.1591 -0.2373
   78GLOH    C1 9261   4.439   3.493   0.042 -0.3391  0.4892  0.1634
   78GLOH   H02 9262   4.444   3.601   0.025  1.5976  0.1414 -1.7193
   78GLOH   H08 9263   4.415   3.434  -0.047  1.5012 -1.9009  1.2158
   78GLOH    C2 9264   4.582   3.448   0.074 -0.3339 -0.7322  0.4457
   78GLOH   H04 9265   4.596   3.339   0.081  0.4069 -0.5434  2.1620
   78GLOH    O2 9266   4.665   3.508  -0.031  0.1199 -0.0850 -0.0250
   78GLOH   H05 9267   4.738   3.557   0.010  0.8037 -0.3497 -0.9264
   78GLOH    C3 9268   4.629   3.497   0.205  0.0029  0.2808 -0.2065
   78GLOH   H06 9269   4.601   3.602   0.214  0.3323  0.3231  0.3467
   78GLOH   H07 9270   4.738   3.494   0.205  0.0063 -0.0463  1.1689
   78GLOH    O3 9271   4.577   3.434   0.325  0.0585  0.2837 -0.4192
   78GLOH   H01 9272   4.509   3.495   0.360  1.2089  0.5375  1.4419
   79GLOH   H03 9273   4.225   0.703   2.214 -0.6618  0.5139 -0.1229
   79GLOH    O1 9274   4.214   0.648   2.135  0.1443  0.4674 -0.2106
   79GLOH    C1 9275   4.241   0.727   2.023 -1.0809  0.2579  0.3144
   79GLOH   H02 9276   4.349   0.722   2.009 -1.0859 -1.5251  0.7797
   79GLOH   H08 9277   4.212   0.832   2.034  2.2163  1.0978  1.5935
   79GLOH    C2 9278   4.172   0.666   1.899 -0.2750  0.1513  0.6197
   79GLOH   H04 9279   4.066   0.645   1.918 -0.4746  2.2236  1.9255
   79GLOH    O2 9280   4.197   0.763   1.799 -0.5061  0.1102 -0.1303
   79GLOH   H05 9281   4.270   0.822   1.828  1.2959 -2.8958  1.7074
   79GLOH    C3 9282   4.230   0.531   1.864  0.1923  0.2595  0.3220
   79GLOH   H06 9283   4.330   0.558   1.830  0.0127  1.4049  0.6744
   79GLOH   H07 9284   4.173   0.500   1.776 -0.6254  0.6701  0.6991
   79GLOH    O3 9285   4.227   0.445   1.983  0.1172  0.3653  0.5474
   79GLOH   H01 9286   4.268   0.499   2.053 -1.6556  1.3378  0.8726
   80GLOH   H03 9287   4.278   8.690   0.467 -0.6386 -0.4468  0.2819
   80GLOH    O1 9288   4.247   8.767   0.415 -0.2137 -0.3314  0.1925
   80GLOH    C1 9289   4.104   8.750   0.399 -0.2036  0.3040 -0.2215
   80GLOH   H02 9290   4.077   8.700   0.306  0.2142  0.0765 -0.2227
   80GLOH   H08 9291   4.067   8.852   0.395 -0.4322  0.1699 -1.6428
   80GLOH    C2 9292   4.032   8.680   0.516 -0.1808 -0.3476  0.1026
   80GLOH   H04 9293   4.022   8.749   0.601  1.1833  1.2452 -0.9812
   80GLOH    O2 9294   3.895   8.657   0.471 -0.0720 -0.0189 -0.1395
   80GLOH   H05 9295   3.849   8.612   0.544 -0.8308 -1.3626 -1.4239
   80GLOH    C3 9296   4.110   8.551   0.561 -0.8976  0.2776 -0.8881
   80GLOH   H06 9297   4.097   8.489   0.472 -2.0399 -0.6272 -0.1095
   80GLOH   H07 9298   4.060   8.504   0.646 -0.4060  0.5932 -0.4247
   80GLOH    O3 9299   4.246   8.588   0.604  0.1926  0.1535  0.3770
   80GLOH   H01 9300   4.242   8.646   0.682  1.9491 -0.2221  0.7645
   81GLOH   H03 9301   4.225   4.378   2.676  0.3849  0.4022  2.6301
   81GLOH    O1 9302   4.227   4.281   2.688 -0.4516 -0.0002 -0.0119
   81GLOH    C1 9303   4.308   4.222   2.584  0.7459 -0.1024 -0.1930
   81GLOH   H02 9304   4.375   4.146   2.623  2.2049  1.2645  0.0112
   81GLOH   H08 9305   4.366   4.302   2.538 -0.1295  0.7744  0.2044
   81GLOH    C2 9306   4.223   4.160   2.468 -0.0308  0.1179 -0.4911
   81GLOH   H04 9307   4.170   4.244   2.421 -1.2955  0.5498  1.6406
   81GLOH    O2 9308   4.304   4.079   2.385  0.0372  0.0257  0.3307
   81GLOH   H05 9309   4.347   4.012   2.441 -0.6273  1.3831  2.5561
   81GLOH    C3 9310   4.108   4.075   2.522 -0.1989  0.7878 -0.1327
   81GLOH   H06 9311   4.148   3.983   2.562 -1.9810 -0.0801 -0.3145
   81GLOH   H07 9312   4.042   4.043   2.441  0.6642  1.1678 -1.0065
   81GLOH    O3 9313   4.031   4.145   2.622 -0.4395  0.4285  0.2377
   81GLOH   H01 9314   4.100   4.204   2.660  0.4326 -0.6031  0.2810
   82GLOH   H03 9315   4.060   9.042   1.964  1.5327 -1.5599 -0.1115
   82GLOH    O1 9316   4.047   8.998   2.050  0.2465 -0.4738  0.2797
   82GLOH    C1 9317   4.098   8.859   2.044  0.1373  0.5288  0.0947
   82GLOH   H02 9318   4.205   8.850   2.026  0.6955  0.4142  3.2126
   82GLOH   H08 9319   4.051   8.815   1.955 -0.5376  1.6205 -0.1012
   82GLOH    C2 9320   4.045   8.775   2.167  1.0494  0.1698 -0.0660
   82GLOH   H04 9321   3.935   8.772   2.159  1.0379  0.2989  0.0490
   82GLOH    O2 9322   4.079   8.637   2.152 -0.9232 -0.0131 -0.3933
   82GLOH   H05 9323   4.093   8.596   2.240  0.8787  2.6871  0.6500
   82GLOH    C3 9324   4.085   8.828   2.299  1.0023  0.8825 -0.0421
   82GLOH   H06 9325   4.039   8.923   2.326 -0.9908 -0.4891  1.5895
   82GLOH   H07 9326   4.194   8.832   2.303  1.0563 -0.5299  0.4429
   82GLOH    O3 9327   4.043   8.733   2.394 -0.0874  0.0363  0.0666
   82GLOH   H01 9328   4.050   8.772   2.483  1.0253 -1.5941  0.7332
   83GLOH   H03 9329   3.211  10.028   0.500  0.2211  2.4262 -1.7082
   83GLOH    O1 9330   3.122  10.054   0.530  0.1837 -0.0834  0.5119
   83GLOH    C1 9331   3.107  10.017   0.667 -0.8551 -0.2090  0.4725
   83GLOH   H02 9332   3.008  10.048   0.700 -0.2458  2.5489 -0.1978
   83GLOH   H08 9333   3.170  10.073   0.736  0.5788  1.5820 -2.1913
   83GLOH    C2 9334   3.128   9.867   0.691  0.2703 -0.4860  0.4147
   83GLOH   H04 9335   3.231   9.843   0.661 -0.7150 -3.4068 -0.7871
   83GLOH    O2 9336   3.114   9.851   0.833 -0.0921 -0.5205  0.2229
   83GLOH   H05 9337   3.150   9.926   0.883  2.1103  0.3322 -2.5614
   83GLOH    C3 9338   3.035   9.777   0.600 -0.9114 -0.5695 -0.1987
   83GLOH   H06 9339   3.052   9.802   0.495 -0.2796 -1.1328 -0.2343
   83GLOH   H07 9340   2.933   9.810   0.619 -0.9382  1.0000 -2.8729
   83GLOH    O3 9341   3.048   9.641   0.633  0.4453  0.5313 -0.0356
   83GLOH   H01 9342   3.004   9.630   0.719  1.6162 -0.0280  0.5060
   84GLOH   H03 9343   4.234   1.895   1.370  3.3314 -1.7972 -1.9267
   84GLOH    O1 9344   4.285   1.911   1.451  0.2017  0.4961 -0.2836
   84GLOH    C1 9345   4.222   1.843   1.559 -0.5222 -0.1928  0.3633
   84GLOH   H02 9346   4.294   1.764   1.581  0.0955  0.6043  1.2175
   84GLOH   H08 9347   4.120   1.815   1.534  0.2854 -4.6134  1.5968
   84GLOH    C2 9348   4.208   1.925   1.687  0.0511  0.1156  0.3781
   84GLOH   H04 9349   4.130   1.999   1.662  1.7017  0.9183 -2.6795
   84GLOH    O2 9350   4.164   1.842   1.786  0.0407  0.0087  0.3272
   84GLOH   H05 9351   4.234   1.774   1.787 -0.1535 -0.2091 -0.5644
   84GLOH    C3 9352   4.328   2.006   1.723  0.4109  0.6844 -0.3711
   84GLOH   H06 9353   4.358   2.057   1.631 -1.5573 -0.0116 -1.4270
   84GLOH   H07 9354   4.407   1.933   1.739  1.4797  2.1079  0.9225
   84GLOH    O3 9355   4.320   2.081   1.843 -0.0077 -0.3545  0.0350
   84GLOH   H01 9356   4.235   2.130   1.843  1.1332  1.6578  0.5330
   85GLOH   H03 9357   4.435   1.493   0.223 -0.2117  0.4603  0.2322
   85GLOH    O1 9358   4.374   1.487   0.299  0.2975  0.8647  0.6822
   85GLOH    C1 9359   4.396   1.605   0.379 -0.1798  0.3815  0.6990
   85GLOH   H02 9360   4.314   1.645   0.438 -0.6414  0.7145 -0.1770
   85GLOH   H08 9361   4.435   1.684   0.315 -0.4519 -0.0592 -0.0177
   85GLOH    C2 9362   4.522   1.574   0.473  0.4321 -1.3950  0.1593
   85GLOH   H04 9363   4.611   1.566   0.408 -0.2127  0.8719 -1.0875
   85GLOH    O2 9364   4.554   1.690   0.553  0.1654  0.1326  0.1498
   85GLOH   H05 9365   4.608   1.656   0.626  1.0049 -0.3495 -0.6773
   85GLOH    C3 9366   4.490   1.447   0.554  0.4772  0.1962 -0.1166
   85GLOH   H06 9367   4.422   1.477   0.634 -0.0686 -0.5951 -0.2782
   85GLOH   H07 9368   4.585   1.423   0.603  0.8955 -0.1513 -1.0790
   85GLOH    O3 9369   4.449   1.336   0.476 -0.0415 -0.2438  0.2787
   85GLOH   H01 9370   4.411   1.377   0.396 -1.1431 -1.8502 -0.0401
   86GLOH   H03 9371   2.811   6.362   1.285 -2.4074  0.0444 -0.9548
   86GLOH    O1 9372   2.831   6.267   1.279 -0.0790  0.4583 -0.3289
   86GLOH    C1 9373   2.947   6.240   1.203  0.0136 -0.3675  0.0313
   86GLOH   H02 9374   2.962   6.135   1.179 -0.9599 -0.9820  2.0336
   86GLOH   H08 9375   3.030   6.289   1.254 -0.7897  1.3532 -0.2764
   86GLOH    C2 9376   2.941   6.310   1.064 -0.5199  0.7125 -0.5887
   86GLOH   H04 9377   2.958   6.417   1.084  1.5400  0.2304  0.4128
   86GLOH    O2 9378   3.053   6.269   0.982  0.3343  0.1765 -0.6928
   86GLOH   H05 9379   3.092   6.339   0.926 -0.5063  1.1862 -0.0563
   86GLOH    C3 9380   2.796   6.295   1.004  0.2208  0.1753  0.5417
   86GLOH   H06 9381   2.720   6.329   1.074 -0.1413 -0.3152  0.3905
   86GLOH   H07 9382   2.771   6.189   1.000  1.9368 -0.4348  4.4477
   86GLOH    O3 9383   2.774   6.359   0.875 -0.2216 -0.1092 -0.0655
   86GLOH   H01 9384   2.812   6.449   0.884  1.5159 -0.8520  0.3719
   87GLOH   H03 9385   5.073   3.842   2.305 -1.6614  1.1299  0.2826
   87GLOH    O1 9386   5.124   3.918   2.339  0.5163 -0.1860  0.0894
   87GLOH    C1 9387   5.085   4.037   2.262  0.1577 -0.2425  0.5194
   87GLOH   H02 9388   4.979   4.042   2.235  0.3915 -0.7768 -0.5244
   87GLOH   H08 9389   5.143   4.050   2.170 -1.1741  0.5503 -0.2256
   87GLOH    C2 9390   5.118   4.164   2.337  0.5052 -0.7344 -0.6059
   87GLOH   H04 9391   5.126   4.235   2.254  0.8684 -0.6293 -0.4854
   87GLOH    O2 9392   5.012   4.207   2.425  0.5173 -0.1337 -0.1403
   87GLOH   H05 9393   4.984   4.125   2.469  0.7053 -1.2735 -2.0885
   87GLOH    C3 9394   5.258   4.163   2.403 -0.2665  0.1998  0.1432
   87GLOH   H06 9395   5.254   4.254   2.462  0.2064 -0.6231  1.4493
   87GLOH   H07 9396   5.329   4.172   2.320 -0.3897 -3.8219 -0.4826
   87GLOH    O3 9397   5.280   4.047   2.484 -0.1037 -1.0423  0.2145
   87GLOH   H01 9398   5.218   3.981   2.447  0.2093 -0.4520 -1.3949
   88GLOH   H03 9399   5.854   3.514   0.943 -4.1890  1.1774  1.1144
   88GLOH    O1 9400   5.824   3.466   0.863  0.4103  0.1265 -0.1699
   88GLOH    C1 9401   5.809   3.326   0.901 -0.6607 -0.0406 -0.1217
   88GLOH   H02 9402   5.899   3.283   0.947 -1.0574  0.5250  1.2042
   88GLOH   H08 9403   5.802   3.265   0.811  1.6121  0.4228 -0.6585
   88GLOH    C2 9404   5.686   3.295   0.985 -0.0971 -0.3756 -0.5044
   88GLOH   H04 9405   5.591   3.318   0.934 -0.3026  1.9854  0.8751
   88GLOH    O2 9406   5.674   3.157   1.023  0.7112 -0.1365 -0.2579
   88GLOH   H05 9407   5.591   3.143   1.073 -0.7765  1.5234 -2.1656
   88GLOH    C3 9408   5.680   3.386   1.107 -0.4692 -0.7522  0.1621
   88GLOH   H06 9409   5.773   3.381   1.163  1.3287  0.7980 -2.5826
   88GLOH   H07 9410   5.609   3.346   1.180  0.1800 -2.3485 -0.0596
   88GLOH    O3 9411   5.644   3.522   1.075 -0.1012 -0.2708 -0.4115
   88GLOH   H01 9412   5.568   3.519   1.014  0.0551 -0.7899 -0.5782
   89GLOH   H03 9413   2.849   6.407   1.733  1.2649 -0.9393 -1.7050
   89GLOH    O1 9414   2.829   6.482   1.674 -0.0309  0.1423  0.0761
   89GLOH    C1 9415   2.942   6.557   1.678 -0.0896 -0.0589  0.2168
   89GLOH   H02 9416   3.012   6.485   1.720 -0.2722 -0.5971 -0.3827
   89GLOH   H08 9417   2.921   6.638   1.748 -1.3379  2.1121 -2.5592
   89GLOH    C2 9418   2.988   6.606   1.538  0.1842  0.0688 -0.7337
   89GLOH   H04 9419   2.904   6.653   1.485 -0.5642  0.4623  0.7689
   89GLOH    O2 9420   3.083   6.708   1.553  0.3335  0.3011  0.0207
   89GLOH   H05 9421   3.163   6.676   1.599 -1.0255 -1.4712  1.2142
   89GLOH    C3 9422   3.040   6.491   1.452 -0.1646  0.4316  0.3147
   89GLOH   H06 9423   3.045   6.531   1.351  0.2203 -0.1808  0.0906
   89GLOH   H07 9424   2.966   6.412   1.439 -2.0077  1.8188  2.0056
   89GLOH    O3 9425   3.160   6.426   1.505 -0.9717  0.1068  0.5698
   89GLOH   H01 9426   3.231   6.466   1.452 -0.7215 -0.9033  0.1423
   90GLOH   H03 9427   2.911   8.626   1.589  0.0946 -0.4442  0.5254
   90GLOH    O1 9428   2.957   8.651   1.507 -0.8484  0.2637  0.1887
   90GLOH    C1 9429   2.889   8.605   1.395 -0.1429  0.2991 -0.3526
   90GLOH   H02 9430   2.932   8.647   1.303 -0.0013  0.7981 -0.0629
   90GLOH   H08 9431   2.784   8.635   1.401  0.2298  1.3454  1.3444
   90GLOH    C2 9432   2.893   8.455   1.378 -0.0635 -0.0104  0.4851
   90GLOH   H04 9433   2.870   8.408   1.475  0.1732 -0.5993  0.2547
   90GLOH    O2 9434   2.789   8.406   1.297 -0.8571  0.2592  0.1784
   90GLOH   H05 9435   2.729   8.362   1.360 -0.5452  1.3944  1.2881
   90GLOH    C3 9436   3.027   8.397   1.337 -0.2884  0.1028 -0.1484
   90GLOH   H06 9437   3.068   8.450   1.251  0.9212  0.4611  0.6401
   90GLOH   H07 9438   3.008   8.294   1.310  0.0594 -0.1183  0.4303
   90GLOH    O3 9439   3.116   8.404   1.448  0.1977 -0.2460  0.3500
   90GLOH   H01 9440   3.100   8.328   1.508 -0.6205 -0.8324 -0.6024
   91GLOH   H03 9441   3.864   8.234   0.504  0.2226  0.9411  0.6998
   91GLOH    O1 9442   3.785   8.220   0.448  0.8044  0.4739 -0.0099
   91GLOH    C1 9443   3.788   8.107   0.357  0.0249  0.1919 -0.7468
   91GLOH   H02 9444   3.723   8.027   0.394 -0.5388  1.0276  0.1242
   91GLOH   H08 9445   3.880   8.049   0.359 -1.0355 -1.4919  1.2866
   91GLOH    C2 9446   3.744   8.134   0.212 -0.1285 -0.0314 -0.5652
   91GLOH   H04 9447   3.760   8.041   0.156  1.6185 -0.2705  0.3040
   91GLOH    O2 9448   3.607   8.189   0.204  0.1914  0.2428 -0.0579
   91GLOH   H05 9449   3.587   8.239   0.285  0.6925  1.2232 -0.5307
   91GLOH    C3 9450   3.851   8.236   0.157  0.2364 -0.4140  0.5408
   91GLOH   H06 9451   3.817   8.270   0.059  0.1937  0.3447  0.8118
   91GLOH   H07 9452   3.940   8.175   0.141  0.9493  0.4259  1.2436
   91GLOH    O3 9453   3.881   8.357   0.237 -0.2722 -0.1116 -0.2851
   91GLOH   H01 9454   3.797   8.390   0.275  0.4963 -0.9965  2.2606
   92GLOH   H03 9455   2.168   7.001   1.054 -0.3046 -0.8603  0.8072
   92GLOH    O1 9456   2.250   6.983   1.105  0.2558 -0.2039  0.1438
   92GLOH    C1 9457   2.229   6.997   1.245 -0.1615 -0.3942 -0.5347
   92GLOH   H02 9458   2.324   7.007   1.298 -1.3537 -2.3569  2.1288
   92GLOH   H08 9459   2.176   6.911   1.286 -0.1203 -0.1219  0.1059
   92GLOH    C2 9460   2.153   7.124   1.277 -0.6496  0.1671 -0.7733
   92GLOH   H04 9461   2.225   7.197   1.238  1.2751 -2.3812 -2.1543
   92GLOH    O2 9462   2.019   7.124   1.229  0.0972 -0.8068 -0.0063
   92GLOH   H05 9463   2.020   7.111   1.133  1.1147 -1.2006  0.0479
   92GLOH    C3 9464   2.143   7.154   1.429  0.0976 -0.3541  1.2963
   92GLOH   H06 9465   2.123   7.060   1.482 -0.2851 -0.0830  1.6366
   92GLOH   H07 9466   2.060   7.222   1.446 -0.1281 -0.4424  0.5630
   92GLOH    O3 9467   2.265   7.219   1.475 -0.1471  0.4164 -0.5839
   92GLOH   H01 9468   2.301   7.173   1.554 -1.9757 -3.3196 -1.7878
   93GLOH   H03 9469   3.080   5.225   0.558 -0.1620 -1.4597  1.1302
   93GLOH    O1 9470   3.140   5.271   0.620 -0.5874  0.1196  0.4022
   93GLOH    C1 9471   3.224   5.353   0.537  0.3428  0.1024  0.3329
   93GLOH   H02 9472   3.190   5.455   0.554 -0.9521 -0.1114 -0.8579
   93GLOH   H08 9473   3.207   5.325   0.433  2.3316 -0.9974  0.2692
   93GLOH    C2 9474   3.376   5.354   0.570  0.3036  0.7073 -0.4100
   93GLOH   H04 9475   3.423   5.254   0.566 -0.2710  0.4822 -1.5894
   93GLOH    O2 9476   3.451   5.441   0.481 -0.7578  0.1031 -0.0411
   93GLOH   H05 9477   3.399   5.515   0.447 -0.1749  0.0705 -1.0464
   93GLOH    C3 9478   3.391   5.403   0.715  0.5226 -0.4374 -0.2326
   93GLOH   H06 9479   3.329   5.492   0.716  0.8552 -0.1906 -1.0935
   93GLOH   H07 9480   3.490   5.439   0.741  0.9203 -1.5633 -0.1277
   93GLOH    O3 9481   3.347   5.310   0.816 -0.3849 -0.3494 -0.0370
   93GLOH   H01 9482   3.350   5.350   0.904 -0.3506  0.0180 -0.2055
   94GLOH   H03 9483   3.280   7.351   0.940  1.7618 -0.9401 -0.3338
   94GLOH    O1 9484   3.320   7.425   0.990  0.1652 -0.4647  0.2812
   94GLOH    C1 9485   3.412   7.505   0.917  0.2610  0.4020 -0.3780
   94GLOH   H02 9486   3.503   7.454   0.885  1.5462  1.2231  1.8492
   94GLOH   H08 9487   3.440   7.592   0.977  0.7481 -0.9483  1.4091
   94GLOH    C2 9488   3.336   7.552   0.791  0.3851 -0.3111  0.8001
   94GLOH   H04 9489   3.280   7.463   0.759 -1.0464  0.6563  0.5301
   94GLOH    O2 9490   3.241   7.664   0.821 -0.3930  0.0911  0.0638
   94GLOH   H05 9491   3.289   7.748   0.825  1.1869 -0.8499  2.0017
   94GLOH    C3 9492   3.418   7.599   0.676 -0.1618  0.8715 -0.1668
   94GLOH   H06 9493   3.493   7.523   0.654 -0.0510  0.7022  0.7429
   94GLOH   H07 9494   3.484   7.679   0.710  0.3498 -0.1515  1.2903
   94GLOH    O3 9495   3.346   7.647   0.560 -0.5697 -0.1160 -0.0077
   94GLOH   H01 9496   3.325   7.581   0.492 -0.7568  1.5451 -1.5944
   95GLOH   H03 9497   3.233   4.732   0.563 -1.3177  0.7375 -0.0828
   95GLOH    O1 9498   3.196   4.642   0.561  0.2367  0.0797  0.2129
   95GLOH    C1 9499   3.061   4.664   0.608  0.6875 -0.4969 -0.0781
   95GLOH   H02 9500   3.012   4.736   0.543  0.6875 -0.1868  0.2620
   95GLOH   H08 9501   3.057   4.712   0.706  1.9420 -1.5545  0.4999
   95GLOH    C2 9502   2.979   4.540   0.620  0.5869  0.3951  0.2040
   95GLOH   H04 9503   3.045   4.470   0.672 -1.3144 -0.1812  1.8959
   95GLOH    O2 9504   2.860   4.571   0.697 -0.1732 -0.2619  0.0136
   95GLOH   H05 9505   2.791   4.563   0.629  0.3221 -1.1253 -0.3842
   95GLOH    C3 9506   2.946   4.492   0.482  0.7592  0.4308 -0.0206
   95GLOH   H06 9507   2.924   4.387   0.502 -0.5204  0.8070  0.5791
   95GLOH   H07 9508   3.038   4.499   0.423  1.3940  0.9200  1.0144
   95GLOH    O3 9509   2.847   4.567   0.413 -0.7022  0.2793 -0.0608
   95GLOH   H01 9510   2.878   4.646   0.365 -0.4725 -1.5546 -3.1111
   96GLOH   H03 9511   2.751   5.402   0.245  1.0207  0.5888 -0.6303
   96GLOH    O1 9512   2.713   5.364   0.163 -0.5916  0.7370  0.0360
   96GLOH    C1 9513   2.576   5.339   0.191 -0.0810  0.6338  0.6714
   96GLOH   H02 9514   2.512   5.407   0.134  0.7798 -0.3199 -1.4880
   96GLOH   H08 9515   2.555   5.349   0.298  0.6461  0.2567  0.8540
   96GLOH    C2 9516   2.549   5.191   0.146 -0.1917  0.1980  0.3602
   96GLOH   H04 9517   2.598   5.119   0.213  1.3915 -1.4597 -2.5236
   96GLOH    O2 9518   2.409   5.160   0.166 -0.8983  0.7191 -0.4344
   96GLOH   H05 9519   2.394   5.133   0.258  1.8623 -0.7508 -0.3673
   96GLOH    C3 9520   2.595   5.162   0.001 -0.5628  1.2442 -0.4660
   96GLOH   H06 9521   2.582   5.247  -0.066  3.9691  2.4705  0.0442
   96GLOH   H07 9522   2.524   5.086  -0.033  1.0006 -0.8028  0.7245
   96GLOH    O3 9523   2.725   5.114  -0.001 -0.5815  0.2198 -0.3329
   96GLOH   H01 9524   2.750   5.077  -0.087 -0.4323 -0.8404  0.1532
   97GLOH   H03 9525   3.522   2.068   2.213  1.3648 -1.0414 -1.4443
   97GLOH    O1 9526   3.458   2.127   2.169  0.6610 -0.7370 -0.0400
   97GLOH    C1 9527   3.333   2.054   2.168  0.1435  0.6271  0.3432
   97GLOH   H02 9528   3.274   2.068   2.259 -0.2802 -1.9866  0.5086
   97GLOH   H08 9529   3.357   1.948   2.160 -0.4307  0.3508  2.0226
   97GLOH    C2 9530   3.260   2.082   2.032 -0.0485 -0.2738  0.1528
   97GLOH   H04 9531   3.316   2.042   1.946 -0.0205  1.6643 -0.7752
   97GLOH    O2 9532   3.134   2.010   2.042  0.4515 -0.2956 -0.0930
   97GLOH   H05 9533   3.077   2.044   2.112  0.3521 -0.4990 -0.0741
   97GLOH    C3 9534   3.217   2.233   2.008 -0.5706  0.2595  0.1303
   97GLOH   H06 9535   3.302   2.297   2.035  0.6829 -1.0990 -0.5258
   97GLOH   H07 9536   3.133   2.258   2.073 -1.2659 -0.0063 -0.6564
   97GLOH    O3 9537   3.189   2.262   1.871 -0.1037 -0.4705  0.9612
   97GLOH   H01 9538   3.114   2.325   1.872  0.0438 -0.2479 -0.4991
   98GLOH   H03 9539   2.910   0.875   0.777 -2.6721  1.0235  2.5813
   98GLOH    O1 9540   2.861   0.796   0.748  0.2082  0.0907 -0.1094
   98GLOH    C1 9541   2.907   0.751   0.618 -0.0698  0.0583  0.4336
   98GLOH   H02 9542   2.996   0.807   0.588  1.6488 -2.3686  0.8559
   98GLOH   H08 9543   2.837   0.782   0.540  0.0266 -1.4606 -0.2809
   98GLOH    C2 9544   2.923   0.598   0.608 -0.3755  0.6286  0.1889
   98GLOH   H04 9545   2.834   0.544   0.644 -1.7710  1.3132 -2.1868
   98GLOH    O2 9546   2.971   0.572   0.478 -0.0983  0.5174 -0.2955
   98GLOH   H05 9547   3.002   0.480   0.484 -0.6449  0.5074  3.5075
   98GLOH    C3 9548   3.025   0.548   0.714 -0.0910 -0.2283  0.0496
   98GLOH   H06 9549   2.993   0.582   0.813 -2.5318 -0.5369 -0.6081
   98GLOH   H07 9550   3.123   0.588   0.689 -0.4141 -0.3222 -1.4114
   98GLOH    O3 9551   3.041   0.406   0.721 -0.4444 -0.1376 -0.1376
   98GLOH   H01 9552   3.072   0.379   0.632 -0.3976  0.7375 -0.3927
   99GLOH   H03 9553   3.992   0.884   1.232  0.5867 -0.2683 -1.3721
   99GLOH    O1 9554   3.939   0.948   1.181 -0.0350 -0.0794 -0.4979
   99GLOH    C1 9555   3.801   0.916   1.204 -0.0649  0.2288 -0.2119
   99GLOH   H02 9556   3.735   0.984   1.150 -1.0983 -1.4474 -1.1110
   99GLOH   H08 9557   3.769   0.929   1.307  2.4077  1.3011  0.4537
   99GLOH    C2 9558   3.765   0.774   1.155 -0.2244  0.4485 -0.0090
   99GLOH   H04 9559   3.818   0.705   1.222  0.9751 -0.0888 -1.5031
   99GLOH    O2 9560   3.623   0.740   1.166 -0.2262  0.6370 -0.2676
   99GLOH   H05 9561   3.615   0.653   1.124 -3.7272 -0.2610  2.0098
   99GLOH    C3 9562   3.817   0.757   1.008  0.0780  0.0290  0.1245
   99GLOH   H06 9563   3.805   0.651   0.990  1.2646  0.2242 -2.0191
   99GLOH   H07 9564   3.923   0.775   0.993 -0.1932  0.0187 -1.9955
   99GLOH    O3 9565   3.751   0.832   0.912 -0.3366 -0.0339 -0.6917
   99GLOH   H01 9566   3.667   0.786   0.895 -1.1184  0.1118  2.4069
  100GLOH   H03 9567   3.120   7.015   1.751  0.4704 -0.7399 -1.0396
  100GLOH    O1 9568   3.133   7.102   1.710 -0.1279 -0.0453  0.2181
  100GLOH    C1 9569   3.161   7.078   1.567 -0.6381  0.0909 -0.7973
  100GLOH   H02 9570   3.243   7.008   1.557 -0.1027  0.3081  1.6669
  100GLOH   H08 9571   3.186   7.175   1.525  0.8758  0.2651  0.4511
  100GLOH    C2 9572   3.036   7.028   1.497 -1.1019 -0.1191  0.3248
  100GLOH   H04 9573   3.006   6.936   1.550  1.6191 -2.1200 -1.4766
  100GLOH    O2 9574   2.923   7.114   1.500  0.3042 -0.0886  0.5813
  100GLOH   H05 9575   2.945   7.199   1.459 -2.9862 -0.3700 -2.0762
  100GLOH    C3 9576   3.079   6.996   1.356  0.4851  0.9256 -0.1153
  100GLOH   H06 9577   3.135   7.075   1.307  0.7461  1.0677  0.4060
  100GLOH   H07 9578   2.986   6.993   1.298  0.0877 -1.0182  0.5594
  100GLOH    O3 9579   3.145   6.871   1.347 -0.0102  0.0128 -0.1636
  100GLOH   H01 9580   3.125   6.809   1.420  1.0084 -0.0643  0.0616
  101GLOH   H03 9581   2.876   4.808   1.897  0.1393  1.1250  0.5181
  101GLOH    O1 9582   2.863   4.855   1.982  0.5368  0.0177  1.2134
  101GLOH    C1 9583   2.852   4.995   1.948  0.3170  0.0111  0.6435
  101GLOH   H02 9584   2.774   5.018   1.876  1.9676  0.6924 -0.9638
  101GLOH   H08 9585   2.945   5.024   1.900 -1.1041  1.1772 -1.4723
  101GLOH    C2 9586   2.826   5.097   2.060 -0.3084  0.8164  0.1027
  101GLOH   H04 9587   2.786   5.188   2.013  0.7006 -0.0109 -2.4571
  101GLOH    O2 9588   2.736   5.048   2.160  0.8158 -0.4419 -0.3091
  101GLOH   H05 9589   2.648   5.042   2.120  0.4725 -0.4565  0.4338
  101GLOH    C3 9590   2.959   5.139   2.119 -0.1881 -0.8613  0.8431
  101GLOH   H06 9591   3.017   5.047   2.129  1.2423 -0.0772 -0.0733
  101GLOH   H07 9592   2.935   5.185   2.214 -2.4859 -0.6405  0.1901
  101GLOH    O3 9593   3.018   5.231   2.031  0.4801 -0.1600  0.4287
  101GLOH   H01 9594   3.113   5.210   2.027  0.4323 -0.1359 -1.0769
  102GLOH   H03 9595   3.338   5.767   2.042  0.2861 -1.7703 -2.6321
  102GLOH    O1 9596   3.302   5.843   1.993  0.3109 -0.0206 -0.0495
  102GLOH    C1 9597   3.302   5.964   2.069  0.4491 -0.2653 -0.2699
  102GLOH   H02 9598   3.395   5.990   2.119 -0.3710  0.1533  1.0892
  102GLOH   H08 9599   3.230   5.948   2.149 -1.3622 -1.0229 -2.0254
  102GLOH    C2 9600   3.235   6.080   1.994  1.2527 -0.7080  0.2129
  102GLOH   H04 9601   3.149   6.038   1.939 -0.1561  1.1884  0.8700
  102GLOH    O2 9602   3.208   6.180   2.094  0.2004 -0.0593  0.2431
  102GLOH   H05 9603   3.149   6.248   2.058  0.0342 -0.1874  0.2762
  102GLOH    C3 9604   3.331   6.151   1.891 -1.1259 -0.2486 -0.6994
  102GLOH   H06 9605   3.364   6.073   1.823  0.6626  0.3787 -0.5766
  102GLOH   H07 9606   3.412   6.192   1.952 -1.6757 -0.9501  0.5330
  102GLOH    O3 9607   3.271   6.259   1.819  0.1529 -0.3639  0.0280
  102GLOH   H01 9608   3.235   6.214   1.740 -0.8186 -1.1621  0.9154
  103GLOH   H03 9609   3.017   0.311  -0.079 -0.1168 -0.2223  0.9550
  103GLOH    O1 9610   2.925   0.341  -0.063 -0.4187 -0.4631 -0.2561
  103GLOH    C1 9611   2.888   0.273   0.063 -0.1526  0.5981 -0.0563
  103GLOH   H02 9612   2.965   0.272   0.141 -1.2880 -2.1812  1.1069
  103GLOH   H08 9613   2.871   0.167   0.041 -0.9837  0.7345 -0.0880
  103GLOH    C2 9614   2.765   0.336   0.124 -0.1768  0.1949 -0.1998
  103GLOH   H04 9615   2.686   0.324   0.048 -1.3392  1.6684  0.7420
  103GLOH    O2 9616   2.746   0.260   0.250  0.1664  0.4259 -0.1127
  103GLOH   H05 9617   2.697   0.310   0.317 -2.2852 -0.6327 -1.0696
  103GLOH    C3 9618   2.787   0.483   0.147  0.4404 -0.2949 -1.0633
  103GLOH   H06 9619   2.852   0.494   0.234 -2.4859  0.3073  1.1591
  103GLOH   H07 9620   2.692   0.531   0.172  0.4554  0.6365 -2.7121
  103GLOH    O3 9621   2.846   0.545   0.034  0.0445 -0.0351 -0.2238
  103GLOH   H01 9622   2.870   0.472  -0.026  0.3202 -1.9234  2.0924
  104GLOH   H03 9623   4.332   2.839   2.233  1.5883 -1.0734  0.6834
  104GLOH    O1 9624   4.364   2.797   2.151 -0.1292  0.3745 -0.7561
  104GLOH    C1 9625   4.503   2.783   2.149  0.4222 -0.0153 -0.0811
  104GLOH   H02 9626   4.526   2.680   2.177 -2.5423 -0.3503  1.2314
  104GLOH   H08 9627   4.547   2.847   2.225 -0.1317  1.1194 -0.7043
  104GLOH    C2 9628   4.560   2.821   2.013  0.1059 -0.1075 -0.0181
  104GLOH   H04 9629   4.510   2.760   1.936 -4.3750 -0.5961  3.0662
  104GLOH    O2 9630   4.545   2.958   1.987  0.2808  0.1745 -0.0738
  104GLOH   H05 9631   4.468   2.955   1.927  0.2475  1.0312 -0.0804
  104GLOH    C3 9632   4.713   2.791   2.009  0.0265 -0.0826  0.2358
  104GLOH   H06 9633   4.751   2.852   2.091 -1.5226  1.2039  0.0151
  104GLOH   H07 9634   4.752   2.824   1.913 -1.0466 -0.2689 -0.2706
  104GLOH    O3 9635   4.730   2.654   2.028 -0.2699  0.7933  0.4002
  104GLOH   H01 9636   4.744   2.643   2.124 -0.2234  1.6954  0.4971
  105GLOH   H03 9637   3.541   4.184   0.804  0.9176  0.3769  1.7242
  105GLOH    O1 9638   3.590   4.267   0.793  0.2724  0.6635  0.8757
  105GLOH    C1 9639   3.584   4.341   0.913 -0.1466 -0.0368 -0.1173
  105GLOH   H02 9640   3.481   4.337   0.947 -0.1955  0.4389 -0.2018
  105GLOH   H08 9641   3.603   4.446   0.891 -0.9742 -0.2175 -1.7406
  105GLOH    C2 9642   3.683   4.287   1.018  0.2681  0.7771 -0.0989
  105GLOH   H04 9643   3.680   4.346   1.110 -0.0675 -2.2914  1.9238
  105GLOH    O2 9644   3.645   4.159   1.063  0.5930 -0.0431  0.0552
  105GLOH   H05 9645   3.568   4.172   1.121 -0.6180  2.2048 -2.0158
  105GLOH    C3 9646   3.828   4.282   0.968  0.4979  0.5191 -0.2785
  105GLOH   H06 9647   3.834   4.211   0.885  1.0308  1.4865 -1.0701
  105GLOH   H07 9648   3.891   4.239   1.046 -0.3769 -1.6331 -0.7102
  105GLOH    O3 9649   3.872   4.417   0.931 -0.3235  0.1023  0.1849
  105GLOH   H01 9650   3.881   4.456   1.020  0.2609 -4.3251  2.2100
  106GLOH   H03 9651   4.259   9.441   1.766  2.0966  0.2440 -0.6827
  106GLOH    O1 9652   4.302   9.483   1.843  0.2852  0.5401  0.2039
  106GLOH    C1 9653   4.291   9.622   1.816 -0.1101 -0.0262 -0.0895
  106GLOH   H02 9654   4.253   9.639   1.715  0.5452  0.0017 -0.3345
  106GLOH   H08 9655   4.390   9.668   1.819 -0.7501  1.4150 -0.7008
  106GLOH    C2 9656   4.194   9.688   1.911 -0.8923  0.5627 -0.0530
  106GLOH   H04 9657   4.219   9.660   2.015 -1.9300 -2.3965 -0.5465
  106GLOH    O2 9658   4.199   9.827   1.887 -0.6482 -0.8008  0.5642
  106GLOH   H05 9659   4.132   9.866   1.945 -0.3890  2.1591 -1.0073
  106GLOH    C3 9660   4.046   9.651   1.901  0.2290  0.0492  0.1214
  106GLOH   H06 9661   4.043   9.542   1.905 -2.6564  0.1376  2.5836
  106GLOH   H07 9662   4.009   9.676   1.802  0.3458  0.6915  0.2376
  106GLOH    O3 9663   3.964   9.713   2.004 -0.0725 -0.2073 -0.1117
  106GLOH   H01 9664   3.983   9.678   2.093 -1.7957  2.5788  1.4356
  107GLOH   H03 9665   1.994   4.903   1.440  0.4431  0.3225  0.2537
  107GLOH    O1 9666   2.053   4.966   1.393  0.6581  0.1983  0.3537
  107GLOH    C1 9667   2.054   5.091   1.465  0.1584  0.3997 -0.1892
  107GLOH   H02 9668   2.091   5.077   1.566  1.3198  1.1896 -0.4952
  107GLOH   H08 9669   1.954   5.133   1.477 -1.0261 -2.6033  0.8087
  107GLOH    C2 9670   2.149   5.197   1.399  0.4631 -0.1376 -0.0992
  107GLOH   H04 9671   2.124   5.215   1.293 -1.0003 -1.9903 -0.0922
  107GLOH    O2 9672   2.143   5.318   1.478  0.3745 -0.1176 -0.0102
  107GLOH   H05 9673   2.193   5.326   1.560  0.1035 -1.0271  0.2487
  107GLOH    C3 9674   2.292   5.145   1.392  0.3359 -0.4526  0.0303
  107GLOH   H06 9675   2.337   5.155   1.491 -0.3765 -0.1503  0.3333
  107GLOH   H07 9676   2.347   5.217   1.331 -1.6746  1.5039  0.4472
  107GLOH    O3 9677   2.300   5.008   1.350  0.1997  0.0877  0.4001
  107GLOH   H01 9678   2.209   4.980   1.371  0.8648 -1.2103  1.6801
  108GLOH   H03 9679   3.389   5.540   1.342  0.7020  1.3651  0.0915
  108GLOH    O1 9680   3.463   5.525   1.404  0.2966 -0.0725  0.2527
  108GLOH    C1 9681   3.407   5.465   1.524 -0.9735 -0.5661 -0.4381
  108GLOH   H02 9682   3.329   5.532   1.559  1.8388  1.5742  2.0680
  108GLOH   H08 9683   3.479   5.467   1.606 -1.4454  1.1245 -0.0537
  108GLOH    C2 9684   3.364   5.320   1.491 -0.5478 -0.0806 -0.5969
  108GLOH   H04 9685   3.434   5.267   1.425  0.9993  0.3032  0.7036
  108GLOH    O2 9686   3.345   5.256   1.612  0.0025  0.8518 -0.2135
  108GLOH   H05 9687   3.405   5.179   1.612  0.4983  1.2276 -1.1754
  108GLOH    C3 9688   3.221   5.318   1.429  0.5726 -0.0191  0.3199
  108GLOH   H06 9689   3.166   5.376   1.503 -1.4225  0.2245 -1.3017
  108GLOH   H07 9690   3.203   5.211   1.432 -0.7956  0.2157  0.7804
  108GLOH    O3 9691   3.215   5.370   1.296  0.2598 -0.3758 -0.2272
  108GLOH   H01 9692   3.186   5.463   1.293 -0.9427 -0.7062  0.8466
  109GLOH   H03 9693   4.397   3.293   0.161  1.5152  1.0723  0.8147
  109GLOH    O1 9694   4.381   3.211   0.212  0.4359  0.6566 -0.1592
  109GLOH    C1 9695   4.299   3.250   0.326 -0.8418  0.0622 -0.1851
  109GLOH   H02 9696   4.219   3.313   0.287 -0.2576  0.8434 -0.1485
  109GLOH   H08 9697   4.351   3.309   0.401  3.5982 -0.9449 -2.2943
  109GLOH    C2 9698   4.239   3.129   0.395 -0.0584 -0.0604  0.6472
  109GLOH   H04 9699   4.319   3.059   0.423  1.2367  0.5858 -1.2727
  109GLOH    O2 9700   4.170   3.172   0.510 -0.0489  0.2601 -0.2841
  109GLOH   H05 9701   4.207   3.130   0.589 -1.4349 -0.5459 -0.0342
  109GLOH    C3 9702   4.142   3.052   0.303  0.3906 -0.0080 -0.3093
  109GLOH   H06 9703   4.069   3.125   0.266  0.4961  0.2488 -0.0124
  109GLOH   H07 9704   4.097   2.971   0.361  2.0946  0.1948  1.3182
  109GLOH    O3 9705   4.214   2.990   0.202 -0.1817  0.2830 -0.4402
  109GLOH   H01 9706   4.282   3.058   0.188 -1.0480  1.6294  1.7225
  110GLOH   H03 9707   4.190   0.830   2.653 -1.1745 -1.7616 -0.9672
  110GLOH    O1 9708   4.218   0.849   2.562  0.2524  0.1691 -0.1541
  110GLOH    C1 9709   4.253   0.989   2.561  0.0817  0.2742  0.6243
  110GLOH   H02 9710   4.354   0.995   2.602  0.2372 -1.6080  0.6049
  110GLOH   H08 9711   4.175   1.047   2.610 -0.2782  0.6805 -0.4162
  110GLOH    C2 9712   4.269   1.049   2.418 -0.5342 -0.2551 -0.0769
  110GLOH   H04 9713   4.171   1.071   2.372 -1.0729 -0.7556  0.8354
  110GLOH    O2 9714   4.345   1.168   2.424  0.7568  0.4555  0.0301
  110GLOH   H05 9715   4.320   1.219   2.345 -2.2347 -1.9321 -0.6373
  110GLOH    C3 9716   4.334   0.948   2.322 -0.5550 -0.6799 -0.5359
  110GLOH   H06 9717   4.425   0.915   2.372  0.3575  0.9688 -1.0899
  110GLOH   H07 9718   4.354   1.002   2.230  1.8639 -1.4491 -0.5020
  110GLOH    O3 9719   4.262   0.826   2.309  0.3626 -0.4072 -0.3377
  110GLOH   H01 9720   4.227   0.808   2.398  0.0176  0.6415 -0.2622
  111GLOH   H03 9721   3.866   5.747   0.230 -0.0995 -2.0094  0.1252
  111GLOH    O1 9722   3.953   5.709   0.206  0.4781 -0.3293 -0.5636
  111GLOH    C1 9723   3.940   5.569   0.219 -0.3212 -0.2785 -0.2123
  111GLOH   H02 9724   3.973   5.532   0.316  0.4886 -2.4240 -1.2648
  111GLOH   H08 9725   4.007   5.525   0.146  2.2329  1.0814  1.2476
  111GLOH    C2 9726   3.796   5.513   0.188  0.2579 -0.1360 -0.1422
  111GLOH   H04 9727   3.764   5.555   0.092  1.8449 -0.1014 -0.6611
  111GLOH    O2 9728   3.794   5.371   0.198 -0.9476 -0.5658 -0.5788
  111GLOH   H05 9729   3.759   5.345   0.285  0.3687 -1.5819 -0.3339
  111GLOH    C3 9730   3.698   5.588   0.283 -0.4632  0.2783 -0.1844
  111GLOH   H06 9731   3.727   5.543   0.378  0.9317  0.0832 -0.7012
  111GLOH   H07 9732   3.594   5.559   0.266 -1.0415  1.9982  0.3591
  111GLOH    O3 9733   3.711   5.729   0.296  0.3310  0.0502 -0.1631
  111GLOH   H01 9734   3.636   5.767   0.346 -2.3758 -2.3344 -2.2033
  112GLOH   H03 9735   3.738   8.466   1.981 -1.5657 -2.5883  0.7880
  112GLOH    O1 9736   3.656   8.466   1.928 -1.1586 -0.3288  0.1170
  112GLOH    C1 9737   3.694   8.527   1.799  0.3095 -0.0059  0.3266
  112GLOH   H02 9738   3.633   8.602   1.749  2.1598  1.3061 -0.0079
  112GLOH   H08 9739   3.706   8.446   1.726 -0.4526 -0.2496  0.4625
  112GLOH    C2 9740   3.825   8.609   1.808 -0.2881  0.2134 -0.1911
  112GLOH   H04 9741   3.876   8.591   1.712 -0.5221 -0.2455 -0.2331
  112GLOH    O2 9742   3.799   8.748   1.834  0.0957 -0.7217 -0.2051
  112GLOH   H05 9743   3.752   8.754   1.919 -1.2632 -1.0784 -0.9182
  112GLOH    C3 9744   3.920   8.532   1.904 -0.3280  0.0500  0.5083
  112GLOH   H06 9745   4.019   8.579   1.906  0.3167 -1.1996 -0.7952
  112GLOH   H07 9746   3.935   8.434   1.857  4.1128  1.0339 -0.3812
  112GLOH    O3 9747   3.870   8.522   2.036 -0.3217  0.3592 -0.4055
  112GLOH   H01 9748   3.939   8.546   2.101  0.8857  0.9824 -1.8999
  113GLOH   H03 9749   3.540   8.141   2.763  2.4758  2.5696 -3.0791
  113GLOH    O1 9750   3.469   8.113   2.703  0.4321  0.9824 -0.0601
  113GLOH    C1 9751   3.398   8.223   2.653  0.0427  0.4051 -0.3593
  113GLOH   H02 9752   3.412   8.317   2.706 -2.5013  0.9062 -0.5043
  113GLOH   H08 9753   3.293   8.202   2.672 -0.1721 -0.8858 -2.8438
  113GLOH    C2 9754   3.417   8.253   2.503 -0.2523  0.4697  0.2750
  113GLOH   H04 9755   3.356   8.333   2.458 -0.8361  1.1437  2.2343
  113GLOH    O2 9756   3.559   8.289   2.477  0.1754  0.9239 -0.1060
  113GLOH   H05 9757   3.592   8.353   2.543  0.6469 -0.8437  1.4205
  113GLOH    C3 9758   3.366   8.141   2.413  0.2904  0.6893  0.2866
  113GLOH   H06 9759   3.396   8.160   2.310  1.0525 -0.3676  0.3041
  113GLOH   H07 9760   3.257   8.128   2.416  0.6039 -2.1175  0.8156
  113GLOH    O3 9761   3.422   8.018   2.459 -0.5326  0.1997 -0.4713
  113GLOH   H01 9762   3.457   8.050   2.544  0.2801 -0.4211 -0.5684
  114GLOH   H03 9763   2.982   2.361   2.103 -0.4173 -0.0259 -0.6801
  114GLOH    O1 9764   2.971   2.388   2.196  0.1598  0.0621 -0.6355
  114GLOH    C1 9765   2.843   2.452   2.230 -0.0702  0.2480  0.1985
  114GLOH   H02 9766   2.801   2.501   2.142  1.5809 -2.9240 -2.4566
  114GLOH   H08 9767   2.871   2.526   2.306  2.7886 -1.0618  0.4614
  114GLOH    C2 9768   2.736   2.354   2.280 -0.1265  0.2446  0.0607
  114GLOH   H04 9769   2.711   2.290   2.194 -1.3174 -0.9069  1.2422
  114GLOH    O2 9770   2.766   2.271   2.391  0.8842 -0.1730 -0.3287
  114GLOH   H05 9771   2.805   2.309   2.471 -2.7636 -0.2682  1.6094
  114GLOH    C3 9772   2.611   2.435   2.315 -0.8232 -0.6890  0.2144
  114GLOH   H06 9773   2.641   2.500   2.397  1.2838 -0.3783 -0.7611
  114GLOH   H07 9774   2.525   2.378   2.351 -0.8243  0.3210  1.8668
  114GLOH    O3 9775   2.570   2.511   2.203  0.8846 -0.8017  0.3192
  114GLOH   H01 9776   2.514   2.466   2.137  1.0518 -1.0721  0.3609
  115GLOH   H03 9777   5.089   3.704   1.222 -0.3607 -0.0300 -0.6424
  115GLOH    O1 9778   5.068   3.723   1.315  0.4598  0.5463 -0.5757
  115GLOH    C1 9779   5.031   3.855   1.335 -0.0161 -0.6750  0.0970
  115GLOH   H02 9780   4.981   3.902   1.250 -1.6844 -1.7693  0.4595
  115GLOH   H08 9781   5.121   3.912   1.361  0.3176 -0.6780 -1.0198
  115GLOH    C2 9782   4.922   3.867   1.445  0.0718  0.1385  0.3232
  115GLOH   H04 9783   4.956   3.836   1.545  1.9241 -0.9473 -0.6175
  115GLOH    O2 9784   4.887   4.004   1.448 -0.3452  0.2338 -0.5255
  115GLOH   H05 9785   4.836   4.023   1.528 -0.0390 -2.2901  0.3346
  115GLOH    C3 9786   4.797   3.777   1.414 -0.1579  0.0389 -0.3954
  115GLOH   H06 9787   4.766   3.804   1.313  0.4382 -0.9059 -0.8344
  115GLOH   H07 9788   4.715   3.790   1.485 -0.0473 -1.1124 -0.0522
  115GLOH    O3 9789   4.841   3.641   1.404  0.5409 -0.2352  0.0369
  115GLOH   H01 9790   4.933   3.648   1.372 -0.1011 -0.3875 -1.9383
  116GLOH   H03 9791   3.215   1.002   2.375  1.3507 -0.0921 -0.4198
  116GLOH    O1 9792   3.216   0.934   2.306  0.4793 -0.3907 -0.1451
  116GLOH    C1 9793   3.119   0.836   2.345  0.0338  0.2173  0.2287
  116GLOH   H02 9794   3.108   0.831   2.453 -1.0500 -1.6840  0.0687
  116GLOH   H08 9795   3.157   0.738   2.315  0.9791  0.8717 -0.7399
  116GLOH    C2 9796   2.978   0.866   2.291 -0.1722 -0.0497  0.3148
  116GLOH   H04 9797   2.994   0.877   2.183  0.8014  2.4117  0.6749
  116GLOH    O2 9798   2.870   0.769   2.308 -0.0337  0.1423  0.5825
  116GLOH   H05 9799   2.784   0.811   2.291 -0.1070 -0.3610 -0.2984
  116GLOH    C3 9800   2.924   1.000   2.339 -0.2921 -0.9513  0.2028
  116GLOH   H06 9801   2.817   1.003   2.319 -0.2280 -1.2118 -0.1773
  116GLOH   H07 9802   2.966   1.072   2.269 -1.0707  0.0548  0.7391
  116GLOH    O3 9803   2.953   1.050   2.473 -0.3635  0.4861  0.4338
  116GLOH   H01 9804   3.049   1.067   2.473 -0.2826  0.2309  2.7629
  117GLOH   H03 9805   4.176   0.811   0.890  1.3164  1.2829  0.1527
  117GLOH    O1 9806   4.186   0.769   0.802  0.2044 -0.4249  0.8191
  117GLOH    C1 9807   4.119   0.642   0.805 -0.4595  0.1331  0.0597
  117GLOH   H02 9808   4.109   0.610   0.701  2.7486 -2.8541  0.5475
  117GLOH   H08 9809   4.020   0.654   0.848  0.7805  0.2844  2.9820
  117GLOH    C2 9810   4.195   0.538   0.890  0.7161 -0.2302  0.3298
  117GLOH   H04 9811   4.197   0.567   0.996 -1.9005 -0.6261  0.5395
  117GLOH    O2 9812   4.133   0.404   0.874 -0.0836 -0.4030  0.4111
  117GLOH   H05 9813   4.145   0.375   0.782 -1.3788  1.5931 -0.4245
  117GLOH    C3 9814   4.337   0.517   0.837  0.0233 -0.2024 -0.2130
  117GLOH   H06 9815   4.336   0.479   0.734  0.3814 -0.2380 -0.2064
  117GLOH   H07 9816   4.391   0.443   0.896  1.5083 -1.4517 -3.0020
  117GLOH    O3 9817   4.409   0.637   0.837  0.9528 -0.4995 -0.1654
  117GLOH   H01 9818   4.352   0.706   0.799 -0.7260 -1.7263  0.0494
  118GLOH   H03 9819   3.665   8.849   1.266 -1.0159  0.7049  1.2950
  118GLOH    O1 9820   3.750   8.896   1.258 -0.4017 -0.5724  0.2410
  118GLOH    C1 9821   3.737   9.012   1.169  0.1768 -0.5579 -0.2162
  118GLOH   H02 9822   3.685   9.092   1.221 -0.5080 -0.6571 -0.7396
  118GLOH   H08 9823   3.668   8.985   1.089 -0.8460 -1.2190  0.8702
  118GLOH    C2 9824   3.871   9.064   1.115 -0.3483 -0.1383  0.7094
  118GLOH   H04 9825   3.844   9.147   1.047  1.0963 -1.2270 -1.2246
  118GLOH    O2 9826   3.949   9.120   1.226 -0.3791 -0.5898  0.0720
  118GLOH   H05 9827   3.914   9.077   1.306  1.2249  0.0890  1.1650
  118GLOH    C3 9828   3.951   8.949   1.042 -0.0148 -0.5534 -0.5095
  118GLOH   H06 9829   3.967   8.861   1.103 -1.7532 -1.6087 -1.5506
  118GLOH   H07 9830   4.051   8.986   1.020 -0.1586 -0.1350 -0.4623
  118GLOH    O3 9831   3.871   8.907   0.926 -0.5101  0.1635  0.0413
  118GLOH   H01 9832   3.843   8.817   0.949  1.0129 -0.9128 -2.1632
  119GLOH   H03 9833   3.649   2.611   2.098 -1.5931  0.2848  1.8658
  119GLOH    O1 9834   3.671   2.522   2.130  0.3191 -0.1565 -0.4590
  119GLOH    C1 9835   3.730   2.551   2.263  0.1062  0.1866 -0.0897
  119GLOH   H02 9836   3.657   2.587   2.336 -0.4276  1.9234 -1.4581
  119GLOH   H08 9837   3.794   2.635   2.238 -0.2423  0.5046  0.0727
  119GLOH    C2 9838   3.810   2.440   2.332  0.2000 -0.3032 -0.2192
  119GLOH   H04 9839   3.874   2.388   2.259 -0.5763 -1.4186 -0.1299
  119GLOH    O2 9840   3.893   2.483   2.446  0.1102  0.1234  0.1281
  119GLOH   H05 9841   3.986   2.480   2.420  0.1005 -3.0458  0.3147
  119GLOH    C3 9842   3.709   2.327   2.373 -0.0489  0.1483 -0.1660
  119GLOH   H06 9843   3.648   2.303   2.286 -2.6800  1.0805  1.3812
  119GLOH   H07 9844   3.640   2.373   2.443 -0.5981 -2.5786  1.1295
  119GLOH    O3 9845   3.782   2.213   2.413  0.3445  0.1639 -0.4482
  119GLOH   H01 9846   3.824   2.223   2.501  1.6181  2.3919 -1.2762
  120GLOH   H03 9847   5.567   2.987   0.513  0.0962 -0.5799 -1.0375
  120GLOH    O1 9848   5.488   2.930   0.522  0.1202 -0.4084  0.3271
  120GLOH    C1 9849   5.513   2.859   0.643 -0.5006  0.3094 -0.2889
  120GLOH   H02 9850   5.614   2.817   0.636  0.1806  1.8536  0.0599
  120GLOH   H08 9851   5.437   2.781   0.652 -0.6809  0.5240  0.0279
  120GLOH    C2 9852   5.525   2.946   0.775 -0.7966  0.0550 -0.1714
  120GLOH   H04 9853   5.532   2.877   0.861  2.4888  1.1763  0.5334
  120GLOH    O2 9854   5.649   3.017   0.786  0.5192 -0.2631  0.4761
  120GLOH   H05 9855   5.666   3.065   0.869  0.2730 -1.5423  1.2827
  120GLOH    C3 9856   5.404   3.041   0.794 -0.1627  0.5832 -0.2901
  120GLOH   H06 9857   5.397   3.096   0.700  2.1598  0.5958 -0.4899
  120GLOH   H07 9858   5.419   3.103   0.882  1.9336 -0.8275  0.3802
  120GLOH    O3 9859   5.295   2.957   0.813  0.5536 -0.9803 -0.5416
  120GLOH   H01 9860   5.221   3.020   0.809  0.7142 -0.7083  0.4384
  121ACOH    H4 9861   3.765   9.111   2.439  0.0710  3.6830 -0.4190
  121ACOH    O2 9862   3.860   9.125   2.453  0.6639  0.1957 -0.4828
  121ACOH    C2 9863   3.875   9.257   2.481  0.6239  0.4264  0.2128
  121ACOH    O1 9864   3.805   9.352   2.472  0.3484  0.2440  0.9496
  121ACOH    C1 9865   4.022   9.282   2.513  0.1292 -0.1949  0.1870
  121ACOH    H1 9866   4.079   9.194   2.485  1.9342  1.3985 -1.3042
  121ACOH    H2 9867   4.036   9.307   2.618  2.6411  1.5745 -0.5059
  121ACOH    H3 9868   4.060   9.368   2.457 -1.0872  0.0393 -0.2949
  122ACOH    H4 9869   2.362   8.600   1.954 -0.4703 -0.1746 -0.4605
  122ACOH    O2 9870   2.323   8.565   1.872 -0.3275 -0.2157 -0.5105
  122ACOH    C2 9871   2.232   8.471   1.903 -0.3307  1.2215  0.7634
  122ACOH    O1 9872   2.232   8.400   2.003  0.2049 -0.0159  0.2025
  122ACOH    C1 9873   2.172   8.431   1.773 -0.4110 -0.0947  0.4153
  122ACOH    H1 9874   2.247   8.406   1.698 -0.9957 -0.3509 -0.0896
  122ACOH    H2 9875   2.112   8.513   1.734 -0.2487 -0.1072  0.1399
  122ACOH    H3 9876   2.103   8.347   1.780  2.2969 -2.4662 -0.1691
  123ACOH    H4 9877   4.336   2.355   1.583  1.0331  0.0489  1.0703
  123ACOH    O2 9878   4.406   2.303   1.540  0.2789 -0.5203  0.5052
  123ACOH    C2 9879   4.359   2.280   1.414  0.0801  1.0924 -0.5210
  123ACOH    O1 9880   4.244   2.299   1.387 -0.3207  0.2155  1.0281
  123ACOH    C1 9881   4.453   2.212   1.316 -0.1703  0.1410  0.0781
  123ACOH    H1 9882   4.407   2.124   1.272  0.7822 -0.5415  0.4522
  123ACOH    H2 9883   4.539   2.175   1.371 -1.0387 -4.2387 -1.3266
  123ACOH    H3 9884   4.484   2.285   1.241  1.5681 -1.8233 -1.1581
  124ACOH    H4 9885   3.624   7.737   0.252  0.8074  1.6199 -1.8568
  124ACOH    O2 9886   3.716   7.708   0.266  0.0956 -0.0264 -0.3264
  124ACOH    C2 9887   3.727   7.570   0.258  0.4000 -1.1613  0.2700
  124ACOH    O1 9888   3.629   7.499   0.252 -0.5678 -0.3280 -0.0886
  124ACOH    C1 9889   3.870   7.538   0.257 -0.7302 -0.0275 -0.5491
  124ACOH    H1 9890   3.933   7.620   0.223 -0.8617  2.1283  4.0260
  124ACOH    H2 9891   3.877   7.450   0.194  0.9871 -0.2155 -0.1092
  124ACOH    H3 9892   3.902   7.505   0.356 -0.3856  0.7511 -0.3971
  125ACOH    H4 9893   4.403   1.359   1.167 -0.1472  0.3716  0.5072
  125ACOH    O2 9894   4.492   1.396   1.157  0.0659 -0.2297  0.1371
  125ACOH    C2 9895   4.476   1.525   1.151  0.7468 -0.0242  0.7051
  125ACOH    O1 9896   4.370   1.589   1.143 -0.1550 -0.2373  0.0931
  125ACOH    C1 9897   4.616   1.590   1.147 -0.3080  0.0480  0.1663
  125ACOH    H1 9898   4.596   1.697   1.142 -1.7767 -0.1049  2.0674
  125ACOH    H2 9899   4.664   1.556   1.055  3.4533  2.1345  1.2669
  125ACOH    H3 9900   4.670   1.562   1.238  1.1913  0.0896 -0.6973
  126ACOH    H4 9901   5.248   2.802   0.807  0.4843 -0.2557  1.8549
  126ACOH    O2 9902   5.202   2.717   0.812  0.1059 -0.1265  0.6398
  126ACOH    C2 9903   5.112   2.741   0.912  0.6198  0.1782 -0.3404
  126ACOH    O1 9904   5.115   2.813   1.009 -0.1013 -0.0917  0.8692
  126ACOH    C1 9905   5.010   2.637   0.888  0.2810  0.0373 -0.5060
  126ACOH    H1 9906   4.925   2.630   0.957  0.4502  0.7027 -0.2233
  126ACOH    H2 9907   5.057   2.539   0.883 -0.2708 -0.1498 -2.6098
  126ACOH    H3 9908   4.979   2.650   0.784  0.3336  0.4565 -0.4714
  127ACOH    H4 9909   5.247   9.677   1.264 -2.1510  1.2502  1.4304
  127ACOH    O2 9910   5.178   9.617   1.230  0.2220 -0.5658 -0.3243
  127ACOH    C2 9911   5.265   9.511   1.208  0.6138 -0.3230  0.2768
  127ACOH    O1 9912   5.375   9.497   1.262  0.2121  0.1337  0.0976
  127ACOH    C1 9913   5.200   9.414   1.123  0.2375  0.3493  0.1441
  127ACOH    H1 9914   5.094   9.433   1.108 -0.2203 -0.7191  1.8362
  127ACOH    H2 9915   5.217   9.320   1.176 -0.1860  0.7305  0.9634
  127ACOH    H3 9916   5.251   9.428   1.027  1.7853  1.4324  1.1042
  128ACOH    H4 9917   3.110   2.456   2.255 -0.2954  0.8867 -2.4239
  128ACOH    O2 9918   3.206   2.470   2.264 -0.2578 -0.7441  0.5802
  128ACOH    C2 9919   3.245   2.403   2.375  0.1171 -0.3771 -0.0501
  128ACOH    O1 9920   3.186   2.321   2.444 -0.2023 -0.0056  0.0430
  128ACOH    C1 9921   3.392   2.405   2.384 -0.1717  0.4290 -0.1641
  128ACOH    H1 9922   3.424   2.486   2.318  2.8697 -2.0684 -1.8516
  128ACOH    H2 9923   3.421   2.311   2.337 -1.0200  1.2971 -2.5128
  128ACOH    H3 9924   3.422   2.403   2.489 -0.4367 -0.5898 -0.0978
  129ACOH    H4 9925   4.470   1.111   1.097 -0.5778 -1.6232 -0.9450
  129ACOH    O2 9926   4.556   1.119   1.051 -0.0536 -1.0161  0.1191
  129ACOH    C2 9927   4.552   1.223   0.965 -0.3645  0.1941  0.5861
  129ACOH    O1 9928   4.443   1.259   0.919 -0.2561 -0.4060 -0.8389
  129ACOH    C1 9929   4.687   1.259   0.916  0.8150  0.2555 -0.5872
  129ACOH    H1 9930   4.736   1.162   0.923  0.3808  0.0953  0.2891
  129ACOH    H2 9931   4.729   1.338   0.978  1.3072 -0.6470  0.2331
  129ACOH    H3 9932   4.689   1.296   0.813  2.7079  0.4823 -0.4853
  130ACOH    H4 9933   3.373   3.527   0.263  0.2026 -0.5426 -2.0663
  130ACOH    O2 9934   3.326   3.600   0.220 -0.4871  0.2598  0.0004
  130ACOH    C2 9935   3.334   3.705   0.300  0.0035 -0.5150  0.3557
  130ACOH    O1 9936   3.435   3.737   0.361 -0.2732  0.8028  0.6204
  130ACOH    C1 9937   3.227   3.798   0.255  0.3348  0.1063  0.1854
  130ACOH    H1 9938   3.270   3.891   0.218  1.7237 -1.1604 -1.4496
  130ACOH    H2 9939   3.158   3.822   0.336 -0.0464  0.1289 -0.1454
  130ACOH    H3 9940   3.175   3.758   0.168  0.2284 -0.4542  0.5037
  131ACOH    H4 9941   4.651   4.154   2.702  2.5990 -0.0699 -1.2458
  131ACOH    O2 9942   4.630   4.114   2.616 -0.3379 -0.4505 -0.4143
  131ACOH    C2 9943   4.729   4.030   2.585  0.7294 -0.1487  0.8186
  131ACOH    O1 9944   4.822   3.993   2.652 -0.0591  0.6705 -0.1466
  131ACOH    C1 9945   4.709   4.006   2.445  0.5456  0.0025 -0.1942
  131ACOH    H1 9946   4.796   3.965   2.395 -0.3846 -3.2455  0.6819
  131ACOH    H2 9947   4.689   4.097   2.389  0.0867  0.3627  0.5366
  131ACOH    H3 9948   4.626   3.937   2.431  1.4964 -1.2494  0.2381
  132ACOH    H4 9949   2.293   3.067   0.158 -0.4132  0.4123  1.0697
  132ACOH    O2 9950   2.197   3.065   0.175 -0.6529 -0.3597 -0.3458
  132ACOH    C2 9951   2.136   3.017   0.066  0.4673  0.3851  0.1930
  132ACOH    O1 9952   2.182   2.996  -0.045 -0.5802 -0.4273  0.0578
  132ACOH    C1 9953   1.998   2.982   0.099  0.6006 -0.5202 -0.3670
  132ACOH    H1 9954   1.933   3.047   0.041  0.7274 -0.4053 -0.3799
  132ACOH    H2 9955   1.973   3.003   0.203 -0.6278  0.3106 -0.8181
  132ACOH    H3 9956   1.969   2.881   0.071  1.7132 -0.4745 -1.7545
  133ACOH    H4 9957   3.997   8.434   0.205  0.0136 -2.2883 -2.8772
  133ACOH    O2 9958   4.079   8.470   0.166  0.5610  0.5444  0.5344
  133ACOH    C2 9959   4.059   8.545   0.059  0.3703 -0.4483 -0.2215
  133ACOH    O1 9960   3.960   8.589   0.011 -0.1592 -0.4055  0.9393
  133ACOH    C1 9961   4.188   8.576  -0.009 -0.7489  0.0787  0.8070
  133ACOH    H1 9962   4.265   8.509   0.032  0.3523  0.3898 -0.6938
  133ACOH    H2 9963   4.216   8.680   0.007  0.5363 -0.0706 -0.4053
  133ACOH    H3 9964   4.175   8.556  -0.115  1.6965 -0.9397  0.6452
  134ACOH    H4 9965   3.804   5.264   1.194  0.4329 -0.5176 -0.1183
  134ACOH    O2 9966   3.855   5.346   1.206 -0.3115 -0.0759  0.0904
  134ACOH    C2 9967   3.974   5.300   1.173  0.4296  0.3767 -0.4785
  134ACOH    O1 9968   4.007   5.191   1.135  0.2713 -0.1393  0.1454
  134ACOH    C1 9969   4.071   5.409   1.189 -0.4444  0.0831 -1.0095
  134ACOH    H1 9970   4.133   5.385   1.275 -2.5356 -1.0256  0.2179
  134ACOH    H2 9971   4.019   5.505   1.187  2.3251  1.6847  0.6168
  134ACOH    H3 9972   4.139   5.402   1.104  0.8106  3.4138 -0.3871
  135ACOH    H4 9973   5.889   3.500   0.614 -0.4613 -0.6145 -0.1724
  135ACOH    O2 9974   5.974   3.475   0.574 -0.3530  0.4822 -0.6291
  135ACOH    C2 9975   5.935   3.388   0.479 -0.4679  0.5433  0.5517
  135ACOH    O1 9976   5.836   3.315   0.480 -0.5448  0.0037  0.1100
  135ACOH    C1 9977   6.050   3.360   0.382  0.3127  0.0733  0.0050
  135ACOH    H1 9978   6.117   3.446   0.385  0.1096  0.2151  0.5905
  135ACOH    H2 9979   5.997   3.367   0.287 -0.1716 -0.8257  0.2090
  135ACOH    H3 9980   6.100   3.265   0.405 -2.3055 -1.0185  1.3504
  136ACOH    H4 9981   5.382   4.189   0.307  0.6886 -0.7746  0.4215
  136ACOH    O2 9982   5.424   4.276   0.318 -0.5553 -0.1463  0.2298
  136ACOH    C2 9983   5.392   4.314   0.444  0.6713  0.2095 -0.5269
  136ACOH    O1 9984   5.281   4.285   0.494 -0.3792  0.1071 -0.3726
  136ACOH    C1 9985   5.490   4.392   0.519 -0.5811  0.0593  0.3428
  136ACOH    H1 9986   5.530   4.336   0.604  1.0875  1.0417  0.2337
  136ACOH    H2 9987   5.458   4.485   0.567  0.1791  0.0772  0.8123
  136ACOH    H3 9988   5.571   4.417   0.451 -0.7807 -2.7946 -1.0126
  137ACOH    H4 9989   5.024   2.940   1.743 -2.3664 -1.9851 -0.4074
  137ACOH    O2 9990   4.995   2.996   1.816  0.6620 -0.4913 -0.2843
  137ACOH    C2 9991   5.065   2.947   1.923  0.4593 -0.2837  0.0812
  137ACOH    O1 9992   5.149   2.862   1.932  0.0399 -0.2469 -0.0914
  137ACOH    C1 9993   5.021   3.010   2.051  0.1607 -0.0778 -0.0832
  137ACOH    H1 9994   5.043   2.947   2.137 -1.3276 -0.8391 -0.2328
  137ACOH    H2 9995   4.913   3.027   2.051  0.1880  0.1102 -0.2300
  137ACOH    H3 9996   5.078   3.102   2.060  0.2333 -0.2367  1.0645
  138ACOH    H4 9997   4.911   4.255   0.552 -2.7595  2.1065 -0.5890
  138ACOH    O2 9998   4.873   4.201   0.624  0.0225  0.2674 -0.4019
  138ACOH    C2 9999   4.896   4.075   0.588  0.1976 -0.1662 -0.3624
  138ACOH    O110000   4.976   4.040   0.502 -0.5002  0.0078 -0.3720
  138ACOH    C110001   4.847   3.986   0.693 -0.1640  0.2050 -0.3187
  138ACOH    H110002   4.931   3.930   0.734 -1.0265 -2.0024 -1.4740
  138ACOH    H210003   4.787   3.912   0.639 -1.3796  1.3061 -0.4935
  138ACOH    H310004   4.786   4.043   0.764 -0.9886  1.2782 -1.8717
  139ACOH    H410005   4.103   5.761   0.148 -0.7055 -0.5660 -0.5086
  139ACOH    O210006   4.180   5.763   0.089  0.2824  0.2617  0.7959
  139ACOH    C210007   4.275   5.690   0.149 -0.3706 -0.1168 -0.4380
  139ACOH    O110008   4.259   5.604   0.238 -0.5157 -0.1039  0.3765
  139ACOH    C110009   4.395   5.687   0.063  0.3998 -0.7427  0.8095
  139ACOH    H110010   4.489   5.701   0.115  0.0627  1.2189  0.9365
  139ACOH    H210011   4.391   5.774  -0.003 -0.2577 -0.9560  0.5622
  139ACOH    H310012   4.395   5.600  -0.003 -1.9634  0.2247 -0.5492
  140ACOH    H410013   2.423   6.736   1.809 -0.0653 -0.2452  3.6381
  140ACOH    O210014   2.362   6.810   1.822 -0.5472 -0.0151  0.4507
  140ACOH    C210015   2.300   6.777   1.942  0.7334 -0.4330  0.2722
  140ACOH    O110016   2.287   6.668   1.986 -0.6154  0.2940 -0.1927
  140ACOH    C110017   2.223   6.890   2.004 -0.7111 -0.1299  0.8518
  140ACOH    H110018   2.126   6.847   2.031 -1.2309 -0.0347 -0.7928
  140ACOH    H210019   2.202   6.961   1.924 -0.6183  0.6260  1.4929
  140ACOH    H310020   2.268   6.937   2.091 -1.2591  1.5995  0.2160
  141ACOH    H410021   3.914   8.270   0.846  0.1499  1.6395 -2.4598
  141ACOH    O210022   4.011   8.275   0.841  0.3829 -0.1482 -0.5291
  141ACOH    C210023   4.057   8.256   0.718 -0.1374 -1.0396 -0.2332
  141ACOH    O110024   3.984   8.255   0.621 -0.0840  1.1971  0.1980
  141ACOH    C110025   4.203   8.247   0.710 -0.1409 -0.0727 -0.0647
  141ACOH    H110026   4.255   8.229   0.804  0.0637 -0.8345 -0.3202
  141ACOH    H210027   4.233   8.340   0.661 -2.0069 -0.1308 -1.3784
  141ACOH    H310028   4.221   8.165   0.641  1.1093 -1.7019  2.1591
  142ACOH    H410029   2.240   2.186   1.442 -1.3909 -0.1590 -0.1179
  142ACOH    O210030   2.233   2.096   1.477 -0.3803 -0.3362 -0.3774
  142ACOH    C210031   2.211   2.014   1.370 -0.0055 -0.7621  0.1563
  142ACOH    O110032   2.181   2.059   1.258  0.4305  0.3527 -0.9007
  142ACOH    C110033   2.208   1.873   1.419 -0.1528  0.2254 -0.4334
  142ACOH    H110034   2.311   1.858   1.451  0.8491  0.8041 -3.2947
  142ACOH    H210035   2.182   1.812   1.333  3.2646 -0.8204 -0.8196
  142ACOH    H310036   2.132   1.864   1.497 -0.8569  0.0874 -1.1343
  143ACOH    H410037   4.379   3.221   2.520  1.6464 -0.8184  1.6168
  143ACOH    O210038   4.322   3.215   2.598 -0.5243 -0.0821  0.1508
  143ACOH    C210039   4.197   3.247   2.569 -0.3974 -0.6538  0.7742
  143ACOH    O110040   4.153   3.305   2.469 -0.0104 -0.1435 -0.2726
  143ACOH    C110041   4.116   3.239   2.690 -0.1061 -0.2907  0.2001
  143ACOH    H110042   4.173   3.261   2.780 -0.7502 -0.8653  0.7495
  143ACOH    H210043   4.077   3.137   2.698 -1.2191  0.0545 -0.6225
  143ACOH    H310044   4.031   3.307   2.683  0.3283  0.4324  1.7879
  144ACOH    H410045   2.359   3.680   0.673 -0.6980 -0.7437  1.4399
  144ACOH    O210046   2.295   3.654   0.605  0.2686 -0.1059  0.2709
  144ACOH    C210047   2.297   3.519   0.600 -0.1138 -1.8805 -0.9013
  144ACOH    O110048   2.340   3.442   0.684  0.3077 -0.1442  0.2612
  144ACOH    C110049   2.254   3.467   0.469 -0.4789 -0.0374  0.6671
  144ACOH    H110050   2.215   3.366   0.476 -0.2507 -0.0092  2.6154
  144ACOH    H210051   2.349   3.454   0.418 -0.2965 -0.1178  1.0210
  144ACOH    H310052   2.185   3.537   0.421 -0.0855  2.6923  3.8440
  145ACOH    H410053   4.969   4.211   1.826 -1.3200 -1.6878 -3.6818
  145ACOH    O210054   5.057   4.186   1.795  0.3751 -0.0807 -0.3938
  145ACOH    C210055   5.077   4.067   1.851  0.2969  0.9760  0.1097
  145ACOH    O110056   5.033   4.028   1.959 -0.1452  0.4219  0.4212
  145ACOH    C110057   5.189   3.997   1.790 -0.5558 -0.0451 -0.6043
  145ACOH    H110058   5.249   3.944   1.864  0.5157  1.9282 -0.0116
  145ACOH    H210059   5.248   4.069   1.733 -0.5858 -1.5123 -2.5536
  145ACOH    H310060   5.147   3.936   1.710  1.9731 -1.0790 -1.1761
  146ACOH    H410061   2.760   7.012   1.243 -0.5496  1.4776  1.4576
  146ACOH    O210062   2.736   6.930   1.289 -0.3158  0.4210 -0.2810
  146ACOH    C210063   2.665   6.963   1.397 -0.3080 -0.2524 -0.2098
  146ACOH    O110064   2.646   6.883   1.487 -0.6099  0.0777 -0.5712
  146ACOH    C110065   2.631   7.106   1.415 -0.7624 -0.6712 -0.2567
  146ACOH    H110066   2.721   7.167   1.400 -0.3301 -0.9407  1.1596
  146ACOH    H210067   2.598   7.124   1.517  0.0754  0.5155 -0.1777
  146ACOH    H310068   2.553   7.133   1.345 -1.1376 -1.8362 -0.2877
  147ACOH    H410069   2.418   4.517   1.064 -1.7497 -2.4121  0.0986
  147ACOH    O210070   2.373   4.587   1.114  0.5215 -0.3851 -0.6462
  147ACOH    C210071   2.371   4.552   1.247 -0.7508  0.6344  0.0362
  147ACOH    O110072   2.456   4.487   1.309  0.1995 -0.3687  0.2260
  147ACOH    C110073   2.263   4.632   1.315  0.3721 -0.3052  0.0410
  147ACOH    H110074   2.299   4.718   1.371 -1.2078  0.4181 -0.0164
  147ACOH    H210075   2.224   4.565   1.391  1.6690  0.8117  1.7112
  147ACOH    H310076   2.181   4.647   1.244  0.1258 -0.8631  0.2029
  148ACOH    H410077   4.438   1.881   1.434 -0.1305 -0.7875 -1.1623
  148ACOH    O210078   4.526   1.849   1.406  0.4763  0.0069 -0.2047
  148ACOH    C210079   4.605   1.813   1.511  0.0227  0.0506 -0.0920
  148ACOH    O110080   4.602   1.871   1.618  0.4194  0.5980 -0.2242
  148ACOH    C110081   4.719   1.721   1.466 -0.1558 -0.1965 -0.2219
  148ACOH    H110082   4.789   1.713   1.549  0.5201  0.4418 -0.7304
  148ACOH    H210083   4.770   1.743   1.372  1.6873 -1.6959  0.3829
  148ACOH    H310084   4.690   1.616   1.459  1.0981 -0.6010  0.4687
  149ACOH    H410085   4.471   0.771   0.260  1.1794 -0.8580 -0.4331
  149ACOH    O210086   4.433   0.744   0.175 -0.3467  0.2620 -0.1351
  149ACOH    C210087   4.412   0.613   0.185 -1.0327 -0.2511 -0.1814
  149ACOH    O110088   4.372   0.559   0.282 -0.4878  0.1696 -0.1367
  149ACOH    C110089   4.397   0.557   0.049 -0.1548 -0.0135  0.1095
  149ACOH    H110090   4.305   0.502   0.028  1.2656 -1.5475 -2.4654
  149ACOH    H210091   4.475   0.481   0.046  1.1483  1.3026  0.3220
  149ACOH    H310092   4.418   0.632  -0.026 -0.8832 -1.2474 -1.3682
  150ACOH    H410093   5.230   2.047   0.346 -0.1390 -0.5197  0.1108
  150ACOH    O210094   5.254   1.954   0.364 -0.5934 -0.7147 -0.2558
  150ACOH    C210095   5.252   1.886   0.251 -0.3165  0.1443  0.2754
  150ACOH    O110096   5.238   1.925   0.137 -0.5011 -0.1628  0.5189
  150ACOH    C110097   5.283   1.745   0.289  0.0350 -0.3998 -0.4306
  150ACOH    H110098   5.250   1.673   0.214  1.6667  0.6405 -2.2138
  150ACOH    H210099   5.235   1.721   0.383  1.4031  0.5614  0.5438
  150ACOH    H310100   5.391   1.733   0.296  0.3077  1.0539 -1.6747
  151ACOH    H410101   3.347   7.887   2.397 -0.7428 -0.1406  0.9617
  151ACOH    O210102   3.280   7.824   2.367 -0.5168  0.0934 -0.0283
  151ACOH    C210103   3.312   7.699   2.402  1.0420 -0.3612 -0.2748
  151ACOH    O110104   3.383   7.668   2.493 -0.0929 -0.5861  0.6416
  151ACOH    C110105   3.224   7.608   2.324 -0.5274 -0.1382 -0.1020
  151ACOH    H110106   3.248   7.609   2.217  2.2843 -2.4641  0.4427
  151ACOH    H210107   3.123   7.649   2.328 -1.1573 -1.7893  1.0517
  151ACOH    H310108   3.229   7.504   2.355  2.2471 -0.5241 -1.6046
  152ACOH    H410109   4.031   9.469   0.134  0.4214 -1.1972 -0.7931
  152ACOH    O210110   4.093   9.421   0.192  0.0098 -0.5093  0.2385
  152ACOH    C210111   4.047   9.428   0.320 -0.0580 -0.2711  0.0205
  152ACOH    O110112   3.961   9.508   0.361  0.1074  0.3175 -0.0594
  152ACOH    C110113   4.090   9.319   0.414  0.4332 -0.0245 -0.5304
  152ACOH    H110114   4.198   9.305   0.411  0.5627  0.0839  2.3913
  152ACOH    H210115   4.048   9.224   0.380  0.2213  0.1576 -0.7773
  152ACOH    H310116   4.080   9.332   0.521  0.3467  0.2962 -0.5785
  153ACOH    H410117   2.421   9.409   1.885 -0.3448 -0.6757  2.1911
  153ACOH    O210118   2.325   9.419   1.872  0.0055  0.0754  0.0004
  153ACOH    C210119   2.283   9.475   1.988  0.1073 -0.0550  0.1221
  153ACOH    O110120   2.347   9.483   2.091 -0.0864  0.5240 -0.0651
  153ACOH    C110121   2.138   9.511   1.989 -0.2952  0.3416 -0.2116
  153ACOH    H110122   2.131   9.609   1.942  1.5545  0.9086  0.6108
  153ACOH    H210123   2.098   9.529   2.089 -0.2472 -1.3462  0.1211
  153ACOH    H310124   2.079   9.433   1.942 -0.4493 -1.7365  3.2691
  154ACOH    H410125   2.304   7.758   1.232 -0.7506 -2.6877  0.2590
  154ACOH    O210126   2.329   7.747   1.139 -0.5242  0.8146 -0.1573
  154ACOH    C210127   2.379   7.869   1.093 -0.1424  0.0826  0.4358
  154ACOH    O110128   2.396   7.971   1.154 -1.3314 -0.6226 -0.0625
  154ACOH    C110129   2.427   7.862   0.955  0.1993 -0.9665 -0.1344
  154ACOH    H110130   2.352   7.845   0.877 -1.0293 -1.7824  1.2096
  154ACOH    H210131   2.507   7.789   0.950  1.1878  0.1010 -0.1037
  154ACOH    H310132   2.479   7.955   0.932 -0.3633 -0.8585 -0.9926
  155ACOH    H410133   4.908   3.753   2.147  1.8362  3.1870  1.3075
  155ACOH    O210134   4.954   3.707   2.220  0.1417 -0.9690 -0.1257
  155ACOH    C210135   4.885   3.595   2.269  0.1736 -0.1412  0.6444
  155ACOH    O110136   4.928   3.527   2.355 -0.1415 -0.4621  0.0480
  155ACOH    C110137   4.775   3.564   2.176  0.0955  0.3008 -0.2159
  155ACOH    H110138   4.697   3.639   2.181  0.4523  0.6472  0.1666
  155ACOH    H210139   4.736   3.468   2.211  1.4835  0.6227  2.3173
  155ACOH    H310140   4.814   3.556   2.074 -0.2930  2.4165 -0.5417
  156ACOH    H410141   4.727   4.806   0.696  0.3514 -0.2294 -0.6329
  156ACOH    O210142   4.748   4.899   0.679  0.1125 -0.0782 -0.0825
  156ACOH    C210143   4.666   4.960   0.587 -0.3563 -0.6500 -0.1880
  156ACOH    O110144   4.580   4.906   0.521  0.1997 -0.1567 -0.1457
  156ACOH    C110145   4.710   5.100   0.566  0.2811  0.0101 -0.1984
  156ACOH    H110146   4.759   5.130   0.474 -0.6941  1.8486 -0.1367
  156ACOH    H210147   4.772   5.124   0.653 -1.4676 -1.1335  1.4236
  156ACOH    H310148   4.624   5.166   0.578  1.5910  1.4278  1.8224
  157ACOH    H410149   2.285   1.328   1.689  0.0331 -0.0366 -0.4019
  157ACOH    O210150   2.321   1.279   1.613  0.2081  0.0006 -0.3429
  157ACOH    C210151   2.358   1.162   1.663 -0.1071  0.6049 -0.3095
  157ACOH    O110152   2.353   1.117   1.774 -0.5841  0.5082  0.4277
  157ACOH    C110153   2.398   1.082   1.547 -0.1515 -0.3265 -0.2537
  157ACOH    H110154   2.494   1.120   1.515 -0.1232  0.9582  1.2660
  157ACOH    H210155   2.323   1.099   1.470  0.1307 -0.5362 -0.5756
  157ACOH    H310156   2.416   0.977   1.570  0.1017 -0.2969 -0.3163
  158ACOH    H410157   3.596   5.568   1.372 -0.4420 -0.7110 -1.2258
  158ACOH    O210158   3.689   5.595   1.370 -0.3504 -0.9782 -0.5919
  158ACOH    C210159   3.761   5.517   1.451 -0.2373  0.1450  0.6329
  158ACOH    O110160   3.720   5.421   1.514  0.3288 -0.0127  0.2571
  158ACOH    C110161   3.904   5.548   1.467 -0.0238  0.4146 -0.5544
  158ACOH    H110162   3.914   5.646   1.421  0.3815  0.7896  0.3206
  158ACOH    H210163   3.965   5.471   1.419 -0.2719 -0.1465  0.0189
  158ACOH    H310164   3.928   5.547   1.573  0.8176  0.9951 -0.7341
  159ACOH    H410165   4.260   8.909   0.313 -3.5560 -0.3032  1.0704
  159ACOH    O210166   4.226   8.960   0.237  0.1083 -0.1615 -0.6245
  159ACOH    C210167   4.307   9.066   0.209  0.1080 -0.5789  1.3237
  159ACOH    O110168   4.407   9.106   0.263  0.0514 -0.6944 -0.5579
  159ACOH    C110169   4.244   9.150   0.101 -1.0036  0.0759  0.0909
  159ACOH    H110170   4.268   9.257   0.099 -1.2596  0.1154 -1.0892
  159ACOH    H210171   4.135   9.144   0.112 -1.5020  0.0909 -3.9290
  159ACOH    H310172   4.263   9.107   0.003  1.1866  0.9502  0.1153
  160ACOH    H410173   2.905   5.346   1.808 -0.1872  0.6085  0.0331
  160ACOH    O210174   2.855   5.269   1.777 -0.1718  0.5511  0.1541
  160ACOH    C210175   2.728   5.288   1.797  0.3915  0.0240 -0.2869
  160ACOH    O110176   2.684   5.383   1.857 -0.3359  0.1314  0.2458
  160ACOH    C110177   2.633   5.191   1.734  0.4631  0.9431  0.4849
  160ACOH    H110178   2.568   5.140   1.805  0.2285 -0.0024 -0.4005
  160ACOH    H210179   2.695   5.120   1.679 -0.4768  1.5715 -1.4522
  160ACOH    H310180   2.578   5.243   1.655 -0.5321 -1.2983 -0.3335
  161ACOH    H410181   4.919   4.338   2.512 -0.7352 -0.2489 -0.1927
  161ACOH    O210182   4.856   4.361   2.582  1.0671  0.4324  1.2446
  161ACOH    C210183   4.759   4.413   2.506  0.3890  0.2045  0.5843
  161ACOH    O110184   4.744   4.393   2.388 -0.0817 -0.3545 -0.3589
  161ACOH    C110185   4.644   4.446   2.588  0.6102 -0.0799  0.6645
  161ACOH    H110186   4.618   4.366   2.658  0.2847 -1.9713 -1.5535
  161ACOH    H210187   4.556   4.480   2.534  1.2072  0.1329 -0.1828
  161ACOH    H310188   4.676   4.523   2.658 -2.1571  0.7093  1.0952
  162ACOH    H410189   2.805   9.185  -0.043 -1.0486  0.0915  0.4934
  162ACOH    O210190   2.727   9.129  -0.055 -1.0127  0.2465 -0.4839
  162ACOH    C210191   2.653   9.134   0.057  0.1171  0.4416  0.3398
  162ACOH    O110192   2.629   9.232   0.122  0.0165 -0.6903  0.0931
  162ACOH    C110193   2.565   9.016   0.072 -0.5662 -0.0424  0.7230
  162ACOH    H110194   2.518   8.999  -0.025 -0.4094  2.2786  0.2079
  162ACOH    H210195   2.487   9.027   0.148 -1.7110 -0.1367 -0.4089
  162ACOH    H310196   2.626   8.929   0.093  0.3436  0.9354  2.1889
  163ACOH    H410197   5.722   3.644   1.133 -1.1377 -0.4919  2.0140
  163ACOH    O210198   5.778   3.710   1.178 -0.0649 -0.2839  0.3953
  163ACOH    C210199   5.900   3.674   1.148 -0.6273  0.2111 -1.0777
  163ACOH    O110200   5.943   3.598   1.066  0.2870 -0.2446 -0.2577
  163ACOH    C110201   5.989   3.753   1.242 -0.0263 -0.0701  0.6307
  163ACOH    H110202   6.029   3.679   1.311 -2.7013 -0.8270  1.4200
  163ACOH    H210203   5.934   3.824   1.303 -2.0666 -0.5473 -0.6048
  163ACOH    H310204   6.056   3.808   1.176 -0.8978  0.5480  0.2531
  164ACOH    H410205   4.086   4.802   1.423 -0.1133  1.2986  1.7068
  164ACOH    O210206   4.102   4.725   1.479  0.3551  0.0461 -0.0906
  164ACOH    C210207   4.225   4.671   1.450  0.0386  0.6431  0.0780
  164ACOH    O110208   4.294   4.696   1.355  0.2164 -0.5114 -0.0105
  164ACOH    C110209   4.244   4.546   1.532  0.0808 -0.3241  0.1213
  164ACOH    H110210   4.159   4.479   1.523 -0.5396  0.2806  1.3563
  164ACOH    H210211   4.270   4.576   1.634  1.3669 -0.1269 -0.2550
  164ACOH    H310212   4.336   4.494   1.505  0.0348 -0.9452  1.0999
  165ACOH    H410213   4.410   4.994   0.109  1.9041  0.1636  2.4770
  165ACOH    O210214   4.481   4.936   0.074  0.4498 -0.2785  0.1263
  165ACOH    C210215   4.427   4.810   0.082 -0.6991  0.4071  0.0296
  165ACOH    O110216   4.320   4.768   0.120 -0.5268  0.3359 -0.7006
  165ACOH    C110217   4.523   4.711   0.024  0.3927  1.0485 -0.6580
  165ACOH    H110218   4.610   4.705   0.090 -0.2702 -1.9655  0.0513
  165ACOH    H210219   4.554   4.734  -0.078 -0.0099 -1.0415 -1.2690
  165ACOH    H310220   4.476   4.613   0.031  0.5228  1.1392  2.1354
  166ACOH    H410221   4.654   2.441   0.504  0.2454  0.9386 -0.8412
  166ACOH    O210222   4.618   2.519   0.549  0.2909  0.4640  0.0383
  166ACOH    C210223   4.681   2.534   0.670 -0.3606 -0.1262  0.0378
  166ACOH    O110224   4.755   2.455   0.722 -0.3797 -0.7586 -0.3617
  166ACOH    C110225   4.632   2.650   0.746 -0.3774 -0.6029 -0.1612
  166ACOH    H110226   4.630   2.636   0.854 -1.2690 -2.7351 -0.4407
  166ACOH    H210227   4.536   2.681   0.705 -1.3948 -0.3160  2.3889
  166ACOH    H310228   4.709   2.723   0.722  1.4615 -2.4877 -0.1436
  167ACOH    H410229   5.306   2.889   2.014 -0.4262 -1.2336  0.1574
  167ACOH    O210230   5.390   2.877   2.060 -0.2358  0.1745  0.1941
  167ACOH    C210231   5.360   2.875   2.188 -0.0417  0.3034  0.6356
  167ACOH    O110232   5.253   2.899   2.240 -0.8454  0.2632  0.5028
  167ACOH    C110233   5.482   2.846   2.263 -0.1745  0.0654  0.3724
  167ACOH    H110234   5.468   2.855   2.371  1.1238  0.6500  0.5078
  167ACOH    H210235   5.559   2.917   2.233  0.9497 -0.8577  1.0387
  167ACOH    H310236   5.513   2.745   2.237 -0.3189  0.7002 -2.3423
  168ACOH    H410237   2.180   2.797   0.346  0.1389  0.7133 -1.1523
  168ACOH    O210238   2.118   2.855   0.392 -0.0635 -0.6565  0.3699
  168ACOH    C210239   2.194   2.945   0.459 -0.4067  0.4510  0.1926
  168ACOH    O110240   2.311   2.934   0.487 -0.4830  0.2582  0.3978
  168ACOH    C110241   2.110   3.060   0.510  0.4043  0.1377  0.2422
  168ACOH    H110242   2.027   3.020   0.568  1.6032 -0.6088  1.4754
  168ACOH    H210243   2.077   3.126   0.429  0.4428  0.5166  0.5302
  168ACOH    H310244   2.178   3.119   0.572  1.4585  1.2950 -1.9258
  169ACOH    H410245   2.308   5.116   2.769 -1.5603  0.9871  1.5002
  169ACOH    O210246   2.238   5.085   2.709  0.2075 -0.4466  0.1082
  169ACOH    C210247   2.222   5.177   2.611 -0.5502 -0.1121  0.2413
  169ACOH    O110248   2.293   5.271   2.573 -0.3126  0.1843 -0.3978
  169ACOH    C110249   2.106   5.142   2.527  0.4642  0.2316  0.4011
  169ACOH    H110250   2.047   5.064   2.575  1.6253 -0.3704  0.8642
  169ACOH    H210251   2.151   5.106   2.434 -1.2574 -1.7151  0.2743
  169ACOH    H310252   2.038   5.224   2.500  0.4334 -0.0906 -0.5483
  170ACOH    H410253   4.077   4.776   2.329 -1.1281  1.1658 -1.4524
  170ACOH    O210254   4.117   4.864   2.344 -0.1842  0.4256  0.6405
  170ACOH    C210255   4.222   4.835   2.421  0.2990  0.3280  0.5032
  170ACOH    O110256   4.270   4.725   2.439 -0.3392 -0.0404  0.3187
  170ACOH    C110257   4.299   4.955   2.467 -0.2149  0.0084  0.5548
  170ACOH    H110258   4.392   4.924   2.514  1.9363  2.6800 -1.7945
  170ACOH    H210259   4.239   5.014   2.537 -1.6325 -2.2194  1.2598
  170ACOH    H310260   4.322   5.006   2.374  1.2948  0.6481  1.2610
  171ACOH    H410261   4.568   0.635   0.863  0.2144  1.1565  0.0528
  171ACOH    O210262   4.657   0.605   0.840 -0.5086 -0.3794 -0.8431
  171ACOH    C210263   4.707   0.678   0.739  0.7870 -0.1692 -0.0508
  171ACOH    O110264   4.642   0.749   0.664 -0.0208 -0.1662 -0.0369
  171ACOH    C110265   4.849   0.648   0.721 -0.5415  0.2941 -0.1192
  171ACOH    H110266   4.905   0.741   0.714  0.7786 -0.5196 -0.5953
  171ACOH    H210267   4.855   0.585   0.632  0.7919  1.1840 -0.6742
  171ACOH    H310268   4.885   0.586   0.802 -1.9575 -0.6359 -0.1764
  172ACOH    H410269   3.587   5.556   0.629 -2.1757  0.4103 -0.0051
  172ACOH    O210270   3.620   5.638   0.587 -0.0354 -0.5547 -0.2643
  172ACOH    C210271   3.708   5.691   0.673  0.3190  0.4268 -0.0467
  172ACOH    O110272   3.740   5.649   0.785  0.3274 -0.3373  0.3444
  172ACOH    C110273   3.749   5.824   0.619 -0.3926 -0.2204  0.3565
  172ACOH    H110274   3.815   5.875   0.690  0.1324 -0.6283  0.1687
  172ACOH    H210275   3.662   5.885   0.596  0.5231  0.9280 -0.0894
  172ACOH    H310276   3.800   5.806   0.524  0.7382  2.5794  0.3965
  173ACOH    H410277   3.288   7.465   1.140 -0.8748 -0.1779 -0.3810
  173ACOH    O210278   3.270   7.467   1.235  1.2669 -0.0932  0.0459
  173ACOH    C210279   3.371   7.525   1.298 -0.2849  0.3636 -0.6522
  173ACOH    O110280   3.446   7.606   1.247  0.4650 -0.2457  0.4098
  173ACOH    C110281   3.368   7.509   1.445 -0.2337 -0.1367  0.2146
  173ACOH    H110282   3.307   7.423   1.470 -0.2739 -0.1382  0.1094
  173ACOH    H210283   3.324   7.599   1.489 -2.8433 -0.2488 -2.0162
  173ACOH    H310284   3.472   7.499   1.476 -0.0157 -1.8084 -1.0200
  174ACOH    H410285   4.467   1.137   1.444 -1.2494 -1.0778  2.3875
  174ACOH    O210286   4.514   1.197   1.504 -0.4409  0.1336  0.6040
  174ACOH    C210287   4.587   1.127   1.598  0.3189 -0.4387  0.2305
  174ACOH    O110288   4.598   1.005   1.597 -0.9502 -0.6976  0.2464
  174ACOH    C110289   4.628   1.218   1.711 -0.4485 -0.0174  0.4363
  174ACOH    H110290   4.650   1.321   1.681 -0.2310 -0.5851 -1.3992
  174ACOH    H210291   4.714   1.170   1.757  1.1851  0.3848 -2.0500
  174ACOH    H310292   4.549   1.223   1.786 -0.7577 -0.0769  0.1175
  175ACOH    H410293   3.533   0.387   0.366  0.2900  1.9594  3.7606
  175ACOH    O210294   3.543   0.475   0.327  0.5828 -0.0271 -0.9262
  175ACOH    C210295   3.668   0.467   0.278 -0.1447  0.7775 -0.5277
  175ACOH    O110296   3.727   0.363   0.247  0.2887 -0.1822  0.3291
  175ACOH    C110297   3.704   0.599   0.235  0.4948 -0.0131 -0.0977
  175ACOH    H110298   3.803   0.588   0.192  0.3575  0.7134 -0.6066
  175ACOH    H210299   3.701   0.665   0.321 -0.4438 -1.8677  1.3486
  175ACOH    H310300   3.639   0.640   0.158  1.1285 -2.8087 -2.2315
  176ACOH    H410301   4.325   9.358   1.968  1.6725 -0.2981 -1.4245
  176ACOH    O210302   4.362   9.297   2.034 -0.0449  0.2861  0.0986
  176ACOH    C210303   4.270   9.276   2.126 -0.3292 -0.4345  1.0887
  176ACOH    O110304   4.180   9.351   2.151  0.1803  0.3222 -0.1262
  176ACOH    C110305   4.320   9.188   2.232  0.1979 -0.6965  0.0292
  176ACOH    H110306   4.235   9.136   2.275 -0.5085 -0.8655 -1.5713
  176ACOH    H210307   4.360   9.260   2.305 -2.1454  2.0562 -1.3042
  176ACOH    H310308   4.396   9.120   2.195  0.8365  0.7191 -1.3421
  177ACOH    H410309   3.843   5.232   1.963  2.1159 -1.0385 -1.6523
  177ACOH    O210310   3.837   5.314   1.912  0.4814 -0.1062 -0.0284
  177ACOH    C210311   3.746   5.393   1.969  0.3457 -0.1933 -0.1851
  177ACOH    O110312   3.714   5.409   2.084 -0.3023 -0.1857  0.2122
  177ACOH    C110313   3.722   5.497   1.867 -0.2930  0.8229 -0.3575
  177ACOH    H110314   3.809   5.537   1.816 -0.2365  0.4070 -0.5873
  177ACOH    H210315   3.665   5.582   1.906  0.2319  1.4676 -1.0030
  177ACOH    H310316   3.664   5.443   1.792  0.4494  0.0042 -0.3539
  178ACOH    H410317   2.233   2.987   2.487  2.6013 -0.9825 -0.6113
  178ACOH    O210318   2.247   3.005   2.392  0.2738  0.2589 -0.7478
  178ACOH    C210319   2.243   2.877   2.343  0.4881  0.7251  0.5695
  178ACOH    O110320   2.223   2.773   2.401 -0.1390 -0.3362 -0.0334
  178ACOH    C110321   2.264   2.887   2.197 -0.0251 -0.0833  0.7147
  178ACOH    H110322   2.368   2.858   2.184  0.0618  0.3623  0.3906
  178ACOH    H210323   2.247   2.987   2.156 -1.8775 -0.8496 -0.4505
  178ACOH    H310324   2.207   2.813   2.141  1.5476 -0.1667 -0.8255
  179ACOH    H410325   4.505   1.524   1.702 -2.0633  1.4709  1.3641
  179ACOH    O210326   4.569   1.551   1.770 -0.1111 -0.0358  0.1896
  179ACOH    C210327   4.502   1.633   1.851 -0.0012  0.2068 -0.8727
  179ACOH    O110328   4.398   1.689   1.820 -0.4350 -0.2319 -0.2226
  179ACOH    C110329   4.581   1.666   1.972  0.1658  0.6618  0.1272
  179ACOH    H110330   4.684   1.689   1.945  0.1604  0.0552 -0.4378
  179ACOH    H210331   4.586   1.583   2.043 -2.2602  0.9211  0.6107
  179ACOH    H310332   4.536   1.754   2.017  1.7899  1.2742  0.6005
  180ACOH    H410333   2.169   4.064   1.121  0.6417  1.1276 -0.5155
  180ACOH    O210334   2.087   4.114   1.103 -0.1090  0.0404 -0.1411
  180ACOH    C210335   2.123   4.233   1.055 -0.4862 -0.2795 -0.2042
  180ACOH    O110336   2.222   4.248   0.984 -0.2275 -0.5841 -0.1945
  180ACOH    C110337   2.033   4.348   1.090  0.1706  0.1767  0.1623
  180ACOH    H110338   1.944   4.334   1.151 -1.1297 -0.0511 -1.7429
  180ACOH    H210339   1.991   4.373   0.993  2.1669  0.5939 -0.6190
  180ACOH    H310340   2.088   4.436   1.125 -1.0933  0.7440  0.7469
  181ACOH    H410341   3.889   4.136   0.030  0.9659 -0.1672  0.7958
  181ACOH    O210342   3.829   4.130   0.106  0.0907  0.4980  0.1669
  181ACOH    C210343   3.819   4.001   0.124 -0.0816  0.6217 -0.0891
  181ACOH    O110344   3.827   3.917   0.033 -0.3945  0.8978 -0.4287
  181ACOH    C110345   3.766   3.958   0.252 -1.0360  0.3065 -0.5175
  181ACOH    H110346   3.658   3.949   0.237 -1.4634  3.8362 -0.1329
  181ACOH    H210347   3.779   4.037   0.327  1.5430 -0.0463 -0.5698
  181ACOH    H310348   3.816   3.871   0.294  0.0001  0.9157 -0.4765
  182ACOH    H410349   5.115   1.622   2.524 -2.2738 -2.1309  0.4676
  182ACOH    O210350   5.180   1.594   2.592 -0.8219 -0.3838 -0.1528
  182ACOH    C210351   5.242   1.484   2.551 -0.6533  0.5178 -0.0426
  182ACOH    O110352   5.231   1.435   2.440  0.6074  0.2026 -0.3544
  182ACOH    C110353   5.338   1.445   2.649  0.1611 -0.0496  0.4081
  182ACOH    H110354   5.411   1.381   2.598  1.2527  0.9486  0.7163
  182ACOH    H210355   5.286   1.389   2.727 -0.5243 -0.9004 -0.6414
  182ACOH    H310356   5.385   1.531   2.696 -0.6416 -0.9151  2.8487
  183ACOH    H410357   4.092   8.510   1.216 -0.6428 -3.8229  1.5975
  183ACOH    O210358   4.169   8.469   1.173  0.4472 -0.1397 -0.1173
  183ACOH    C210359   4.200   8.564   1.080 -0.0269  0.2311 -0.0011
  183ACOH    O110360   4.111   8.634   1.035  0.0356  0.2096  0.2290
  183ACOH    C110361   4.332   8.565   1.021  0.0706  0.4099 -0.1307
  183ACOH    H110362   4.387   8.476   1.052  0.6246  0.6353 -0.4694
  183ACOH    H210363   4.385   8.651   1.061  0.7517 -0.6700  1.3127
  183ACOH    H310364   4.321   8.582   0.914  1.6159 -0.0848 -0.3845
  184SOL     OW10365   5.468   3.113   1.166  0.6461 -0.4794  0.2723
  184SOL    HW110366   5.413   3.030   1.155  1.2677 -0.6248 -2.0312
  184SOL    HW210367   5.408   3.193   1.164  0.3109 -0.7418 -0.2977
  185SOL     OW10368   3.094   5.325   2.605  0.7145  0.4181  0.7267
  185SOL    HW110369   3.100   5.229   2.631  0.8996  0.3111  0.2797
  185SOL    HW210370   3.184   5.368   2.611  0.6503  0.5439  0.8282
  186SOL     OW10371   2.832   4.732   1.189 -0.2932 -0.6698 -0.5739
  186SOL    HW110372   2.780   4.647   1.189 -2.1100  0.4022 -0.2641
  186SOL    HW210373   2.919   4.719   1.237  0.5514 -2.9686 -2.6479
  187SOL     OW10374   4.043   2.499   1.893  0.3526 -0.2867  0.0048
  187SOL    HW110375   4.037   2.577   1.955 -2.7376 -0.7512  0.3869
  187SOL    HW210376   3.963   2.499   1.832  1.3369 -2.0368 -1.3354
  188SOL     OW10377   4.012   4.601   2.301  0.2000 -0.6719 -0.1422
  188SOL    HW110378   4.099   4.555   2.318  0.9968  0.7605 -0.2587
  188SOL    HW210379   3.964   4.556   2.226  0.9769 -1.2846 -0.2685
  189SOL     OW10380   2.881   4.554   2.493 -0.1605 -0.0440 -0.2134
  189SOL    HW110381   2.930   4.641   2.482 -0.0264 -0.1835 -0.7524
  189SOL    HW210382   2.942   4.487   2.535  0.8344 -0.8343 -2.7756
  190SOL     OW10383   2.569   3.788   1.620  0.3124 -0.7859 -0.2903
  190SOL    HW110384   2.605   3.710   1.670  0.2797 -1.2658 -1.0015
  190SOL    HW210385   2.542   3.860   1.684  2.2829 -0.5202  0.2722
  191SOL     OW10386   3.793   4.585   1.419 -0.0494  0.8992 -0.1478
  191SOL    HW110387   3.810   4.663   1.479 -0.3849  0.4388  0.5619
  191SOL    HW210388   3.807   4.500   1.471 -1.0159  0.5003 -0.5333
  192SOL     OW10389   2.534   2.128   0.215  0.2063 -0.3569 -0.1580
  192SOL    HW110390   2.489   2.141   0.303  0.1527 -1.1037 -0.0751
  192SOL    HW210391   2.576   2.037   0.211 -0.6460 -0.7234 -1.2801
  193SOL     OW10392   4.601   4.141   0.414 -0.0751  0.2861 -0.2694
  193SOL    HW110393   4.597   4.212   0.484 -1.6214  0.6440 -0.6950
  193SOL    HW210394   4.597   4.051   0.458 -0.8104  0.5021  0.1106
  194SOL     OW10395   2.540   7.005   2.541  0.0809 -0.1058 -0.3490
  194SOL    HW110396   2.573   6.913   2.561 -0.8764 -0.6902 -1.4049
  194SOL    HW210397   2.545   7.061   2.624 -1.3218 -1.7110  0.8566
  195SOL     OW10398   3.500   8.779   1.279 -0.0874  0.1084 -0.0686
  195SOL    HW110399   3.466   8.720   1.206 -0.1688  0.2030 -0.1094
  195SOL    HW210400   3.455   8.755   1.365  0.1353 -0.1181 -0.0154
  196SOL     OW10401   2.834   8.525   2.454  0.5401 -0.0453  0.5195
  196SOL    HW110402   2.888   8.508   2.537  1.5870 -0.2303 -0.1979
  196SOL    HW210403   2.747   8.568   2.480  2.0896  2.6631  1.4942
  197SOL     OW10404   2.813   7.121   2.478 -0.4579  0.0029  0.3427
  197SOL    HW110405   2.880   7.076   2.537  0.3404 -2.3571 -2.2180
  197SOL    HW210406   2.727   7.069   2.480 -2.1201  2.7401  3.2286
  198SOL     OW10407   3.856   3.118   2.104 -0.4844  0.0202  0.2455
  198SOL    HW110408   3.950   3.131   2.133  0.3749 -2.2979 -1.3902
  198SOL    HW210409   3.854   3.078   2.012 -3.0788  2.1059 -0.6830
  199SOL     OW10410   2.723   0.963   1.652  0.6785 -0.0080 -0.3775
  199SOL    HW110411   2.685   0.899   1.585 -0.2527 -1.0620  1.1044
  199SOL    HW210412   2.764   0.911   1.727 -0.7215  1.1346  1.2051
  200SOL     OW10413   3.527   4.441   1.302  0.1753 -0.7162 -0.0121
  200SOL    HW110414   3.443   4.475   1.344 -0.1101  1.1991 -2.0322
  200SOL    HW210415   3.606   4.471   1.356 -0.2920 -0.0374  0.2943
  201SOL     OW10416   1.907   4.808   1.533 -0.1383 -0.0160  0.6215
  201SOL    HW110417   1.845   4.843   1.603  0.7988 -0.0328  1.4620
  201SOL    HW210418   1.955   4.727   1.568  0.1451 -0.1854 -0.1364
  202SOL     OW10419   3.369   3.330   2.103  0.2603 -0.8118  0.0167
  202SOL    HW110420   3.466   3.305   2.094  0.4184 -0.4128  0.5726
  202SOL    HW210421   3.331   3.288   2.185  0.5259  0.7362  0.9591
  203SOL     OW10422   2.778   5.010   2.470 -0.0501 -0.0409  0.5438
  203SOL    HW110423   2.684   4.976   2.473 -0.0972  0.1803  1.5404
  203SOL    HW210424   2.808   5.013   2.374 -0.4882 -1.6431  0.3255
  204SOL     OW10425   2.039   8.044   2.668 -0.5068  0.3125 -0.3540
  204SOL    HW110426   2.075   8.136   2.652  1.0010 -0.4087 -1.2288
  204SOL    HW210427   2.060   8.016   2.761 -0.4973  0.6578 -0.2522
  205SOL     OW10428   3.037   9.166   1.343 -0.2881  0.2661  0.3722
  205SOL    HW110429   2.978   9.241   1.314 -0.6612 -0.3298 -0.4562
  205SOL    HW210430   3.091   9.193   1.422 -0.2561  1.4829 -0.0611
  206SOL     OW10431   4.223   3.425   1.453 -0.3408  0.6166 -0.1688
  206SOL    HW110432   4.171   3.341   1.469 -2.9551  2.5742  2.2382
  206SOL    HW210433   4.181   3.477   1.379 -0.1762  0.9376 -0.0377
  207SOL     OW10434   2.846   1.195   1.344 -0.7263  0.4795 -0.2389
  207SOL    HW110435   2.905   1.190   1.264 -0.7154  1.9145 -0.3285
  207SOL    HW210436   2.796   1.108   1.354  0.5064 -0.3096 -0.8237
  208SOL     OW10437   4.039   9.121   1.815  1.2227  0.3431 -0.4805
  208SOL    HW110438   4.059   9.213   1.783 -0.8900  0.6833 -0.9276
  208SOL    HW210439   3.955   9.089   1.772  1.6958 -1.6209  0.0179
  209SOL     OW10440   3.368   3.067   1.410 -0.3719 -0.3912 -0.5669
  209SOL    HW110441   3.380   3.104   1.502 -1.4638  2.0520 -1.3498
  209SOL    HW210442   3.413   2.978   1.403  0.5495 -0.1662  2.0291
  210SOL     OW10443   3.721   2.971   0.561  0.3913 -0.2492 -0.1613
  210SOL    HW110444   3.660   3.006   0.632  1.1190  0.1518  0.2698
  210SOL    HW210445   3.814   2.965   0.597  0.5086 -1.4088 -0.6329
  211SOL     OW10446   3.263   8.234   0.640  0.5375  0.0179  0.0231
  211SOL    HW110447   3.352   8.195   0.614  1.2915  1.2988  0.6187
  211SOL    HW210448   3.216   8.172   0.701  0.3053 -1.4176 -1.5796
  212SOL     OW10449   3.053   7.866   1.014  0.1424  0.1722  0.2134
  212SOL    HW110450   3.045   7.873   1.114 -2.5727  1.1079 -0.0200
  212SOL    HW210451   2.997   7.937   0.972  2.0198  0.3758 -1.9925
  213SOL     OW10452   3.172   5.655   1.270 -0.2997  0.0177  0.0541
  213SOL    HW110453   3.102   5.687   1.206  0.2451  0.1236 -0.4999
  213SOL    HW210454   3.190   5.726   1.338 -1.1745 -0.2533  0.5745
  214SOL     OW10455   2.404   3.287   2.162  0.4681  0.4031  0.0446
  214SOL    HW110456   2.409   3.192   2.133 -1.4358  0.2467  0.1539
  214SOL    HW210457   2.379   3.345   2.084  3.0873  1.0461 -0.3729
  215SOL     OW10458   3.115   1.452   2.144 -0.4991 -0.0894 -0.2245
  215SOL    HW110459   3.076   1.381   2.202  0.7557  0.0763  0.8520
  215SOL    HW210460   3.178   1.410   2.078  0.4440  0.0154  0.5826
  216SOL     OW10461   3.853   3.294   0.280 -0.1068 -0.1701  0.1510
  216SOL    HW110462   3.850   3.342   0.192 -2.0704  1.1649  0.9087
  216SOL    HW210463   3.765   3.251   0.298 -0.0913  0.4843  1.9432
  217SOL     OW10464   4.070   1.424   0.696 -0.2951  0.1829 -0.0473
  217SOL    HW110465   4.120   1.510   0.679 -0.3232  0.2067 -0.0110
  217SOL    HW210466   3.986   1.423   0.642 -1.6800  1.3942  2.0053
  218SOL     OW10467   3.613   1.508   0.058 -0.7551  0.3317 -0.2214
  218SOL    HW110468   3.658   1.549   0.137 -0.6087 -0.1779 -0.0389
  218SOL    HW210469   3.582   1.580  -0.004 -0.5213  0.7169  0.1089
  219SOL     OW10470   2.430   1.045   0.244 -0.5438 -0.2621 -0.0688
  219SOL    HW110471   2.500   1.106   0.207  0.8070 -1.8268 -0.1039
  219SOL    HW210472   2.359   1.031   0.176  0.6692 -1.1351 -1.1684
  220SOL     OW10473   3.638   3.453   2.353 -0.3885 -0.6100 -0.3582
  220SOL    HW110474   3.647   3.410   2.443 -2.0897 -1.7978 -0.7248
  220SOL    HW210475   3.648   3.384   2.282 -0.8041  0.0127 -1.0270
  221SOL     OW10476   2.154   7.326   2.153  0.1248  0.3175  0.1978
  221SOL    HW110477   2.127   7.271   2.232  1.4672  0.2711  0.6412
  221SOL    HW210478   2.152   7.423   2.179 -1.3580  0.4234 -0.3093
  222SOL     OW10479   3.664   9.384   0.177  0.1273 -0.1446 -0.5919
  222SOL    HW110480   3.683   9.427   0.266  1.1839  0.1441 -0.9433
  222SOL    HW210481   3.602   9.443   0.125 -0.0117 -0.0133 -0.2813
  223SOL     OW10482   3.618   9.558   1.845 -0.1657 -0.3604 -0.4355
  223SOL    HW110483   3.620   9.639   1.787  0.9481  1.5904  2.2412
  223SOL    HW210484   3.712   9.534   1.872 -0.3866 -3.1027 -1.9074
  224SOL     OW10485   2.850   7.113   1.816  0.3910 -0.2121 -0.2851
  224SOL    HW110486   2.866   7.124   1.718 -1.0299 -0.4840 -0.5555
  224SOL    HW210487   2.866   7.018   1.842  0.5365 -0.1892 -0.2886
  225SOL     OW10488   4.594   4.002   1.070 -0.0527 -0.6130 -0.1665
  225SOL    HW110489   4.653   4.056   1.131 -1.1222  0.7204 -0.3034
  225SOL    HW210490   4.571   3.915   1.114  0.0602 -0.1170  0.8815
  226SOL     OW10491   2.572   6.582   1.649  0.1508  0.2798 -0.5699
  226SOL    HW110492   2.663   6.542   1.662  0.2640  0.4762 -0.7494
  226SOL    HW210493   2.582   6.672   1.605 -0.0161  0.9472  0.7227
  227SOL     OW10494   4.232   4.085   0.194 -0.2974  0.0316  0.0803
  227SOL    HW110495   4.227   4.105   0.292 -1.2919 -1.2151  0.3006
  227SOL    HW210496   4.211   4.167   0.141 -0.7261  0.4649  0.9199
  228SOL     OW10497   2.074   8.078   1.050  0.2655  0.1284  0.0510
  228SOL    HW110498   2.072   8.030   0.963 -0.7883 -1.6768  1.0347
  228SOL    HW210499   2.103   8.172   1.036 -2.4988  0.6509 -2.6202
  229SOL     OW10500   3.587   3.603   1.521  0.2750 -0.0578  0.3326
  229SOL    HW110501   3.525   3.659   1.466 -0.3413 -0.4434  0.6329
  229SOL    HW210502   3.599   3.645   1.611  1.2451  0.5472 -0.0676
  230SOL     OW10503   2.596   5.129   0.817 -0.0383 -0.5040 -0.1147
  230SOL    HW110504   2.513   5.157   0.866 -0.3206  0.2280 -0.9903
  230SOL    HW210505   2.676   5.147   0.875 -0.1789  2.3669 -0.6968
  231SOL     OW10506   4.407   1.486   1.545  0.5293 -0.2762 -0.1502
  231SOL    HW110507   4.443   1.411   1.491 -0.5661 -0.5668 -0.4980
  231SOL    HW210508   4.335   1.533   1.493 -0.6022 -0.6156  1.0912
  232SOL     OW10509   2.180   7.222   0.781  0.3835 -0.1235 -0.2136
  232SOL    HW110510   2.257   7.188   0.834  0.4669  0.6111  0.1380
  232SOL    HW210511   2.186   7.321   0.773 -1.2947  0.1035  1.0298
  233SOL     OW10512   2.404   4.061   2.404  0.1244 -0.6421  0.5782
  233SOL    HW110513   2.448   4.150   2.396 -0.5242 -0.0948  2.7833
  233SOL    HW210514   2.432   4.017   2.490 -0.1270 -2.2464 -0.1343
  234SOL     OW10515   3.357   5.377   1.049  0.5341 -0.2510  0.1672
  234SOL    HW110516   3.449   5.406   1.076 -0.4324  2.6771  0.4873
  234SOL    HW210517   3.310   5.337   1.128  1.2062 -0.9789  0.2123
  235SOL     OW10518   3.238   1.136   0.900 -0.3772 -0.4860  0.2215
  235SOL    HW110519   3.329   1.139   0.942 -0.3165  1.1484  0.0168
  235SOL    HW210520   3.230   1.210   0.834 -1.8015 -0.7242  0.1236
  236SOL     OW10521   2.928   9.699   0.072 -0.0262  0.2364 -0.0059
  236SOL    HW110522   2.945   9.796   0.092  1.6090 -0.0042 -0.1358
  236SOL    HW210523   2.965   9.643   0.147  1.7823 -0.4196 -1.3428
  237SOL     OW10524   4.120   1.200   0.833 -0.6836 -0.4645 -0.6620
  237SOL    HW110525   4.116   1.287   0.784 -0.7743 -1.0159 -1.6476
  237SOL    HW210526   4.216   1.179   0.854 -0.7839  0.5738  0.8589
  238SOL     OW10527   2.611   5.957   0.919  0.0106 -0.7057  0.1582
  238SOL    HW110528   2.578   6.013   0.995 -0.3898 -0.9813  0.1948
  238SOL    HW210529   2.534   5.903   0.883  0.6947 -2.3057  1.0563
  239SOL     OW10530   2.358   6.105   2.600  0.3184  0.0838  0.1924
  239SOL    HW110531   2.342   6.041   2.525 -0.2629  0.8775 -0.3571
  239SOL    HW210532   2.382   6.053   2.683  0.3722 -0.8176 -0.3818
  240SOL     OW10533   2.393   4.275   0.725  0.0195  0.7375  0.2563
  240SOL    HW110534   2.316   4.261   0.786 -0.3743 -1.0139 -0.5964
  240SOL    HW210535   2.362   4.315   0.639 -0.2380 -1.4093 -0.7000
  241SOL     OW10536   3.198   9.974   2.062  0.7877  0.0530 -0.2988
  241SOL    HW110537   3.180   9.923   1.978 -0.0752 -0.7479  0.3590
  241SOL    HW210538   3.295   9.969   2.084  0.7673 -1.0674 -0.4106
  242SOL     OW10539   2.459   3.751   0.782 -0.2316  0.1391 -0.1977
  242SOL    HW110540   2.484   3.712   0.870 -0.1169 -1.2922 -0.8421
  242SOL    HW210541   2.537   3.748   0.719 -1.4122 -2.6454 -1.6220
  243SOL     OW10542   4.683   3.750   1.743 -0.4173 -0.3660  0.3216
  243SOL    HW110543   4.631   3.741   1.828 -0.0227  0.8370  0.6910
  243SOL    HW210544   4.698   3.659   1.704 -1.3505 -0.8523  1.0802
  244SOL     OW10545   2.088   5.652   1.091  0.3867  0.0035  0.1452
  244SOL    HW110546   2.122   5.721   1.028  2.2694  0.2228  1.3633
  244SOL    HW210547   2.096   5.686   1.185 -0.1020 -1.2633  0.6526
  245SOL     OW10548   4.968   4.510   0.654  0.1966 -0.2005 -0.1636
  245SOL    HW110549   4.962   4.477   0.560  0.1483  0.0071 -0.2326
  245SOL    HW210550   5.062   4.500   0.687  0.5858  1.2734 -0.7923
  246SOL     OW10551   3.807   2.987   1.868 -0.0928 -0.4828 -0.1591
  246SOL    HW110552   3.899   2.956   1.842 -0.7955 -2.6094 -0.1945
  246SOL    HW210553   3.770   3.044   1.794  0.5317 -1.0022 -0.8877
  247SOL     OW10554   3.564   9.919   0.727  0.2091  0.0040 -0.4618
  247SOL    HW110555   3.501   9.848   0.760 -1.0852  0.4889 -1.8054
  247SOL    HW210556   3.616   9.956   0.804 -0.3360 -1.2078  0.5050
  248SOL     OW10557   3.657   1.597   1.054  0.2422 -0.4159 -0.4599
  248SOL    HW110558   3.657   1.696   1.042  0.4950 -0.1836  1.3790
  248SOL    HW210559   3.563   1.563   1.050 -0.0174  0.1346  0.6267
  249SOL     OW10560   3.136   6.096   2.360  0.4105 -0.0508 -0.2065
  249SOL    HW110561   3.165   6.149   2.280 -0.3916  1.0305  0.2065
  249SOL    HW210562   3.160   6.147   2.443 -0.8248 -0.1111  0.1867
  250SOL     OW10563   2.829   9.914   1.618 -0.6472  0.4446  0.1258
  250SOL    HW110564   2.866  10.007   1.617 -1.5578  0.8092 -0.0741
  250SOL    HW210565   2.888   9.856   1.674 -0.0805  1.1417  0.2724
  251SOL     OW10566   2.117   7.339   0.383  0.3168 -0.5571 -0.4565
  251SOL    HW110567   2.020   7.340   0.408 -0.2312  0.9700 -2.5802
  251SOL    HW210568   2.158   7.252   0.412 -0.4482  0.7146  4.9286
  252SOL     OW10569   3.383   1.638   2.590  0.3196  0.0149 -0.1882
  252SOL    HW110570   3.312   1.697   2.629  1.5830  1.2025  0.3912
  252SOL    HW210571   3.408   1.672   2.500 -1.8960 -2.1452 -1.6678
  253SOL     OW10572   3.077   2.314   2.694  0.1873  0.3081  0.0238
  253SOL    HW110573   2.989   2.351   2.662 -0.1183  0.3045  0.8474
  253SOL    HW210574   3.146   2.328   2.623 -0.5154  0.1474 -0.7144
  254SOL     OW10575   2.960   0.416   1.537  0.5600 -0.0222  0.4179
  254SOL    HW110576   2.923   0.338   1.486 -0.6035  0.9471 -0.2482
  254SOL    HW210577   2.887   0.456   1.593  1.0301  0.8819  0.3860
  255SOL     OW10578   2.953   7.365   0.844  0.1391  0.2103 -0.1669
  255SOL    HW110579   2.907   7.387   0.929  2.3584 -1.4313  1.5117
  255SOL    HW210580   2.970   7.450   0.793 -1.4594  1.1737  0.8659
  256SOL     OW10581   3.563   4.233   2.691  0.0298  0.1865  0.1554
  256SOL    HW110582   3.631   4.305   2.675  0.0205  0.2294  0.3123
  256SOL    HW210583   3.481   4.251   2.637 -0.0839  0.4460  0.4143
  257SOL     OW10584   3.410   2.167   1.241 -0.5250 -0.0227  0.4614
  257SOL    HW110585   3.496   2.159   1.190 -0.0127 -1.4521  1.5306
  257SOL    HW210586   3.429   2.190   1.336 -1.3587  0.2766  0.5592
  258SOL     OW10587   2.892   7.411   1.217  0.2117 -0.0387 -0.0624
  258SOL    HW110588   2.890   7.414   1.317 -1.7176  0.8804 -0.1024
  258SOL    HW210589   2.972   7.460   1.183  0.7751 -0.2033  1.0234
  259SOL     OW10590   4.772   2.229   0.180  0.3268  0.6713  0.3170
  259SOL    HW110591   4.704   2.174   0.132 -0.7137  0.6042  1.8281
  259SOL    HW210592   4.851   2.173   0.204  1.1059  0.8283 -1.7468
  260SOL     OW10593   3.213   1.117   2.486  0.4313 -0.2054  0.4384
  260SOL    HW110594   3.211   1.216   2.470  0.6398 -0.4314 -1.1222
  260SOL    HW210595   3.284   1.096   2.553  0.7632  0.6622  0.3782
  261SOL     OW10596   3.349   2.608   0.960  0.1039 -0.6837 -0.2416
  261SOL    HW110597   3.335   2.545   0.883  0.2559 -1.9889  0.7716
  261SOL    HW210598   3.261   2.629   1.002 -0.0321  0.4201 -1.0677
  262SOL     OW10599   3.070   2.642   1.790 -0.0976 -0.2223  0.2950
  262SOL    HW110600   3.037   2.719   1.737 -0.1811  0.8865  1.8999
  262SOL    HW210601   3.151   2.603   1.746 -1.2532 -0.5222 -1.6000
  263SOL     OW10602   3.452   4.195   1.246 -0.1174 -0.2102 -0.2323
  263SOL    HW110603   3.488   4.278   1.289  0.2753 -1.0631  1.1115
  263SOL    HW210604   3.408   4.137   1.315  1.4454 -2.0959 -0.7547
  264SOL     OW10605   3.967   1.726   0.845 -0.2909 -0.3711 -0.7070
  264SOL    HW110606   3.904   1.697   0.773  0.6973 -0.9549 -1.3550
  264SOL    HW210607   3.970   1.656   0.917 -2.6935  1.0659  0.8441
  265SOL     OW10608   4.913   3.260   0.265 -0.0496  0.4197 -0.0783
  265SOL    HW110609   4.892   3.250   0.167  1.9576 -1.4208 -0.3703
  265SOL    HW210610   5.007   3.292   0.275  0.6546 -1.9927  1.2582
  266SOL     OW10611   4.329   1.330   2.203 -0.0965  0.1118 -0.0517
  266SOL    HW110612   4.399   1.398   2.227  0.8423 -0.5441 -0.9530
  266SOL    HW210613   4.253   1.377   2.158  0.9587  0.4559 -1.5141
  267SOL     OW10614   2.635   1.318   0.741  0.2672 -0.0061 -0.2808
  267SOL    HW110615   2.585   1.401   0.716  1.8327  1.3103  0.8204
  267SOL    HW210616   2.598   1.280   0.825  0.0446  0.0222 -0.3668
  268SOL     OW10617   2.918   7.700   1.666  0.3571 -0.1895 -0.3134
  268SOL    HW110618   2.916   7.636   1.743  0.5466  0.7749  0.5047
  268SOL    HW210619   2.905   7.794   1.700  0.7854  0.2800 -1.4133
  269SOL     OW10620   4.493   3.471   1.817  0.1293 -0.3223  0.2769
  269SOL    HW110621   4.590   3.444   1.815  0.5518  1.1444 -0.4225
  269SOL    HW210622   4.468   3.509   1.728 -0.7580  0.4389  0.8448
  270SOL     OW10623   2.571   7.463   1.930  0.3820 -0.0382  0.2603
  270SOL    HW110624   2.517   7.414   1.998 -1.6983 -1.4756 -2.2990
  270SOL    HW210625   2.519   7.542   1.897 -0.6270 -1.8409 -2.7488
  271SOL     OW10626   2.595   8.349   1.470  0.1772  0.0968 -0.1140
  271SOL    HW110627   2.511   8.299   1.449  1.5702 -1.3044 -2.4914
  271SOL    HW210628   2.571   8.440   1.505 -2.3353 -0.2100 -0.9380
  272SOL     OW10629   2.981   2.778   0.643  0.5027 -0.1141 -0.5765
  272SOL    HW110630   3.067   2.810   0.683 -0.2991 -1.0606  1.9508
  272SOL    HW210631   2.958   2.688   0.680 -1.1888 -0.2322 -1.8539
  273SOL     OW10632   2.528   7.513   1.477  0.3047 -0.2204 -0.0679
  273SOL    HW110633   2.602   7.455   1.510  0.4741  0.8453  1.4603
  273SOL    HW210634   2.469   7.459   1.417  2.8688 -0.8025 -2.1483
  274SOL     OW10635   2.199   3.857   0.436 -0.2848 -0.1561 -0.5114
  274SOL    HW110636   2.176   3.801   0.516 -1.0152  0.3322 -0.3733
  274SOL    HW210637   2.189   3.954   0.460 -2.4034 -0.0359 -1.7440
  275SOL     OW10638   2.579   8.593   0.925  0.6240 -0.4270 -0.4584
  275SOL    HW110639   2.622   8.676   0.959  0.1294 -0.1502 -0.5034
  275SOL    HW210640   2.491   8.580   0.971  0.6776 -0.8968 -0.4880
  276SOL     OW10641   4.566   1.836   2.549  0.0877 -0.0926  0.0578
  276SOL    HW110642   4.567   1.867   2.454  1.1178 -1.4819 -0.4031
  276SOL    HW210643   4.477   1.798   2.571 -0.3073  0.6668 -0.1925
  277SOL     OW10644   4.522   4.499   1.039 -0.3079 -0.3926  0.0300
  277SOL    HW110645   4.438   4.553   1.046  0.9639  1.4212  1.9853
  277SOL    HW210646   4.583   4.543   0.973 -0.0892 -0.5987  0.0977
  278SOL     OW10647   3.508   8.270   1.991 -0.5994  0.2258  0.1693
  278SOL    HW110648   3.550   8.283   2.081 -0.2660 -0.7929  0.1648
  278SOL    HW210649   3.545   8.338   1.927 -0.9209  1.0270  0.8157
  279SOL     OW10650   2.811   7.441   0.109 -0.7253  0.4563  0.1967
  279SOL    HW110651   2.788   7.484   0.022  1.1914 -2.1311 -1.6920
  279SOL    HW210652   2.738   7.378   0.136 -0.0894 -0.8774 -1.0775
  280SOL     OW10653   3.985   4.500   0.128 -0.3758  0.0251 -0.3398
  280SOL    HW110654   4.056   4.494   0.057  0.1723  0.2507  0.1854
  280SOL    HW210655   4.022   4.468   0.215 -0.1222  2.5017  0.5123
  281SOL     OW10656   4.000   3.562   1.014 -0.3610  0.2356 -0.0866
  281SOL    HW110657   3.930   3.531   0.949  0.1987 -1.7961  0.2229
  281SOL    HW210658   3.973   3.537   1.107  0.4793 -0.0321  0.0915
  282SOL     OW10659   3.828   9.963   2.294 -0.4220  0.1060 -0.1304
  282SOL    HW110660   3.836   9.980   2.392 -0.7283 -1.8763  0.2606
  282SOL    HW210661   3.907  10.002   2.247  0.1072  0.4131  0.9981
  283SOL     OW10662   2.115   5.227   1.053 -0.6620  0.4573 -0.0783
  283SOL    HW110663   2.074   5.136   1.048  1.1496 -0.4332  0.8072
  283SOL    HW210664   2.053   5.289   1.102 -1.9184 -0.2614 -0.7202
  284SOL     OW10665   4.941   3.910   0.229  0.0458 -0.2174 -0.2553
  284SOL    HW110666   4.958   3.958   0.315 -1.4030  0.6835 -0.4432
  284SOL    HW210667   4.870   3.959   0.178 -0.0636 -1.4944 -1.3440
  285SOL     OW10668   3.000   2.840   0.380 -0.4636  0.6582 -0.0010
  285SOL    HW110669   2.915   2.829   0.328 -0.8075  1.0583  0.4800
  285SOL    HW210670   2.986   2.810   0.474  0.2781 -0.4740 -0.2359
  286SOL     OW10671   2.526   3.990   0.959 -0.0881 -0.6301  0.0773
  286SOL    HW110672   2.518   4.077   0.911 -0.3844 -1.3009 -1.1133
  286SOL    HW210673   2.481   3.918   0.905  1.1367 -1.7211  0.4916
  287SOL     OW10674   3.053   0.030   0.259 -0.2581 -0.0595  0.5461
  287SOL    HW110675   3.022  -0.010   0.345  1.2035 -0.7044  0.7685
  287SOL    HW210676   3.087   0.123   0.275 -1.1745  0.3082  0.4413
  288SOL     OW10677   3.578   3.799   1.717 -0.3463  0.3518 -0.1478
  288SOL    HW110678   3.578   3.887   1.668 -2.3072  1.2688  1.4127
  288SOL    HW210679   3.568   3.816   1.815  2.2889 -1.5224  0.4744
  289SOL     OW10680   4.150   4.384   1.166  0.2932  0.0247 -0.8209
  289SOL    HW110681   4.197   4.473   1.161  1.1010 -0.3383  0.1642
  289SOL    HW210682   4.188   4.323   1.096  1.4776 -0.3527  0.1431
  290SOL     OW10683   3.426   4.866   2.282 -0.3625  0.2605  0.1877
  290SOL    HW110684   3.471   4.828   2.363  0.6385  1.2599  0.1242
  290SOL    HW210685   3.350   4.808   2.256  0.0655 -0.7465  1.1174
  291SOL     OW10686   3.310   5.727   2.576  0.5110 -0.4365 -0.0907
  291SOL    HW110687   3.228   5.770   2.538 -0.4559 -1.6185  0.6003
  291SOL    HW210688   3.342   5.779   2.655  1.2058  0.7564 -1.1326
  292SOL     OW10689   4.521   1.845   2.276  0.4533  0.1122  0.2422
  292SOL    HW110690   4.609   1.859   2.231 -0.1358  1.2374 -0.5783
  292SOL    HW210691   4.467   1.929   2.271 -0.3953 -0.3468  1.3611
  293SOL     OW10692   2.790   0.144   1.074  0.0872  0.0648  0.5334
  293SOL    HW110693   2.844   0.228   1.075  2.3559 -1.3620  1.8837
  293SOL    HW210694   2.810   0.091   1.156 -2.1738 -1.2727  0.2506
  294SOL     OW10695   2.653   8.747   1.780 -0.7991  0.4480  0.3129
  294SOL    HW110696   2.629   8.811   1.707 -1.4902 -1.6532 -1.3439
  294SOL    HW210697   2.661   8.796   1.867 -1.8144  2.6748 -0.8358
  295SOL     OW10698   3.409   1.580   2.107  0.0044  0.0605  0.0301
  295SOL    HW110699   3.377   1.660   2.056 -0.6551  0.5785  1.2344
  295SOL    HW210700   3.361   1.498   2.074 -0.0416  0.3127 -0.5287
  296SOL     OW10701   3.906   0.806   2.129 -0.4258 -0.1989  0.0179
  296SOL    HW110702   3.909   0.772   2.035 -1.2075 -0.7008  0.1662
  296SOL    HW210703   3.954   0.894   2.135  1.4632 -1.1836 -0.4041
  297SOL     OW10704   2.253   7.770   1.372  0.0755  0.2937 -0.0800
  297SOL    HW110705   2.218   7.862   1.355 -1.2867  0.0077  1.0863
  297SOL    HW210706   2.309   7.771   1.455 -2.3921 -0.4987  1.6367
  298SOL     OW10707   3.075   8.313   0.100  0.5734 -0.0070  0.2676
  298SOL    HW110708   3.048   8.258   0.021  0.4912 -0.0498  0.3260
  298SOL    HW210709   3.041   8.406   0.090 -0.9418 -0.4541  1.0869
  299SOL     OW10710   2.942   9.598   0.866 -0.5022  0.0095  0.2326
  299SOL    HW110711   2.910   9.653   0.943 -2.0613 -0.0304 -0.3660
  299SOL    HW210712   2.870   9.593   0.796  1.0231  0.3681 -1.4014
  300SOL     OW10713   4.401   1.632   0.843 -0.7190  0.0353 -0.1206
  300SOL    HW110714   4.423   1.536   0.827  0.1678 -0.0332  1.4211
  300SOL    HW210715   4.320   1.657   0.790 -0.4351 -1.3179 -1.2208
  301SOL     OW10716   5.240   2.464   0.421  0.0168  0.2753  0.3132
  301SOL    HW110717   5.312   2.533   0.411  0.9463 -0.5335  1.3170
  301SOL    HW210718   5.205   2.466   0.514  0.6424 -1.1850  0.5916
  302SOL     OW10719   3.321   0.687   1.503 -0.0107 -0.1503 -0.4047
  302SOL    HW110720   3.338   0.612   1.567  2.0189  0.1357 -0.5529
  302SOL    HW210721   3.330   0.654   1.409 -3.3576 -0.6542 -0.5928
  303SOL     OW10722   2.794   5.803   0.738 -0.5108 -0.5178 -0.0277
  303SOL    HW110723   2.760   5.830   0.828 -1.5869  1.0764 -0.8731
  303SOL    HW210724   2.806   5.704   0.734  0.8600 -0.4892  2.3021
  304SOL     OW10725   3.335   9.543   0.614  0.2081  0.0580 -0.6027
  304SOL    HW110726   3.235   9.546   0.619  0.3154  0.3213  2.0718
  304SOL    HW210727   3.363   9.453   0.579 -0.9352 -1.2028  1.5556
  305SOL     OW10728   3.891   3.129   2.405 -0.3880 -0.0201 -0.3035
  305SOL    HW110729   3.839   3.146   2.321  1.0269  0.5586 -1.0848
  305SOL    HW210730   3.986   3.112   2.381  0.2147  1.0812  1.2497
  306SOL     OW10731   2.302   1.449   1.828 -0.3723  0.3069  0.1425
  306SOL    HW110732   2.296   1.547   1.846  1.5875  0.2967  0.9475
  306SOL    HW210733   2.317   1.400   1.914  0.9819 -0.4806 -0.5219
  307SOL     OW10734   4.283   3.282   1.754  0.3249  0.0751  0.1739
  307SOL    HW110735   4.369   3.302   1.802  0.5477 -0.5564  0.0413
  307SOL    HW210736   4.304   3.245   1.663 -0.0920  0.7649 -0.2082
  308SOL     OW10737   2.994   7.343   1.715 -0.1831  0.8534  0.3232
  308SOL    HW110738   3.051   7.261   1.710  0.2490  1.2194 -0.7628
  308SOL    HW210739   2.999   7.380   1.808  0.4681  0.2508  0.5354
  309SOL     OW10740   2.449   8.514   1.248 -0.1881  0.2406  0.0853
  309SOL    HW110741   2.488   8.431   1.288 -0.6854  0.6716  1.5106
  309SOL    HW210742   2.446   8.586   1.318 -0.8076  1.1136 -0.8240
  310SOL     OW10743   2.827   4.017   2.366 -0.1739  0.7821 -0.4524
  310SOL    HW110744   2.759   3.948   2.388  0.0515  0.7318  0.1243
  310SOL    HW210745   2.916   3.988   2.403  0.3577  0.4061 -1.9925
  311SOL     OW10746   2.689   2.837   0.800  0.2681 -0.6546  0.0432
  311SOL    HW110747   2.739   2.916   0.763 -0.7842 -0.1547 -0.3329
  311SOL    HW210748   2.751   2.758   0.804  1.4836  0.3248  0.9414
  312SOL     OW10749   4.306   3.136   1.224  0.5329 -0.3371 -0.1436
  312SOL    HW110750   4.320   3.231   1.196 -0.2564 -0.4149 -0.8320
  312SOL    HW210751   4.339   3.076   1.152  0.7868 -0.5783  0.1773
  313SOL     OW10752   3.915   5.062   0.570  0.4182 -0.0397 -0.1014
  313SOL    HW110753   3.914   5.132   0.641 -1.3524  1.8481 -1.9127
  313SOL    HW210754   4.000   5.068   0.518  0.0580  1.1755 -0.5862
  314SOL     OW10755   4.271   0.735   0.481  0.1205  0.5274  0.4501
  314SOL    HW110756   4.324   0.663   0.437 -0.5275  0.1235  0.3241
  314SOL    HW210757   4.330   0.787   0.543  1.2965  1.8545 -1.7610
  315SOL     OW10758   2.504   6.383   1.849 -0.6534  0.0415  0.2244
  315SOL    HW110759   2.417   6.334   1.843 -0.1660 -0.6802 -0.9495
  315SOL    HW210760   2.517   6.439   1.768 -0.1616  0.3989  0.5424
  316SOL     OW10761   2.747   5.615   2.448  0.2176 -0.0416 -0.7379
  316SOL    HW110762   2.790   5.544   2.502 -1.7385 -0.3984  0.4015
  316SOL    HW210763   2.750   5.702   2.497 -0.6963 -0.1585 -0.4529
  317SOL     OW10764   4.687   4.204   0.162 -0.4357  0.0271  0.6201
  317SOL    HW110765   4.654   4.179   0.253  0.5425 -1.5096  0.5645
  317SOL    HW210766   4.785   4.226   0.167 -0.7255  1.5214  0.2173
  318SOL     OW10767   3.575   2.999   2.147 -0.0747  0.1572 -0.6153
  318SOL    HW110768   3.606   2.920   2.094  2.3859 -0.3232  1.4389
  318SOL    HW210769   3.628   3.079   2.121  1.4852 -0.1833  1.3665
  319SOL     OW10770   2.180   5.202   2.141 -0.1396 -0.2265  0.4170
  319SOL    HW110771   2.086   5.232   2.157 -0.5684 -0.4787 -1.4854
  319SOL    HW210772   2.243   5.277   2.162 -0.9275  0.6806 -0.4193
  320SOL     OW10773   4.210   1.889   2.079 -0.2186  0.1487  0.2282
  320SOL    HW110774   4.259   1.955   2.137 -0.0754  0.4766 -0.2643
  320SOL    HW210775   4.219   1.916   1.983 -0.3748 -0.4500  0.0449
  321SOL     OW10776   3.509   4.448   2.270  0.1159 -0.0418 -0.5117
  321SOL    HW110777   3.523   4.420   2.175  1.2154 -1.3662  0.0345
  321SOL    HW210778   3.471   4.371   2.322  0.0123  0.5134  0.2390
  322SOL     OW10779   4.942   3.235   0.949 -0.0254 -0.3064  0.3965
  322SOL    HW110780   4.940   3.213   1.046 -1.7529  0.9369  0.6789
  322SOL    HW210781   4.865   3.191   0.903  0.5316 -0.5314 -0.3290
  323SOL     OW10782   4.202   1.589   1.385 -0.4401 -0.1880  0.3161
  323SOL    HW110783   4.260   1.599   1.304 -1.6744  0.1706 -0.5260
  323SOL    HW210784   4.118   1.640   1.372  0.2503  1.6254  2.7013
  324SOL     OW10785   3.792   1.906   0.562  0.3250  0.0687 -0.0527
  324SOL    HW110786   3.703   1.904   0.517 -0.5728  0.6991  1.6224
  324SOL    HW210787   3.793   1.841   0.638  1.1515  0.3394  0.1827
  325SOL     OW10788   2.343   3.618   1.196  0.0510  0.2397 -0.1712
  325SOL    HW110789   2.327   3.704   1.147  1.4361  0.0109 -1.0748
  325SOL    HW210790   2.304   3.624   1.287 -0.6352  1.5121 -0.5328
  326SOL     OW10791   3.450   2.174   1.502 -0.7776  0.3359 -0.1265
  326SOL    HW110792   3.435   2.198   1.598 -1.4765 -0.0590 -0.1271
  326SOL    HW210793   3.524   2.108   1.495  0.7088  1.9793 -0.0632
  327SOL     OW10794   4.942   1.537   0.046 -0.1079 -0.3266 -0.1454
  327SOL    HW110795   5.024   1.587   0.019 -0.3652 -0.1126 -0.5366
  327SOL    HW210796   4.869   1.554  -0.020 -0.0191 -1.7069 -0.6085
  328SOL     OW10797   4.319   1.672   2.622 -0.4876 -0.2481 -0.2068
  328SOL    HW110798   4.359   1.675   2.714  1.4624 -1.1714 -0.9999
  328SOL    HW210799   4.300   1.578   2.597  0.3110 -0.1231 -1.3052
  329SOL     OW10800   3.173   7.998   0.372 -0.3349 -0.3762 -0.1824
  329SOL    HW110801   3.201   8.083   0.326  0.0998  2.0070  4.1158
  329SOL    HW210802   3.254   7.944   0.393 -0.3901 -0.7163 -0.8360
  330SOL     OW10803   3.779   1.649   0.665 -0.6170  0.0804 -0.4043
  330SOL    HW110804   3.783   1.662   0.566 -1.3868  0.4416 -0.3870
  330SOL    HW210805   3.728   1.566   0.686 -2.9307  1.4996 -0.2231
  331SOL     OW10806   3.838   4.097   2.308  0.0037  0.5340  0.4017
  331SOL    HW110807   3.853   4.186   2.351  0.3071  0.3520  0.6688
  331SOL    HW210808   3.821   4.028   2.379 -1.3911  0.5946  0.1534
  332SOL     OW10809   4.703   4.277   2.094  0.5379 -0.2183  0.3925
  332SOL    HW110810   4.727   4.303   2.188  0.1978 -0.0424  0.4340
  332SOL    HW210811   4.618   4.225   2.095  0.2018  0.3249  0.1208
  333SOL     OW10812   2.645   9.000   1.668  0.5043 -0.3732 -0.3004
  333SOL    HW110813   2.743   9.003   1.648  0.7874  2.1669  1.2787
  333SOL    HW210814   2.597   9.068   1.614  0.0624  0.5297  1.1998
  334SOL     OW10815   3.209   1.226   0.290 -0.2406 -0.4411 -0.2113
  334SOL    HW110816   3.209   1.128   0.269 -2.2316 -0.4552 -0.2906
  334SOL    HW210817   3.122   1.250   0.334  1.5754  0.6418  2.9289
  335SOL     OW10818   2.039   7.040   0.971 -0.4701  0.4237  0.5169
  335SOL    HW110819   1.948   7.010   0.943  0.6717 -0.7828 -2.1059
  335SOL    HW210820   2.065   7.120   0.917  0.8171 -0.4636 -0.1949
  336SOL     OW10821   3.175   8.751   1.387 -0.1466  0.1147 -0.1248
  336SOL    HW110822   3.131   8.751   1.297 -0.0971 -0.0405 -0.1490
  336SOL    HW210823   3.110   8.720   1.456  0.4412 -1.8435 -0.4156
  337SOL     OW10824   4.099   2.631   0.368  0.0997 -0.5530 -0.4990
  337SOL    HW110825   4.120   2.674   0.280  1.1274 -2.6846 -1.3289
  337SOL    HW210826   4.183   2.598   0.410 -0.6608 -1.6887  0.1484
  338SOL     OW10827   3.988   4.845   0.035  0.0076 -0.3532  0.4221
  338SOL    HW110828   3.944   4.778   0.095 -0.7346  0.7013  1.0643
  338SOL    HW210829   4.082   4.860   0.066 -1.0969  1.9726  2.8332
  339SOL     OW10830   3.560   8.837   0.237  0.5794  0.0399  0.1920
  339SOL    HW110831   3.649   8.792   0.233  0.4650 -0.1133 -0.8255
  339SOL    HW210832   3.565   8.926   0.192  0.6911  0.8751  1.8107
  340SOL     OW10833   2.751   6.035   1.397  0.1793 -0.8060  0.3009
  340SOL    HW110834   2.780   6.126   1.367  0.1309 -0.3694  1.5352
  340SOL    HW210835   2.776   5.967   1.328  1.3631 -0.0251 -0.0475
  341SOL     OW10836   3.659   2.747   1.615  0.0148  0.2060 -0.0045
  341SOL    HW110837   3.580   2.802   1.587 -1.1887 -1.1261  0.7412
  341SOL    HW210838   3.633   2.686   1.689  1.3882 -1.2657 -0.7033
  342SOL     OW10839   2.890   2.776   1.099  0.4380  0.5403  0.7030
  342SOL    HW110840   2.871   2.698   1.039 -0.5069  0.3143  1.2924
  342SOL    HW210841   2.826   2.775   1.176  0.7481  1.6210  0.9747
  343SOL     OW10842   3.613   1.866   1.081  0.5778 -0.2251  0.0023
  343SOL    HW110843   3.560   1.866   1.166  0.3265  0.1843 -0.1511
  343SOL    HW210844   3.693   1.924   1.092  0.9359 -0.7573  0.1989
  344SOL     OW10845   1.988   4.552   1.956 -0.0799 -0.0162  0.2186
  344SOL    HW110846   1.956   4.477   2.014  1.2551 -0.6942  0.0947
  344SOL    HW210847   1.933   4.633   1.974 -1.3992 -0.9653  0.5094
  345SOL     OW10848   2.568   0.347   1.829 -0.1424  0.1640 -0.3317
  345SOL    HW110849   2.555   0.410   1.905 -0.8710  0.3083 -0.5768
  345SOL    HW210850   2.565   0.253   1.864 -0.3872  0.2313 -0.1654
  346SOL     OW10851   3.697   2.293   0.600 -0.3803 -0.2952 -0.3818
  346SOL    HW110852   3.600   2.271   0.593 -0.5550  0.1528  0.5784
  346SOL    HW210853   3.732   2.261   0.688 -0.3423  2.1136  0.5072
  347SOL     OW10854   2.740   4.449   1.134 -0.2521  0.5101  0.1493
  347SOL    HW110855   2.671   4.463   1.064  0.1455  0.2282 -0.3035
  347SOL    HW210856   2.719   4.367   1.187  0.1993 -0.0768 -0.5593
  348SOL     OW10857   2.754   4.899   0.122 -0.7995  0.2671 -0.1732
  348SOL    HW110858   2.745   4.990   0.082 -0.6677  0.2165 -0.3181
  348SOL    HW210859   2.708   4.832   0.063 -0.3330  0.1481 -0.4006
  349SOL     OW10860   3.167   9.079   0.109  0.1259  0.6953 -0.1607
  349SOL    HW110861   3.243   9.117   0.162  1.1136 -1.0185 -0.3113
  349SOL    HW210862   3.167   9.121   0.018 -0.3642  2.1847  0.5132
  350SOL     OW10863   2.930   5.161   0.224 -0.1472  0.0045  0.0940
  350SOL    HW110864   3.011   5.154   0.166  1.1684  0.5653  1.8064
  350SOL    HW210865   2.847   5.148   0.169  1.1007 -0.5228 -1.6850
  351SOL     OW10866   3.394   3.559   1.917 -0.4244  0.6949 -0.5389
  351SOL    HW110867   3.398   3.482   1.981 -0.5116  0.8385 -0.3592
  351SOL    HW210868   3.458   3.630   1.946 -0.2849  0.6565 -0.7500
  352SOL     OW10869   3.265   0.290   0.265 -0.3893 -0.1682  0.1227
  352SOL    HW110870   3.308   0.330   0.184 -1.4844  0.0056 -0.3934
  352SOL    HW210871   3.334   0.271   0.334  0.6051 -0.5875 -0.9694
  353SOL     OW10872   3.506   2.605   1.815 -0.1743 -0.5395 -0.2473
  353SOL    HW110873   3.427   2.609   1.754 -0.3643 -0.3343  0.0099
  353SOL    HW210874   3.518   2.510   1.846 -1.0495 -0.3663  0.6550
  354SOL     OW10875   3.958   9.988   1.561  0.2446 -0.2793  0.1283
  354SOL    HW110876   4.052   9.957   1.574  0.6617  1.1089  0.4718
  354SOL    HW210877   3.953  10.087   1.576 -1.2449 -0.3249 -0.0201
  355SOL     OW10878   3.839   0.754   1.831 -0.0870  0.0585  0.3169
  355SOL    HW110879   3.858   0.664   1.792  1.1104  0.0752  0.8631
  355SOL    HW210880   3.860   0.825   1.764 -1.1851 -0.0657 -0.1718
  356SOL     OW10881   2.621   0.790   2.005 -0.1330  0.3295  0.1393
  356SOL    HW110882   2.532   0.821   1.972 -1.0248 -2.1707  0.1626
  356SOL    HW210883   2.640   0.831   2.094 -1.1440  1.0372  0.0291
  357SOL     OW10884   2.437   7.731   2.081  0.3465 -0.0649  0.0481
  357SOL    HW110885   2.496   7.796   2.033 -1.3564  1.0914 -0.5601
  357SOL    HW210886   2.446   7.744   2.180 -0.9682  2.0889 -0.0734
  358SOL     OW10887   2.505   4.916   1.501  0.7091  0.2315  0.4374
  358SOL    HW110888   2.425   4.946   1.449  1.1969  1.3187  0.3133
  358SOL    HW210889   2.587   4.931   1.447  1.3074  2.1288  1.8081
  359SOL     OW10890   4.327   3.590   0.922  0.1986 -0.5839  0.0692
  359SOL    HW110891   4.300   3.526   0.849  0.4869  0.5818 -1.0755
  359SOL    HW210892   4.426   3.590   0.930  0.2781  0.6181 -0.7774
  360SOL     OW10893   2.587   0.948   0.443 -0.3584  0.5990  0.1395
  360SOL    HW110894   2.673   0.944   0.394 -0.3817  2.4635 -0.0822
  360SOL    HW210895   2.512   0.960   0.378 -0.6353  0.5710  0.4522
  361SOL     OW10896   2.243   7.133   0.514 -0.5450  0.3288  0.4286
  361SOL    HW110897   2.249   7.033   0.518 -0.5795  0.3456  0.9320
  361SOL    HW210898   2.222   7.169   0.605  0.6231  0.8727  0.4855
  362SOL     OW10899   3.079   9.365   0.442 -0.0043 -0.3098 -0.2247
  362SOL    HW110900   3.031   9.433   0.497 -0.2660  0.8651 -1.8757
  362SOL    HW210901   3.059   9.273   0.477 -3.4172  0.1489 -0.8330
  363SOL     OW10902   3.752   9.841   1.985  0.6603 -0.0411  0.1730
  363SOL    HW110903   3.694   9.764   2.013 -0.2946 -0.1463 -1.9431
  363SOL    HW210904   3.845   9.810   1.969  0.5449 -0.5312  0.4692
  364SOL     OW10905   3.335   3.719   2.387  0.7924 -0.1315  0.2876
  364SOL    HW110906   3.304   3.626   2.367  0.1860 -0.3595  2.1726
  364SOL    HW210907   3.265   3.784   2.357  0.7874 -0.3245 -0.1354
  365SOL     OW10908   2.887   9.816   1.024  0.2751 -1.0010  0.1131
  365SOL    HW110909   2.952   9.825   0.949 -1.0784  2.8493 -0.7367
  365SOL    HW210910   2.807   9.873   1.005 -0.9221 -1.3998  3.6198
  366SOL     OW10911   3.055   4.475   1.734  0.3323  0.3241 -0.2955
  366SOL    HW110912   3.148   4.437   1.729  1.3649  2.8478 -0.9708
  366SOL    HW210913   2.993   4.419   1.679  1.1786 -2.1120  1.1493
  367SOL     OW10914   3.825   8.990   1.723 -0.0230  0.7961  0.3283
  367SOL    HW110915   3.838   8.892   1.706  2.3478  0.8627  1.5798
  367SOL    HW210916   3.759   9.002   1.797  1.1317  0.0508  1.5166
  368SOL     OW10917   4.166   1.878   0.441  0.0518 -0.1425 -0.8226
  368SOL    HW110918   4.120   1.962   0.469  1.4081  1.1695 -2.3929
  368SOL    HW210919   4.254   1.901   0.399  1.1996 -2.4509  0.2218
  369SOL     OW10920   2.444   2.043   2.100  0.1902  0.1963 -0.2681
  369SOL    HW110921   2.526   2.029   2.156 -0.8921 -0.3064  1.2232
  369SOL    HW210922   2.396   1.956   2.090 -1.1108  0.8353  0.3694
  370SOL     OW10923   2.941   3.918   0.925 -0.1474  0.1406  0.0387
  370SOL    HW110924   2.985   3.962   0.846  0.2827  0.3687  0.4015
  370SOL    HW210925   2.870   3.978   0.962  0.5296  0.5918  0.6151
  371SOL     OW10926   4.967   2.162   0.549  0.0347 -0.8123  0.5648
  371SOL    HW110927   5.045   2.183   0.490 -0.0265  1.8739  1.3441
  371SOL    HW210928   4.920   2.081   0.515  1.4414 -0.7520 -1.6466
  372SOL     OW10929   2.206   2.844   1.180 -0.1120 -0.2069 -1.0632
  372SOL    HW110930   2.249   2.908   1.244 -1.4964 -0.5435  0.2292
  372SOL    HW210931   2.254   2.847   1.093  2.2877 -0.2887  0.2200
  373SOL     OW10932   3.720   5.127   1.183  0.1473 -0.6692 -0.5072
  373SOL    HW110933   3.731   5.065   1.105  1.5231 -0.0518 -0.8088
  373SOL    HW210934   3.670   5.079   1.256  0.2956 -1.7911 -1.1253
  374SOL     OW10935   2.246   4.593   2.026  0.1677 -0.1548 -0.2906
  374SOL    HW110936   2.147   4.587   2.015  0.1360 -0.7453  0.3084
  374SOL    HW210937   2.282   4.507   2.062  0.8646  0.1455 -0.2469
  375SOL     OW10938   3.184   7.999   0.782  0.6262 -0.3975  0.3406
  375SOL    HW110939   3.116   7.969   0.716  1.3326  0.3442 -0.7342
  375SOL    HW210940   3.157   7.969   0.874 -0.0994 -1.8784 -0.3417
  376SOL     OW10941   2.478   5.712   1.065 -0.4471  0.2433  0.0198
  376SOL    HW110942   2.461   5.636   1.128  0.8565 -0.9580 -1.0471
  376SOL    HW210943   2.390   5.749   1.033 -1.1520  1.4387  3.1456
  377SOL     OW10944   3.387   1.376   2.615  0.4502  0.0257  0.2806
  377SOL    HW110945   3.448   1.316   2.667  1.3509  0.0812 -0.7107
  377SOL    HW210946   3.416   1.471   2.627  0.4726  0.0634 -0.0768
  378SOL     OW10947   2.308   1.538   0.199 -0.5407 -0.9918 -0.6313
  378SOL    HW110948   2.216   1.500   0.204 -0.0947 -1.7739  2.9387
  378SOL    HW210949   2.368   1.488   0.261  2.0885  0.1246 -2.1929
  379SOL     OW10950   4.394   1.965   0.344  0.0056  0.1328 -0.0983
  379SOL    HW110951   4.480   1.958   0.394 -0.1107 -0.3453  0.0317
  379SOL    HW210952   4.364   2.061   0.344  1.5685  0.6545 -1.8699
  380SOL     OW10953   4.011   4.327   1.806  0.2343 -0.3706  0.0421
  380SOL    HW110954   4.029   4.415   1.851  0.5822 -0.8486  0.8489
  380SOL    HW210955   4.086   4.305   1.744  0.9628 -0.9056  1.1110
  381SOL     OW10956   4.413   3.972   1.384 -0.2982 -0.2214 -0.2271
  381SOL    HW110957   4.413   3.948   1.481 -0.5509  1.0633  0.0999
  381SOL    HW210958   4.507   3.986   1.353 -0.1666 -1.3603 -0.3584
  382SOL     OW10959   3.774   0.351   2.550  0.4970 -0.6697  0.8554
  382SOL    HW110960   3.871   0.371   2.532 -0.1136 -0.0355 -1.9043
  382SOL    HW210961   3.720   0.374   2.470 -1.9383 -1.3001  2.2771
  383SOL     OW10962   3.186   7.245   0.443  0.3294  0.1246 -0.2110
  383SOL    HW110963   3.203   7.189   0.524 -0.3059  0.5777  0.2385
  383SOL    HW210964   3.265   7.305   0.427 -0.5907  1.8993  1.6050
  384SOL     OW10965   3.150   0.915   1.458  0.0050 -0.6686  0.3358
  384SOL    HW110966   3.211   0.842   1.488 -1.2829 -1.0154  2.1929
  384SOL    HW210967   3.070   0.875   1.413  0.0415 -0.3387 -0.0190
  385SOL     OW10968   2.446   9.749   1.839  0.3547  0.6420 -0.2404
  385SOL    HW110969   2.484   9.782   1.753  2.0867  1.7204  0.9115
  385SOL    HW210970   2.368   9.805   1.865 -0.8896 -0.3862 -1.6450
  386SOL     OW10971   3.139   4.444   1.274  0.1031 -0.0339 -0.0967
  386SOL    HW110972   3.107   4.538   1.286 -0.8872 -0.1789 -1.3984
  386SOL    HW210973   3.132   4.419   1.178  1.4524 -1.0664  0.0590
  387SOL     OW10974   2.126   4.617   2.619  0.2817 -0.0455  0.0864
  387SOL    HW110975   2.150   4.545   2.554 -0.3510  0.1050 -0.3247
  387SOL    HW210976   2.044   4.665   2.586 -1.7522 -1.8121  2.3948
  388SOL     OW10977   3.574   0.203   1.767 -0.0058  0.4343 -0.2057
  388SOL    HW110978   3.579   0.303   1.776  0.9533  0.1342  3.1438
  388SOL    HW210979   3.481   0.173   1.786 -0.4670  0.7259 -1.9244
  389SOL     OW10980   4.363   3.169   1.508  0.1357  0.0918 -0.1305
  389SOL    HW110981   4.336   3.151   1.414  0.4022 -0.9738 -0.0069
  389SOL    HW210982   4.454   3.210   1.510  0.0843  0.2145 -0.3451
  390SOL     OW10983   3.369   5.784   0.629 -0.5204 -0.1039  0.4546
  390SOL    HW110984   3.273   5.785   0.600 -0.8281  3.7961  1.3185
  390SOL    HW210985   3.374   5.770   0.727 -0.4083  2.3729  0.8306
  391SOL     OW10986   4.376   3.849   0.619  0.1311  0.1017  0.0214
  391SOL    HW110987   4.393   3.851   0.718 -1.0676  0.3365  0.2335
  391SOL    HW210988   4.290   3.897   0.599 -1.2793 -2.6372 -0.7794
  392SOL     OW10989   3.545   4.966   1.381  0.0025 -0.2167 -0.2976
  392SOL    HW110990   3.533   4.927   1.472 -1.4867  0.3237 -0.2529
  392SOL    HW210991   3.522   4.898   1.312  0.0445 -0.2722 -0.2566
  393SOL     OW10992   2.995   3.931   1.947 -0.5186  0.3167 -0.2674
  393SOL    HW110993   3.066   3.876   1.991  0.1238 -0.1177 -1.8031
  393SOL    HW210994   3.034   3.977   1.867 -1.8366  0.4686 -0.8311
  394SOL     OW10995   3.557   9.697   0.421  0.3430 -0.0298  0.0120
  394SOL    HW110996   3.605   9.611   0.436 -1.8581 -1.5138 -1.2959
  394SOL    HW210997   3.488   9.710   0.493 -0.9088 -0.4978 -1.0932
  395SOL     OW10998   3.181   2.632   2.630  0.3483  0.9054  0.9630
  395SOL    HW110999   3.179   2.598   2.724 -0.7372 -1.8187 -0.0089
  395SOL    HW211000   3.276   2.642   2.601  0.6846  0.5101  1.8983
  396SOL     OW11001   2.459   3.105   0.144  0.5116 -0.0621 -0.4183
  396SOL    HW111002   2.527   3.039   0.176  0.5150 -1.2936 -2.8766
  396SOL    HW211003   2.489   3.197   0.167  2.9687 -0.5918 -1.3454
  397SOL     OW11004   4.733   2.006   0.023  0.4152 -0.2643  0.3060
  397SOL    HW111005   4.652   1.949   0.016 -1.2136  2.3099 -3.3935
  397SOL    HW211006   4.810   1.960  -0.021  0.3125 -1.4780  1.3433
  398SOL     OW11007   3.743   9.686   2.264 -0.0539  0.1226 -0.4411
  398SOL    HW111008   3.835   9.646   2.259 -0.0741  0.1325 -0.8661
  398SOL    HW211009   3.750   9.784   2.281  0.0290  0.2412 -1.1458
  399SOL     OW11010   3.873   0.487   1.778 -0.4338  0.5003 -0.0962
  399SOL    HW111011   3.819   0.450   1.854 -0.1525  0.9401  0.3155
  399SOL    HW211012   3.823   0.472   1.692 -0.1559 -1.1761  0.0242
  400SOL     OW11013   2.779   8.175   0.719 -0.6301 -0.5024 -0.2576
  400SOL    HW111014   2.797   8.270   0.745  1.0192 -0.3628 -1.8545
  400SOL    HW211015   2.713   8.173   0.643  0.2744 -0.5753 -1.0439
  401SOL     OW11016   4.888   3.451   0.490  0.0977  0.2108  0.5602
  401SOL    HW111017   4.827   3.388   0.441 -0.1868  0.0301  1.1352
  401SOL    HW211018   4.869   3.545   0.461  0.9289 -0.0102 -0.7334
  402SOL     OW11019   2.537   7.484   2.331 -0.2857 -0.4027 -0.2287
  402SOL    HW111020   2.481   7.565   2.350  0.4483  0.1842 -0.5206
  402SOL    HW211021   2.494   7.432   2.257 -0.0206  0.4904 -1.0299
  403SOL     OW11022   5.247   3.319   0.343 -0.5796  0.0070  0.3952
  403SOL    HW111023   5.240   3.219   0.337 -0.2591  0.0073 -0.0477
  403SOL    HW211024   5.214   3.360   0.258 -2.6285  0.3847  1.3435
  404SOL     OW11025   3.017   6.558   0.335 -0.2836  0.0717  0.6568
  404SOL    HW111026   3.057   6.649   0.349  1.8922 -1.0007  1.6044
  404SOL    HW211027   2.980   6.524   0.421  0.0344 -0.4734  0.5804
  405SOL     OW11028   3.591   4.418   0.580 -0.0905  0.2611  0.0559
  405SOL    HW111029   3.496   4.403   0.553  0.1126 -0.6582 -0.1948
  405SOL    HW211030   3.605   4.384   0.673 -0.0869  0.6825  0.2067
  406SOL     OW11031   2.207   7.585   2.187 -0.1049  0.3760 -0.2583
  406SOL    HW111032   2.292   7.611   2.142  0.8213 -0.5846  0.9070
  406SOL    HW211033   2.198   7.636   2.272 -1.3120  1.3877 -0.9860
  407SOL     OW11034   2.925   3.248   2.396 -0.6506 -0.1995  0.5685
  407SOL    HW111035   2.874   3.200   2.467 -0.3643 -2.2012 -0.5366
  407SOL    HW211036   2.985   3.316   2.438 -1.5450 -0.3458  2.1198
  408SOL     OW11037   3.258   0.656   2.595  0.5947  0.0486  0.2052
  408SOL    HW111038   3.282   0.591   2.522  1.1901 -1.8715  2.0450
  408SOL    HW211039   3.328   0.728   2.600  0.9547 -0.2361 -0.6255
  409SOL     OW11040   2.404   8.158   2.073  0.2525 -0.0733  0.0349
  409SOL    HW111041   2.362   8.143   2.162  1.9904  1.2084  1.0993
  409SOL    HW211042   2.352   8.227   2.022 -1.3272 -1.5415 -0.3776
  410SOL     OW11043   4.104   9.384   1.695  0.1373 -0.5792  0.2339
  410SOL    HW111044   4.028   9.424   1.746  0.8018 -1.0167  1.5961
  410SOL    HW211045   4.070   9.341   1.611 -0.8749  0.7967 -0.0740
  411SOL     OW11046   2.948   4.109   0.257 -0.0366  0.3630 -0.3254
  411SOL    HW111047   3.016   4.182   0.251  0.6670 -0.2270  0.3613
  411SOL    HW211048   2.971   4.038   0.191 -1.4532  1.3417 -1.9137
  412SOL     OW11049   2.322   8.586   1.026 -0.7218 -0.2907  0.1815
  412SOL    HW111050   2.301   8.676   1.066  0.8626 -1.0323  2.8047
  412SOL    HW211051   2.354   8.525   1.098  2.0531 -1.7798 -2.2481
  413SOL     OW11052   2.544   1.327   2.644  0.0166 -0.2086 -1.0343
  413SOL    HW111053   2.541   1.300   2.740  1.4242  0.5369 -0.7627
  413SOL    HW211054   2.482   1.404   2.630  2.0159  1.6811 -0.0141
  414SOL     OW11055   4.009   2.535   1.577 -0.7475  0.5332  0.2096
  414SOL    HW111056   3.929   2.477   1.593 -0.8052  0.4493 -0.3955
  414SOL    HW211057   3.980   2.628   1.555 -0.6581  0.7419  0.9474
  415SOL     OW11058   2.657   2.716   1.236 -0.1424 -0.1006  0.3344
  415SOL    HW111059   2.591   2.748   1.304 -0.0683  0.0016  0.3588
  415SOL    HW211060   2.623   2.632   1.193 -1.9378  1.8183 -2.1149
  416SOL     OW11061   3.693   2.588   1.382 -0.0742  0.0026  0.4552
  416SOL    HW111062   3.698   2.638   1.469 -1.4950 -0.1055  0.6042
  416SOL    HW211063   3.670   2.652   1.308 -0.7087 -0.2344  0.4517
  417SOL     OW11064   4.015   0.585   2.685 -0.1408 -0.3467 -0.1380
  417SOL    HW111065   4.037   0.525   2.762  0.9488  0.1162 -0.0783
  417SOL    HW211066   4.011   0.680   2.717  0.0423 -0.1823 -0.5992
  418SOL     OW11067   2.855   0.192   1.424 -0.1634 -0.8818 -0.0683
  418SOL    HW111068   2.770   0.194   1.476 -0.6260 -3.3481 -0.6453
  418SOL    HW211069   2.858   0.108   1.369  2.6416 -0.8387 -0.0445
  419SOL     OW11070   3.052   7.724   2.001 -0.0925  0.0307  0.5783
  419SOL    HW111071   3.008   7.635   1.997 -2.9158  1.4211 -2.0564
  419SOL    HW211072   3.000   7.784   2.063  0.1263  0.6440  0.1788
  420SOL     OW11073   3.663   2.543   2.689 -0.2135 -0.1444  0.7662
  420SOL    HW111074   3.732   2.536   2.617  0.6105  0.0962  1.5356
  420SOL    HW211075   3.686   2.617   2.751 -1.8486  0.7858  0.3014
  421SOL     OW11076   3.723   2.081   1.614  0.2804  0.2956 -0.1702
  421SOL    HW111077   3.736   1.985   1.636 -0.4191  0.1956 -0.1905
  421SOL    HW211078   3.767   2.138   1.683  0.9637 -0.0398 -0.3279
  422SOL     OW11079   4.337   2.384   0.131 -0.4993  0.4027 -0.2922
  422SOL    HW111080   4.321   2.331   0.214 -0.8928  0.1768 -0.5086
  422SOL    HW211081   4.421   2.353   0.087 -0.2215  0.6121  0.0902
  423SOL     OW11082   2.812   1.574   0.368 -0.0314 -0.0999 -0.0792
  423SOL    HW111083   2.842   1.480   0.355  0.4553  0.1796 -1.0109
  423SOL    HW211084   2.864   1.615   0.444 -0.2472 -0.5740  0.3274
  424SOL     OW11085   4.056   0.690   1.599  0.1830  0.7833 -0.1664
  424SOL    HW111086   4.109   0.717   1.680 -0.3335 -0.3140  0.5528
  424SOL    HW211087   3.983   0.756   1.584 -0.8331  0.0387  1.3491
  425SOL     OW11088   3.223   8.790   0.169 -0.3151  0.3431 -0.0165
  425SOL    HW111089   3.179   8.732   0.100 -2.5932  0.7074  1.0553
  425SOL    HW211090   3.225   8.884   0.137 -1.2314  0.4867  0.3328
  426SOL     OW11091   3.674   4.152   1.886 -0.0540  0.3206  0.2774
  426SOL    HW111092   3.646   4.105   1.971  1.8567 -1.7556 -0.1947
  426SOL    HW211093   3.757   4.109   1.850  0.6223  2.8507 -1.2833
  427SOL     OW11094   2.461   9.358   2.317 -0.7773  0.2551  0.4286
  427SOL    HW111095   2.386   9.310   2.362  0.3838  0.2054  2.3540
  427SOL    HW211096   2.427   9.401   2.233 -2.5695 -1.1338  0.4035
  428SOL     OW11097   3.332   9.021   0.646  0.1823  0.0680 -0.1517
  428SOL    HW111098   3.369   8.949   0.587  0.6174 -1.4750  1.9173
  428SOL    HW211099   3.407   9.064   0.697 -0.5297 -1.2930  2.1257
  429SOL     OW11100   3.967   1.861   2.260  0.4949  0.0651  0.1800
  429SOL    HW111101   4.044   1.874   2.198  0.8562  1.6606  0.9277
  429SOL    HW211102   3.936   1.950   2.294 -1.0262 -0.6307  0.6868
  430SOL     OW11103   2.385   7.592   2.625  0.2299 -0.2490 -0.3310
  430SOL    HW111104   2.398   7.494   2.637  0.8731 -0.0182  0.9798
  430SOL    HW211105   2.305   7.621   2.678  0.9148  0.1717  0.4876
  431SOL     OW11106   2.831   2.331   0.537  0.1431 -0.1972  0.4154
  431SOL    HW111107   2.793   2.316   0.446  1.9406 -0.4447 -0.3270
  431SOL    HW211108   2.786   2.409   0.580  1.1812  1.7201 -1.8419
  432SOL     OW11109   3.814   8.678   0.996 -0.6051 -0.0590 -0.4058
  432SOL    HW111110   3.748   8.610   1.027 -0.8947  0.0924 -0.6889
  432SOL    HW211111   3.907   8.643   1.008 -0.7984 -1.5803 -3.0431
  433SOL     OW11112   2.632   1.188   0.161 -0.2577 -0.3476  0.6599
  433SOL    HW111113   2.697   1.208   0.088 -2.4034  1.6987 -0.7934
  433SOL    HW211114   2.673   1.210   0.249  1.9218 -1.6306 -0.0007
  434SOL     OW11115   2.638   5.455   0.760 -0.0323 -0.0075  0.3354
  434SOL    HW111116   2.597   5.404   0.835  2.4208 -2.1392  0.3213
  434SOL    HW211117   2.585   5.441   0.677 -0.7209 -0.6052  0.8755
  435SOL     OW11118   3.898   9.351   2.062 -0.4808  0.1580 -0.4761
  435SOL    HW111119   3.982   9.356   2.116 -0.6279 -0.4537 -0.1760
  435SOL    HW211120   3.824   9.395   2.112 -0.4256  0.3389 -0.5561
  436SOL     OW11121   4.987   2.196   2.535  0.6509  0.1026 -0.5253
  436SOL    HW111122   4.897   2.240   2.524  0.0318 -0.9753  0.1076
  436SOL    HW211123   5.050   2.231   2.466 -0.1683  1.1072 -0.7775
  437SOL     OW11124   3.155   3.519   1.511 -0.2621  0.2395 -0.1833
  437SOL    HW111125   3.242   3.508   1.560  0.7010 -0.8375 -2.0826
  437SOL    HW211126   3.095   3.579   1.564  1.3299  0.3790  1.5429
  438SOL     OW11127   2.860   7.139   1.166  0.1248  0.3753  0.5485
  438SOL    HW111128   2.925   7.102   1.100 -1.3953  0.0975 -0.8301
  438SOL    HW211129   2.881   7.235   1.183  1.2659  0.1241  0.5987
  439SOL     OW11130   3.470   7.775   0.246 -0.3045  0.1713 -0.0104
  439SOL    HW111131   3.426   7.821   0.169  0.0262  1.0128  0.2950
  439SOL    HW211132   3.467   7.835   0.326  1.5356  0.3267 -0.0284
  440SOL     OW11133   2.636   6.129   0.664  0.5435  0.1947 -0.0254
  440SOL    HW111134   2.707   6.174   0.610 -0.0811  1.5114  0.2185
  440SOL    HW211135   2.678   6.081   0.741  1.2085  0.5633 -0.1514
  441SOL     OW11136   3.292   4.887   0.541 -0.5429  0.2636  0.1147
  441SOL    HW111137   3.307   4.951   0.465 -0.7369  0.0660 -0.0928
  441SOL    HW211138   3.286   4.938   0.627  1.0246  0.3731  0.1787
  442SOL     OW11139   3.391   0.554   1.288 -0.2959 -0.0233  0.4927
  442SOL    HW111140   3.306   0.505   1.308  0.0820 -0.4413  1.1196
  442SOL    HW211141   3.464   0.488   1.272 -0.0184  0.3334  0.2906
  443SOL     OW11142   3.506   1.908   0.572  0.0552 -0.5658 -0.5505
  443SOL    HW111143   3.433   1.858   0.525 -1.4995  1.5519 -0.4430
  443SOL    HW211144   3.511   1.878   0.668 -1.7206  0.3702 -0.1513
  444SOL     OW11145   3.378   1.602   0.487 -0.2043  0.0556  0.4014
  444SOL    HW111146   3.297   1.558   0.448 -0.6034 -0.7312  2.0377
  444SOL    HW211147   3.399   1.559   0.575  1.2134  1.1446  0.6081
  445SOL     OW11148   4.700   1.621   2.585 -0.4328  0.0878 -0.0451
  445SOL    HW111149   4.650   1.705   2.566  0.2576  0.5652  0.1983
  445SOL    HW211150   4.708   1.567   2.502  1.7374  1.7028 -0.9381
  446SOL     OW11151   3.135   1.104   2.071  0.1496  0.1197  0.5186
  446SOL    HW111152   3.181   1.076   2.154  1.8116  0.8948 -0.1243
  446SOL    HW211153   3.153   1.037   1.998 -2.7564 -1.5102  1.2176
  447SOL     OW11154   2.884   9.411   1.799  0.2808  0.2787  0.3055
  447SOL    HW111155   2.951   9.421   1.873 -0.8633 -1.4701  1.6232
  447SOL    HW211156   2.915   9.339   1.737 -0.7064 -1.0775  1.3449
  448SOL     OW11157   4.225   4.540   2.678 -0.0671  0.0653  0.3282
  448SOL    HW111158   4.253   4.550   2.582  1.1217  0.3273  0.6949
  448SOL    HW211159   4.228   4.629   2.723 -0.7607 -0.0337  0.5805
  449SOL     OW11160   3.583   9.781   1.697  0.0950 -0.3674  0.6834
  449SOL    HW111161   3.538   9.863   1.734  0.7204 -0.3673  1.4402
  449SOL    HW211162   3.656   9.809   1.634 -1.1328 -0.3677 -0.7794
  450SOL     OW11163   2.558   4.075   2.100 -0.1426 -0.4039 -0.0602
  450SOL    HW111164   2.559   4.094   2.199 -0.3907  1.0304 -0.3184
  450SOL    HW211165   2.617   4.141   2.053  0.3964 -1.4162 -0.8255
  451SOL     OW11166   3.270   2.734   0.364  0.1786 -0.5723  0.7420
  451SOL    HW111167   3.191   2.751   0.423  0.3533 -0.2698  0.8876
  451SOL    HW211168   3.268   2.796   0.286  1.0922  0.4755  1.5445
  452SOL     OW11169   2.759   9.304   2.280 -0.3513 -0.2756  0.0122
  452SOL    HW111170   2.766   9.395   2.239  1.6879  0.1755  1.2844
  452SOL    HW211171   2.664   9.285   2.303 -1.0881  0.6850 -2.1304
  453SOL     OW11172   3.351   3.162   1.137 -0.0858  0.6914 -0.6170
  453SOL    HW111173   3.337   3.154   1.235  0.5784  0.3199 -0.5469
  453SOL    HW211174   3.306   3.086   1.090  1.0039 -0.0623 -0.4578
  454SOL     OW11175   3.804   4.005   1.167 -0.1447 -0.1588  0.3318
  454SOL    HW111176   3.724   4.043   1.120 -0.0399 -0.7432 -0.3229
  454SOL    HW211177   3.818   4.054   1.253  0.8625  2.2744 -1.1466
  455SOL     OW11178   3.671   8.339   2.224  0.7951 -0.6302 -0.0543
  455SOL    HW111179   3.750   8.397   2.246 -0.2193  0.6451  0.3061
  455SOL    HW211180   3.632   8.304   2.309  0.1133 -0.0831 -0.1390
  456SOL     OW11181   4.050   3.128   1.295  0.2400 -0.3513 -0.1851
  456SOL    HW111182   4.138   3.084   1.279 -0.3628 -1.7130  0.1900
  456SOL    HW211183   3.992   3.068   1.349 -0.3437  1.2200  0.9662
  457SOL     OW11184   2.456   2.336   2.016 -0.8243  0.1508 -0.4007
  457SOL    HW111185   2.462   2.240   2.043 -0.0743  0.2463 -0.2243
  457SOL    HW211186   2.439   2.341   1.917  0.5016 -0.1584 -0.6605
  458SOL     OW11187   3.245   4.136   1.045 -0.0285 -0.4292  0.1517
  458SOL    HW111188   3.327   4.146   1.102 -1.1562 -1.4917  2.0019
  458SOL    HW211189   3.205   4.226   1.029  1.3475  0.0674 -0.5379
  459SOL     OW11190   3.021   1.651   1.819 -0.6236 -0.4681  0.2618
  459SOL    HW111191   2.934   1.629   1.864 -1.0422  0.9668  0.1832
  459SOL    HW211192   3.025   1.606   1.730 -2.0483  0.8199 -0.4827
  460SOL     OW11193   3.826   4.470   2.129 -0.1774  0.3357 -0.2431
  460SOL    HW111194   3.813   4.568   2.114 -0.0612  0.0745 -2.3276
  460SOL    HW211195   3.749   4.420   2.091 -0.9079 -0.3223  2.0711
  461SOL     OW11196   1.977   4.991   1.139 -0.5268  0.4051 -0.6587
  461SOL    HW111197   1.905   4.922   1.127 -1.1502  0.9069  0.1594
  461SOL    HW211198   2.021   4.978   1.228 -2.1249  2.4162  0.4625
  462SOL     OW11199   3.471   8.860   2.676  0.1633 -0.3695  0.4187
  462SOL    HW111200   3.485   8.823   2.767 -0.9581  0.1661  0.8114
  462SOL    HW211201   3.415   8.797   2.622 -0.6345  0.1183  0.6651
  463SOL     OW11202   2.858   7.552   1.928 -0.1822 -0.0488  1.3127
  463SOL    HW111203   2.758   7.545   1.929 -0.2646  1.0404  3.0052
  463SOL    HW211204   2.898   7.468   1.965 -0.4198 -0.9132 -0.3409
  464SOL     OW11205   2.415   8.510   0.538  0.0620 -0.0996 -0.0310
  464SOL    HW111206   2.420   8.595   0.590 -1.2186 -0.3088  0.4664
  464SOL    HW211207   2.398   8.434   0.601  2.3491 -0.8981 -0.3372
  465SOL     OW11208   3.756   8.272   0.876 -0.2522  0.3196  0.1514
  465SOL    HW111209   3.728   8.346   0.937 -1.3800 -0.5672  0.7275
  465SOL    HW211210   3.675   8.228   0.837  0.4323  0.2176 -1.2047
  466SOL     OW11211   3.720   9.662   2.632  1.1041  0.0499 -0.0914
  466SOL    HW111212   3.648   9.670   2.700  2.3884  0.2547  1.2695
  466SOL    HW211213   3.681   9.631   2.545 -0.6625  0.5513  0.5143
  467SOL     OW11214   3.970   2.335   0.619 -0.5885  0.0410  0.1830
  467SOL    HW111215   4.005   2.368   0.531  0.3853  2.5250  1.4366
  467SOL    HW211216   3.871   2.344   0.621 -0.6084  0.0614 -0.6048
  468SOL     OW11217   4.132   4.785   0.918 -0.1423  0.5065  0.3032
  468SOL    HW111218   4.195   4.860   0.937 -0.3226  1.0187 -1.0655
  468SOL    HW211219   4.140   4.759   0.822 -0.5632 -0.7828  0.6178
  469SOL     OW11220   4.215   4.460   0.599 -0.2778  0.5010  0.0136
  469SOL    HW111221   4.196   4.554   0.628  0.3575  0.5965  0.1361
  469SOL    HW211222   4.173   4.396   0.663  0.8496  0.7103  0.9741
  470SOL     OW11223   1.900   5.134   1.871 -0.1895  0.1105 -0.2250
  470SOL    HW111224   1.827   5.076   1.835 -0.2220  0.4729 -0.7428
  470SOL    HW211225   1.971   5.076   1.912 -0.3083 -0.2863 -0.5758
  471SOL     OW11226   2.029   4.602   1.688 -0.4020  0.2131  0.5474
  471SOL    HW111227   2.104   4.541   1.662 -0.6388 -0.0464  0.4799
  471SOL    HW211228   1.999   4.580   1.780  1.0110  1.6866  1.3852
  472SOL     OW11229   3.724   9.935   1.445  0.0088 -0.5352  0.1762
  472SOL    HW111230   3.739   9.868   1.372  0.1884 -1.2676  0.8833
  472SOL    HW211231   3.811   9.953   1.492  0.0540  0.5482 -0.3142
  473SOL     OW11232   4.990   4.351   0.408 -0.0097  0.4901  0.0437
  473SOL    HW111233   5.089   4.344   0.418  0.0044 -0.1489 -0.4819
  473SOL    HW211234   4.966   4.343   0.311 -0.5200  1.3873  0.0930
  474SOL     OW11235   3.807   8.582   2.335 -0.5005  0.4208  0.0368
  474SOL    HW111236   3.751   8.637   2.273 -0.8274  0.6188  0.5050
  474SOL    HW211237   3.888   8.633   2.362  0.3434 -0.1790 -1.3047
  475SOL     OW11238   4.657   1.996   1.882  0.4806 -0.7909  0.6338
  475SOL    HW111239   4.636   1.959   1.792  0.1183 -0.4489  0.5741
  475SOL    HW211240   4.580   2.052   1.914  0.3517 -1.3920  1.4104
  476SOL     OW11241   3.874   4.931   1.522 -0.4217 -0.8277  0.6884
  476SOL    HW111242   3.838   5.009   1.573 -1.8774 -0.7092 -0.4882
  476SOL    HW211243   3.946   4.962   1.460 -1.8997 -0.1547 -0.7445
  477SOL     OW11244   3.186   0.777   1.137  0.2206 -0.5662 -0.6344
  477SOL    HW111245   3.212   0.774   1.041  0.6983 -2.4842 -0.4602
  477SOL    HW211246   3.262   0.745   1.194  0.3235  1.5475  0.4795
  478SOL     OW11247   2.790   1.351   2.363  0.1240 -0.1032 -0.0118
  478SOL    HW111248   2.796   1.423   2.432  1.3262  0.1041 -0.3220
  478SOL    HW211249   2.735   1.275   2.398 -0.7240  0.7396  0.5071
  479SOL     OW11250   2.593   5.360   1.021  0.3690 -0.1200 -0.0159
  479SOL    HW111251   2.535   5.281   1.001  2.1023 -1.9692  2.0001
  479SOL    HW211252   2.688   5.331   1.026  0.9657  1.9428  1.5462
  480SOL     OW11253   4.597   3.840   0.469  0.3577 -0.9949 -0.5635
  480SOL    HW111254   4.551   3.843   0.381 -0.5451  1.2745 -0.0366
  480SOL    HW211255   4.529   3.840   0.542  1.1294  0.8002  0.1906
  481SOL     OW11256   2.730   6.224   0.239  0.1483  0.4192 -0.7073
  481SOL    HW111257   2.636   6.231   0.272  0.5052  0.7288  0.2436
  481SOL    HW211258   2.737   6.145   0.177 -0.4695 -0.3075  0.1337
  482SOL     OW11259   2.111   5.715   1.379  0.3072 -0.6781  0.1407
  482SOL    HW111260   2.034   5.664   1.418  0.9623 -1.8652 -0.1123
  482SOL    HW211261   2.187   5.714   1.444 -0.5623  2.2434  1.2937
  483SOL     OW11262   3.265   2.138   0.973 -0.0531  0.5395  0.1621
  483SOL    HW111263   3.262   2.103   0.880 -0.7482 -0.8876  0.6989
  483SOL    HW211264   3.289   2.063   1.036 -2.6416  0.7354  1.4584
  484SOL     OW11265   2.919   3.184   1.893  0.3424 -0.2610  0.3974
  484SOL    HW111266   2.865   3.240   1.955  0.5860  0.8960 -0.4058
  484SOL    HW211267   2.861   3.154   1.816  0.0194 -1.7539  1.2116
  485SOL     OW11268   5.252   4.257   0.094  0.6305  0.3505 -0.0256
  485SOL    HW111269   5.304   4.203   0.028  1.6716  1.0749  0.1882
  485SOL    HW211270   5.315   4.300   0.158 -0.4308 -1.6220  2.4547
  486SOL     OW11271   2.940   2.668   2.504  0.1801 -0.4360 -0.1222
  486SOL    HW111272   3.029   2.656   2.548  0.4917  1.8399 -0.0721
  486SOL    HW211273   2.954   2.695   2.409 -0.4889 -1.4038 -0.5052
  487SOL     OW11274   2.748   4.174   0.995  0.0726 -0.3035  0.0800
  487SOL    HW111275   2.714   4.147   1.085 -0.2115  1.2556  0.4529
  487SOL    HW211276   2.816   4.247   1.006  0.6722 -0.7066 -0.9179
  488SOL     OW11277   3.744   1.745   2.385 -0.1544  0.0802 -0.5991
  488SOL    HW111278   3.704   1.836   2.399  1.1372  0.2144  2.7427
  488SOL    HW211279   3.835   1.755   2.346 -0.6251  0.1251 -1.6997
  489SOL     OW11280   2.402   8.721   0.726  0.2059 -0.2588  0.1211
  489SOL    HW111281   2.385   8.688   0.819 -1.5636  0.3730  0.0384
  489SOL    HW211282   2.423   8.819   0.729  0.6236 -0.3420 -0.0989
  490SOL     OW11283   2.488   1.574   0.646  0.0965 -0.0354 -0.2446
  490SOL    HW111284   2.555   1.621   0.589 -0.3161 -0.9029 -1.4596
  490SOL    HW211285   2.409   1.634   0.660  0.1503  0.1385 -0.6737
  491SOL     OW11286   2.244   2.383   1.476  0.0299  0.2190  0.0333
  491SOL    HW111287   2.232   2.402   1.574 -2.6482 -0.8418 -0.0551
  491SOL    HW211288   2.211   2.461   1.423  1.3618  0.7400 -0.0555
  492SOL     OW11289   3.427   9.767   2.629 -0.8987 -0.3058  0.0924
  492SOL    HW111290   3.358   9.787   2.699 -1.1113 -0.6613 -0.0134
  492SOL    HW211291   3.398   9.806   2.541  0.1511  1.5765  0.5457
  493SOL     OW11292   3.472   3.442   0.007  0.0403  0.5374  0.3310
  493SOL    HW111293   3.423   3.428   0.092  1.4280  0.7670  1.1825
  493SOL    HW211294   3.524   3.359  -0.016  1.1821  1.1386  0.7135
  494SOL     OW11295   3.672   0.514   1.560 -0.2909  0.4466  0.1795
  494SOL    HW111296   3.619   0.474   1.485  0.5067  3.1642 -1.9114
  494SOL    HW211297   3.611   0.533   1.637 -1.4769 -0.6280 -0.4642
  495SOL     OW11298   2.424   5.906   2.409 -0.1639 -0.1940  0.2904
  495SOL    HW111299   2.480   5.967   2.354  0.6042 -1.2724 -0.1524
  495SOL    HW211300   2.379   5.839   2.350 -1.0235 -0.0362  0.7584
  496SOL     OW11301   2.693   8.803   2.154  0.2619 -0.4351 -0.1137
  496SOL    HW111302   2.763   8.848   2.208  0.9277 -1.4806 -0.0968
  496SOL    HW211303   2.688   8.845   2.063  0.6472 -0.1112  0.0168
  497SOL     OW11304   4.759   1.868   2.115 -0.0746  0.1170 -0.3938
  497SOL    HW111305   4.805   1.946   2.159 -1.6681  0.5589  0.5368
  497SOL    HW211306   4.719   1.898   2.029  1.5821 -0.3372 -1.3474
  498SOL     OW11307   2.705   6.736   1.052 -0.0542 -0.3265  0.3753
  498SOL    HW111308   2.769   6.768   1.123  1.7926  0.6389 -1.6631
  498SOL    HW211309   2.647   6.812   1.023  0.9799 -0.0425 -0.9844
  499SOL     OW11310   3.711   2.141   0.849  0.7621  0.2152  0.6797
  499SOL    HW111311   3.648   2.163   0.925  0.2908  0.9658  0.0821
  499SOL    HW211312   3.673   2.065   0.796  0.3257  0.7039  0.2865
  500SOL     OW11313   4.746   1.595   0.748  0.2884  0.0895  0.0631
  500SOL    HW111314   4.749   1.677   0.805 -3.5356  1.5171 -1.6227
  500SOL    HW211315   4.818   1.601   0.678  0.7798  1.4353  0.6676
  501SOL     OW11316   3.402   4.020   0.431  0.4254  0.0261 -0.3108
  501SOL    HW111317   3.419   4.085   0.357 -1.3443 -0.2072 -0.9515
  501SOL    HW211318   3.427   3.928   0.401  0.9575  0.1214 -0.1527
  502SOL     OW11319   2.346   5.486   2.336  0.0508 -0.2139  0.3157
  502SOL    HW111320   2.342   5.434   2.420  1.0074 -0.3224  0.2977
  502SOL    HW211321   2.388   5.431   2.264  2.5593  1.1095  0.7177
  503SOL     OW11322   4.035   0.833   0.137 -1.3264  0.0134 -0.0718
  503SOL    HW111323   3.938   0.850   0.119 -1.1574  1.2519  0.1459
  503SOL    HW211324   4.068   0.898   0.205 -0.5431 -0.9374  0.4617
  504SOL     OW11325   3.990   2.149   2.256  0.3850  0.1960 -0.3552
  504SOL    HW111326   3.906   2.189   2.292  0.9913  1.2937 -0.1301
  504SOL    HW211327   4.056   2.140   2.330  0.2287 -1.2935 -0.3958
  505SOL     OW11328   2.624   0.117   0.842 -0.8509  0.1877 -0.5662
  505SOL    HW111329   2.700   0.145   0.783 -0.1304 -0.7634 -0.1140
  505SOL    HW211330   2.648   0.135   0.938 -2.0698  1.8642 -0.5584
  506SOL     OW11331   1.760   4.845   1.758 -0.0126 -0.1423  0.0512
  506SOL    HW111332   1.786   4.836   1.854 -0.1467 -2.5897 -0.0861
  506SOL    HW211333   1.699   4.769   1.734  1.6641 -0.7380 -2.4846
  507SOL     OW11334   3.058   3.123   1.231  0.1358 -0.2984 -0.7190
  507SOL    HW111335   2.980   3.184   1.216 -0.3659 -1.1196 -1.5128
  507SOL    HW211336   3.102   3.146   1.317 -0.9237  0.2456 -0.3124
  508SOL     OW11337   3.242   4.380   2.518 -0.4666  0.1629  0.6834
  508SOL    HW111338   3.228   4.437   2.438 -1.0746  0.0447  0.7028
  508SOL    HW211339   3.302   4.304   2.495 -0.2286  0.4121  0.4751
  509SOL     OW11340   3.101   3.232   1.516 -0.5215 -0.1389  0.1772
  509SOL    HW111341   3.111   3.323   1.557  0.0465 -0.8497  1.6312
  509SOL    HW211342   3.091   3.163   1.588  0.0696 -1.3534 -0.8858
  510SOL     OW11343   2.327   6.093   1.514  0.1686 -0.6069  0.2631
  510SOL    HW111344   2.401   6.030   1.493  0.9158  0.7103 -1.1091
  510SOL    HW211345   2.240   6.044   1.511  0.8273 -1.8123  0.3566
  511SOL     OW11346   3.132   8.693   2.619 -0.3959 -0.1767 -0.2622
  511SOL    HW111347   3.112   8.654   2.529 -0.9304 -1.8865  0.5709
  511SOL    HW211348   3.075   8.774   2.634 -1.0805 -0.5136 -1.0362
  512SOL     OW11349   3.789   2.076   0.155  0.0770  0.1504 -0.1198
  512SOL    HW111350   3.755   2.153   0.208 -1.7552 -0.1245 -0.8681
  512SOL    HW211351   3.849   2.110   0.082  0.4551  0.7301  0.4541
  513SOL     OW11352   2.397   5.473   1.161  0.1588 -0.0371 -0.2059
  513SOL    HW111353   2.309   5.466   1.113  0.3998  0.1869 -0.6835
  513SOL    HW211354   2.468   5.432   1.104  0.5944  0.9982 -0.4126
  514SOL     OW11355   2.588   9.421   1.814  0.6068 -0.3609  0.2530
  514SOL    HW111356   2.557   9.364   1.739  1.3572 -0.2936 -0.1149
  514SOL    HW211357   2.679   9.457   1.793 -0.5086  2.2812 -0.2485
  515SOL     OW11358   3.648   3.956   2.181 -0.4500  0.0883 -1.0338
  515SOL    HW111359   3.643   3.869   2.230 -0.3267 -0.5058 -2.0696
  515SOL    HW211360   3.724   4.010   2.216 -0.9631  0.0862  0.0989
  516SOL     OW11361   2.824   9.801   1.999  0.4914 -0.1427 -0.5513
  516SOL    HW111362   2.869   9.877   2.046 -0.5690  0.0877  0.1086
  516SOL    HW211363   2.729   9.795   2.029  0.8457 -2.3864  0.1586
  517SOL     OW11364   3.425   1.350   2.360 -0.1822 -0.1688  0.1477
  517SOL    HW111365   3.428   1.366   2.459 -1.2354 -0.4108  0.2232
  517SOL    HW211366   3.454   1.434   2.312  2.9753 -0.8723  0.6692
  518SOL     OW11367   3.340   9.303   0.203  0.1581 -0.1010  0.4934
  518SOL    HW111368   3.318   9.359   0.123  0.1801 -0.0316  0.5359
  518SOL    HW211369   3.285   9.334   0.281  0.5858  0.2387  0.6665
  519SOL     OW11370   2.625   3.588   1.782  0.3111  0.7955  0.0259
  519SOL    HW111371   2.701   3.522   1.786 -0.6150 -0.2061  1.6602
  519SOL    HW211372   2.653   3.673   1.826  0.8236  0.7977 -0.2939
  520SOL     OW11373   2.243   4.439   2.416 -0.3252 -0.6033  0.2235
  520SOL    HW111374   2.237   4.397   2.325  2.3014  0.9057 -0.7047
  520SOL    HW211375   2.290   4.376   2.478 -1.8030 -1.4915  0.4581
  521SOL     OW11376   2.574   2.044   1.317  0.4792 -0.1813  0.4995
  521SOL    HW111377   2.565   1.946   1.299 -1.3348  0.1320 -0.3900
  521SOL    HW211378   2.625   2.057   1.403 -0.9806 -1.9596  1.6856
  522SOL     OW11379   2.560   9.903   1.217  0.8023 -0.6476 -0.3663
  522SOL    HW111380   2.542   9.921   1.120  3.7731 -2.7693 -1.3896
  522SOL    HW211381   2.534   9.809   1.238  0.7834 -0.3974  0.7554
  523SOL     OW11382   2.938   2.287   1.510 -0.0068  0.3240 -0.1948
  523SOL    HW111383   2.894   2.360   1.458  1.1192  1.3338  0.2346
  523SOL    HW211384   2.877   2.209   1.517 -0.8658  0.8616 -1.4879
  524SOL     OW11385   4.628   2.409   2.017  0.4079  0.5698  0.1984
  524SOL    HW111386   4.635   2.508   2.008  1.1420  0.4433 -0.7413
  524SOL    HW211387   4.540   2.378   1.981  0.5555  0.7874 -0.3563
  525SOL     OW11388   3.959   0.414   1.198 -0.4666  0.0689  0.1441
  525SOL    HW111389   3.958   0.475   1.278 -1.6128  1.5120 -0.9396
  525SOL    HW211390   4.051   0.411   1.160 -0.3058  0.7832  0.4700
  526SOL     OW11391   4.003   0.235   1.687 -0.3887  0.2874 -0.5576
  526SOL    HW111392   4.101   0.217   1.698 -0.3934  0.4624 -0.2028
  526SOL    HW211393   3.984   0.331   1.709 -0.4895  0.5045 -1.5877
  527SOL     OW11394   5.133   3.653   0.188 -0.1212 -0.5688  0.0069
  527SOL    HW111395   5.175   3.700   0.266  1.6650 -0.8130 -0.7766
  527SOL    HW211396   5.055   3.706   0.155  1.1753  1.2785 -0.1543
  528SOL     OW11397   3.956   2.495   0.152 -0.5524 -0.3342 -0.8601
  528SOL    HW111398   4.002   2.532   0.071  0.2042  1.3724  0.3176
  528SOL    HW211399   3.952   2.566   0.223 -0.1115 -2.1809  1.0396
  529SOL     OW11400   3.520   2.844   2.373 -0.6623  0.0240  0.2240
  529SOL    HW111401   3.420   2.851   2.374 -0.7001 -0.1964 -1.6619
  529SOL    HW211402   3.557   2.908   2.305  0.3841 -1.0689 -0.2400
  530SOL     OW11403   4.114   0.333   0.629 -0.2105 -0.1815 -0.5028
  530SOL    HW111404   4.080   0.251   0.583 -2.0909  0.5765 -0.4851
  530SOL    HW211405   4.101   0.412   0.570  0.2196  0.3374  0.0936
  531SOL     OW11406   2.630   2.025   1.779 -0.0837  0.0826  0.1340
  531SOL    HW111407   2.594   2.049   1.869 -0.0272  0.4633  0.0574
  531SOL    HW211408   2.643   1.926   1.773  0.2535  0.0931  0.6718
  532SOL     OW11409   3.235   1.757   1.975  0.3415 -0.6097  0.3817
  532SOL    HW111410   3.186   1.840   2.000  1.9308  0.2298  0.7952
  532SOL    HW211411   3.188   1.711   1.900  0.6019  1.7901 -1.2867
  533SOL     OW11412   3.189   9.577   0.996 -0.1865 -0.5506 -0.4670
  533SOL    HW111413   3.242   9.496   0.974 -0.2804 -0.8223  0.2986
  533SOL    HW211414   3.102   9.574   0.947  0.8288  0.3058 -2.3839
  534SOL     OW11415   2.757   1.993   2.082 -0.0727 -0.2100  0.3857
  534SOL    HW111416   2.825   1.990   2.009 -0.1250 -0.6541  0.3547
  534SOL    HW211417   2.748   1.902   2.123  2.4657  0.7071  3.2125
  535SOL     OW11418   3.151   4.054   0.044  0.1533 -0.0242 -0.4362
  535SOL    HW111419   3.150   4.138   0.098  1.2031 -0.4839  0.3140
  535SOL    HW211420   3.244   4.036   0.012  0.3904 -2.0926  1.3297
  536SOL     OW11421   2.260   6.222   0.953 -0.2145 -0.0240  0.1383
  536SOL    HW111422   2.352   6.261   0.951  0.1196 -0.8100 -0.1082
  536SOL    HW211423   2.192   6.296   0.949  0.4073  0.5012 -0.9596
  537SOL     OW11424   2.979   7.426   0.476  0.0690  0.3673 -0.4249
  537SOL    HW111425   3.049   7.355   0.472 -0.1379  0.1257  0.2201
  537SOL    HW211426   3.019   7.510   0.511 -0.2166 -0.0933  1.0402
  538SOL     OW11427   3.665   2.735   0.825  0.3694 -0.4082 -0.5783
  538SOL    HW111428   3.751   2.778   0.797  0.4521 -1.2625 -1.6823
  538SOL    HW211429   3.679   2.637   0.838 -0.3775 -0.5092 -0.5083
  539SOL     OW11430   4.564   3.148   0.922  0.2100  0.1187  0.6086
  539SOL    HW111431   4.638   3.088   0.890 -1.4919 -1.3579 -0.6497
  539SOL    HW211432   4.555   3.225   0.859 -1.8721 -1.7771 -1.5162
  540SOL     OW11433   2.991   5.566   0.922 -0.0159 -0.4304  0.1475
  540SOL    HW111434   2.907   5.617   0.944  0.8936  0.7647  0.9221
  540SOL    HW211435   3.066   5.631   0.908  1.1542 -1.5677  1.0737
  541SOL     OW11436   3.791   0.219   1.263 -0.1305 -0.1989  0.1073
  541SOL    HW111437   3.851   0.298   1.250 -0.3330  0.0241  0.4913
  541SOL    HW211438   3.820   0.168   1.344 -0.2437 -0.2911  0.0900
  542SOL     OW11439   2.627   3.247   1.076 -0.3291  0.1367 -0.1797
  542SOL    HW111440   2.594   3.154   1.063 -1.2699  0.1118  2.0725
  542SOL    HW211441   2.566   3.295   1.140  1.1538  1.7119  0.0857
  543SOL     OW11442   2.655   5.756   0.311  0.3052  0.3778  0.4016
  543SOL    HW111443   2.609   5.840   0.339  0.0294  0.5140 -0.4244
  543SOL    HW211444   2.627   5.733   0.217  0.8216 -0.3191  0.4151
  544SOL     OW11445   2.985   7.981   0.579  0.4628  0.3410  0.2184
  544SOL    HW111446   2.920   8.056   0.569 -0.1296 -0.1066  0.6355
  544SOL    HW211447   3.062   7.994   0.516 -0.4312  0.4449 -0.8575
  545SOL     OW11448   4.630   2.075   0.830  0.1998  0.3495  0.6338
  545SOL    HW111449   4.663   1.989   0.869 -1.1593 -0.6092 -0.2782
  545SOL    HW211450   4.534   2.065   0.804  0.3148  1.8152 -0.4340
  546SOL     OW11451   3.131   2.872   1.323  0.2535  0.1389 -0.5122
  546SOL    HW111452   3.206   2.912   1.376 -1.5348  1.5018  1.0446
  546SOL    HW211453   3.070   2.945   1.291 -2.5972 -1.2128  1.6377
  547SOL     OW11454   5.023   2.844   1.611 -0.2849  0.0645 -0.8285
  547SOL    HW111455   5.071   2.894   1.538  0.4348 -0.1185 -0.4892
  547SOL    HW211456   5.040   2.746   1.600 -0.8818 -0.0299 -0.9122
  548SOL     OW11457   2.455   7.315   2.119  0.1006 -0.1558 -0.7055
  548SOL    HW111458   2.500   7.232   2.150  0.7282  0.3929 -0.1328
  548SOL    HW211459   2.358   7.296   2.103  0.1327 -0.8659 -0.0815
  549SOL     OW11460   2.517   3.170   0.498  0.0740  0.3255  0.2276
  549SOL    HW111461   2.435   3.112   0.498  0.8396 -0.7801  1.7942
  549SOL    HW211462   2.514   3.231   0.577  1.2892 -0.5237  0.9588
  550SOL     OW11463   2.919   8.757   0.229  0.3788  0.1150  0.2901
  550SOL    HW111464   3.007   8.805   0.224  0.3436  0.2562  1.0012
  550SOL    HW211465   2.872   8.782   0.313 -0.8009  0.8177 -0.5576
  551SOL     OW11466   2.674   3.780   2.491  0.1953 -0.0450 -0.3337
  551SOL    HW111467   2.729   3.704   2.525 -1.1626  0.0574  2.2331
  551SOL    HW211468   2.581   3.772   2.527 -0.8377  1.0951 -2.6471
  552SOL     OW11469   2.822   1.413   1.012 -0.0130  0.2264 -0.1182
  552SOL    HW111470   2.884   1.426   0.935 -0.8307 -0.3341 -0.8958
  552SOL    HW211471   2.791   1.502   1.046  0.6340  0.4844 -0.2078
  553SOL     OW11472   2.416   6.715   0.808  0.3529  0.1901 -0.2119
  553SOL    HW111473   2.442   6.746   0.899  2.5183 -1.2648 -0.3145
  553SOL    HW211474   2.327   6.670   0.812  0.2868  0.4384  1.1122
  554SOL     OW11475   2.300   8.863   1.040  0.1752  0.0990 -0.0299
  554SOL    HW111476   2.316   8.952   0.997  0.0439  0.2490  0.2286
  554SOL    HW211477   2.215   8.824   1.005 -0.5706  0.7761  0.9922
  555SOL     OW11478   2.731   1.500   2.561  0.4349 -0.3475  0.2177
  555SOL    HW111479   2.661   1.430   2.569  1.0113 -1.0577 -0.8213
  555SOL    HW211480   2.691   1.584   2.525  0.1540 -0.7938 -0.5092
  556SOL     OW11481   2.904   4.941   0.967  0.2677  0.6703 -0.0438
  556SOL    HW111482   3.001   4.918   0.957  0.3446  1.4112 -1.1435
  556SOL    HW211483   2.866   4.891   1.044  1.0729 -1.0633 -0.7313
  557SOL     OW11484   2.914   0.762   0.295 -0.0197 -0.2406 -0.4231
  557SOL    HW111485   2.946   0.728   0.206 -0.1487 -1.2729 -0.0851
  557SOL    HW211486   2.941   0.698   0.367 -2.0405 -0.6607 -0.0098
  558SOL     OW11487   3.011   7.944   1.827  0.4745  0.0549 -0.1362
  558SOL    HW111488   3.012   7.853   1.870  1.2162  0.7745  1.4151
  558SOL    HW211489   2.942   8.001   1.872  0.5848  0.5145 -0.5481
  559SOL     OW11490   2.888   9.341   2.537  0.3943  0.5624  0.0289
  559SOL    HW111491   2.857   9.318   2.445 -0.3706 -0.6938  0.5889
  559SOL    HW211492   2.938   9.428   2.534 -0.8978  1.2985 -1.3199
  560SOL     OW11493   2.774   9.557   2.174  0.0110 -1.0104 -0.1652
  560SOL    HW111494   2.690   9.594   2.132  0.5638 -0.7619 -1.0556
  560SOL    HW211495   2.851   9.572   2.113  0.9588 -0.0162  1.2433
  561SOL     OW11496   5.364   2.731   0.378  0.5009  0.2102 -0.1211
  561SOL    HW111497   5.413   2.795   0.437  0.9016  0.7814 -1.0653
  561SOL    HW211498   5.271   2.765   0.363  0.5130  0.2503 -0.1083
  562SOL     OW11499   3.130   9.974   1.503 -0.0814 -0.3607 -0.1280
  562SOL    HW111500   3.162  10.023   1.422  1.1930  1.3059  1.3332
  562SOL    HW211501   3.065   9.904   1.476 -1.6036  1.8154 -2.3586
  563SOL     OW11502   2.579   7.972   1.961 -0.5769  0.4329  0.5948
  563SOL    HW111503   2.523   8.048   1.996 -1.6172  0.5689 -1.2883
  563SOL    HW211504   2.632   8.004   1.882 -0.0291 -0.4653  0.5954
  564SOL     OW11505   3.473   1.702   2.342 -0.3364  0.1965  0.2878
  564SOL    HW111506   3.573   1.705   2.347 -0.2900 -1.5032  0.5886
  564SOL    HW211507   3.445   1.677   2.250 -0.4945  0.8684  0.1511
  565SOL     OW11508   3.692   5.010   2.589  0.0853 -0.3565  0.5373
  565SOL    HW111509   3.756   5.076   2.630  0.1734  0.7015 -1.2414
  565SOL    HW211510   3.709   4.919   2.628  1.8628  0.1405  0.9979
  566SOL     OW11511   4.662   4.095   1.343 -0.3181 -0.2743  0.3045
  566SOL    HW111512   4.757   4.081   1.370 -0.2644 -0.8296 -0.1653
  566SOL    HW211513   4.641   4.193   1.347  1.5812  0.4355 -3.7695
  567SOL     OW11514   4.158   0.916   1.021  0.5370 -0.0173 -0.1294
  567SOL    HW111515   4.078   0.936   1.078  1.1661 -1.2804  1.2174
  567SOL    HW211516   4.238   0.965   1.057  0.6433  0.2735 -0.7513
  568SOL     OW11517   3.137   3.033   1.721  0.1744 -0.7012  0.3392
  568SOL    HW111518   3.047   2.989   1.717 -0.8821  1.3465  0.8419
  568SOL    HW211519   3.186   3.001   1.802 -1.1759  0.1196  1.5052
  569SOL     OW11520   2.504   6.070   1.134  0.3155  0.0921 -0.1835
  569SOL    HW111521   2.414   6.041   1.167  0.0657 -0.8815 -1.7030
  569SOL    HW211522   2.531   6.153   1.183 -0.8485 -0.2919  1.1705
  570SOL     OW11523   3.078   5.667   0.470  0.2174  0.5721 -0.2778
  570SOL    HW111524   3.021   5.747   0.452  0.1200  0.7351  0.7149
  570SOL    HW211525   3.026   5.601   0.525  0.3395 -0.1200 -0.9867
  571SOL     OW11526   4.086   2.781   1.774  0.0333 -0.7292  0.4931
  571SOL    HW111527   4.109   2.813   1.682 -2.0451  0.2409  0.2651
  571SOL    HW211528   4.095   2.682   1.779  1.3347 -0.6704 -0.3857
  572SOL     OW11529   2.627   0.893   1.019 -0.9566 -0.4033  0.3714
  572SOL    HW111530   2.569   0.872   0.940 -0.5388  1.1662 -0.3798
  572SOL    HW211531   2.680   0.976   1.000 -1.1994  0.2738  2.4889
  573SOL     OW11532   3.649   5.272   0.944 -0.0430  0.2369 -0.3960
  573SOL    HW111533   3.557   5.236   0.928 -0.0019 -0.5311  1.0298
  573SOL    HW211534   3.702   5.206   0.997  1.2366  0.8108 -0.9369
  574SOL     OW11535   3.173   9.029   1.888 -0.3965 -0.1880 -0.0784
  574SOL    HW111536   3.105   8.964   1.855 -0.1533 -0.8719  0.7440
  574SOL    HW211537   3.261   8.982   1.901 -0.2006  0.3220  0.4504
  575SOL     OW11538   2.692   1.356   2.075  0.2961  0.5306 -1.0510
  575SOL    HW111539   2.730   1.354   2.168  0.0563 -1.1200 -0.9554
  575SOL    HW211540   2.756   1.312   2.012  0.0252  0.7598 -1.4892
  576SOL     OW11541   4.136   2.764   0.100 -0.3282  0.3325 -0.5997
  576SOL    HW111542   4.226   2.723   0.116  0.2154  1.6899 -0.0658
  576SOL    HW211543   4.135   2.858   0.136 -2.0539  0.2312 -0.3408
  577SOL     OW11544   4.760   3.476   0.718  0.5768  0.1754 -0.2502
  577SOL    HW111545   4.830   3.485   0.788  1.4891 -1.1845 -0.9687
  577SOL    HW211546   4.802   3.478   0.627 -0.1872 -1.5716 -0.6709
  578SOL     OW11547   2.870   6.470   0.553  0.1181 -0.0076  0.3361
  578SOL    HW111548   2.848   6.376   0.525 -0.9525  0.0028  1.0929
  578SOL    HW211549   2.917   6.468   0.642  3.1566 -0.0200 -1.2103
  579SOL     OW11550   4.940   2.272   0.813  0.7854  0.4693  0.3395
  579SOL    HW111551   4.941   2.207   0.737 -0.1046 -0.2976  0.9630
  579SOL    HW211552   4.868   2.339   0.798 -0.6351 -0.7949  1.3987
  580SOL     OW11553   2.882   1.222   0.634  0.4197 -0.3369  0.0947
  580SOL    HW111554   2.815   1.282   0.677  0.1517 -0.1138 -0.6229
  580SOL    HW211555   2.914   1.154   0.700 -1.7605 -1.5001 -0.0350
  581SOL     OW11556   3.196   1.794   1.165 -0.0157 -0.3448 -0.0062
  581SOL    HW111557   3.204   1.869   1.230  0.8795  1.5773 -2.2661
  581SOL    HW211558   3.129   1.817   1.095  0.4577 -1.5578 -0.8733
  582SOL     OW11559   2.888   4.815   1.522  0.4894  0.0433  0.4086
  582SOL    HW111560   2.825   4.861   1.460  1.1983 -0.4838 -0.7245
  582SOL    HW211561   2.946   4.882   1.568  0.8890  0.3371 -0.5337
  583SOL     OW11562   4.584   2.491   2.444 -0.2911  0.2630 -0.1819
  583SOL    HW111563   4.507   2.455   2.392 -0.9896 -0.3164  1.2242
  583SOL    HW211564   4.553   2.563   2.506  0.2754 -0.0079  0.4354
  584SOL     OW11565   3.699   2.281   1.304 -0.2966  0.7887 -0.8622
  584SOL    HW111566   3.742   2.259   1.391  1.3851  1.4951 -1.5025
  584SOL    HW211567   3.697   2.380   1.291 -0.1254  0.6776 -1.8184
  585SOL     OW11568   3.479   9.087   1.542  0.4790  0.8637 -0.0607
  585SOL    HW111569   3.554   9.140   1.582  0.7000  0.8654 -0.4820
  585SOL    HW211570   3.458   9.009   1.601  1.5728  0.2169 -0.5295
  586SOL     OW11571   4.385   1.168   1.963  0.3328  0.1461 -0.2078
  586SOL    HW111572   4.367   1.243   1.899  2.1961 -0.0723 -1.0224
  586SOL    HW211573   4.419   1.204   2.050 -0.6049  0.3497  0.0745
  587SOL     OW11574   2.791   1.657   0.767 -0.2769  0.5162  0.2394
  587SOL    HW111575   2.846   1.582   0.805  0.0871 -0.6414 -2.4801
  587SOL    HW211576   2.694   1.637   0.780 -0.1568  0.4897  1.1659
  588SOL     OW11577   3.675   3.170   1.651 -1.2423 -0.1630  0.4741
  588SOL    HW111578   3.579   3.171   1.680 -1.0195  1.6648  1.1571
  588SOL    HW211579   3.725   3.243   1.697  0.4436 -0.9772 -0.0444
  589SOL     OW11580   3.187   1.703   0.805 -0.0848 -0.0026  0.4025
  589SOL    HW111581   3.187   1.770   0.730  0.4527  1.0584  1.3317
  589SOL    HW211582   3.281   1.676   0.825 -0.4173 -2.4746 -1.2069
  590SOL     OW11583   4.908   2.388   1.885 -0.1314 -0.0178  0.1029
  590SOL    HW111584   4.821   2.407   1.931  0.3158  0.6219  0.7082
  590SOL    HW211585   4.932   2.292   1.897 -0.5151 -0.0826  0.3592
  591SOL     OW11586   3.177   7.217   0.909 -0.1787  0.0857  0.5669
  591SOL    HW111587   3.136   7.140   0.957  0.6442 -0.1330  0.9283
  591SOL    HW211588   3.106   7.282   0.882 -0.8466 -0.6800  0.4732
  592SOL     OW11589   2.872   1.235   2.698  0.8298  0.0576 -0.3729
  592SOL    HW111590   2.880   1.180   2.615 -0.0430  0.6474 -0.8613
  592SOL    HW211591   2.950   1.297   2.704  0.6360  0.3855 -1.0494
  593SOL     OW11592   3.193   5.816   1.517 -0.6410  0.5476  0.4203
  593SOL    HW111593   3.232   5.796   1.607 -0.0417  3.0585  0.7676
  593SOL    HW211594   3.110   5.870   1.528 -0.6564  0.7329 -0.5394
  594SOL     OW11595   3.458   8.574   0.732  0.6763 -1.3390 -0.5747
  594SOL    HW111596   3.472   8.491   0.787  0.7722 -0.0070  1.4775
  594SOL    HW211597   3.379   8.560   0.672  0.0913 -2.5831  0.4400
  595SOL     OW11598   2.960   7.866   2.244 -0.1554  0.0031 -0.2574
  595SOL    HW111599   2.966   7.964   2.264 -0.6045  0.0170 -0.1873
  595SOL    HW211600   2.908   7.820   2.316  1.3815 -0.5497  0.5420
  596SOL     OW11601   2.643   1.762   0.514 -0.2064 -0.1743 -0.3222
  596SOL    HW111602   2.691   1.844   0.547 -1.1283 -0.4295  1.7568
  596SOL    HW211603   2.706   1.706   0.460  0.4202  1.9241 -1.8391
  597SOL     OW11604   2.318   4.642   0.110 -0.3226  0.1487 -0.1123
  597SOL    HW111605   2.248   4.652   0.040 -0.3756  0.9002  0.0474
  597SOL    HW211606   2.300   4.705   0.186  0.9116  0.8540 -0.3929
  598SOL     OW11607   4.129   0.001   2.471 -0.4409 -0.5600 -0.0403
  598SOL    HW111608   4.122   0.027   2.375  2.5468 -1.2453 -0.4758
  598SOL    HW211609   4.169   0.077   2.523 -0.4569 -0.8190  0.3526
  599SOL     OW11610   2.696   2.756   2.178  0.2015 -0.1093 -0.2257
  599SOL    HW111611   2.655   2.665   2.178 -1.3743  0.5928 -1.1031
  599SOL    HW211612   2.677   2.802   2.265  1.4425 -0.7846  0.4291
  600SOL     OW11613   2.950   9.711   1.765 -0.1730  0.3658  0.3581
  600SOL    HW111614   2.916   9.716   1.859  0.5129  0.0966  0.6278
  600SOL    HW211615   2.969   9.616   1.742 -2.9171  0.1157 -1.0039
  601SOL     OW11616   5.145   3.840   0.857 -0.0319 -0.6633  0.3285
  601SOL    HW111617   5.134   3.932   0.818  0.4042 -0.3712  0.8749
  601SOL    HW211618   5.111   3.772   0.792 -0.8415 -0.0859  0.1326
  602SOL     OW11619   3.586   9.079   0.761  0.6646  0.2297 -0.9638
  602SOL    HW111620   3.571   9.164   0.811 -1.0450 -0.7094  0.1530
  602SOL    HW211621   3.682   9.051   0.770  0.1223 -0.5703  2.8235
  603SOL     OW11622   2.413   8.220   0.830  0.2177  0.2552 -0.0058
  603SOL    HW111623   2.392   8.146   0.766  1.4790 -0.4015  0.3279
  603SOL    HW211624   2.462   8.293   0.783  0.6665  0.0152  0.0877
  604SOL     OW11625   3.843   2.860   0.341  0.1492  0.1177  0.2085
  604SOL    HW111626   3.793   2.906   0.415 -1.3712 -1.8566  0.4397
  604SOL    HW211627   3.897   2.785   0.379  1.6653  0.9145 -0.3286
  605SOL     OW11628   3.313   0.935   0.222  0.2590  0.3794 -0.5294
  605SOL    HW111629   3.327   0.955   0.125  2.6357  0.6422 -0.1576
  605SOL    HW211630   3.311   0.836   0.236 -1.6036  0.3246 -1.0268
  606SOL     OW11631   3.612   1.852   0.225 -0.1686  0.6285  0.1897
  606SOL    HW111632   3.516   1.882   0.219 -0.7816 -1.4873 -1.4660
  606SOL    HW211633   3.672   1.929   0.207 -1.5499  2.0604  1.5376
  607SOL     OW11634   2.512   6.542   1.148  0.4057 -0.5203 -0.1571
  607SOL    HW111635   2.505   6.639   1.125  0.1691 -0.7830 -1.2128
  607SOL    HW211636   2.468   6.526   1.236  1.5922  0.5504  0.6493
  608SOL     OW11637   2.887   5.199   1.369  0.3902  0.2924 -0.1267
  608SOL    HW111638   2.880   5.255   1.452  0.3606 -0.0854  0.1286
  608SOL    HW211639   2.875   5.256   1.289  0.9852  0.7589  0.1161
  609SOL     OW11640   4.282   2.623   0.817  0.0101 -0.4481  0.5246
  609SOL    HW111641   4.309   2.648   0.910 -0.0592 -1.1325  0.7313
  609SOL    HW211642   4.230   2.538   0.819 -0.2407 -0.3122 -0.1120
  610SOL     OW11643   4.561   3.312   0.687  0.0163  0.0583 -0.0187
  610SOL    HW111644   4.617   3.395   0.682 -0.4762  0.4344  0.5367
  610SOL    HW211645   4.595   3.244   0.623  0.2938  0.7817 -0.6411
  611SOL     OW11646   3.564   4.452   1.603  0.3025 -0.4752 -0.7929
  611SOL    HW111647   3.579   4.538   1.652  0.0411 -0.7873 -0.1681
  611SOL    HW211648   3.650   4.400   1.599  0.1127 -0.8594  0.1136
  612SOL     OW11649   3.906   5.210   0.787  0.0534  0.5522  0.1721
  612SOL    HW111650   3.913   5.138   0.857 -0.9242 -0.3571 -0.6382
  612SOL    HW211651   3.841   5.279   0.817 -0.2900  0.2150  0.2169
  613SOL     OW11652   3.201   7.235   2.636  0.0789  0.4708 -0.9615
  613SOL    HW111653   3.228   7.322   2.676  0.3494 -0.3025  0.6135
  613SOL    HW211654   3.142   7.186   2.700 -0.7968 -0.1151 -2.2010
  614SOL     OW11655   2.457   3.919   1.386  0.0902  0.1115  0.4139
  614SOL    HW111656   2.374   3.961   1.424  0.3290 -0.0968  1.1822
  614SOL    HW211657   2.498   3.859   1.455 -0.1001 -1.1872 -0.5906
  615SOL     OW11658   3.657   1.568   1.940  0.5957 -0.1220  0.3210
  615SOL    HW111659   3.616   1.659   1.936  2.9850  1.1861  3.3084
  615SOL    HW211660   3.601   1.508   1.998 -0.5600 -0.3950 -1.0269
  616SOL     OW11661   2.491   3.640   2.630 -0.1012  0.2052 -0.2970
  616SOL    HW111662   2.493   3.689   2.717  0.6085 -0.2070 -0.0773
  616SOL    HW211663   2.399   3.605   2.613 -0.4217  0.9357 -0.0790
  617SOL     OW11664   2.311   0.730   2.225 -0.7247  0.1656  0.0700
  617SOL    HW111665   2.352   0.749   2.136  0.7259 -0.5611  0.5711
  617SOL    HW211666   2.370   0.668   2.277 -3.0841 -1.9431  0.3065
  618SOL     OW11667   4.274   3.834   0.061 -0.2292 -0.1516 -0.2060
  618SOL    HW111668   4.219   3.758   0.096  0.0659 -0.8352 -1.1978
  618SOL    HW211669   4.254   3.917   0.113 -0.0794 -1.0496  1.3245
  619SOL     OW11670   2.994   2.417   1.925 -0.1275 -0.4315  0.3406
  619SOL    HW111671   3.016   2.510   1.896 -1.0059 -0.4817 -0.5121
  619SOL    HW211672   2.895   2.402   1.914 -0.1154 -1.1975  1.2325
  620SOL     OW11673   4.842   2.107   2.229 -1.1851  0.0694  0.0615
  620SOL    HW111674   4.930   2.154   2.231 -1.3873  0.6053 -2.5852
  620SOL    HW211675   4.792   2.126   2.314  0.6056  0.9733  0.9352
  621SOL     OW11676   3.453   2.232   1.789 -0.2550  0.3141 -0.2978
  621SOL    HW111677   3.356   2.220   1.810 -0.4429  2.0723 -0.0771
  621SOL    HW211678   3.505   2.240   1.874  0.0126 -0.0156 -0.4259
  622SOL     OW11679   2.569   0.520   2.057 -0.2393  0.1993  0.0670
  622SOL    HW111680   2.619   0.501   2.141  0.4802  1.8615  0.0496
  622SOL    HW211681   2.570   0.619   2.040 -2.2957  0.1023 -0.7072
  623SOL     OW11682   2.703   4.727   2.154 -0.2818  0.4766 -0.1515
  623SOL    HW111683   2.770   4.765   2.090  1.1490 -1.7423 -0.0223
  623SOL    HW211684   2.612   4.762   2.131  0.3675  0.6347 -2.6713
  624SOL     OW11685   3.901   3.784   1.608 -0.7903 -0.6913 -0.0238
  624SOL    HW111686   3.815   3.745   1.640 -0.6084  0.9065  2.5706
  624SOL    HW211687   3.928   3.860   1.668  1.3783  0.1756 -2.0004
  625SOL     OW11688   1.950   5.307   2.225 -0.2430  0.5525 -0.0018
  625SOL    HW111689   1.858   5.267   2.229 -0.3706  0.5909 -1.8944
  625SOL    HW211690   1.944   5.400   2.189  0.7267 -0.2792 -2.4444
  626SOL     OW11691   1.854   4.841   2.009  0.4882  0.0289 -0.0869
  626SOL    HW111692   1.930   4.905   1.999 -0.5621  0.8660 -3.4265
  626SOL    HW211693   1.844   4.815   2.105  1.7575  3.8743  1.1722
  627SOL     OW11694   3.766   4.433   2.648  0.5093 -0.1311  0.4399
  627SOL    HW111695   3.848   4.418   2.703  0.9457 -0.2657 -0.2413
  627SOL    HW211696   3.760   4.531   2.625 -0.3111  0.1242  1.7193
  628SOL     OW11697   3.190   8.719   2.015 -0.2504 -0.5423  0.0304
  628SOL    HW111698   3.153   8.770   2.093 -0.8277 -0.5533 -0.2393
  628SOL    HW211699   3.196   8.622   2.040 -1.6115 -0.7368 -0.3752
  629SOL     OW11700   2.383   4.878   1.101  0.3520  0.0735  0.3454
  629SOL    HW111701   2.348   4.933   1.177 -1.3613 -0.9403  0.3116
  629SOL    HW211702   2.384   4.782   1.128  0.4320 -0.2171 -0.6759
  630SOL     OW11703   3.582   5.042   0.208 -0.0715  0.0325 -0.1889
  630SOL    HW111704   3.625   5.035   0.118  1.8036 -0.3427  0.7092
  630SOL    HW211705   3.625   5.117   0.259  1.8340 -2.4017  1.9168
  631SOL     OW11706   3.129   3.880   1.524  0.0916  0.1099  0.0172
  631SOL    HW111707   3.048   3.821   1.526  0.4558 -0.3957 -0.0273
  631SOL    HW211708   3.180   3.869   1.609 -0.4051  1.1626  0.4505
  632SOL     OW11709   3.010   1.853   0.263  0.2332  0.3974 -0.4463
  632SOL    HW111710   2.950   1.839   0.185  0.3415  1.1173 -0.6680
  632SOL    HW211711   3.084   1.786   0.261 -0.3478 -0.2506 -0.3804
  633SOL     OW11712   4.207   1.013   1.545 -0.8331 -0.2447 -0.0734
  633SOL    HW111713   4.130   0.950   1.552 -1.0441 -0.0037 -0.2166
  633SOL    HW211714   4.173   1.107   1.542 -0.5905 -0.1845 -1.0858
  634SOL     OW11715   2.397   8.142   1.463  0.0301  0.2611  0.2514
  634SOL    HW111716   2.470   8.076   1.444 -1.5043 -1.3148 -0.3444
  634SOL    HW211717   2.315   8.115   1.414 -1.5826  0.8463  2.5633
  635SOL     OW11718   2.570   7.938   1.521 -0.8514  1.1989 -0.3696
  635SOL    HW111719   2.585   7.907   1.427 -1.3849 -0.6031  0.1189
  635SOL    HW211720   2.513   7.872   1.569 -0.5159  2.0641  1.2542
  636SOL     OW11721   3.727   3.164   1.255  0.3657 -0.0177 -0.1236
  636SOL    HW111722   3.666   3.236   1.289 -0.8091 -0.4219 -1.3616
  636SOL    HW211723   3.706   3.145   1.159  0.5312 -2.1678  0.2548
  637SOL     OW11724   3.774   9.708   1.293 -0.5173 -0.1447 -0.3223
  637SOL    HW111725   3.805   9.628   1.345  0.9801  1.7788  1.8799
  637SOL    HW211726   3.810   9.704   1.200  1.4542 -0.9309  0.4552
  638SOL     OW11727   3.703   3.041   0.153  0.3755  0.3596  0.3229
  638SOL    HW111728   3.725   2.993   0.068 -0.4252 -0.9447  0.8323
  638SOL    HW211729   3.775   3.026   0.220 -1.1761 -2.4962  1.4203
  639SOL     OW11730   3.685   8.470   1.094 -0.5385  0.0038  0.2626
  639SOL    HW111731   3.586   8.479   1.098 -0.6136 -0.5331 -0.3657
  639SOL    HW211732   3.712   8.383   1.136 -0.5610 -1.1472 -2.0322
  640SOL     OW11733   3.308   0.917   0.622 -0.1511  0.2336 -0.1934
  640SOL    HW111734   3.404   0.942   0.614  0.5008 -2.7123 -2.1985
  640SOL    HW211735   3.253   0.977   0.563  0.5700  1.0687 -0.0336
  641SOL     OW11736   3.431   2.213   0.555 -0.1154 -0.2298  0.3822
  641SOL    HW111737   3.371   2.231   0.477  1.4381 -0.1387 -0.8171
  641SOL    HW211738   3.449   2.115   0.562  1.6269 -0.0336 -0.8450
  642SOL     OW11739   3.388   3.046   0.605  0.3758 -0.1829 -0.0709
  642SOL    HW111740   3.472   3.018   0.650  0.9364  0.1027 -0.9292
  642SOL    HW211741   3.406   3.064   0.509 -0.6064  0.1617 -0.1975
  643SOL     OW11742   3.424   2.696   0.684 -0.2605 -0.2854 -0.4626
  643SOL    HW111743   3.457   2.710   0.591 -1.1139 -3.2561 -1.2555
  643SOL    HW211744   3.501   2.696   0.747  0.4032  0.9586 -1.2537
  644SOL     OW11745   3.362   6.604   1.377  0.0838 -0.2133  0.0798
  644SOL    HW111746   3.363   6.678   1.444 -1.1663 -0.8724  0.8486
  644SOL    HW211747   3.355   6.643   1.285  1.6533  0.6886  0.3292
  645SOL     OW11748   2.285   0.990   0.024  0.1742  0.0116 -0.0787
  645SOL    HW111749   2.378   0.953   0.023  0.1828  0.0153  0.4886
  645SOL    HW211750   2.263   1.026  -0.067  1.6182  2.2374  0.4198
  646SOL     OW11751   3.859   9.828   0.247  0.1428 -0.2192 -0.2009
  646SOL    HW111752   3.847   9.827   0.347 -0.7823  1.1067 -0.2767
  646SOL    HW211753   3.822   9.744   0.208 -1.0010 -0.0348  0.4462
  647SOL     OW11754   4.268   2.663   1.173  0.0773  0.0800  0.2284
  647SOL    HW111755   4.186   2.611   1.198  0.5818 -1.0515 -0.4363
  647SOL    HW211756   4.242   2.742   1.118 -0.6963  0.5382  1.2214
  648SOL     OW11757   1.959   5.552   2.099 -0.4166  0.0731 -0.4068
  648SOL    HW111758   1.911   5.639   2.107  1.0061  0.6379  3.3823
  648SOL    HW211759   2.057   5.570   2.089  0.1904 -1.0144  3.0198
  649SOL     OW11760   3.437   6.868   2.067  0.7817 -0.0136 -0.3574
  649SOL    HW111761   3.509   6.833   2.127  0.2708  0.2536  0.4047
  649SOL    HW211762   3.393   6.946   2.109  0.1457 -0.0745 -0.9030
  650SOL     OW11763   3.666   1.647   1.454 -0.6886 -0.1595  0.2791
  650SOL    HW111764   3.615   1.560   1.451 -0.4419 -0.2689 -0.8349
  650SOL    HW211765   3.602   1.723   1.452 -0.8383 -0.3033 -0.3910
  651SOL     OW11766   2.813   8.215   1.100 -0.1434  0.5980 -0.4624
  651SOL    HW111767   2.811   8.282   1.175 -0.6169  0.0438  0.0255
  651SOL    HW211768   2.720   8.197   1.069 -0.1877 -1.1527  0.6004
  652SOL     OW11769   2.586   0.457   1.339 -0.1815 -0.0134 -0.1029
  652SOL    HW111770   2.650   0.454   1.262  1.4046 -0.8645  1.2149
  652SOL    HW211771   2.525   0.378   1.336 -2.1954  1.5453 -2.1748
  653SOL     OW11772   4.407   3.885   0.911 -0.2932 -0.2827  0.8070
  653SOL    HW111773   4.436   3.790   0.905  0.3408  0.0411 -2.1323
  653SOL    HW211774   4.484   3.942   0.940  0.2425 -0.2913 -0.5361
  654SOL     OW11775   2.536   8.206   1.073 -0.0866  0.1456  0.0589
  654SOL    HW111776   2.489   8.139   1.131  0.3313  1.2955  1.7403
  654SOL    HW211777   2.484   8.218   0.988 -1.9838  0.2254  1.2002
  655SOL     OW11778   5.145   3.324   0.601  0.3320  0.5582  0.4639
  655SOL    HW111779   5.195   3.309   0.516  0.5664 -0.0907  0.7115
  655SOL    HW211780   5.058   3.369   0.582 -0.2304 -0.8329 -0.2492
  656SOL     OW11781   2.674   7.980   0.489  0.6152  0.1712  0.0371
  656SOL    HW111782   2.646   7.907   0.551 -0.0194 -0.3380 -0.8424
  656SOL    HW211783   2.731   7.942   0.416 -0.2874  0.4417 -0.8123
  657SOL     OW11784   2.440   3.946   2.642  0.4715 -0.0404 -0.5430
  657SOL    HW111785   2.532   3.983   2.654  0.0780  0.7079  0.3104
  657SOL    HW211786   2.414   3.895   2.724 -0.3497  0.8229 -0.2599
  658SOL     OW11787   3.989   3.352   0.519  0.1695 -0.1791  0.3892
  658SOL    HW111788   3.933   3.346   0.436  1.9229 -0.3718 -0.8210
  658SOL    HW211789   4.054   3.276   0.519  2.0834  1.4367  0.5100
  659SOL     OW11790   3.316   4.410   0.548  0.1019 -0.1048  0.2046
  659SOL    HW111791   3.257   4.332   0.570 -1.1208  1.0988  1.2713
  659SOL    HW211792   3.266   4.495   0.564  1.6799  0.9195 -0.2200
  660SOL     OW11793   2.649   0.179   1.600 -0.6177 -0.2660  0.1393
  660SOL    HW111794   2.619   0.094   1.643  0.5638 -0.5453  0.4183
  660SOL    HW211795   2.652   0.252   1.668  0.0887 -0.4220  0.2740
  661SOL     OW11796   4.572   3.746   1.146  0.6388 -0.1848 -0.7487
  661SOL    HW111797   4.649   3.684   1.157  0.9447  0.5052  1.2215
  661SOL    HW211798   4.486   3.697   1.162  0.7265 -0.6877 -1.7972
  662SOL     OW11799   4.333   2.205   0.883 -0.1976 -0.0132  0.1952
  662SOL    HW111800   4.330   2.123   0.825 -0.3087  0.1816 -0.0775
  662SOL    HW211801   4.260   2.267   0.856 -0.3720 -0.0060  0.6764
  663SOL     OW11802   4.525   4.351   1.293  0.0691 -0.1039 -0.1354
  663SOL    HW111803   4.429   4.335   1.316 -0.0538  0.7689 -0.0319
  663SOL    HW211804   4.530   4.391   1.201  0.4814 -2.4140 -1.1795
  664SOL     OW11805   2.794   3.314   1.552 -0.0522  0.4575 -0.0134
  664SOL    HW111806   2.848   3.279   1.476  0.3629  1.3649 -0.1367
  664SOL    HW211807   2.708   3.352   1.517 -0.1171  0.3585  0.0356
  665SOL     OW11808   3.400   4.827   1.624  0.0578  0.2533 -0.0517
  665SOL    HW111809   3.466   4.782   1.683 -2.1540 -1.4855  1.1492
  665SOL    HW211810   3.338   4.882   1.679  0.5477  2.0125 -1.1914
  666SOL     OW11811   2.991   2.705   2.212 -0.3771  0.4182 -0.0831
  666SOL    HW111812   3.042   2.733   2.130  0.8566  1.6109  1.0677
  666SOL    HW211813   2.893   2.709   2.192 -0.0917  0.3702 -1.6089
  667SOL     OW11814   3.796   2.426   1.679 -0.2441  0.1798 -0.2401
  667SOL    HW111815   3.705   2.456   1.650 -0.2479 -0.3649 -0.8041
  667SOL    HW211816   3.788   2.344   1.735 -0.0736 -0.1283 -0.6627
  668SOL     OW11817   4.671   2.856   2.679  0.0740 -0.1871  0.2873
  668SOL    HW111818   4.646   2.893   2.769 -1.8284 -1.2987  0.2253
  668SOL    HW211819   4.701   2.931   2.620  0.0195  0.7373  1.4154
  669SOL     OW11820   4.435   1.243   2.672  0.1485  0.1939 -0.3953
  669SOL    HW111821   4.410   1.193   2.589 -2.2162  0.0833  0.3614
  669SOL    HW211822   4.455   1.179   2.746 -3.9669  0.2379  0.8964
  670SOL     OW11823   2.853   9.406   0.230  0.5533 -0.8006  0.5368
  670SOL    HW111824   2.781   9.347   0.193  0.1623 -0.1328  0.2199
  670SOL    HW211825   2.922   9.350   0.276  0.8306 -1.6185 -0.8334
  671SOL     OW11826   3.214   3.745   2.004  0.0125 -0.1983  0.2024
  671SOL    HW111827   3.191   3.711   2.095  1.3794 -1.8218 -0.0388
  671SOL    HW211828   3.268   3.677   1.955  0.9927  1.4493 -1.0880
  672SOL     OW11829   2.785   4.006   1.676 -0.2333  0.0972  0.1745
  672SOL    HW111830   2.762   4.003   1.773  0.7993 -0.2262  0.4146
  672SOL    HW211831   2.799   3.914   1.641  2.3808  0.3635  0.4550
  673SOL     OW11832   2.704   9.285   1.049 -0.4432 -0.3003 -0.1890
  673SOL    HW111833   2.670   9.372   1.013  0.5045  0.3705  0.4996
  673SOL    HW211834   2.744   9.231   0.976 -1.0399 -0.1626 -0.6217
  674SOL     OW11835   2.551   0.871   0.718  0.2906  0.2069 -0.2739
  674SOL    HW111836   2.525   0.876   0.621 -0.7476  0.0362 -0.0122
  674SOL    HW211837   2.640   0.825   0.727 -0.0895 -0.7045 -1.0691
  675SOL     OW11838   2.965   0.543   2.215  0.7997 -0.2037 -0.2030
  675SOL    HW111839   2.999   0.548   2.121 -1.0336  0.4928 -0.8520
  675SOL    HW211840   2.954   0.635   2.251 -1.1576 -0.3789 -0.3095
  676SOL     OW11841   2.734   4.223   1.968 -0.0443  0.3369 -0.2437
  676SOL    HW111842   2.811   4.190   2.022 -0.9623  0.2881  1.0534
  676SOL    HW211843   2.743   4.321   1.953  1.2432  0.0098 -1.7166
  677SOL     OW11844   3.085   3.938   1.192 -0.1281 -0.1795  0.2001
  677SOL    HW111845   3.156   4.001   1.162  0.6355 -0.9397  0.4013
  677SOL    HW211846   3.043   3.894   1.113 -0.6733  0.5903  0.0583
  678SOL     OW11847   2.912   0.203   1.987  0.2357  0.6311  0.2723
  678SOL    HW111848   2.942   0.140   2.059 -1.5231 -0.2910  0.2335
  678SOL    HW211849   2.890   0.292   2.028 -0.2627  0.2674  0.8151
  679SOL     OW11850   4.067   4.305   0.796  0.1776  0.1559 -0.5671
  679SOL    HW111851   4.005   4.246   0.744  0.1620 -2.7433  2.5671
  679SOL    HW211852   4.015   4.355   0.866  0.9673 -0.2000  0.2864
  680SOL     OW11853   2.111   7.966   0.558 -0.5441 -0.3873 -0.3105
  680SOL    HW111854   2.128   7.991   0.462  2.0251 -1.2418 -0.1228
  680SOL    HW211855   2.082   7.871   0.563 -1.5822 -0.0724 -0.3089
  681SOL     OW11856   3.809   0.934   2.674 -0.2022 -0.0160  0.1062
  681SOL    HW111857   3.854   0.995   2.608  0.5091 -0.0469  0.5529
  681SOL    HW211858   3.785   0.848   2.630  0.2765 -0.0372 -0.1126
  682SOL     OW11859   2.198   6.536   0.607 -0.2764  0.0055 -0.0658
  682SOL    HW111860   2.222   6.599   0.534  1.2866  0.1787  0.5850
  682SOL    HW211861   2.216   6.442   0.578  0.1629  0.0617  0.0216
  683SOL     OW11862   3.124   9.711   2.360  0.2287 -0.6833  0.1223
  683SOL    HW111863   3.110   9.697   2.262  1.9565  0.2383 -0.2784
  683SOL    HW211864   3.200   9.655   2.391  0.9882  0.5493  0.5021
  684SOL     OW11865   4.538   3.813   1.970  0.0580 -0.3296 -0.9283
  684SOL    HW111866   4.482   3.893   1.949  0.0666 -0.0647  0.0555
  684SOL    HW211867   4.495   3.759   2.042  0.2610 -0.9852 -1.2942
  685SOL     OW11868   5.164   2.195   0.350  0.6416 -0.0391  0.2721
  685SOL    HW111869   5.206   2.284   0.366 -0.4672  0.2916  1.4464
  685SOL    HW211870   5.119   2.194   0.260  1.7446  0.1481 -0.2847
  686SOL     OW11871   2.439   7.077   2.292 -0.0376  0.0662  0.4727
  686SOL    HW111872   2.465   7.028   2.375  0.3767 -0.7661 -0.1495
  686SOL    HW211873   2.465   7.024   2.212 -1.3240  0.4031 -0.1923
  687SOL     OW11874   3.285   9.783   0.155 -0.6199 -0.3781 -0.0775
  687SOL    HW111875   3.253   9.876   0.176  0.1161 -0.5275  1.7859
  687SOL    HW211876   3.227   9.717   0.202  0.3559 -0.7770  0.5619
  688SOL     OW11877   4.140   1.870   2.596 -0.5865  0.5567 -0.3740
  688SOL    HW111878   4.062   1.873   2.659  0.9264 -0.3597  1.5609
  688SOL    HW211879   4.191   1.786   2.609  0.4186  0.8831 -2.0519
  689SOL     OW11880   2.888   4.706   1.769  0.7051 -0.2411  0.1136
  689SOL    HW111881   2.877   4.752   1.680  0.3262 -1.4854 -0.4938
  689SOL    HW211882   2.946   4.625   1.757 -0.0481 -0.8865  0.8423
  690SOL     OW11883   2.579   2.319   1.709  0.1074  0.2536 -0.6231
  690SOL    HW111884   2.611   2.224   1.712  1.5309  0.7327 -0.4392
  690SOL    HW211885   2.567   2.347   1.613 -0.4925 -0.1629 -0.6735
  691SOL     OW11886   2.515   7.005   2.016  0.2464 -0.5562  0.5456
  691SOL    HW111887   2.577   6.930   1.994  1.2438  0.0696  1.2245
  691SOL    HW211888   2.531   7.081   1.953 -0.8114 -0.9276 -0.1870
  692SOL     OW11889   2.902   9.164   0.892 -0.1627  0.0705  0.6952
  692SOL    HW111890   2.945   9.183   0.980 -0.9755 -1.1837  1.3703
  692SOL    HW211891   2.971   9.136   0.826  0.3814  0.5710  1.0486
  693SOL     OW11892   2.761   1.139   1.046  0.3399 -0.3109 -0.2519
  693SOL    HW111893   2.855   1.110   1.067  0.1929 -1.9395 -1.7380
  693SOL    HW211894   2.760   1.237   1.027  1.5092 -0.0254  1.0434
  694SOL     OW11895   3.393   5.030   1.109 -0.7288  0.1638 -0.3675
  694SOL    HW111896   3.440   4.944   1.129 -0.2302  0.4442 -0.3315
  694SOL    HW211897   3.455   5.107   1.123 -1.2289  0.5479 -0.2138
  695SOL     OW11898   4.128   3.622   0.146 -1.0022  0.3625 -0.3574
  695SOL    HW111899   4.086   3.677   0.219 -0.7997 -0.5399  0.4448
  695SOL    HW211900   4.058   3.563   0.105 -0.5101 -1.2927  1.1189
  696SOL     OW11901   2.602   6.438   2.096  0.3081  0.1802  0.2680
  696SOL    HW111902   2.561   6.421   2.007  0.9993  0.1785 -0.0462
  696SOL    HW211903   2.669   6.512   2.090  0.2425  0.2928  0.8170
  697SOL     OW11904   3.350   3.154   2.296 -0.1691 -0.4275 -0.8276
  697SOL    HW111905   3.266   3.100   2.293  0.2666 -1.2494  1.1313
  697SOL    HW211906   3.429   3.094   2.287  0.3374 -0.2102  1.7585
  698SOL     OW11907   3.153   2.645   1.133  0.0281 -0.6374 -0.4166
  698SOL    HW111908   3.200   2.636   1.221  1.2874 -2.8301 -1.2931
  698SOL    HW211909   3.073   2.705   1.145  0.5832 -0.3178  2.0450
  699SOL     OW11910   2.494   2.931   1.750  0.1886 -0.0150 -0.6169
  699SOL    HW111911   2.482   2.836   1.778 -0.4597  0.3550  0.3697
  699SOL    HW211912   2.420   2.957   1.688  0.3672 -0.1509 -0.8887
  700SOL     OW11913   4.015   0.542   0.461 -0.0280 -0.1631 -0.5682
  700SOL    HW111914   3.923   0.533   0.501  0.1239 -0.2129 -0.2241
  700SOL    HW211915   4.046   0.637   0.470  0.1644 -0.2559 -0.2085
  701SOL     OW11916   3.496   2.407   0.164 -0.0246 -0.2779 -0.7774
  701SOL    HW111917   3.404   2.442   0.148  0.6281  2.2778  0.7569
  701SOL    HW211918   3.560   2.448   0.099  0.3905 -0.3841 -0.4418
  702SOL     OW11919   4.277   2.504   1.654  0.0110 -0.6779  0.4843
  702SOL    HW111920   4.178   2.494   1.645 -0.1902  0.1271  1.7282
  702SOL    HW211921   4.306   2.590   1.613  0.0107 -0.2783  1.3148
  703SOL     OW11922   2.202   5.646   2.132  0.0261  0.5176 -0.3126
  703SOL    HW111923   2.236   5.735   2.103 -2.1568  1.5031  0.0252
  703SOL    HW211924   2.267   5.606   2.197 -0.0526  2.9105  1.3226
  704SOL     OW11925   3.384   1.516   1.385  0.2024 -0.0954 -0.6021
  704SOL    HW111926   3.412   1.423   1.409  1.6944  0.4587 -0.1610
  704SOL    HW211927   3.297   1.512   1.335 -0.8588 -1.5702  1.2809
  705SOL     OW11928   3.577   9.069   0.094  0.3647  0.1170  0.0264
  705SOL    HW111929   3.510   9.024   0.035 -1.1128 -0.4853  2.0966
  705SOL    HW211930   3.568   9.168   0.085  0.9324  0.0391 -1.5819
  706SOL     OW11931   2.604   2.445   2.665  0.8516  0.1332  0.4679
  706SOL    HW111932   2.548   2.503   2.606 -1.0777 -0.6896  1.4471
  706SOL    HW211933   2.578   2.349   2.651  1.4366 -0.1842  1.5457
  707SOL     OW11934   4.368   3.997   1.915 -0.3988 -0.2472  0.2472
  707SOL    HW111935   4.275   3.978   1.947 -0.5264 -0.7632 -0.4169
  707SOL    HW211936   4.417   4.051   1.983 -2.2285  2.8219 -0.7883
  708SOL     OW11937   2.661   1.564   1.641 -0.6378 -0.1169 -0.1926
  708SOL    HW111938   2.724   1.534   1.569  0.1722  0.0949  0.4189
  708SOL    HW211939   2.574   1.515   1.632  0.3530 -2.0302  0.2444
  709SOL     OW11940   2.165   8.351   0.613 -0.4833 -0.4992  0.0217
  709SOL    HW111941   2.080   8.311   0.649 -1.7669  0.0471 -2.3356
  709SOL    HW211942   2.150   8.448   0.596  0.5128 -0.4944 -0.8021
  710SOL     OW11943   3.693   9.280   1.581 -0.4333 -0.1588  0.1138
  710SOL    HW111944   3.790   9.305   1.577 -0.0117 -1.9006 -1.5076
  710SOL    HW211945   3.641   9.339   1.519 -0.0820 -0.5781 -0.5859
  711SOL     OW11946   4.287   2.828   2.406 -0.0343  0.1229  0.7357
  711SOL    HW111947   4.219   2.870   2.467 -0.7568  1.5571 -1.0056
  711SOL    HW211948   4.361   2.789   2.461 -0.7883  1.1553  2.5454
  712SOL     OW11949   2.384   7.980   0.651 -0.2477 -0.1358 -0.3656
  712SOL    HW111950   2.296   7.941   0.623  0.2545 -1.6487  0.0707
  712SOL    HW211951   2.415   8.045   0.583 -2.0368  0.9349 -0.1857
  713SOL     OW11952   3.616   4.695   0.962 -0.2092 -0.0393 -0.0403
  713SOL    HW111953   3.715   4.692   0.978 -0.4787 -1.1676  1.5418
  713SOL    HW211954   3.596   4.662   0.870  0.8887  0.2181 -0.3787
  714SOL     OW11955   3.267   8.924   1.059  0.2699  0.4389  0.3177
  714SOL    HW111956   3.329   8.867   1.006 -0.3503 -0.3602  0.4333
  714SOL    HW211957   3.318   8.994   1.108  1.3494 -1.6664  2.2792
  715SOL     OW11958   2.909   5.850   0.317  0.3767  0.1058 -0.1163
  715SOL    HW111959   2.820   5.805   0.306  0.3507 -0.9001  3.7576
  715SOL    HW211960   2.962   5.838   0.232 -2.6629 -0.3266 -2.0429
  716SOL     OW11961   2.860   2.418   2.598  0.4017 -0.3001  0.3492
  716SOL    HW111962   2.771   2.418   2.644 -0.0548  0.2382 -0.5227
  716SOL    HW211963   2.876   2.507   2.556  0.9764 -0.6688 -0.2258
  717SOL     OW11964   4.094   4.960   1.326 -0.4518 -0.0680  0.4106
  717SOL    HW111965   4.036   5.005   1.259 -0.6046  1.1506  1.3412
  717SOL    HW211966   4.181   4.934   1.283 -0.3439  1.1526 -0.1330
  718SOL     OW11967   2.933   5.430   1.191  0.1367 -0.0398  0.0631
  718SOL    HW111968   2.959   5.511   1.137  0.1812  0.1635  0.3836
  718SOL    HW211969   2.989   5.352   1.163  1.3432  0.4753  0.9721
  719SOL     OW11970   3.421   8.558   1.112 -0.0023  0.3927 -0.6325
  719SOL    HW111971   3.331   8.592   1.082 -0.1188  0.9330  0.2934
  719SOL    HW211972   3.414   8.528   1.208  0.3916 -1.1638 -1.0823
  720SOL     OW11973   2.272   6.430   2.216  1.0650  0.0611  0.4309
  720SOL    HW111974   2.317   6.504   2.166 -2.9479  2.8800  0.7506
  720SOL    HW211975   2.304   6.429   2.311  2.3027  0.3359  0.0190
  721SOL     OW11976   3.440   2.844   1.048 -0.1832 -0.0822 -0.5520
  721SOL    HW111977   3.360   2.901   1.029  0.8324  1.2139 -1.0770
  721SOL    HW211978   3.431   2.757   1.000 -1.4972 -0.1374 -0.2182
  722SOL     OW11979   2.154   7.459   1.851  0.6767 -0.0625 -0.4115
  722SOL    HW111980   2.178   7.377   1.800  2.1410  1.3092 -1.9930
  722SOL    HW211981   2.138   7.436   1.947  1.8466 -2.0521 -0.6753
  723SOL     OW11982   3.004   2.114   0.504  0.0801  0.1649  0.5990
  723SOL    HW111983   2.968   2.188   0.561 -0.7592 -0.1598  0.4857
  723SOL    HW211984   3.009   2.144   0.409  1.2013  0.6035  0.7802
  724SOL     OW11985   4.041   9.615   2.228 -0.5351 -0.0316 -0.3303
  724SOL    HW111986   4.110   9.544   2.212 -0.2775  0.2519 -0.4834
  724SOL    HW211987   4.069   9.670   2.307 -1.6568 -1.2517  0.9514
  725SOL     OW11988   3.728   3.587   2.038 -0.1035  0.2441 -0.6262
  725SOL    HW111989   3.735   3.534   1.953 -1.1184 -1.7627  0.5062
  725SOL    HW211990   3.797   3.555   2.103 -2.1294 -1.2585  0.8600
  726SOL     OW11991   2.532   9.262   1.567  0.3592  0.2815  0.8787
  726SOL    HW111992   2.586   9.258   1.483  0.3495  1.0669  0.8296
  726SOL    HW211993   2.435   9.251   1.545  0.4041 -0.0528  0.8472
  727SOL     OW11994   3.028   5.575   0.018  0.1522  0.0770 -0.4359
  727SOL    HW111995   3.037   5.497  -0.043 -0.5901  0.4771 -1.0594
  727SOL    HW211996   3.026   5.543   0.113  3.2860 -0.4051 -0.4657
  728SOL     OW11997   4.031   3.135   1.705  0.3360  0.1652 -0.1605
  728SOL    HW111998   4.121   3.172   1.682  0.4703 -0.3582 -0.4700
  728SOL    HW211999   3.991   3.090   1.625  1.1256 -2.2952  0.7734
  729SOL     OW12000   2.958   4.811   2.435 -0.0108 -0.1312 -0.0262
  729SOL    HW112001   3.028   4.870   2.475 -0.4390  1.3647 -1.4349
  729SOL    HW212002   2.868   4.853   2.446 -0.2281 -0.0720 -1.7824
  730SOL     OW12003   4.309   4.680   0.436  0.0927 -0.0385 -0.5765
  730SOL    HW112004   4.258   4.595   0.426  1.8245 -1.5330  2.6503
  730SOL    HW212005   4.400   4.670   0.397  0.7479 -0.1398  0.9264
  731SOL     OW12006   3.853   9.228   0.065 -0.1136  0.2332  0.0902
  731SOL    HW112007   3.819   9.149   0.116 -0.7752 -1.0154 -2.1990
  731SOL    HW212008   3.789   9.304   0.075 -0.5913 -0.2218  0.5476
  732SOL     OW12009   3.591   5.101   1.917  0.1144 -0.6215  0.4066
  732SOL    HW112010   3.677   5.087   1.965  0.6767  0.0322 -0.3786
  732SOL    HW212011   3.523   5.138   1.980  1.1971  1.3850  0.4332
  733SOL     OW12012   2.786   3.692   1.353 -0.1712 -0.5609  0.3666
  733SOL    HW112013   2.867   3.649   1.313  1.5052 -0.0999  3.1565
  733SOL    HW212014   2.743   3.752   1.285  1.9869 -0.5595 -1.0368
  734SOL     OW12015   3.811   4.070   1.506 -0.2085 -0.1615  0.2009
  734SOL    HW112016   3.725   4.031   1.540 -0.6391  1.0458  0.5161
  734SOL    HW212017   3.886   4.006   1.525 -0.8720 -0.7501  0.8873
  735SOL     OW12018   4.258   4.488   2.150  0.4574  0.1189  0.1561
  735SOL    HW112019   4.342   4.523   2.192 -0.1768  2.4796 -0.4613
  735SOL    HW212020   4.279   4.405   2.098  2.5074  0.9296 -0.3711
  736SOL     OW12021   4.062   0.102   2.213 -0.1099  0.7449 -0.2900
  736SOL    HW112022   4.033   0.080   2.120 -0.0508  2.9068 -0.8541
  736SOL    HW212023   4.048   0.200   2.230  0.7691  0.5613  1.6502
  737SOL     OW12024   3.571   8.668   2.498 -0.2691 -0.2244 -0.1318
  737SOL    HW112025   3.603   8.743   2.555  1.5448 -0.9413 -0.1832
  737SOL    HW212026   3.641   8.646   2.430 -0.6878 -2.0902  0.0180
  738SOL     OW12027   3.341   0.871   2.076  0.1450 -0.1215  0.4626
  738SOL    HW112028   3.306   0.890   2.168  1.4176  0.3583  0.8508
  738SOL    HW212029   3.403   0.944   2.048 -0.9846  0.2368 -1.1747
  739SOL     OW12030   3.706   2.295   0.315  0.1559 -0.3454 -0.2667
  739SOL    HW112031   3.705   2.317   0.413  1.5473 -1.4368  0.0052
  739SOL    HW212032   3.620   2.325   0.274 -0.9306 -0.9044  1.5282
  740SOL     OW12033   3.411   0.008   1.077 -0.2171  0.3315  0.0654
  740SOL    HW112034   3.507  -0.010   1.055 -0.7066 -0.9874 -1.1054
  740SOL    HW212035   3.386   0.099   1.042 -0.3749 -0.8259 -3.0500
  741SOL     OW12036   4.169   4.905   0.507  0.1023 -0.0448 -0.2845
  741SOL    HW112037   4.222   4.955   0.576 -1.8551  0.2555  1.0541
  741SOL    HW212038   4.223   4.827   0.474  2.7003  2.1913 -1.4942
  742SOL     OW12039   4.052   4.423   0.394  0.0397  0.2887 -0.4842
  742SOL    HW112040   4.124   4.444   0.460 -0.8881  1.3360  0.2194
  742SOL    HW212041   3.965   4.459   0.427 -1.1825 -2.5514 -0.4604
  743SOL     OW12042   4.119   2.249   1.794  0.0289 -0.0098  0.2289
  743SOL    HW112043   4.070   2.310   1.856  0.0638  0.7710 -0.4959
  743SOL    HW212044   4.057   2.219   1.721  0.5831  0.8734 -0.6164
  744SOL     OW12045   2.901   1.300   1.903  0.5425 -0.1382  0.2952
  744SOL    HW112046   2.994   1.273   1.929  1.0026  0.7898 -0.3392
  744SOL    HW212047   2.884   1.273   1.809  1.7654  3.5405 -1.0559
  745SOL     OW12048   2.906   3.577   1.111 -0.1847 -0.0636  0.0882
  745SOL    HW112049   2.890   3.608   1.018 -0.5812  0.2430  0.2584
  745SOL    HW212050   2.988   3.622   1.147 -0.0208 -0.1960 -0.1166
  746SOL     OW12051   3.973   0.524   2.165  0.3106  0.0702 -0.2304
  746SOL    HW112052   3.931   0.611   2.190 -0.5588 -0.3697 -0.1346
  746SOL    HW212053   4.070   0.538   2.145  0.5100  0.8086  1.2156
  747SOL     OW12054   3.273   9.264   1.833 -0.1139  0.3987 -0.0459
  747SOL    HW112055   3.281   9.282   1.734 -0.2407 -0.8721 -0.2859
  747SOL    HW212056   3.239   9.172   1.848  1.1426  0.1258  1.2145
  748SOL     OW12057   3.608   9.075   2.387 -0.0030 -0.1015  0.2977
  748SOL    HW112058   3.567   9.141   2.324 -0.3308 -0.5159  0.0742
  748SOL    HW212059   3.576   8.983   2.365 -0.5774 -0.1846  1.4528
  749SOL     OW12060   2.462   8.623   2.100 -0.1488  0.1587  0.4021
  749SOL    HW112061   2.474   8.532   2.139 -0.8956  0.6096  1.7260
  749SOL    HW212062   2.539   8.681   2.127 -0.4504  0.3513  0.8499
  750SOL     OW12063   2.602   4.684   0.817 -0.6450 -0.0398 -0.0921
  750SOL    HW112064   2.553   4.771   0.815 -0.5173  0.0609  0.7105
  750SOL    HW212065   2.686   4.691   0.763  0.2978  0.9190  1.4593
  751SOL     OW12066   3.190   3.543   0.502  0.5226  0.4715  0.0666
  751SOL    HW112067   3.272   3.565   0.554  1.2684 -0.7601 -0.5546
  751SOL    HW212068   3.194   3.447   0.473  0.3948  1.2519 -2.6939
  752SOL     OW12069   2.489   2.711   0.616 -0.6160 -0.0435  0.0461
  752SOL    HW112070   2.575   2.744   0.653  0.2172 -1.5120 -0.5302
  752SOL    HW212071   2.441   2.786   0.570  2.0949  0.0206 -2.8501
  753SOL     OW12072   4.169   2.851   1.540 -0.4304 -0.0979  0.4318
  753SOL    HW112073   4.106   2.826   1.466  0.5389  0.5006 -0.6138
  753SOL    HW212074   4.261   2.817   1.518 -0.5958 -2.0497  2.5287
  754SOL     OW12075   3.376   8.826   1.583  0.1506 -0.1547  0.6270
  754SOL    HW112076   3.418   8.735   1.586  1.7113  0.5267  0.1368
  754SOL    HW212077   3.313   8.831   1.505 -0.6276 -1.0829  1.1795
  755SOL     OW12078   5.097   3.113   0.777  0.5132 -0.0070  0.0758
  755SOL    HW112079   5.039   3.156   0.847 -0.4920 -0.9095 -0.1917
  755SOL    HW212080   5.114   3.178   0.703 -0.3611  0.1935  0.0444
  756SOL     OW12081   4.017   2.076   0.547 -0.2879 -0.4680  0.0336
  756SOL    HW112082   3.935   2.019   0.548 -0.1188 -0.7099  0.2857
  756SOL    HW212083   3.997   2.164   0.589 -0.0725 -1.0113  1.2837
  757SOL     OW12084   2.140   1.814   1.066  0.0762 -0.8651  0.4806
  757SOL    HW112085   2.172   1.907   1.085 -0.1701 -0.0750 -2.6795
  757SOL    HW212086   2.052   1.799   1.112 -0.0122  0.5700  0.8176
  758SOL     OW12087   3.393   4.585   0.072 -0.1728  0.6152  0.1228
  758SOL    HW112088   3.395   4.543   0.162 -0.2071  1.7933  0.6896
  758SOL    HW212089   3.401   4.515   0.001  0.4127 -0.2586  1.0546
  759SOL     OW12090   3.053   4.151   1.760  0.6027 -0.2923 -0.5216
  759SOL    HW112091   2.969   4.205   1.753  1.4288  0.8270 -2.0856
  759SOL    HW212092   3.057   4.084   1.686  0.5347 -1.1394  0.2358
  760SOL     OW12093   2.173   8.322   0.948 -0.1461 -0.0066  0.3210
  760SOL    HW112094   2.229   8.401   0.971  0.7697  0.5872 -3.6150
  760SOL    HW212095   2.227   8.257   0.895 -1.8007 -1.7658  0.7249
  761SOL     OW12096   3.490   1.265   0.327  0.4759 -0.2037  0.5330
  761SOL    HW112097   3.393   1.266   0.300  0.6934 -3.1774 -0.5750
  761SOL    HW212098   3.543   1.320   0.263 -0.1153 -0.8314 -0.5176
  762SOL     OW12099   2.722   3.130   1.316  0.1171  0.0239 -0.1897
  762SOL    HW112100   2.696   3.052   1.259 -0.5988 -0.6060  0.9681
  762SOL    HW212101   2.772   3.197   1.261  1.0826 -1.4272 -1.1066
  763SOL     OW12102   3.416   3.723   2.645  0.4842 -0.3126 -0.3347
  763SOL    HW112103   3.445   3.630   2.668  0.5087 -0.2122  0.0548
  763SOL    HW212104   3.361   3.721   2.562 -1.2205 -0.9549  0.7653
  764SOL     OW12105   3.314   4.376   1.682 -0.0531 -0.3300  0.4647
  764SOL    HW112106   3.256   4.338   1.609  0.4424 -0.7479  0.2860
  764SOL    HW212107   3.397   4.414   1.642 -0.1472  0.1582  0.7347
  765SOL     OW12108   2.520   5.970   0.478 -0.1434 -0.2449  0.8916
  765SOL    HW112109   2.493   6.056   0.435  1.1156 -0.9416 -1.3753
  765SOL    HW212110   2.568   5.990   0.564  1.5653  1.4049 -0.3976
  766SOL     OW12111   2.832   1.724   2.230 -0.5081  0.4498 -0.1875
  766SOL    HW112112   2.763   1.701   2.299 -0.5697  0.9379 -0.0846
  766SOL    HW212113   2.923   1.711   2.269 -0.5358 -0.4679 -0.4127
  767SOL     OW12114   4.396   0.911   1.848  0.4397 -0.3148 -0.5917
  767SOL    HW112115   4.484   0.912   1.799  1.1775 -2.2403  0.6283
  767SOL    HW212116   4.381   1.000   1.890  2.6094 -0.4080  0.4971
  768SOL     OW12117   2.929   8.553   0.024  0.1177  0.4216  0.4991
  768SOL    HW112118   2.890   8.593   0.107 -0.9175  0.6033 -0.0661
  768SOL    HW212119   3.000   8.613  -0.012  1.7050 -0.4247  2.1309
  769SOL     OW12120   2.753   4.523   1.938  0.0267  0.2509 -0.4149
  769SOL    HW112121   2.807   4.583   1.878  1.8715 -0.5216  0.4157
  769SOL    HW212122   2.759   4.556   2.032 -1.0318  0.1973 -0.3237
  770SOL     OW12123   2.257   4.202   1.740 -0.2374  0.1179  0.2373
  770SOL    HW112124   2.327   4.137   1.769 -0.8692 -0.2321  0.9980
  770SOL    HW212125   2.176   4.192   1.798 -1.3713 -0.3090 -1.3979
  771SOL     OW12126   2.540   4.907   2.529  0.4477  0.0963  0.9871
  771SOL    HW112127   2.441   4.925   2.526  0.6707  1.3067  0.4265
  771SOL    HW212128   2.555   4.809   2.541 -0.8259 -0.0554  1.4740
  772SOL     OW12129   5.041   3.726   2.571 -0.0366 -0.4098 -0.2368
  772SOL    HW112130   5.064   3.821   2.553 -1.8139 -0.0407 -0.6266
  772SOL    HW212131   5.060   3.671   2.490  0.0018 -0.2018 -0.3689
  773SOL     OW12132   3.845   3.459   1.527 -0.0810  0.7827  0.2413
  773SOL    HW112133   3.874   3.521   1.454  1.0099 -1.4342 -1.2436
  773SOL    HW212134   3.751   3.481   1.553  0.3404  3.1687 -0.1177
  774SOL     OW12135   3.810   5.215   2.320 -0.5841 -0.6569  0.2255
  774SOL    HW112136   3.753   5.216   2.403 -0.3681  0.9023  0.3796
  774SOL    HW212137   3.773   5.281   2.255  1.4284  0.8804  0.5968
  775SOL     OW12138   3.308   9.438   2.689 -0.3488 -0.2728  0.2902
  775SOL    HW112139   3.209   9.449   2.689 -0.2796  0.3512 -0.2979
  775SOL    HW212140   3.350   9.510   2.635  0.4845 -0.0891  1.1699
  776SOL     OW12141   2.365   1.093   2.217 -0.2495 -0.3128 -0.1707
  776SOL    HW112142   2.363   1.036   2.299 -0.7205 -1.4695 -0.9825
  776SOL    HW212143   2.272   1.112   2.187 -0.1037  1.0354  0.1852
  777SOL     OW12144   3.060   5.299   0.895 -0.2006  0.1611  0.0523
  777SOL    HW112145   3.130   5.300   0.823  1.1604  0.5963  1.3521
  777SOL    HW212146   3.034   5.393   0.917  1.3241  0.1682  1.9497
  778SOL     OW12147   3.134   4.290   0.245  0.2317 -0.2384 -0.1042
  778SOL    HW112148   3.180   4.316   0.330  0.5953 -0.0872 -0.3477
  778SOL    HW212149   3.132   4.367   0.182  1.6471 -0.8936 -0.9710
  779SOL     OW12150   3.723   1.903   2.067  0.4339  0.3362 -0.7044
  779SOL    HW112151   3.771   1.863   2.146  0.6402 -0.8704 -1.4169
  779SOL    HW212152   3.791   1.929   1.997  0.2426  1.2480 -0.5480
  780SOL     OW12153   4.293   3.421   0.696  0.5111  0.4290  0.3435
  780SOL    HW112154   4.385   3.380   0.693  0.8936  1.2111  1.4306
  780SOL    HW212155   4.265   3.445   0.603  0.9703 -0.7813 -0.1209
  781SOL     OW12156   3.031   2.148   0.213 -0.0393 -0.0161 -0.3279
  781SOL    HW112157   3.054   2.202   0.132  0.4219  0.3652  0.0538
  781SOL    HW212158   3.035   2.051   0.190  4.6454 -0.0996  0.3719
  782SOL     OW12159   2.507   0.813   2.672  0.0150 -0.1533 -0.5666
  782SOL    HW112160   2.492   0.753   2.751  0.8785  0.9950  0.4895
  782SOL    HW212161   2.600   0.850   2.675 -1.4032  3.6161  0.4890
  783SOL     OW12162   4.582   3.674   2.479  0.3099 -0.2613  0.0899
  783SOL    HW112163   4.545   3.606   2.415  0.3062  0.8475 -1.1192
  783SOL    HW212164   4.607   3.629   2.565  0.6538 -1.8530 -0.8173
  784SOL     OW12165   2.299   2.428   1.773 -0.2368 -0.0477  0.0763
  784SOL    HW112166   2.391   2.399   1.747 -0.4500 -1.6938  1.1231
  784SOL    HW212167   2.305   2.511   1.829  0.5077  0.7240 -1.1257
  785SOL     OW12168   4.219   3.792   1.305  0.0625 -0.2155 -0.1530
  785SOL    HW112169   4.203   3.813   1.209 -0.1270  1.0378  0.1458
  785SOL    HW212170   4.267   3.868   1.349 -1.6295  0.1189  1.2129
  786SOL     OW12171   3.667   1.658   0.417  0.4130  0.1533 -0.7125
  786SOL    HW112172   3.570   1.645   0.439  0.1922  0.5781 -1.4064
  786SOL    HW212173   3.675   1.721   0.340  1.0928 -2.0222 -2.4885
  787SOL     OW12174   2.481   7.476   1.098 -0.5818 -0.3192  0.0044
  787SOL    HW112175   2.434   7.449   1.182  0.2429 -0.2243  0.5082
  787SOL    HW212176   2.470   7.574   1.083 -0.0858 -0.2015  0.4141
  788SOL     OW12177   3.268   4.735   2.529  0.5065  0.4375  0.2881
  788SOL    HW112178   3.237   4.674   2.456 -0.0259  0.0067  0.8782
  788SOL    HW212179   3.366   4.724   2.542  0.3052 -0.7339  0.8140
  789SOL     OW12180   3.627   1.223   2.691  0.2674  0.1607 -0.1054
  789SOL    HW112181   3.668   1.193   2.605  0.1931  3.1278 -1.2317
  789SOL    HW212182   3.666   1.312   2.718 -2.1151  0.8796  1.1631
  790SOL     OW12183   2.905   4.419   0.926 -0.0738 -0.8890 -0.0927
  790SOL    HW112184   2.874   4.484   0.857  0.9404 -0.5584 -0.2465
  790SOL    HW212185   2.857   4.436   1.012  0.5028  0.3528 -0.0051
  791SOL     OW12186   3.752   1.812   1.693 -0.0732 -0.3278 -0.2007
  791SOL    HW112187   3.759   1.731   1.634  0.8374 -0.0617 -0.4728
  791SOL    HW212188   3.661   1.815   1.734  0.1138 -1.8658  0.3687
  792SOL     OW12189   2.996   8.428   0.969 -0.4959 -0.2505 -0.2056
  792SOL    HW112190   2.982   8.342   1.018 -3.0426  0.7827  0.9783
  792SOL    HW212191   2.916   8.448   0.912  0.2970  1.0607 -0.8957
  793SOL     OW12192   2.227   4.895   1.771 -0.1744  0.0306  0.4056
  793SOL    HW112193   2.178   4.821   1.725 -0.5479  0.3204  0.3397
  793SOL    HW212194   2.321   4.866   1.790 -0.2352 -0.3531  0.1148
  794SOL     OW12195   3.529   1.813   1.858 -0.2997 -0.3808  0.1441
  794SOL    HW112196   3.439   1.801   1.900 -0.3434 -0.5190  0.0115
  794SOL    HW212197   3.587   1.868   1.918 -0.2569 -0.8470  0.5351
  795SOL     OW12198   3.584   0.097   2.321 -0.3075 -0.3584  0.3663
  795SOL    HW112199   3.536   0.073   2.236 -0.1411 -1.7146  0.6489
  795SOL    HW212200   3.679   0.066   2.315 -0.0814  0.2491  0.7412
  796SOL     OW12201   2.970   2.445   1.076 -0.9480  0.2859 -0.0050
  796SOL    HW112202   2.984   2.347   1.090  0.0016  0.3880 -0.2230
  796SOL    HW212203   3.056   2.494   1.093 -1.2462  1.0101 -0.5577
  797SOL     OW12204   3.284   9.468   1.405  0.0246 -0.3884  0.2139
  797SOL    HW112205   3.279   9.567   1.419 -0.9115 -0.4193  0.1359
  797SOL    HW212206   3.277   9.448   1.308 -0.1297 -0.5568  0.2616
  798SOL     OW12207   3.286   1.751   0.274  0.5905 -0.2768  0.0513
  798SOL    HW112208   3.349   1.731   0.349 -0.6560  1.6720  1.6677
  798SOL    HW212209   3.296   1.847   0.248  0.4571 -0.7465 -1.7706
  799SOL     OW12210   2.650   2.887   2.451  1.1050  0.1762 -0.5299
  799SOL    HW112211   2.587   2.963   2.464 -0.3776 -0.9896 -0.7428
  799SOL    HW212212   2.702   2.873   2.536 -1.5719 -1.1761  0.9611
  800SOL     OW12213   3.291   9.590   1.776 -0.3404 -0.7258 -0.2026
  800SOL    HW112214   3.375   9.541   1.752  1.1820  0.7413  1.9072
  800SOL    HW212215   3.247   9.624   1.693  0.3697 -2.7419 -1.4356
  801SOL     OW12216   3.604   2.281   2.011 -0.2540  0.1082  0.6516
  801SOL    HW112217   3.548   2.239   2.083  0.8233  1.3942  2.2842
  801SOL    HW212218   3.639   2.369   2.044 -0.3822  1.0799 -1.7543
  802SOL     OW12219   2.422   3.341   2.435 -0.3823 -0.1448  0.3702
  802SOL    HW112220   2.336   3.306   2.472 -1.8072  2.1747 -0.5880
  802SOL    HW212221   2.419   3.338   2.335  0.6450 -0.0072  0.3261
  803SOL     OW12222   3.052   5.841   0.080 -0.0477 -0.3194 -0.1986
  803SOL    HW112223   3.137   5.878   0.041 -0.5439 -0.7169 -1.7032
  803SOL    HW212224   3.031   5.753   0.038 -1.1272 -0.2949  0.2595
  804SOL     OW12225   2.768   7.427   2.504  0.0808  0.1414  0.0255
  804SOL    HW112226   2.675   7.424   2.466  0.5507  2.4440 -1.4041
  804SOL    HW212227   2.818   7.345   2.476 -1.4931 -1.0941  0.7730
  805SOL     OW12228   4.760   3.469   1.633  0.1874 -0.3883 -0.0101
  805SOL    HW112229   4.800   3.506   1.549 -0.1591 -0.9320 -0.4246
  805SOL    HW212230   4.810   3.387   1.660 -0.4477 -0.9029 -0.3683
  806SOL     OW12231   2.633   7.971   2.255 -0.1938  0.1855  0.0239
  806SOL    HW112232   2.666   7.939   2.166 -0.7411  0.2314 -0.1934
  806SOL    HW212233   2.550   8.025   2.243 -0.8880 -0.7257  0.6598
  807SOL     OW12234   2.541   9.638   1.263  0.0658 -0.7470  0.2340
  807SOL    HW112235   2.515   9.612   1.356  0.1475 -0.9836  0.1898
  807SOL    HW212236   2.641   9.634   1.254  0.0365 -1.0180  0.0450
  808SOL     OW12237   5.124   2.442   0.663 -0.0501  0.2485  0.1471
  808SOL    HW112238   5.042   2.394   0.693 -0.1595  0.3482  0.0045
  808SOL    HW212239   5.204   2.405   0.712 -0.2073  0.2999  0.4424
  809SOL     OW12240   3.363   8.589   0.292  0.3121  0.0184 -0.0697
  809SOL    HW112241   3.316   8.581   0.380 -0.7945 -1.3088 -0.7759
  809SOL    HW212242   3.337   8.676   0.249  0.6177  0.5338  0.7533
  810SOL     OW12243   3.396   9.686   0.832 -0.4886 -0.5197  0.0188
  810SOL    HW112244   3.316   9.677   0.892 -0.9371 -1.4154 -0.7044
  810SOL    HW212245   3.382   9.632   0.749  0.6085 -0.1797 -0.3989
  811SOL     OW12246   2.547   6.262   1.313 -0.1006  0.0984 -0.3092
  811SOL    HW112247   2.626   6.247   1.373 -0.5669 -2.0236 -0.1579
  811SOL    HW212248   2.480   6.319   1.361 -0.1345 -0.9364  0.9195
  812SOL     OW12249   2.487   8.351   2.477 -0.6249 -0.8848 -0.1624
  812SOL    HW112250   2.426   8.426   2.503  0.6928  0.2410 -0.2879
  812SOL    HW212251   2.564   8.347   2.540  0.3842 -0.8161 -1.3718
  813SOL     OW12252   4.574   2.368   0.021 -0.1832  0.0528 -0.6413
  813SOL    HW112253   4.605   2.402  -0.068  1.3690 -0.3223 -0.2582
  813SOL    HW212254   4.653   2.360   0.083 -1.5261  2.3307  1.4558
  814SOL     OW12255   3.650   3.486   1.100  0.0890  0.2574 -0.1626
  814SOL    HW112256   3.617   3.444   1.185  1.9578 -0.9406 -0.0041
  814SOL    HW212257   3.687   3.577   1.120 -0.4589  0.4211  0.1255
  815SOL     OW12258   3.102   3.424   1.964  0.5099 -0.1991  0.3348
  815SOL    HW112259   3.076   3.505   2.017  0.9439  0.1265  0.0631
  815SOL    HW212260   3.199   3.404   1.981 -0.0095 -1.6270  1.6447
  816SOL     OW12261   2.274   4.094   1.451 -0.1635  0.7910  0.1165
  816SOL    HW112262   2.236   4.095   1.543  0.2374  0.6242  0.2857
  816SOL    HW212263   2.322   4.180   1.434  0.1341  0.6443  0.2196
  817SOL     OW12264   4.692   3.221   0.416 -0.2509  0.0603  0.0010
  817SOL    HW112265   4.631   3.289   0.376 -0.3876 -0.8421 -1.3425
  817SOL    HW212266   4.770   3.205   0.355  0.8873  0.5655  1.2997
  818SOL     OW12267   4.735   3.530   1.178 -0.3691 -0.0136 -0.1370
  818SOL    HW112268   4.756   3.537   1.275  0.1463  0.7811 -0.3060
  818SOL    HW212269   4.672   3.453   1.163 -1.2218  0.4684  0.9349
  819SOL     OW12270   2.765   6.505   0.220  0.0526 -0.1825  0.1763
  819SOL    HW112271   2.754   6.405   0.221 -0.9474 -0.0752  0.4041
  819SOL    HW212272   2.858   6.528   0.250  0.0715 -1.0201  0.7951
  820SOL     OW12273   4.509   4.390   0.162 -0.1873 -0.4758 -0.1595
  820SOL    HW112274   4.593   4.339   0.141 -0.0837  0.6282 -2.5905
  820SOL    HW212275   4.512   4.420   0.257  2.5428  0.1989 -0.4008
  821SOL     OW12276   2.949   8.123   0.278  0.8993  0.3777  0.1148
  821SOL    HW112277   2.996   8.184   0.214  0.0448  1.4359  0.4837
  821SOL    HW212278   3.015   8.059   0.317  1.3563 -0.6369 -2.2060
  822SOL     OW12279   5.706   3.073   0.524  0.2634  0.1480  0.2944
  822SOL    HW112280   5.777   3.137   0.494  0.4630 -0.3220 -0.2334
  822SOL    HW212281   5.718   3.053   0.621 -1.5353  3.2062  1.2183
  823SOL     OW12282   3.370   9.879   2.374  0.0277  0.1514 -0.2820
  823SOL    HW112283   3.303   9.818   2.331 -0.5324 -0.0605  0.8840
  823SOL    HW212284   3.417   9.931   2.303 -0.3595 -0.7394 -1.2092
  824SOL     OW12285   3.603   5.489   1.074  0.4595 -0.1530  0.0789
  824SOL    HW112286   3.661   5.536   1.139  0.7129  0.8939 -0.8859
  824SOL    HW212287   3.660   5.431   1.015  0.2907 -0.7021  0.4545
  825SOL     OW12288   2.144   8.007   1.330  0.3303 -0.0962  0.2444
  825SOL    HW112289   2.073   8.067   1.367  0.6917 -0.4323  1.4946
  825SOL    HW212290   2.148   8.018   1.231 -0.4541  1.0248  0.3255
  826SOL     OW12291   4.045   0.351   2.552  0.1361 -0.4900 -0.4277
  826SOL    HW112292   4.052   0.436   2.603  2.6677 -0.5016 -0.7339
  826SOL    HW212293   4.072   0.274   2.611 -0.5107 -0.9094 -0.6660
  827SOL     OW12294   2.351   9.519   1.098  0.0481  0.0383  0.2294
  827SOL    HW112295   2.272   9.575   1.070 -1.9467 -1.9661  1.6469
  827SOL    HW212296   2.417   9.577   1.147 -1.0692  1.5476 -0.0040
  828SOL     OW12297   3.813   2.999   1.449 -0.1775  0.2552 -0.3310
  828SOL    HW112298   3.747   3.023   1.520 -0.3662  0.6005 -0.6199
  828SOL    HW212299   3.777   3.026   1.359 -0.3770 -1.1030 -0.6646
  829SOL     OW12300   2.795   7.888   0.244  0.3114 -0.2595  0.8008
  829SOL    HW112301   2.838   7.798   0.234  0.2616 -0.1745 -0.2285
  829SOL    HW212302   2.866   7.958   0.248  0.3323 -0.2907  0.9498
  830SOL     OW12303   3.043   0.721   0.044 -0.3378  0.2768  0.0940
  830SOL    HW112304   3.127   0.703  -0.006 -1.0167  0.8399 -1.2558
  830SOL    HW212305   2.982   0.642   0.038  0.2845 -0.3429  1.5164
  831SOL     OW12306   2.360   1.784   2.433 -0.3409 -0.3513 -0.3427
  831SOL    HW112307   2.361   1.744   2.341 -0.3242 -0.8606 -0.1216
  831SOL    HW212308   2.334   1.880   2.427 -1.5555 -0.6937 -0.7528
  832SOL     OW12309   4.041   9.594   0.655  0.6027  0.2867 -0.1382
  832SOL    HW112310   4.127   9.589   0.605 -0.1785  0.0577 -1.4769
  832SOL    HW212311   4.033   9.683   0.700  1.6759  0.1875  0.2699
  833SOL     OW12312   3.583   3.343   0.554 -0.2431  0.3575  0.1255
  833SOL    HW112313   3.522   3.410   0.598  0.8779 -0.2859  2.7848
  833SOL    HW212314   3.626   3.287   0.625  1.0166 -1.2912 -1.9096
  834SOL     OW12315   2.345   4.837   0.351 -0.5349  0.2474 -0.3464
  834SOL    HW112316   2.311   4.930   0.364 -1.2456  0.0086 -0.4728
  834SOL    HW212317   2.437   4.830   0.389 -0.7547  0.8122  0.3126
  835SOL     OW12318   2.704   6.516   2.649 -0.4183  0.1215 -0.9423
  835SOL    HW112319   2.713   6.527   2.748  0.1163  0.6729 -1.0494
  835SOL    HW212320   2.641   6.441   2.630  1.5984 -1.8191 -0.1814
  836SOL     OW12321   3.827   2.233   1.865  0.0169  0.0946 -0.8394
  836SOL    HW112322   3.751   2.253   1.926  0.3225 -1.0454 -0.0760
  836SOL    HW212323   3.877   2.154   1.899  2.3825  1.6669 -0.5834
  837SOL     OW12324   3.554   0.242   2.697  0.6629 -1.1014  0.5992
  837SOL    HW112325   3.569   0.144   2.688  0.8636 -1.3207  2.9841
  837SOL    HW212326   3.639   0.292   2.679  0.6992 -1.3786 -0.0232
  838SOL     OW12327   2.644   7.160   0.898 -0.2098 -0.5366 -0.4967
  838SOL    HW112328   2.706   7.138   0.823  0.3198 -0.0008 -0.2187
  838SOL    HW212329   2.679   7.239   0.948 -0.4477 -1.0253  0.4493
  839SOL     OW12330   4.617   3.199   1.895 -0.1713  0.2862  0.1293
  839SOL    HW112331   4.696   3.216   1.837 -1.1329  1.8955 -0.7513
  839SOL    HW212332   4.609   3.101   1.913  3.0090  0.2837  1.7062
  840SOL     OW12333   2.812   0.221   0.686 -0.4827  0.1402  0.7243
  840SOL    HW112334   2.846   0.315   0.686  1.8354 -0.6783  1.6124
  840SOL    HW212335   2.822   0.182   0.594 -3.7657  1.5173 -0.3093
  841SOL     OW12336   2.826   5.200   0.981 -0.2106  0.4638 -0.1123
  841SOL    HW112337   2.903   5.242   0.933 -0.1736  0.4710 -0.0476
  841SOL    HW212338   2.843   5.101   0.991 -0.4017  0.3971 -0.4636
  842SOL     OW12339   2.253   4.422   1.616  0.2477  0.1665 -0.0606
  842SOL    HW112340   2.229   4.329   1.645 -0.9995 -0.0488 -1.7070
  842SOL    HW212341   2.349   4.440   1.638  1.0599 -2.2290 -1.4720
  843SOL     OW12342   4.259   5.260   0.620 -0.8418 -0.1781 -0.1349
  843SOL    HW112343   4.236   5.329   0.688  1.4291  0.5974 -0.1040
  843SOL    HW212344   4.257   5.302   0.529 -1.1364 -0.5077 -0.2804
  844SOL     OW12345   2.464   2.686   2.533 -0.2225  0.0100 -0.2116
  844SOL    HW112346   2.375   2.689   2.487 -0.3772  0.0215  0.0870
  844SOL    HW212347   2.513   2.771   2.516 -1.2687  1.0149  1.6218
  845SOL     OW12348   3.246   4.529   2.298  0.0300 -0.1177  0.0130
  845SOL    HW112349   3.344   4.526   2.280  0.2560  0.2018  1.1502
  845SOL    HW212350   3.196   4.494   2.219  1.2138 -3.5119  0.6771
  846SOL     OW12351   2.140   4.121   0.483 -0.0573  0.5048 -0.6345
  846SOL    HW112352   2.046   4.151   0.463 -0.4239 -0.8177 -0.9203
  846SOL    HW212353   2.181   4.184   0.548 -0.6530  1.9120 -1.5893
  847SOL     OW12354   2.398   5.404   0.595  0.3202  0.1163  0.4067
  847SOL    HW112355   2.319   5.362   0.639 -0.1960  1.4731  0.8118
  847SOL    HW212356   2.378   5.500   0.576  1.1272 -0.0383 -1.3374
  848SOL     OW12357   2.836   6.215   0.476 -0.4618 -0.5283  0.0216
  848SOL    HW112358   2.800   6.215   0.383  1.0541 -0.9063 -0.5830
  848SOL    HW212359   2.919   6.160   0.479  0.1531  0.4533  1.3507
  849SOL     OW12360   3.325   3.431   2.463 -0.4429  0.1450  0.3967
  849SOL    HW112361   3.342   3.346   2.415  0.7795  1.0830 -0.8873
  849SOL    HW212362   3.394   3.444   2.534  0.7207  1.1197 -0.8916
  850SOL     OW12363   3.096   0.320   0.465  0.5056  0.0628 -0.1824
  850SOL    HW112364   3.141   0.319   0.375 -2.3449 -1.7041 -1.6629
  850SOL    HW212365   3.115   0.233   0.512 -0.9392 -0.5003 -0.6205
  851SOL     OW12366   2.902   7.639   0.300 -0.0043 -0.2534 -0.0704
  851SOL    HW112367   2.893   7.581   0.382 -0.6559  0.2245  0.2038
  851SOL    HW212368   2.884   7.584   0.219 -1.8554 -0.1797  0.2573
  852SOL     OW12369   4.347   1.996   0.700  0.6740 -0.5465  0.0265
  852SOL    HW112370   4.269   1.939   0.724 -0.5752  1.4771  0.9003
  852SOL    HW212371   4.378   1.974   0.608 -1.4379 -0.8195 -0.6357
  853SOL     OW12372   3.834   5.105   2.067 -0.5674  0.4436  0.6359
  853SOL    HW112373   3.858   5.129   2.161 -2.0267 -0.4039  1.2412
  853SOL    HW212374   3.876   5.017   2.044  1.0874  1.3938 -0.0589
  854SOL     OW12375   2.675   3.656   2.231 -0.1534  0.2534  0.5671
  854SOL    HW112376   2.652   3.698   2.319 -0.0251 -0.0486  0.7476
  854SOL    HW212377   2.678   3.557   2.242  2.3475  0.3366  0.8154
  855SOL     OW12378   2.794   1.968   0.605  0.0324 -0.5563 -0.1064
  855SOL    HW112379   2.870   2.007   0.553  0.1490 -0.6751 -0.0250
  855SOL    HW212380   2.730   2.041   0.630  1.3998 -0.0208  1.9855
  856SOL     OW12381   2.369   0.918   2.444 -0.0667 -0.4261  0.3204
  856SOL    HW112382   2.314   0.848   2.399  0.2138 -0.1808 -0.4208
  856SOL    HW212383   2.420   0.878   2.519 -1.9627 -0.4813  1.6219
  857SOL     OW12384   2.701   3.353   2.239 -0.5253  0.5876  0.3675
  857SOL    HW112385   2.790   3.313   2.260  0.2173  1.7420 -0.5120
  857SOL    HW212386   2.631   3.282   2.239  0.5242 -0.4520  0.2776
  858SOL     OW12387   4.427   2.722   1.527 -0.1674 -0.0569 -0.7777
  858SOL    HW112388   4.453   2.717   1.431 -0.7098 -1.2028 -0.8774
  858SOL    HW212389   4.493   2.672   1.583 -1.4396 -1.9333 -0.9010
  859SOL     OW12390   3.513   2.277   0.984  0.1534  0.2206  0.1695
  859SOL    HW112391   3.498   2.359   1.041 -0.9056 -1.0042  1.7187
  859SOL    HW212392   3.425   2.233   0.967  0.7293 -0.6429 -0.5810
  860SOL     OW12393   2.487   6.437   0.094 -0.2132 -0.2915  0.0168
  860SOL    HW112394   2.455   6.428   0.188 -1.0372 -0.7064 -0.2918
  860SOL    HW212395   2.422   6.391   0.032  0.7259 -0.7165 -0.6736
  861SOL     OW12396   2.662   3.894   1.197  0.0272 -0.3441  0.2166
  861SOL    HW112397   2.597   3.922   1.267 -0.3456 -0.7906  0.0484
  861SOL    HW212398   2.622   3.907   1.107  0.0174 -0.9932  0.1237
  862SOL     OW12399   3.240   8.463   2.074  0.4209  0.0070  0.4590
  862SOL    HW112400   3.323   8.451   2.128  2.1345  1.1057 -1.8077
  862SOL    HW212401   3.212   8.375   2.035  0.1482 -0.4833  1.7704
  863SOL     OW12402   2.727   9.233   1.999 -0.0672 -0.2117 -0.0421
  863SOL    HW112403   2.684   9.313   1.957 -1.5313 -0.2828  1.2609
  863SOL    HW212404   2.764   9.259   2.088  0.9536 -0.5978 -0.3530
  864SOL     OW12405   3.372   5.354   0.194 -0.0500  0.2778  0.0642
  864SOL    HW112406   3.295   5.386   0.249 -1.9394  0.0728 -2.3611
  864SOL    HW212407   3.361   5.388   0.100  2.2705 -0.6562 -0.5632
  865SOL     OW12408   3.131   4.284   1.480 -0.6208  0.4614  0.6442
  865SOL    HW112409   3.136   4.353   1.408 -0.6254  0.0967  0.2921
  865SOL    HW212410   3.081   4.204   1.447  0.0620 -0.0344  0.7769
  866SOL     OW12411   3.490   4.783   1.192  0.5247  0.4335  0.4693
  866SOL    HW112412   3.450   4.732   1.268  0.4038  0.4115  0.3915
  866SOL    HW212413   3.550   4.723   1.139  0.7150  0.4830  0.6244
  867SOL     OW12414   3.330   3.967   1.369 -0.2188 -0.0853  0.3355
  867SOL    HW112415   3.383   3.888   1.339  0.3557  0.9031 -1.2676
  867SOL    HW212416   3.246   3.936   1.415 -0.4393 -1.6185 -1.0857
  868SOL     OW12417   2.303   3.966   1.156  0.4153  0.4341 -0.4004
  868SOL    HW112418   2.364   3.944   1.233 -0.1353 -0.4644 -0.2142
  868SOL    HW212419   2.358   3.979   1.074  1.0759  2.1609  0.2977
  869SOL     OW12420   3.210   4.212   2.200 -0.1523 -0.1158 -0.4901
  869SOL    HW112421   3.242   4.199   2.106 -0.1190 -2.1733 -0.2300
  869SOL    HW212422   3.111   4.201   2.204 -0.1101 -0.4205 -0.2321
  870SOL     OW12423   2.571   2.600   0.254  0.2212  0.2704  0.5196
  870SOL    HW112424   2.572   2.560   0.163  1.2564  0.4249  0.4478
  870SOL    HW212425   2.510   2.548   0.313 -0.1950 -0.0341 -0.1720
  871SOL     OW12426   3.222   2.111   0.708  0.2565  0.0314 -1.1912
  871SOL    HW112427   3.278   2.177   0.657 -0.0733  0.4783 -0.9767
  871SOL    HW212428   3.126   2.134   0.698  0.1683 -0.0963 -0.6717
  872SOL     OW12429   4.108   1.460   2.096 -0.3097  0.1469 -0.9237
  872SOL    HW112430   4.105   1.499   2.188 -0.6380 -0.7578 -0.5492
  872SOL    HW212431   4.062   1.521   2.032 -1.2842  0.1186 -0.2453
  873SOL     OW12432   3.170   1.887   0.560  0.2247  0.1742 -0.6800
  873SOL    HW112433   3.154   1.901   0.462 -0.0755 -0.3753 -0.7137
  873SOL    HW212434   3.177   1.975   0.606  1.3979  0.4437 -1.3652
  874SOL     OW12435   3.590   4.728   2.058  0.5327  0.6548 -0.1910
  874SOL    HW112436   3.525   4.658   2.030  2.3590 -1.2660  0.2012
  874SOL    HW212437   3.554   4.778   2.137 -0.2764 -0.7333  0.3391
  875SOL     OW12438   3.766   3.773   0.818  0.4542  0.0944 -0.2377
  875SOL    HW112439   3.672   3.757   0.847  0.1852  0.4538 -0.9082
  875SOL    HW212440   3.823   3.695   0.845 -0.0369 -0.1247  0.1603
  876SOL     OW12441   3.819   9.861   0.522 -0.1522 -0.6503 -0.4494
  876SOL    HW112442   3.881   9.808   0.580  0.1327  0.7730  0.5885
  876SOL    HW212443   3.727   9.821   0.526  0.1429 -1.2975 -0.0176
  877SOL     OW12444   2.241   7.990   2.504  0.4993  0.2965  0.1714
  877SOL    HW112445   2.314   7.980   2.572  0.6966  0.8811  0.0518
  877SOL    HW212446   2.152   7.981   2.548  0.6430 -2.0192  0.0644
  878SOL     OW12447   2.592   5.621   2.194 -0.9921  0.3703 -0.0747
  878SOL    HW112448   2.673   5.631   2.253 -0.4620 -2.4684 -0.2454
  878SOL    HW212449   2.527   5.559   2.238 -2.0584  0.7999 -1.0203
  879SOL     OW12450   3.333   5.018   0.779  0.8599 -0.3064  0.0238
  879SOL    HW112451   3.252   4.988   0.830 -1.3703  0.9336 -2.5839
  879SOL    HW212452   3.320   5.113   0.749  2.2908 -0.7820 -2.2562
  880SOL     OW12453   3.300   5.722   1.744  0.1527  0.0360 -0.2212
  880SOL    HW112454   3.265   5.634   1.776 -1.3684  0.2979 -1.0758
  880SOL    HW212455   3.315   5.783   1.822  2.2553 -1.3288  0.4676
  881SOL     OW12456   2.310   7.493   0.795  0.0174  0.0138  0.4424
  881SOL    HW112457   2.370   7.454   0.864 -0.3533  0.1947  0.8746
  881SOL    HW212458   2.248   7.559   0.839  0.8609  1.3434 -0.3173
  882SOL     OW12459   3.142   1.665   0.036 -0.1844  0.7820  0.3483
  882SOL    HW112460   3.128   1.566   0.030 -0.5965  0.8540  0.0937
  882SOL    HW212461   3.187   1.687   0.122 -1.4865  0.5257  1.1102
  883SOL     OW12462   3.258   8.256   0.299 -0.2551  0.3803 -0.8427
  883SOL    HW112463   3.306   8.315   0.364 -1.0561  0.8643 -0.6820
  883SOL    HW212464   3.227   8.311   0.222  1.8862 -0.4308 -2.3252
  884SOL     OW12465   4.200   8.809   0.773 -0.3627 -0.0898  0.8022
  884SOL    HW112466   4.209   8.834   0.870 -1.5992  0.4108  0.7960
  884SOL    HW212467   4.135   8.870   0.729  0.7868  0.1739 -0.5421
  885SOL     OW12468   2.482   2.825   1.415  0.3598 -0.1523  0.1980
  885SOL    HW112469   2.428   2.782   1.486 -0.5149 -0.6688 -0.7633
  885SOL    HW212470   2.501   2.920   1.440 -1.0095  0.0431  0.5512
  886SOL     OW12471   3.881   1.325   2.605  0.1859 -0.5715 -0.4533
  886SOL    HW112472   3.863   1.423   2.596 -1.8604 -0.8678  0.0371
  886SOL    HW212473   3.871   1.281   2.516 -1.0313 -0.6354 -0.2994
  887SOL     OW12474   2.414   1.413   0.425  0.2355 -0.2097  0.3127
  887SOL    HW112475   2.448   1.483   0.488  0.2016 -1.4272  1.7039
  887SOL    HW212476   2.480   1.338   0.419 -0.5160 -0.8756  0.1893
  888SOL     OW12477   3.270   2.886   1.929 -0.3305  0.3282 -0.6343
  888SOL    HW112478   3.247   2.957   1.996 -2.0419 -0.4874 -0.3047
  888SOL    HW212479   3.345   2.831   1.963 -0.3764  0.6905  0.0669
  889SOL     OW12480   3.155   6.144   1.617 -1.0138  0.1222  0.2665
  889SOL    HW112481   3.156   6.227   1.561  0.0903  1.2314  1.9020
  889SOL    HW212482   3.096   6.076   1.574 -1.5394  1.5698 -1.3547
  890SOL     OW12483   2.595   0.747   1.425  0.0817  0.3503  0.4209
  890SOL    HW112484   2.578   0.714   1.518 -2.2708 -1.5079 -0.6092
  890SOL    HW212485   2.594   0.669   1.362  1.2163  1.6440 -1.2141
  891SOL     OW12486   3.209   1.034   1.702  0.5931 -0.5043 -0.2792
  891SOL    HW112487   3.294   0.988   1.726 -1.5140 -4.6608 -0.3460
  891SOL    HW212488   3.178   1.003   1.611 -2.3846 -1.3000  0.9300
  892SOL     OW12489   3.406   3.174   1.686 -0.5792 -0.4532 -0.4850
  892SOL    HW112490   3.374   3.268   1.673  0.8197  0.1083  0.0638
  892SOL    HW212491   3.331   3.117   1.718 -1.1743  0.7086  0.1948
  893SOL     OW12492   4.176   1.681   0.640  0.1251 -0.6212 -0.2289
  893SOL    HW112493   4.178   1.747   0.564  0.6733 -1.9511 -1.3996
  893SOL    HW212494   4.100   1.702   0.701 -0.7876  0.0270 -1.5708
  894SOL     OW12495   3.037   7.406   1.456 -0.0879 -0.8592  0.2895
  894SOL    HW112496   3.074   7.499   1.446  2.8783 -2.2128 -1.8767
  894SOL    HW212497   3.013   7.391   1.552  0.7051  1.6842  0.9379
  895SOL     OW12498   3.429   8.360   0.898 -0.0666 -0.0086 -0.1006
  895SOL    HW112499   3.431   8.402   0.989 -0.4080 -2.4713  1.0816
  895SOL    HW212500   3.336   8.333   0.875  0.2179 -0.5503 -0.6345
  896SOL     OW12501   4.250   3.624   2.546  0.6295 -0.6908  0.0794
  896SOL    HW112502   4.162   3.615   2.499  0.3343  0.9432  0.2820
  896SOL    HW212503   4.241   3.689   2.622  1.5963 -1.8258  1.1753
  897SOL     OW12504   2.361   2.053   2.444  0.2534  0.3731  0.1110
  897SOL    HW112505   2.367   2.111   2.362  0.0849  0.9547  0.5069
  897SOL    HW212506   2.423   2.088   2.514  1.5385 -1.0372 -0.3156
  898SOL     OW12507   2.896   9.138   0.460 -0.0331 -0.1904  0.2998
  898SOL    HW112508   2.931   9.084   0.536  0.4363 -1.1148 -0.5636
  898SOL    HW212509   2.797   9.126   0.452  0.0125 -0.6063  0.3605
  899SOL     OW12510   2.427   7.743   2.378 -0.3976  0.1422 -0.1102
  899SOL    HW112511   2.467   7.833   2.395  3.4596 -1.4076 -0.4796
  899SOL    HW212512   2.386   7.708   2.462  0.1787  1.2331  0.6332
  900SOL     OW12513   3.528   3.764   2.004  0.2608 -0.1340  0.2040
  900SOL    HW112514   3.608   3.715   2.039  1.2806  0.4114 -1.3167
  900SOL    HW212515   3.502   3.835   2.069 -0.1186 -1.4948  1.5714
  901SOL     OW12516   2.752   8.340   0.346 -0.4516 -0.2452  0.2742
  901SOL    HW112517   2.699   8.334   0.261 -1.0426 -1.3694  0.7154
  901SOL    HW212518   2.815   8.263   0.351  0.1417  0.2489  0.4973
  902SOL     OW12519   3.756   4.802   0.547  0.0545  0.2943  0.5859
  902SOL    HW112520   3.696   4.802   0.468  0.2456  1.1111  0.4284
  902SOL    HW212521   3.749   4.891   0.594  1.8869  0.7850 -0.0290
  903SOL     OW12522   3.023   7.894   2.547 -0.2115 -0.0332  0.0347
  903SOL    HW112523   2.961   7.831   2.499  1.2077 -0.2035 -1.6267
  903SOL    HW212524   3.024   7.871   2.644 -1.4523 -1.1098 -0.1763
  904SOL     OW12525   4.385   2.377   1.889 -0.1456 -0.1007 -0.4684
  904SOL    HW112526   4.372   2.278   1.894  1.5100 -0.4320 -2.3282
  904SOL    HW212527   4.326   2.415   1.818  0.6164 -0.0299 -1.0693
  905SOL     OW12528   2.762   0.907   2.665  0.3533 -0.1255  0.1628
  905SOL    HW112529   2.771   0.957   2.579  0.4884 -0.3417  0.0513
  905SOL    HW212530   2.850   0.865   2.688  0.0636 -0.8761 -0.0883
  906SOL     OW12531   3.142   8.792   1.736  0.3556  0.6377  0.4277
  906SOL    HW112532   3.143   8.731   1.815  0.8203 -1.3895 -1.0837
  906SOL    HW212533   3.235   8.818   1.712  0.1655  1.8953  1.0044
  907SOL     OW12534   3.283   2.262   0.338  0.0955 -0.0826  0.3184
  907SOL    HW112535   3.189   2.273   0.306 -0.4792  1.7919  2.5462
  907SOL    HW212536   3.345   2.309   0.275 -0.7889  1.5864  0.6655
  908SOL     OW12537   2.377   7.631   1.842 -0.1439 -0.3819 -0.3284
  908SOL    HW112538   2.297   7.572   1.843  0.6483 -1.4746 -0.0293
  908SOL    HW212539   2.386   7.677   1.930 -0.0378 -0.8142 -0.1147
  909SOL     OW12540   4.608   2.536   1.676 -0.0226  0.3198  0.1545
  909SOL    HW112541   4.514   2.502   1.674 -0.8151  2.2531  2.7034
  909SOL    HW212542   4.665   2.474   1.731 -0.1387 -0.0180 -0.1016
  910SOL     OW12543   3.274   3.399   1.255  0.0576 -0.1688  0.1092
  910SOL    HW112544   3.208   3.377   1.326  0.3431 -0.1858  0.3677
  910SOL    HW212545   3.296   3.316   1.204 -0.0123 -0.1899  0.1126
  911SOL     OW12546   2.782   7.751   2.462  0.3215  0.3732  0.1660
  911SOL    HW112547   2.774   7.656   2.492  1.3993  0.4520  0.7336
  911SOL    HW212548   2.693   7.784   2.431  0.2832 -1.3633 -1.6817
  912SOL     OW12549   2.443   8.503   0.057 -0.3499  0.2098 -0.1545
  912SOL    HW112550   2.507   8.437   0.096 -0.6984 -0.3234 -0.4690
  912SOL    HW212551   2.356   8.498   0.107 -0.3888  0.4085 -0.2007
  913SOL     OW12552   2.700   8.962   1.933 -0.0640  0.1076  0.3576
  913SOL    HW112553   2.657   8.994   1.848  1.2717  0.0372 -0.3580
  913SOL    HW212554   2.756   9.035   1.971  0.3608 -0.2819  0.4835
  914SOL     OW12555   3.516   0.788   2.531  0.1847 -0.8507 -0.9323
  914SOL    HW112556   3.561   0.804   2.443  0.2874  0.7317 -0.6088
  914SOL    HW212557   3.581   0.747   2.595  0.9811  0.6923 -0.7162
  915SOL     OW12558   3.444   8.529   2.285 -0.2183 -0.4689  0.2293
  915SOL    HW112559   3.518   8.472   2.248  0.5633  1.4471 -1.2365
  915SOL    HW212560   3.481   8.587   2.358  0.0758  1.4765 -1.4300
  916SOL     OW12561   2.974   4.099   1.389 -0.0142  0.2077  0.0196
  916SOL    HW112562   3.006   4.061   1.476  1.3198 -0.7430 -0.8658
  916SOL    HW212563   3.007   4.042   1.314 -0.9350  1.1667 -1.1337
  917SOL     OW12564   4.783   3.000   0.849 -0.5020 -0.5363 -0.5305
  917SOL    HW112565   4.847   2.967   0.779  1.7086  3.1584 -0.3923
  917SOL    HW212566   4.782   2.935   0.926  2.9755 -0.8550 -0.6496
  918SOL     OW12567   3.222   2.533   0.180 -0.3083 -0.4785 -0.4182
  918SOL    HW112568   3.138   2.485   0.206  0.8034 -2.3595 -0.2488
  918SOL    HW212569   3.240   2.606   0.246 -1.8116 -0.0453 -0.4689
  919SOL     OW12570   3.963   9.801   0.818  0.4763 -0.1416 -0.2837
  919SOL    HW112571   3.940   9.749   0.901  3.2131  1.0754  1.3269
  919SOL    HW212572   3.925   9.893   0.824  1.5043  0.2703  0.1194
  920SOL     OW12573   2.267   2.611   1.340  0.8231 -0.5462  0.1084
  920SOL    HW112574   2.340   2.555   1.302  1.4012  0.3383 -0.0870
  920SOL    HW212575   2.228   2.668   1.268 -0.2668 -1.2304  0.1442
  921SOL     OW12576   2.543   6.194   2.219  0.4794  0.2725 -0.6001
  921SOL    HW112577   2.626   6.142   2.203  0.4818 -0.1056  0.5800
  921SOL    HW212578   2.548   6.282   2.172  1.7136  0.4151 -0.2022
  922SOL     OW12579   2.611   9.061   0.413 -0.4636  0.5557 -0.2080
  922SOL    HW112580   2.556   9.113   0.348  0.0246  1.5895  0.1899
  922SOL    HW212581   2.552   9.025   0.485 -0.8841  0.1119 -0.7753
  923SOL     OW12582   3.105   9.147   1.076 -0.1347  0.0666 -0.1539
  923SOL    HW112583   3.160   9.083   1.022  1.0601  0.4477  0.5920
  923SOL    HW212584   3.075   9.102   1.160 -1.8522 -0.4706 -1.0300
  924SOL     OW12585   3.898   1.284   1.909 -0.0722 -0.4201 -0.2387
  924SOL    HW112586   3.923   1.377   1.937  0.1647  0.2334 -2.5866
  924SOL    HW212587   3.838   1.288   1.829 -3.0848 -2.1714  1.8009
  925SOL     OW12588   2.459   5.055   2.060  0.6484  0.4701 -0.3361
  925SOL    HW112589   2.489   4.966   2.025  1.0490  0.4522  0.0417
  925SOL    HW212590   2.390   5.094   1.999  0.0000 -0.3935 -0.1653
  926SOL     OW12591   2.438   2.173   0.490  0.0244 -0.3037 -0.3437
  926SOL    HW112592   2.465   2.105   0.558  0.4484 -0.7420 -0.9392
  926SOL    HW212593   2.389   2.248   0.535  1.2533 -0.0468  0.6028
  927SOL     OW12594   2.203   5.867   0.938 -0.1224  0.0654 -0.7338
  927SOL    HW112595   2.253   5.846   0.854 -0.5916  1.3099 -1.3418
  927SOL    HW212596   2.194   5.966   0.947 -1.1468 -0.1002  0.1623
  928SOL     OW12597   2.573   7.736   1.318 -0.3136 -0.2771  0.5742
  928SOL    HW112598   2.576   7.667   1.391  0.4698 -0.8293  0.0335
  928SOL    HW212599   2.650   7.721   1.256 -1.6151 -0.5320 -1.0211
  929SOL     OW12600   2.779   2.033   1.555  0.1216  0.0402  0.3629
  929SOL    HW112601   2.717   2.037   1.633  0.1613 -0.0246  0.3983
  929SOL    HW212602   2.845   1.958   1.568 -0.1891 -0.2933  0.0319
  930SOL     OW12603   3.999   1.083   2.099 -0.1698  0.1445 -0.0466
  930SOL    HW112604   3.937   1.126   2.034 -0.7996 -1.1096 -0.2896
  930SOL    HW212605   4.093   1.107   2.075 -0.4646  0.7533 -0.6315
  931SOL     OW12606   2.418   2.240   1.174 -0.2452  0.9140 -0.2823
  931SOL    HW112607   2.325   2.208   1.158 -0.7157  1.3519  1.4410
  931SOL    HW212608   2.463   2.181   1.241  0.4437  1.1728 -0.5103
  932SOL     OW12609   3.082   4.516   2.701  0.5439 -0.2494  0.2685
  932SOL    HW112610   3.134   4.601   2.706 -1.2372  1.0534 -2.2997
  932SOL    HW212611   3.129   4.451   2.640 -0.5456  0.7657 -1.7047
  933SOL     OW12612   2.448   6.326   2.442 -0.1468 -0.2895 -0.6864
  933SOL    HW112613   2.397   6.264   2.501  1.4901 -0.5295  0.5188
  933SOL    HW212614   2.498   6.273   2.374  0.9639 -0.2961  0.1157
  934SOL     OW12615   2.368   6.672   0.397  0.6001  0.4787  0.3383
  934SOL    HW112616   2.457   6.637   0.424 -0.3454 -0.5270  2.2648
  934SOL    HW212617   2.369   6.697   0.301  2.9370  0.4194  0.3389
  935SOL     OW12618   3.773   5.176   1.633 -0.6329 -0.2650  0.4990
  935SOL    HW112619   3.814   5.209   1.718 -2.5514  0.7521  1.0509
  935SOL    HW212620   3.757   5.252   1.571  2.1681 -1.1966 -1.4359
  936SOL     OW12621   2.368   5.112   0.444 -0.3001 -0.4062 -0.1677
  936SOL    HW112622   2.344   5.203   0.479  0.1121  0.3774 -1.8861
  936SOL    HW212623   2.455   5.083   0.484 -2.3553 -1.8598  3.5619
  937SOL     OW12624   3.641   0.786   1.509  0.2439 -0.1696 -0.1644
  937SOL    HW112625   3.658   0.694   1.543  0.9759 -0.3162 -0.8905
  937SOL    HW212626   3.548   0.793   1.474  0.3842 -0.8202 -0.6778
  938SOL     OW12627   3.989   3.396   1.247 -0.5833  0.1439  0.2581
  938SOL    HW112628   3.933   3.424   1.325 -2.1997 -1.5977 -0.2605
  938SOL    HW212629   4.012   3.299   1.256  0.1672  0.2072 -0.8876
  939SOL     OW12630   2.713   0.957   1.299  0.3074  0.6126  0.2561
  939SOL    HW112631   2.674   0.993   1.214  1.3561  1.2565  0.0431
  939SOL    HW212632   2.643   0.903   1.347  0.9772 -3.5802 -3.1629
  940SOL     OW12633   2.871   8.110   2.333  0.4310  0.3233 -0.4577
  940SOL    HW112634   2.783   8.068   2.314  1.2793 -0.2291 -3.4933
  940SOL    HW212635   2.876   8.199   2.286  1.1873  0.7064  0.3317
  941SOL     OW12636   5.098   3.672   0.641  0.1989  0.0282 -0.4889
  941SOL    HW112637   5.009   3.651   0.600 -0.8708  1.7330  0.9039
  941SOL    HW212638   5.166   3.686   0.568 -0.5957 -1.5298 -1.5556
  942SOL     OW12639   2.516   0.644   2.390  0.1683 -0.4935  0.1493
  942SOL    HW112640   2.518   0.643   2.490 -1.8740  0.3291  0.2164
  942SOL    HW212641   2.576   0.572   2.355  1.5670 -0.2376  1.9428
  943SOL     OW12642   3.149   4.388   1.010 -0.3974 -0.1558 -0.0954
  943SOL    HW112643   3.061   4.390   0.963  0.1156  2.6359 -1.0297
  943SOL    HW212644   3.203   4.468   0.984  1.7506 -0.9309  1.7663
  944SOL     OW12645   2.754   0.448   1.127 -0.5441  0.2481 -0.0745
  944SOL    HW112646   2.833   0.466   1.185  2.0237 -2.4183 -2.5382
  944SOL    HW212647   2.755   0.511   1.049 -1.1738  0.5680  0.1724
  945SOL     OW12648   3.310   0.072   2.572 -0.0264 -0.5078  0.7695
  945SOL    HW112649   3.334  -0.007   2.516 -0.0659 -0.5086  0.7541
  945SOL    HW212650   3.393   0.109   2.614 -0.4167 -2.8410  3.8021
  946SOL     OW12651   5.291   3.055   0.349 -0.3424  0.1735  0.4547
  946SOL    HW112652   5.238   2.971   0.337  1.0226 -0.3558 -2.2648
  946SOL    HW212653   5.378   3.034   0.393 -0.5410  0.3502  0.9281
  947SOL     OW12654   2.901   8.908   1.593 -0.6878  0.3239  0.6342
  947SOL    HW112655   2.872   8.848   1.518 -0.2939  2.2413 -1.1166
  947SOL    HW212656   2.957   8.857   1.657  0.7830 -0.8804 -1.5398
  948SOL     OW12657   3.735   2.949   2.573  0.5987  0.6034  0.1283
  948SOL    HW112658   3.664   2.900   2.523 -0.7258  1.4546  1.1515
  948SOL    HW212659   3.766   3.028   2.520 -0.6291  1.3663  0.5455
  949SOL     OW12660   2.497   3.087   2.555  0.4672  0.1044  0.1856
  949SOL    HW112661   2.454   3.100   2.645 -0.7965  0.7854 -0.5071
  949SOL    HW212662   2.506   3.175   2.509 -1.0783 -0.4978 -1.3300
  950SOL     OW12663   3.351   1.554   1.044  0.5366 -0.1695 -0.1084
  950SOL    HW112664   3.326   1.461   1.071  1.1703 -0.2069  0.3621
  950SOL    HW212665   3.298   1.619   1.098  1.2183 -0.2503  0.6767
  951SOL     OW12666   4.278   4.629   1.089  0.5836  0.3366  0.4193
  951SOL    HW112667   4.308   4.674   1.172  1.5228  1.6989 -0.6377
  951SOL    HW212668   4.236   4.697   1.028  0.2202 -0.5842 -0.3652
  952SOL     OW12669   2.396   5.185   1.025 -0.4987 -0.0792  0.1078
  952SOL    HW112670   2.417   5.168   1.121 -1.0099 -0.9217  0.0730
  952SOL    HW212671   2.297   5.185   1.012 -0.4965  1.9870 -0.0756
  953SOL     OW12672   1.950   7.775   0.212 -0.7546 -0.3500 -0.9255
  953SOL    HW112673   1.886   7.831   0.160 -0.6622  0.2203 -0.4293
  953SOL    HW212674   1.904   7.734   0.290 -0.4527  0.2850 -0.4100
  954SOL     OW12675   3.230   8.216   1.956  0.4548 -0.1366 -0.1347
  954SOL    HW112676   3.190   8.141   2.008  0.8791  0.8463  1.6691
  954SOL    HW212677   3.328   8.220   1.974  0.4478  0.8061 -0.2663
  955SOL     OW12678   3.249   4.233   1.916  0.1520  0.5428  0.4608
  955SOL    HW112679   3.286   4.302   1.854  0.0733  1.2902  1.2303
  955SOL    HW212680   3.177   4.182   1.871  1.6579 -0.4800 -0.8395
  956SOL     OW12681   2.929   3.706   1.580  0.3119  0.3301 -0.2425
  956SOL    HW112682   2.914   3.621   1.630 -0.5905  1.8814  2.2380
  956SOL    HW212683   2.870   3.709   1.500 -0.6972 -0.7501  0.4445
  957SOL     OW12684   2.086   4.994   2.002 -0.4037  0.5211 -0.2258
  957SOL    HW112685   2.154   4.964   1.935  0.2728 -0.3868  0.8502
  957SOL    HW212686   2.126   5.063   2.062 -0.2347 -0.4477  0.7861
  958SOL     OW12687   3.158   0.305   2.557  0.0228  0.1317 -0.6145
  958SOL    HW112688   3.135   0.325   2.462  1.6847  1.0210 -0.8557
  958SOL    HW212689   3.208   0.218   2.561 -0.4669 -0.1470 -0.4866
  959SOL     OW12690   3.530   0.102   1.512 -0.4369 -0.2329  0.4560
  959SOL    HW112691   3.547   0.135   1.605 -0.2969  0.5745  0.1453
  959SOL    HW212692   3.593   0.026   1.492  0.3887  0.4075  0.5800
  960SOL     OW12693   2.599   1.148   2.441 -1.0186 -0.0006 -0.1435
  960SOL    HW112694   2.580   1.212   2.516  0.6255 -2.2117  2.2291
  960SOL    HW212695   2.513   1.116   2.402 -1.8744  2.6955 -0.5687
  961SOL     OW12696   3.129   1.534   1.288 -0.7397 -0.1071  0.5583
  961SOL    HW112697   3.085   1.616   1.252 -0.3115 -0.3855 -0.5954
  961SOL    HW212698   3.149   1.471   1.214 -1.1139 -1.2905  1.4440
  962SOL     OW12699   3.014   1.848   2.564  0.2282 -0.0414 -0.1930
  962SOL    HW112700   3.037   1.803   2.478  2.3458 -0.2424  0.4543
  962SOL    HW212701   3.035   1.787   2.641 -1.8300  0.0553  0.4802
  963SOL     OW12702   2.593   3.273   0.806 -0.4117  0.1279  0.1058
  963SOL    HW112703   2.609   3.261   0.904 -0.3096 -0.6154  0.0036
  963SOL    HW212704   2.532   3.350   0.791 -0.6125  0.1003  0.7707
  964SOL     OW12705   3.585   3.373   1.340  0.1229 -0.1048 -0.6682
  964SOL    HW112706   3.499   3.344   1.382 -0.0382 -0.3725 -1.1828
  964SOL    HW212707   3.623   3.450   1.391  0.0414 -0.5719  0.1135
  965SOL     OW12708   2.662   6.113   1.799  0.3555  0.1150 -0.5162
  965SOL    HW112709   2.593   6.040   1.799  1.1678 -0.7004 -2.6986
  965SOL    HW212710   2.618   6.199   1.821 -0.6643 -0.9826  1.8961
  966SOL     OW12711   2.697   9.292   0.712  0.1455 -0.1682  0.3716
  966SOL    HW112712   2.751   9.254   0.787 -0.1969 -1.6280 -0.1081
  966SOL    HW212713   2.654   9.218   0.661  2.8753  0.5123 -3.1738
  967SOL     OW12714   4.089   9.368   0.827 -0.1178 -0.0009 -0.3069
  967SOL    HW112715   4.062   9.423   0.749  1.9980  1.6027  0.0455
  967SOL    HW212716   4.135   9.285   0.796 -0.8721 -0.2367 -0.7921
  968SOL     OW12717   2.757   1.686   1.100 -0.3258 -0.4856  0.0208
  968SOL    HW112718   2.730   1.716   1.192  0.1964 -0.5559  0.1996
  968SOL    HW212719   2.805   1.760   1.054 -0.9028 -0.3306 -0.3286
  969SOL     OW12720   3.709   1.044   0.217  0.1304 -0.2176  0.8708
  969SOL    HW112721   3.642   1.119   0.209  1.7801  1.1335 -0.6204
  969SOL    HW212722   3.743   1.020   0.127  2.1275 -0.4538  1.6610
  970SOL     OW12723   3.242   1.324   1.139  1.1278  0.0784  0.4112
  970SOL    HW112724   3.257   1.248   1.203 -0.0323 -0.6619 -0.1659
  970SOL    HW212725   3.208   1.288   1.052  0.2476  1.2779  0.2375
  971SOL     OW12726   2.935   3.652   0.814  0.1471 -0.5023 -0.0406
  971SOL    HW112727   2.942   3.752   0.816  2.1296 -0.6513  1.0099
  971SOL    HW212728   2.857   3.626   0.756 -0.4515  1.6394 -0.2534
  972SOL     OW12729   2.125   5.453   0.860 -0.0476  0.6454  0.5898
  972SOL    HW112730   2.061   5.387   0.901 -4.3765  2.6712 -2.5296
  972SOL    HW212731   2.147   5.523   0.928 -1.9215  0.4187  1.4864
  973SOL     OW12732   3.953   2.409   1.026  0.3571 -0.4440  0.7129
  973SOL    HW112733   3.975   2.312   1.038  0.7528 -0.4252  0.1539
  973SOL    HW212734   3.968   2.457   1.113 -1.0696 -1.1077  1.3440
  974SOL     OW12735   3.089   9.140   2.509  0.9218 -0.5155  0.1356
  974SOL    HW112736   3.136   9.169   2.425  1.6645 -0.3956  0.5910
  974SOL    HW212737   3.025   9.212   2.538 -0.0231 -0.9383 -0.8275
  975SOL     OW12738   5.082   2.255   2.266 -0.0836  0.4045  0.5116
  975SOL    HW112739   5.094   2.354   2.267 -2.5259  0.7368  1.1594
  975SOL    HW212740   5.165   2.211   2.232 -0.0934  2.8454 -2.9169
  976SOL     OW12741   3.446   0.450   1.765 -0.2112 -0.4979 -0.0312
  976SOL    HW112742   3.352   0.426   1.739 -1.0755  1.7393  0.9334
  976SOL    HW212743   3.447   0.482   1.859  1.4391  0.0417 -0.2210
  977SOL     OW12744   2.877   3.254   0.167 -0.2556  0.3467  0.9391
  977SOL    HW112745   2.951   3.290   0.110 -1.2400  0.2433 -0.4225
  977SOL    HW212746   2.829   3.330   0.211  0.0845  0.4624  1.1154
  978SOL     OW12747   2.425   4.405   0.226  0.3426  0.0340  0.4638
  978SOL    HW112748   2.474   4.353   0.155  3.1527  0.1143  2.2421
  978SOL    HW212749   2.395   4.492   0.188 -1.0449 -1.2625 -1.5013
  979SOL     OW12750   4.467   2.353   2.242 -0.3497 -0.0543  0.3888
  979SOL    HW112751   4.552   2.349   2.190 -0.0295 -0.9779  0.9617
  979SOL    HW212752   4.395   2.394   2.187 -0.1416 -1.4429 -0.9439
  980SOL     OW12753   2.830   1.216   1.610  0.3237  0.1239 -0.4442
  980SOL    HW112754   2.801   1.123   1.632 -0.0154  0.4042  0.2887
  980SOL    HW212755   2.806   1.237   1.515  0.4800 -0.5635 -0.6396
  981SOL     OW12756   3.114   1.531   1.565 -0.1362  0.2377 -0.0621
  981SOL    HW112757   3.104   1.436   1.594  0.4299  0.4663  0.8658
  981SOL    HW212758   3.095   1.537   1.467  0.6448 -0.9622 -0.2934
  982SOL     OW12759   2.960   8.915   2.638  0.5047  0.0447 -0.4619
  982SOL    HW112760   2.965   8.958   2.728 -0.4026  0.9955 -0.8521
  982SOL    HW212761   2.984   8.982   2.568 -2.8445  0.5628 -1.2340
  983SOL     OW12762   3.019   5.426   0.251 -0.2481  0.1151 -0.4241
  983SOL    HW112763   2.963   5.474   0.320  0.5129  0.5719 -0.1261
  983SOL    HW212764   2.991   5.330   0.248 -0.6792  0.2173  0.1246
  984SOL     OW12765   4.246   1.435   1.844 -0.2243  0.0491  0.2874
  984SOL    HW112766   4.174   1.408   1.908 -1.6670  0.4037 -1.1465
  984SOL    HW212767   4.246   1.534   1.833  0.7509  0.0906  0.5554
  985SOL     OW12768   3.509   4.205   0.240  0.2040  0.0248  0.3476
  985SOL    HW112769   3.596   4.245   0.272  0.2093 -0.7306  1.2973
  985SOL    HW212770   3.515   4.186   0.142  1.2483 -0.3883  0.4889
  986SOL     OW12771   3.970   3.614   2.466 -0.0743 -0.6054 -0.3974
  986SOL    HW112772   3.924   3.580   2.548  2.2273  1.6543  1.9233
  986SOL    HW212773   3.944   3.710   2.452  0.4896 -0.6274 -1.6162
  987SOL     OW12774   2.621   6.567   0.444  0.1563  0.0207  0.4720
  987SOL    HW112775   2.647   6.558   0.348 -0.0928  0.2988  0.3803
  987SOL    HW212776   2.702   6.553   0.501  0.4138  0.4084  0.2036
  988SOL     OW12777   2.982   5.077   1.619 -0.4664  0.3924  0.0104
  988SOL    HW112778   3.079   5.099   1.633 -0.6187  1.6332 -0.7540
  988SOL    HW212779   2.926   5.141   1.671 -0.8889 -0.1077  0.1746
  989SOL     OW12780   2.855   1.019   0.255  0.1344 -0.3489 -0.0032
  989SOL    HW112781   2.815   1.030   0.163  1.4459 -1.2567 -0.6945
  989SOL    HW212782   2.877   0.923   0.271 -0.0524 -0.1893  1.2591
  990SOL     OW12783   2.821   8.155   1.893 -0.0788 -0.2077  0.2871
  990SOL    HW112784   2.844   8.235   1.948  1.6000  0.3984 -1.2743
  990SOL    HW212785   2.731   8.169   1.851 -0.7569 -0.0853  1.7534
  991SOL     OW12786   3.158   3.143   2.011 -0.2195 -0.4760 -0.3905
  991SOL    HW112787   3.094   3.136   1.935  0.8694 -0.5621 -1.3068
  991SOL    HW212788   3.195   3.236   2.015  1.0457 -0.9487 -1.0442
  992SOL     OW12789   5.027   2.956   2.414 -0.0879 -0.1089 -0.3927
  992SOL    HW112790   5.061   3.026   2.477 -1.3892  0.8336 -0.7124
  992SOL    HW212791   5.101   2.927   2.353  0.3362  1.3797 -0.6049
  993SOL     OW12792   2.324   6.885   0.585 -0.2000 -0.6528  0.0746
  993SOL    HW112793   2.313   6.815   0.514 -1.5954 -1.5222  1.1131
  993SOL    HW212794   2.370   6.845   0.665  1.7625  0.4330 -0.4716
  994SOL     OW12795   2.971   3.687   0.452 -0.1084  0.3031  0.4878
  994SOL    HW112796   3.037   3.613   0.465  0.0163  0.4863  0.9167
  994SOL    HW212797   2.986   3.758   0.521  0.9139  1.5657 -1.0117
  995SOL     OW12798   1.920   7.511   1.607  0.0244 -0.1300  0.1114
  995SOL    HW112799   1.972   7.445   1.662  0.3798  0.6418  0.7064
  995SOL    HW212800   1.917   7.599   1.655 -0.8303  0.1602 -0.4717
  996SOL     OW12801   2.604   0.860   2.271  0.0409 -0.6972 -0.5069
  996SOL    HW112802   2.545   0.928   2.315 -0.4234 -0.6004 -1.2616
  996SOL    HW212803   2.587   0.770   2.311 -1.1551 -0.7951 -1.2222
  997SOL     OW12804   3.004   5.608   1.584  0.1475  0.1909  0.5003
  997SOL    HW112805   2.916   5.598   1.537 -0.0683 -0.3023  0.9939
  997SOL    HW212806   3.066   5.664   1.529 -0.8326  1.4034  0.6213
  998SOL     OW12807   3.426   3.391   0.314  0.1458  0.3556 -0.3705
  998SOL    HW112808   3.351   3.328   0.335 -0.9384  1.7068 -0.1105
  998SOL    HW212809   3.499   3.380   0.381 -0.6706  0.3975  0.5353
  999SOL     OW12810   3.840   4.227   0.582  0.3485 -0.5314  0.1603
  999SOL    HW112811   3.752   4.265   0.612  0.3310  1.1931 -1.9608
  999SOL    HW212812   3.852   4.136   0.622 -0.8805  0.5266  3.1314
 1000SOL     OW12813   3.179   3.513   0.828 -0.6005 -0.2051  0.3846
 1000SOL    HW112814   3.096   3.569   0.828  1.1256  2.4888 -1.4804
 1000SOL    HW212815   3.157   3.422   0.793 -2.4943  0.9482 -1.5613
 1001SOL     OW12816   4.244   3.420   1.112  0.8356 -0.2333 -0.2497
 1001SOL    HW112817   4.250   3.489   1.040  0.9292 -1.3383 -1.3181
 1001SOL    HW212818   4.148   3.397   1.128  0.7677  0.5456  0.5077
 1002SOL     OW12819   2.604   4.814   0.431  0.2502 -0.8149  0.0633
 1002SOL    HW112820   2.639   4.877   0.501 -0.0146  0.4204 -0.9027
 1002SOL    HW212821   2.672   4.805   0.358  1.0362 -3.0238  1.0171
 1003SOL     OW12822   2.703   3.948   0.319  0.1966  0.2865  0.4605
 1003SOL    HW112823   2.776   4.010   0.291  0.2951  0.4115  0.9804
 1003SOL    HW212824   2.617   3.999   0.329 -0.3568 -0.1748 -1.8239
 1004SOL     OW12825   3.798   9.361   1.227 -0.3684  0.0798 -0.2143
 1004SOL    HW112826   3.818   9.366   1.129  0.6044  1.1842  0.0200
 1004SOL    HW212827   3.835   9.276   1.264 -3.2778 -1.7225 -1.3383
 1005SOL     OW12828   3.321   0.145   1.804  0.0443  0.1626 -0.0543
 1005SOL    HW112829   3.244   0.089   1.835 -0.3088 -0.9679 -2.7590
 1005SOL    HW212830   3.287   0.230   1.764  0.3663  0.7271  0.8559
 1006SOL     OW12831   2.627   8.586   0.355  0.7573 -0.1084  0.1891
 1006SOL    HW112832   2.671   8.497   0.352  0.5480 -0.1792 -1.7144
 1006SOL    HW212833   2.535   8.577   0.394  0.3092 -0.9510 -0.9950
 1007SOL     OW12834   2.298   9.143   0.982  0.7248 -0.0867  0.0480
 1007SOL    HW112835   2.337   9.193   1.059 -0.4180  0.5501  0.2237
 1007SOL    HW212836   2.231   9.200   0.936  0.0123 -1.1603 -0.2644
 1008SOL     OW12837   3.487   3.037   0.349 -0.0606  0.6833 -0.4419
 1008SOL    HW112838   3.429   3.016   0.270  1.2371 -2.0637 -0.7163
 1008SOL    HW212839   3.582   3.047   0.319  0.1696  1.4960  0.5330
 1009SOL     OW12840   3.768   3.291   2.595  0.5933  0.3154  0.1885
 1009SOL    HW112841   3.817   3.247   2.520 -1.0693 -0.1184 -0.6391
 1009SOL    HW212842   3.710   3.224   2.642  1.1437  0.7184  1.4841
 1010SOL     OW12843   3.136   4.216   0.582 -0.4877 -0.6571  0.7043
 1010SOL    HW112844   3.175   4.130   0.616 -0.3987 -1.3194 -1.0214
 1010SOL    HW212845   3.038   4.206   0.569 -0.2152 -1.1061 -1.2185
 1011SOL     OW12846   3.088   1.263   1.636  0.0653  0.7100 -0.8779
 1011SOL    HW112847   2.993   1.244   1.612 -0.2149 -0.1270  0.7837
 1011SOL    HW212848   3.132   1.178   1.666  0.6506  1.5156  0.6134
 1012SOL     OW12849   3.174   4.889   0.952  0.4279 -0.1339 -0.3026
 1012SOL    HW112850   3.245   4.944   0.996  0.2254 -0.8439  0.9477
 1012SOL    HW212851   3.208   4.795   0.942  0.1422 -0.1751 -0.8790
 1013SOL     OW12852   2.578   9.709   2.069 -0.1219 -0.0761 -0.2246
 1013SOL    HW112853   2.496   9.722   2.125  0.0536 -1.6666  0.4285
 1013SOL    HW212854   2.554   9.717   1.973 -0.6696  1.3849  0.0116
 1014SOL     OW12855   3.573   0.342   1.370 -0.0191 -0.5009  0.5394
 1014SOL    HW112856   3.531   0.280   1.436  0.6469 -1.2997  0.2114
 1014SOL    HW212857   3.641   0.293   1.316 -0.0885  0.3067 -0.2984
 1015SOL     OW12858   3.044   7.583   1.046  0.3182  0.4139  0.5068
 1015SOL    HW112859   3.057   7.682   1.054 -0.7802  0.7489 -1.5977
 1015SOL    HW212860   3.096   7.548   0.969 -1.8391 -0.0790 -0.7892
 1016SOL     OW12861   4.839   3.197   1.744 -0.0561  0.6094 -0.6938
 1016SOL    HW112862   4.912   3.139   1.781  0.9667  1.9771 -0.5600
 1016SOL    HW212863   4.820   3.169   1.650 -0.1276 -0.4652 -0.3730
 1017SOL     OW12864   3.886   1.610   2.591  0.0696  0.0582  0.1361
 1017SOL    HW112865   3.831   1.659   2.523  1.5610 -0.2588 -1.3455
 1017SOL    HW212866   3.931   1.675   2.651 -0.8766  0.3608  0.5255
 1018SOL     OW12867   3.928   1.184   0.121 -0.1965  0.1441 -0.2948
 1018SOL    HW112868   3.841   1.152   0.157 -0.0320  0.5971  0.5445
 1018SOL    HW212869   3.912   1.257   0.054 -0.5013 -0.5655 -0.9997
 1019SOL     OW12870   3.785   0.542   0.590  0.0591 -0.3058  0.1328
 1019SOL    HW112871   3.716   0.614   0.604 -0.2635 -0.6350  0.2511
 1019SOL    HW212872   3.750   0.456   0.625 -0.0131 -0.7568 -1.0281
 1020SOL     OW12873   2.823   2.596   0.801 -0.0224 -0.2294 -0.4806
 1020SOL    HW112874   2.908   2.543   0.801  0.5496  0.6707  2.1950
 1020SOL    HW212875   2.748   2.538   0.834  0.9833  1.1418  4.4479
 1021SOL     OW12876   2.417   5.845   0.771  0.0293  0.1285 -0.0150
 1021SOL    HW112877   2.397   5.930   0.723 -0.1498  0.7720  1.1721
 1021SOL    HW212878   2.398   5.767   0.711 -0.8824  0.8868 -0.7268
 1022SOL     OW12879   2.754   2.795   0.269 -0.1903 -0.0943  0.3689
 1022SOL    HW112880   2.679   2.729   0.259 -1.3009  1.4327 -1.5694
 1022SOL    HW212881   2.717   2.887   0.282  1.3597  0.2908  2.3200
 1023SOL     OW12882   3.860   0.341   0.930 -0.1604  0.2694 -0.3374
 1023SOL    HW112883   3.878   0.332   1.028 -0.4629  0.2576 -0.2793
 1023SOL    HW212884   3.943   0.366   0.882  0.9329 -3.4536 -0.5793
 1024SOL     OW12885   4.319   5.004   1.008  0.4733  0.5329 -0.3229
 1024SOL    HW112886   4.292   5.095   1.042 -0.2682  0.6413 -1.1756
 1024SOL    HW212887   4.336   5.009   0.910  1.1738 -0.0939 -0.2327
 1025SOL     OW12888   3.242   7.510   0.025  0.1720  0.2582  0.7797
 1025SOL    HW112889   3.317   7.541  -0.034 -0.0227 -1.1480 -0.2504
 1025SOL    HW212890   3.170   7.580   0.028  0.8115  0.9276  0.4596
 1026SOL     OW12891   3.998   8.983   0.676  0.0168  0.0180  0.1573
 1026SOL    HW112892   3.931   8.966   0.747  0.1990 -0.8225  0.1263
 1026SOL    HW212893   3.958   8.964   0.586 -0.1963  1.0228  0.0334
 1027SOL     OW12894   2.744   1.941   2.619 -0.7154 -0.6809 -0.1047
 1027SOL    HW112895   2.840   1.918   2.604 -0.9751 -0.6642 -1.8880
 1027SOL    HW212896   2.719   1.921   2.714  1.1276 -0.3678  0.4671
 1028SOL     OW12897   4.261   1.425   2.589 -0.2064 -0.4448 -0.2802
 1028SOL    HW112898   4.204   1.425   2.671 -0.3006 -1.8122 -0.3323
 1028SOL    HW212899   4.341   1.366   2.604  0.6023  0.5605 -0.6069
 1029SOL     OW12900   2.529   7.319   0.119  0.0590  0.6732  0.1431
 1029SOL    HW112901   2.484   7.263   0.051 -1.3491  0.3242  1.3282
 1029SOL    HW212902   2.488   7.302   0.209 -0.8664  4.0257  0.4393
 1030SOL     OW12903   3.931   1.938   1.870 -0.5196  0.2286 -0.6321
 1030SOL    HW112904   4.030   1.931   1.854 -0.3590  0.0597  0.4213
 1030SOL    HW212905   3.883   1.877   1.807  0.0675  0.0475 -0.9126
 1031SOL     OW12906   2.589   1.209   0.452 -0.2954 -0.3862  0.4650
 1031SOL    HW112907   2.575   1.110   0.440 -0.4831 -0.2304 -0.6108
 1031SOL    HW212908   2.602   1.228   0.549 -0.6252 -1.4259  0.7275
 1032SOL     OW12909   2.323   1.560   2.217  0.1803  0.4020 -0.2963
 1032SOL    HW112910   2.369   1.487   2.167  0.3890  0.9232 -0.8720
 1032SOL    HW212911   2.252   1.521   2.276  0.0650 -0.2255 -0.8486
 1033SOL     OW12912   3.757   8.613   0.723 -0.0934  0.2020 -0.5452
 1033SOL    HW112913   3.781   8.669   0.803  0.9480 -0.0864 -0.6418
 1033SOL    HW212914   3.660   8.589   0.726 -0.3107  1.1485  0.0382
 1034SOL     OW12915   3.289   8.030   1.724  0.2192  0.4272 -0.3487
 1034SOL    HW112916   3.219   7.970   1.762  0.7507 -0.8544 -1.3392
 1034SOL    HW212917   3.297   8.112   1.780 -0.2294 -0.6110  1.2739
 1035SOL     OW12918   3.050   8.217   1.671  0.1616 -0.1766  0.3407
 1035SOL    HW112919   3.070   8.309   1.704 -0.6242 -0.0450  0.4591
 1035SOL    HW212920   3.025   8.158   1.748  0.0580 -0.3281  0.1909
 1036SOL     OW12921   3.854   1.488   0.408  0.0676 -0.2352  0.5065
 1036SOL    HW112922   3.822   1.404   0.451 -1.8672 -1.0558 -2.4465
 1036SOL    HW212923   3.782   1.558   0.413  0.4897  0.2303  0.1439
 1037SOL     OW12924   3.373   0.398   0.673  0.3838 -0.5526 -0.1329
 1037SOL    HW112925   3.460   0.414   0.720 -1.0353  0.7689  2.1184
 1037SOL    HW212926   3.354   0.473   0.610 -0.0331  0.1215  0.7907
 1038SOL     OW12927   4.258   4.256   1.980  0.2076  0.3295  0.2336
 1038SOL    HW112928   4.265   4.248   1.880 -1.2387  1.5768  0.0155
 1038SOL    HW212929   4.171   4.216   2.010  0.5715  0.0944  0.9842
 1039SOL     OW12930   2.877   6.619   0.877 -0.1579 -0.2932  0.0037
 1039SOL    HW112931   2.825   6.678   0.939 -0.4197  0.3431 -0.8178
 1039SOL    HW212932   2.874   6.656   0.784  1.9536 -0.1171 -0.0282
 1040SOL     OW12933   2.241   5.246   0.746  0.3760 -0.0187  0.3759
 1040SOL    HW112934   2.179   5.174   0.775 -0.1754  0.8027  1.2662
 1040SOL    HW212935   2.211   5.334   0.785  0.1593  0.9517 -1.9230
 1041SOL     OW12936   5.045   2.253   0.103  0.5183  0.1447  0.0164
 1041SOL    HW112937   4.993   2.235   0.019  0.5514  1.8696 -0.3814
 1041SOL    HW212938   5.045   2.351   0.122  0.4269 -0.2342  2.0962
 1042SOL     OW12939   3.613   4.769   0.040  0.4949  0.5114  0.0394
 1042SOL    HW112940   3.669   4.754   0.121  0.2227 -1.2041 -0.0891
 1042SOL    HW212941   3.527   4.720   0.049  0.3647  0.5004 -1.1938
 1043SOL     OW12942   3.415   3.546   0.681  0.1185 -0.1303 -0.1401
 1043SOL    HW112943   3.476   3.602   0.738 -0.7320  1.3235 -0.6342
 1043SOL    HW212944   3.330   3.528   0.730  0.5500 -1.3427  0.1727
 1044SOL     OW12945   3.535   8.156   1.615 -0.0780 -0.4730 -0.3737
 1044SOL    HW112946   3.438   8.132   1.626 -0.7030  1.9116 -0.4914
 1044SOL    HW212947   3.580   8.154   1.704  0.5953 -4.7421 -0.6752
 1045SOL     OW12948   2.896   9.082   0.176 -0.2539 -0.2187  0.1105
 1045SOL    HW112949   2.883   9.075   0.275 -0.1649  1.1415  0.2218
 1045SOL    HW212950   2.994   9.084   0.155 -0.2734 -0.4206 -0.0065
 1046SOL     OW12951   2.328   4.381   0.485  0.4732  0.1257 -0.2396
 1046SOL    HW112952   2.329   4.471   0.529 -0.6249 -0.0956  0.2343
 1046SOL    HW212953   2.371   4.389   0.394  2.0259  0.7344  0.5264
 1047SOL     OW12954   3.698   0.831   2.322  0.4665  0.0030 -0.4756
 1047SOL    HW112955   3.784   0.779   2.319 -0.7608 -2.0298 -1.2201
 1047SOL    HW212956   3.654   0.827   2.232 -0.0643  1.6534 -0.2993
 1048SOL     OW12957   3.003   2.432   0.346  0.0784  0.1831  0.2407
 1048SOL    HW112958   2.927   2.377   0.311 -1.6230  1.5704  1.6583
 1048SOL    HW212959   2.986   2.455   0.442  2.4395  0.2876  0.6672
 1049SOL     OW12960   3.053   9.694   2.096 -0.1374  0.5229 -0.6688
 1049SOL    HW112961   2.980   9.751   2.059 -0.7887  0.1986  0.1082
 1049SOL    HW212962   3.074   9.620   2.033  0.9420  1.7914 -1.8505
 1050SOL     OW12963   2.950   8.383   2.258  0.1538  0.0066 -0.0278
 1050SOL    HW112964   2.903   8.425   2.336  0.2851  2.2717 -1.1191
 1050SOL    HW212965   2.911   8.419   2.173 -0.5167 -2.9872 -1.0621
 1051SOL     OW12966   4.834   3.695   0.412  0.7478 -0.2054  0.3339
 1051SOL    HW112967   4.743   3.731   0.435  0.8500  0.1328  0.2117
 1051SOL    HW212968   4.876   3.753   0.343  2.2052  1.2503  2.3901
 1052SOL     OW12969   3.212   2.989   0.997  0.6090 -0.2191  0.6107
 1052SOL    HW112970   3.217   2.917   0.927  2.1813 -0.5478  1.0319
 1052SOL    HW212971   3.121   2.990   1.038  0.3770 -1.5552  0.1647
 1053SOL     OW12972   4.814   3.871   2.047 -0.3213 -0.8150 -0.1552
 1053SOL    HW112973   4.722   3.867   2.008 -0.6954 -2.6063  0.8616
 1053SOL    HW212974   4.870   3.933   1.993 -2.4545  1.2846 -0.0724
 1054SOL     OW12975   2.554   2.169   2.655  0.2480  0.1598  0.5401
 1054SOL    HW112976   2.615   2.093   2.632  1.4288  0.9594  0.9975
 1054SOL    HW212977   2.526   2.162   2.750  1.2344  0.9071  0.8833
 1055SOL     OW12978   2.515   9.879   0.941 -0.7824  0.6801 -0.0034
 1055SOL    HW112979   2.535   9.975   0.926  0.1075  0.5292  0.2373
 1055SOL    HW212980   2.541   9.827   0.859 -0.1600  0.4797  0.3256
 1056SOL     OW12981   2.772   9.543   0.650  0.2675 -0.1876 -0.1725
 1056SOL    HW112982   2.765   9.569   0.554 -2.0155 -0.1535 -0.0250
 1056SOL    HW212983   2.751   9.446   0.661 -1.3078  0.2209  0.5108
 1057SOL     OW12984   3.961   0.929   0.771  0.2392  0.0789 -0.4070
 1057SOL    HW112985   3.893   0.895   0.835 -0.3855  1.4847 -0.3183
 1057SOL    HW212986   4.032   0.979   0.821 -0.6937  1.9140 -0.8631
 1058SOL     OW12987   3.852   5.187   0.011 -0.3882  0.6436 -0.0999
 1058SOL    HW112988   3.822   5.266   0.065  0.2599  2.3193 -2.1212
 1058SOL    HW212989   3.934   5.148   0.052 -0.7481  0.9709  0.9609
 1059SOL     OW12990   2.515   1.259   0.986  0.7651 -0.2639 -0.1082
 1059SOL    HW112991   2.546   1.181   1.040  1.2007  0.1151  0.1918
 1059SOL    HW212992   2.430   1.235   0.938 -0.4331 -0.1278  1.8749
 1060SOL     OW12993   4.128   2.406   0.829 -0.2343 -0.0508 -0.1104
 1060SOL    HW112994   4.060   2.391   0.757 -0.0462  0.4128 -0.3877
 1060SOL    HW212995   4.083   2.407   0.918 -0.5873  0.2383 -0.2928
 1061SOL     OW12996   3.756   0.888   0.457 -0.4984  0.0392  0.1968
 1061SOL    HW112997   3.845   0.842   0.464 -0.2796  0.3921 -0.3298
 1061SOL    HW212998   3.752   0.942   0.374 -2.3939 -2.5199 -1.4521
 1062SOL     OW12999   2.416   1.343   2.075 -0.6367 -1.4789 -0.8599
 1062SOL    HW113000   2.514   1.357   2.062 -0.7001  0.4922  0.5843
 1062SOL    HW213001   2.399   1.250   2.107  0.8824 -1.3995  0.1961
 1063SOL     OW13002   2.989   3.905   0.635  0.2681 -0.2177  0.1876
 1063SOL    HW113003   2.932   3.985   0.619  0.5119  0.1257  0.9948
 1063SOL    HW213004   3.086   3.930   0.625  0.4445  0.0518  2.2049
 1064SOL     OW13005   4.064   3.762   0.386 -0.2833  0.3353 -0.5739
 1064SOL    HW113006   4.104   3.849   0.416  1.3829 -0.6832  0.1772
 1064SOL    HW213007   4.026   3.714   0.465  0.2728 -0.3817 -0.7437
 1065SOL     OW13008   4.523   1.492   0.091  0.1514  0.1169 -0.1740
 1065SOL    HW113009   4.593   1.533   0.032  1.2557 -1.0314  0.3108
 1065SOL    HW213010   4.503   1.400   0.058  0.8308 -0.5638  1.2730
 1066SOL     OW13011   3.558   0.705   0.615  0.2333  0.0995  0.2422
 1066SOL    HW113012   3.485   0.697   0.547  0.3631  2.5673 -0.2459
 1066SOL    HW213013   3.620   0.779   0.589  0.7823  0.5274  2.5927
 1067SOL     OW13014   3.111   9.482   1.949 -0.2944 -0.5309  0.5342
 1067SOL    HW113015   3.175   9.499   1.875 -1.5057  0.4561 -0.3180
 1067SOL    HW213016   3.118   9.387   1.979  1.2786 -0.5216  0.1974
 1068SOL     OW13017   4.912   2.114   1.915  0.1722 -0.4038 -0.4129
 1068SOL    HW113018   4.825   2.066   1.905  0.7319 -1.4714 -0.3105
 1068SOL    HW213019   4.946   2.102   2.009  0.5104 -0.1490 -0.5009
 1069SOL     OW13020   3.525   4.742   0.371  0.1050  0.3004  0.7362
 1069SOL    HW113021   3.491   4.651   0.348  0.1782  0.5440 -0.3496
 1069SOL    HW213022   3.513   4.803   0.293  0.0460  1.2290  1.4592
 1070SOL     OW13023   3.299   0.802   0.895  0.4651 -0.6281 -0.5029
 1070SOL    HW113024   3.265   0.832   0.806 -0.1721 -0.6680 -0.2718
 1070SOL    HW213025   3.399   0.802   0.894  0.4848  0.9417 -0.7045
 1071SOL     OW13026   3.408   8.931   2.023 -0.0529  0.2557  0.2810
 1071SOL    HW113027   3.453   8.842   2.022 -0.6862 -0.0643  0.1306
 1071SOL    HW213028   3.331   8.930   2.087  2.7818  2.1249  3.9258
 1072SOL     OW13029   3.400   4.204   2.403 -0.2030  0.3512  0.1410
 1072SOL    HW113030   3.458   4.124   2.394  0.2763  0.7355 -0.2033
 1072SOL    HW213031   3.320   4.195   2.343 -0.2833  0.0176  0.2970
 1073SOL     OW13032   3.459   5.144   2.232  0.2701  0.1526  0.3858
 1073SOL    HW113033   3.500   5.180   2.315  0.1932  0.0188  0.4828
 1073SOL    HW213034   3.450   5.044   2.239 -0.1830  0.1927  0.4197
 1074SOL     OW13035   2.929   8.817   2.339  0.6891  0.1296 -0.1794
 1074SOL    HW113036   2.982   8.732   2.332 -2.1050 -1.6490 -0.6705
 1074SOL    HW213037   2.887   8.823   2.430 -0.8412 -0.1117 -0.8509
 1075SOL     OW13038   3.311   0.080   1.325 -0.0639  0.1110 -0.5348
 1075SOL    HW113039   3.343   0.041   1.239  1.2364 -0.3895  0.1654
 1075SOL    HW213040   3.387   0.083   1.390 -1.2564 -0.3479  0.8913
 1076SOL     OW13041   2.572   7.765   0.153 -0.0122 -0.1652  0.2053
 1076SOL    HW113042   2.659   7.804   0.185  0.1501  1.2812 -1.8564
 1076SOL    HW213043   2.584   7.668   0.135  1.8625  0.4456 -2.1646
 1077SOL     OW13044   4.736   2.319   0.438  0.2624  0.5891 -0.0262
 1077SOL    HW113045   4.736   2.289   0.343 -0.2813  1.5191 -0.3275
 1077SOL    HW213046   4.820   2.288   0.483  0.3301 -0.2056 -0.6920
 1078SOL     OW13047   3.989   4.203   2.079 -0.0328 -0.2251  0.0736
 1078SOL    HW113048   3.914   4.207   2.145 -1.9711 -1.7201 -1.9934
 1078SOL    HW213049   3.978   4.277   2.013 -0.3934 -1.2005 -0.9632
 1079SOL     OW13050   3.864   9.410   1.806  0.0336 -0.0735 -0.2715
 1079SOL    HW113051   3.785   9.365   1.763 -0.6185  1.8350 -1.1370
 1079SOL    HW213052   3.868   9.384   1.903 -0.1464 -2.1874 -0.7977
 1080SOL     OW13053   3.108   3.072   2.292 -0.0333  0.2833  0.3513
 1080SOL    HW113054   3.091   3.089   2.195 -0.7917 -1.6626  0.1313
 1080SOL    HW213055   3.051   3.134   2.346 -1.0047  0.0843 -0.4284
 1081SOL     OW13056   2.791   3.431   0.346  0.4377  0.4705  0.0136
 1081SOL    HW113057   2.807   3.360   0.414 -1.3391  0.7532  0.7668
 1081SOL    HW213058   2.816   3.520   0.385 -1.0944  0.6964  0.5281
 1082SOL     OW13059   4.358   5.021   0.696 -0.1868 -0.6431 -0.5451
 1082SOL    HW113060   4.429   5.008   0.626  0.8902  1.2786  0.1398
 1082SOL    HW213061   4.327   5.116   0.694 -0.3235 -0.6316  1.4084
 1083SOL     OW13062   3.152   4.482   2.035  0.2985  0.5589 -0.1623
 1083SOL    HW113063   3.062   4.513   2.066 -0.2913  0.4038 -1.6495
 1083SOL    HW213064   3.145   4.388   2.002  1.7505 -0.6915  2.8843
 1084SOL     OW13065   3.242   3.205   2.688 -0.1404 -0.3397 -0.1249
 1084SOL    HW113066   3.195   3.131   2.735  0.4192 -0.9446 -0.5178
 1084SOL    HW213067   3.194   3.291   2.706  0.0862 -0.5533  1.5661
 1085SOL     OW13068   1.932   5.508   1.421 -0.0856  0.1931 -0.0938
 1085SOL    HW113069   1.851   5.477   1.471  0.2866  0.1288  0.4709
 1085SOL    HW213070   2.003   5.438   1.428  0.1944  0.4743 -0.1665
 1086SOL     OW13071   4.056   2.896   2.573 -0.6144  0.7510 -0.3080
 1086SOL    HW113072   3.959   2.887   2.549 -0.9397 -1.4844  1.7528
 1086SOL    HW213073   4.078   2.836   2.649  1.8527  3.0605  0.9047
 1087SOL     OW13074   2.714   7.392   1.023 -0.0098 -0.0054  0.2690
 1087SOL    HW113075   2.623   7.420   1.056  0.2207  0.5315  0.4502
 1087SOL    HW213076   2.779   7.393   1.099 -0.0783 -1.4443  0.3750
 1088SOL     OW13077   3.433   7.921   0.834 -0.1151  0.0277 -0.0006
 1088SOL    HW113078   3.457   7.914   0.931 -1.4672  1.2365  0.4429
 1088SOL    HW213079   3.337   7.946   0.825 -0.4682 -1.8476 -1.7033
 1089SOL     OW13080   2.354   5.661   0.537  0.0104  0.6989 -0.1002
 1089SOL    HW113081   2.430   5.725   0.529 -0.0262  0.6565 -0.8977
 1089SOL    HW213082   2.289   5.678   0.463  0.4266 -0.8301 -0.8422
 1090SOL     OW13083   2.765   9.612   0.387  0.2078  0.2877  0.2805
 1090SOL    HW113084   2.800   9.537   0.330  0.4220  0.3166  0.3720
 1090SOL    HW213085   2.712   9.675   0.331 -0.5162 -0.2760  0.3244
 1091SOL     OW13086   1.943   5.441   1.132  0.1258  0.4847 -0.1867
 1091SOL    HW113087   2.002   5.519   1.110  0.4132  0.5779  0.8558
 1091SOL    HW213088   1.889   5.463   1.214  1.2092 -0.9188  0.9326
 1092SOL     OW13089   3.047   5.958   0.629  0.6611  0.0645 -0.1272
 1092SOL    HW113090   2.964   5.902   0.637 -0.1423  1.2828  0.2962
 1092SOL    HW213091   3.074   5.990   0.720  0.5869  1.0881 -0.4591
 1093SOL     OW13092   3.343   2.439   0.716  0.3045  0.0266  0.7674
 1093SOL    HW113093   3.399   2.367   0.673 -1.3897 -1.3295  0.7606
 1093SOL    HW213094   3.378   2.529   0.689  2.2802 -0.7915  0.5284
 1094SOL     OW13095   2.558   8.668   2.566  0.6781 -0.2285  0.3642
 1094SOL    HW113096   2.524   8.618   2.646 -1.2063 -1.1982 -1.0127
 1094SOL    HW213097   2.482   8.713   2.520  1.5590 -0.6891 -1.5865
 1095SOL     OW13098   2.251   5.383   1.708 -0.1671 -0.1326 -0.2272
 1095SOL    HW113099   2.302   5.464   1.739  0.2789 -0.1070 -1.0150
 1095SOL    HW213100   2.168   5.374   1.762 -0.0241  0.6306  0.1327
 1096SOL     OW13101   2.950   0.777   1.345 -0.1373 -0.5326  0.1981
 1096SOL    HW113102   2.929   0.681   1.327 -1.9439 -0.0662 -0.2751
 1096SOL    HW213103   2.865   0.830   1.348  0.9391  1.3105 -1.0646
 1097SOL     OW13104   3.200   2.017   2.687  0.4011 -0.3984  0.1588
 1097SOL    HW113105   3.152   1.972   2.611  1.1710  0.0194 -0.5812
 1097SOL    HW213106   3.164   2.109   2.698  1.5045  0.1721 -0.8646
 1098SOL     OW13107   3.351   8.424   1.787  0.1885  0.2648 -0.2508
 1098SOL    HW113108   3.382   8.350   1.846 -0.9111 -1.0663 -1.3076
 1098SOL    HW213109   3.252   8.433   1.795  0.1035  0.4804 -1.4125
 1099SOL     OW13110   4.555   2.365   0.990  0.1016 -0.0306 -0.2802
 1099SOL    HW113111   4.639   2.316   0.967 -0.6273 -1.5209  0.1821
 1099SOL    HW213112   4.476   2.313   0.956 -0.6176  1.4944 -0.9654
 1100SOL     OW13113   2.617   4.518   0.553  0.0747  0.5213  0.1553
 1100SOL    HW113114   2.528   4.551   0.586  0.2208  1.3808 -0.2791
 1100SOL    HW213115   2.630   4.549   0.459  1.0083  0.7373  0.3523
 1101SOL     OW13116   2.784   7.699   1.163  0.1175 -0.0851 -0.1174
 1101SOL    HW113117   2.781   7.603   1.138 -0.0343  0.0561 -0.6367
 1101SOL    HW213118   2.855   7.745   1.110 -0.3613  0.2618 -0.4625
 1102SOL     OW13119   2.877   3.321   1.172  0.1630 -0.4024 -0.3501
 1102SOL    HW113120   2.795   3.306   1.116 -0.0227 -0.5719 -0.0347
 1102SOL    HW213121   2.902   3.418   1.168 -0.0707 -0.3439 -0.4278
 1103SOL     OW13122   4.596   2.719   0.335 -0.6582  0.0857 -0.4338
 1103SOL    HW113123   4.612   2.683   0.427 -1.5997 -1.0288 -0.6981
 1103SOL    HW213124   4.668   2.686   0.274 -0.0067  0.8634 -0.0920
 1104SOL     OW13125   2.140   4.674   2.305 -0.0870 -0.3388  0.0481
 1104SOL    HW113126   2.185   4.616   2.373 -0.1739 -0.6795 -0.1845
 1104SOL    HW213127   2.189   4.666   2.218  0.7915  1.0797  0.4061
 1105SOL     OW13128   2.231   3.985   2.186 -0.2048 -0.2484  0.3427
 1105SOL    HW113129   2.303   4.012   2.248 -0.5319 -1.0157  1.0592
 1105SOL    HW213130   2.197   3.894   2.211 -0.5200 -0.4503 -0.7825
 1106SOL     OW13131   3.449   2.792   1.441 -0.2803  0.1456  0.2427
 1106SOL    HW113132   3.520   2.805   1.372  0.9110  0.3247  1.4547
 1106SOL    HW213133   3.395   2.711   1.419  0.9059 -0.5343 -0.2346
 1107SOL     OW13134   3.793   4.998   0.959 -0.5780 -0.0088  0.3292
 1107SOL    HW113135   3.730   4.985   0.882  0.1655  0.1728 -0.3031
 1107SOL    HW213136   3.835   4.910   0.983  0.4439  0.2420 -0.5392
 1108SOL     OW13137   3.240   9.202   2.296  0.1956  0.4960  0.3480
 1108SOL    HW113138   3.338   9.203   2.274  0.3638 -1.4361  0.8821
 1108SOL    HW213139   3.189   9.242   2.220  1.1012 -2.2141 -1.7688
 1109SOL     OW13140   4.601   3.653   0.864 -0.5213 -0.1577  0.8155
 1109SOL    HW113141   4.670   3.675   0.933  1.0184  1.0227 -1.0541
 1109SOL    HW213142   4.643   3.600   0.790 -1.6615  0.3718 -0.2390
 1110SOL     OW13143   3.511   9.262   2.230  0.1663 -0.6378  0.8675
 1110SOL    HW113144   3.535   9.340   2.288  1.2397 -1.1161  1.0786
 1110SOL    HW213145   3.532   9.284   2.134  0.5456 -0.7085  0.9370
 1111SOL     OW13146   1.983   5.402   1.874 -0.4030  0.3799 -0.2324
 1111SOL    HW113147   1.966   5.452   1.959 -0.4752 -0.2201  0.1077
 1111SOL    HW213148   1.939   5.312   1.879  0.1829  0.0688 -0.6230
 1112SOL     OW13149   3.015   8.834   0.906  0.6759  0.7663  0.0322
 1112SOL    HW113150   3.007   8.796   0.813  1.8275  0.3275  0.1019
 1112SOL    HW213151   3.111   8.858   0.924  0.5254  0.4761  1.2504
 1113SOL     OW13152   2.333   5.140   1.839  0.3591  0.2290 -0.2803
 1113SOL    HW113153   2.291   5.224   1.806  1.1753 -0.8170 -4.2864
 1113SOL    HW213154   2.307   5.064   1.779  0.8584 -2.1100  2.3564
 1114SOL     OW13155   2.262   2.666   0.273  0.1561 -0.2338  0.0761
 1114SOL    HW113156   2.234   2.601   0.343  0.4773 -0.2069  0.2267
 1114SOL    HW213157   2.356   2.646   0.244 -0.3301 -0.8967 -1.0838
 1115SOL     OW13158   3.925   1.475   1.546  0.2114  0.1486  0.4647
 1115SOL    HW113159   3.850   1.465   1.611  0.8070 -1.8325  0.8867
 1115SOL    HW213160   3.919   1.564   1.501 -1.4535  0.6571  1.6551
 1116SOL     OW13161   3.679   9.982   1.016  0.0494  0.1213 -0.0967
 1116SOL    HW113162   3.702  10.043   1.092 -0.4188 -0.9992  0.9796
 1116SOL    HW213163   3.762   9.958   0.966  0.0731  2.6581 -1.3609
 1117SOL     OW13164   3.409   1.013   2.640  0.0813 -0.5646  0.6726
 1117SOL    HW113165   3.439   0.939   2.580  0.2882  0.6320 -0.7197
 1117SOL    HW213166   3.488   1.053   2.686  0.5262  1.6347 -1.8961
 1118SOL     OW13167   3.930   0.540   1.420 -0.2028  0.0106  0.0879
 1118SOL    HW113168   3.987   0.571   1.495  0.1183  0.6477 -0.4178
 1118SOL    HW213169   3.840   0.515   1.455 -0.6156  1.9191  0.4582
 1119SOL     OW13170   4.248   4.275   1.684  0.4082 -0.1364  0.4596
 1119SOL    HW113171   4.339   4.303   1.714  0.6955 -2.2663  1.6410
 1119SOL    HW213172   4.247   4.264   1.584  1.9260 -1.6831  0.5943
 1120SOL     OW13173   2.632   2.966   1.062 -0.0410 -0.4201 -0.4787
 1120SOL    HW113174   2.633   2.940   0.966 -0.3190 -0.5099 -0.4560
 1120SOL    HW213175   2.622   2.884   1.119 -1.3629 -0.2236 -0.4239
 1121SOL     OW13176   3.511   9.700   1.311 -0.3804  0.3067  0.1923
 1121SOL    HW113177   3.428   9.728   1.262  0.0752  0.2889 -0.6082
 1121SOL    HW213178   3.591   9.721   1.254  0.1089 -0.4766  0.5882
 1122SOL     OW13179   2.714   5.634   0.951 -0.2149  0.0654  0.4660
 1122SOL    HW113180   2.711   5.557   0.887  0.4645  1.9001 -1.8199
 1122SOL    HW213181   2.621   5.661   0.974 -0.5051  0.4613 -1.1022
 1123SOL     OW13182   3.160   8.635   1.050  0.0963 -0.3417 -0.4964
 1123SOL    HW113183   3.097   8.559   1.033  0.4364 -1.3192  2.3385
 1123SOL    HW213184   3.117   8.721   1.022 -1.9092 -1.1697 -0.0425
 1124SOL     OW13185   3.912   3.994   0.732 -0.2904 -0.0391  0.1220
 1124SOL    HW113186   3.974   4.023   0.805 -0.7037  0.3259  0.3304
 1124SOL    HW213187   3.874   3.904   0.754 -0.2670 -0.0139  0.2645
 1125SOL     OW13188   3.424   0.940   1.145  0.5396  0.1049 -0.3906
 1125SOL    HW113189   3.386   0.876   1.078 -0.8563 -0.8997  1.2993
 1125SOL    HW213190   3.504   0.899   1.189  0.6985  0.2497 -0.5424
 1126SOL     OW13191   3.748   1.094   2.450 -0.1841  0.3729 -0.6960
 1126SOL    HW113192   3.754   1.162   2.376  3.1695 -1.0907 -1.8458
 1126SOL    HW213193   3.712   1.009   2.414  1.9427 -0.5069 -0.7939
 1127SOL     OW13194   2.644   4.240   0.596 -0.1739  0.1089 -0.4141
 1127SOL    HW113195   2.588   4.228   0.678  0.0132 -1.8574 -0.5516
 1127SOL    HW213196   2.637   4.335   0.564  0.2157  1.0415  2.1855
 1128SOL     OW13197   3.216   2.832   2.355 -0.0172  0.1804 -0.1103
 1128SOL    HW113198   3.158   2.910   2.334  0.7185  0.5076 -0.9143
 1128SOL    HW213199   3.164   2.747   2.342 -0.3342  0.4754 -0.7390
 1129SOL     OW13200   2.571   7.198   1.840 -0.1651  0.4789  0.0964
 1129SOL    HW113201   2.661   7.164   1.813 -0.1222  0.0497  0.7582
 1129SOL    HW213202   2.577   7.294   1.866  0.3868  0.0728  1.5086
 1130SOL     OW13203   2.839   9.971   1.275  0.2621  0.3128  0.3168
 1130SOL    HW113204   2.755   9.928   1.308  0.5950 -0.0521  0.6968
 1130SOL    HW213205   2.905   9.900   1.252  0.2189  0.5822 -0.6429
 1131SOL     OW13206   3.772   3.500   0.863  0.4669 -0.7044 -0.0446
 1131SOL    HW113207   3.737   3.438   0.793 -2.3141  0.9692 -0.2267
 1131SOL    HW213208   3.734   3.476   0.952 -2.0311  1.6673 -0.3861
 1132SOL     OW13209   3.011   7.593   0.719 -0.1428  0.2646  0.0325
 1132SOL    HW113210   3.097   7.630   0.756  0.3919 -0.8054 -0.1252
 1132SOL    HW213211   2.935   7.649   0.751  0.5278  0.7141  0.8825
 1133SOL     OW13212   2.733   5.846   1.164 -0.1075 -0.0064 -0.2536
 1133SOL    HW113213   2.679   5.775   1.118  0.0740 -0.9308  0.9265
 1133SOL    HW213214   2.700   5.936   1.137 -0.9532 -0.5490 -1.0565
 1134SOL     OW13215   3.383   8.437   1.376  0.1360  0.2303  0.0333
 1134SOL    HW113216   3.380   8.337   1.367 -0.1351  0.3345 -1.0608
 1134SOL    HW213217   3.290   8.474   1.370  0.1288  0.4669  1.4788
 1135SOL     OW13218   3.531   3.155   2.651  0.8141 -0.6414 -0.0682
 1135SOL    HW113219   3.550   3.075   2.707  0.0401 -1.4034 -0.8868
 1135SOL    HW213220   3.433   3.175   2.653  0.8987 -0.1681 -0.4801
 1136SOL     OW13221   3.209   7.973   2.120 -0.3812 -0.1497  0.2337
 1136SOL    HW113222   3.209   7.926   2.207 -0.1500 -0.8975 -0.1682
 1136SOL    HW213223   3.194   7.908   2.046 -1.4521  0.6054 -0.2251
 1137SOL     OW13224   3.435   8.836   0.492 -0.1554  0.1763  0.2536
 1137SOL    HW113225   3.463   8.848   0.397 -1.2844 -2.3156 -0.4233
 1137SOL    HW213226   3.465   8.747   0.525 -0.8022  0.5337  1.8519
 1138SOL     OW13227   2.509   6.313   0.362 -0.2381  0.2359  0.0469
 1138SOL    HW113228   2.551   6.384   0.417 -1.4225  0.2405  0.9770
 1138SOL    HW213229   2.413   6.303   0.389 -0.3115 -1.1014 -0.6712
 1139SOL     OW13230   3.462   9.965   2.119 -0.1365  0.6000  0.0054
 1139SOL    HW113231   3.528  10.010   2.059  0.9924  0.3537  1.0360
 1139SOL    HW213232   3.459   9.867   2.098  2.0536  0.0669  1.8998
 1140SOL     OW13233   3.465   3.744   1.280 -0.0385 -0.1098  0.1279
 1140SOL    HW113234   3.560   3.756   1.249  0.6724  0.4323  2.4188
 1140SOL    HW213235   3.416   3.686   1.215  2.4224 -2.0861 -0.0446
 1141SOL     OW13236   3.098   0.056   1.035  0.7579  0.0444 -0.1984
 1141SOL    HW113237   3.090   0.155   1.038  0.4574  0.0824 -1.5836
 1141SOL    HW213238   3.009   0.014   1.053  0.5958  0.0708 -0.9101
 1142SOL     OW13239   3.811   3.390   1.786 -0.7181  0.1363  0.8836
 1142SOL    HW113240   3.818   3.430   1.695 -2.0356  0.1495  0.7850
 1142SOL    HW213241   3.903   3.371   1.821 -0.1804  0.8789 -0.1079
 1143SOL     OW13242   4.329   2.509   0.464 -0.6393 -0.2017 -0.3287
 1143SOL    HW113243   4.321   2.412   0.443  1.3959 -0.4997  0.0942
 1143SOL    HW213244   4.405   2.523   0.528 -1.6471  1.5381  0.5351
 1144SOL     OW13245   2.519   2.421   0.700  0.1649  0.6354  0.4437
 1144SOL    HW113246   2.545   2.396   0.793 -2.0457  1.3255  1.2849
 1144SOL    HW213247   2.463   2.504   0.702  0.4803  0.9286 -1.5542
 1145SOL     OW13248   2.934   3.637   2.641  0.1364  0.0302  0.2050
 1145SOL    HW113249   2.898   3.678   2.725 -1.0564  0.0285 -0.3023
 1145SOL    HW213250   2.866   3.576   2.602 -0.5813  2.4341 -2.4787
 1146SOL     OW13251   3.280   9.497   2.380 -0.0822 -0.7753 -0.7580
 1146SOL    HW113252   3.379   9.484   2.383  0.1989  1.3256  0.0060
 1146SOL    HW213253   3.235   9.415   2.417  1.3054 -2.1500 -2.0190
 1147SOL     OW13254   2.586   0.431   0.710 -0.5386  0.1704 -0.1263
 1147SOL    HW113255   2.580   0.334   0.735 -1.5986  0.2336 -0.0916
 1147SOL    HW213256   2.580   0.487   0.793 -0.5328  0.2794 -0.1998
 1148SOL     OW13257   3.692   1.073   0.896 -0.0457 -0.1384 -0.3619
 1148SOL    HW113258   3.714   0.987   0.942 -1.6498 -0.2980  0.1319
 1148SOL    HW213259   3.769   1.136   0.907  0.2250 -0.7021  1.2462
 1149SOL     OW13260   3.800   2.056   1.151  0.3461 -0.6087  0.1235
 1149SOL    HW113261   3.786   2.138   1.206 -0.0950 -0.7287  0.1965
 1149SOL    HW213262   3.861   2.076   1.075 -0.5053  0.0336 -0.3976
 1150SOL     OW13263   2.525   9.562   1.516  0.7010 -0.8325  0.9128
 1150SOL    HW113264   2.530   9.642   1.576 -0.2255 -0.3799  0.3945
 1150SOL    HW213265   2.493   9.483   1.569  0.5031 -0.5847  1.1650
 1151SOL     OW13266   4.513   3.364   1.158  0.6325  0.1460  0.4510
 1151SOL    HW113267   4.426   3.395   1.121  0.6807  1.0753  1.1106
 1151SOL    HW213268   4.560   3.308   1.089 -0.9196 -1.2097  0.4622
 1152SOL     OW13269   2.855   6.026   2.475  0.1378 -0.5523 -0.0775
 1152SOL    HW113270   2.821   6.016   2.381 -0.8556 -0.7475  0.2987
 1152SOL    HW213271   2.947   5.986   2.481  0.2366 -0.4840 -0.9817
 1153SOL     OW13272   3.589   9.506   2.396  0.0233  0.0749  0.2573
 1153SOL    HW113273   3.628   9.581   2.343  0.7848 -1.3705 -1.2646
 1153SOL    HW213274   3.662   9.456   2.443 -0.3683 -0.3919  0.3780
 1154SOL     OW13275   3.299   2.632   1.630  0.0482 -0.1212  0.2088
 1154SOL    HW113276   3.305   2.729   1.608 -1.6995 -0.3866 -1.5535
 1154SOL    HW213277   3.281   2.579   1.547 -3.2213 -1.5308  1.6920
 1155SOL     OW13278   2.814   6.026   0.042  0.2831 -0.0309  0.2381
 1155SOL    HW113279   2.887   5.973   0.086  0.5267  0.9701  1.0749
 1155SOL    HW213280   2.837   6.041  -0.054  0.4622 -0.9899  0.1289
 1156SOL     OW13281   3.247   3.913   1.770 -0.2912  0.6345  0.0587
 1156SOL    HW113282   3.334   3.963   1.769  0.6608 -0.9626 -0.5132
 1156SOL    HW213283   3.244   3.854   1.850 -1.4225  1.6370  0.7567
 1157SOL     OW13284   2.204   4.269   2.185 -0.5374  0.2364 -0.4114
 1157SOL    HW113285   2.266   4.284   2.108 -1.6831 -1.1074 -1.6459
 1157SOL    HW213286   2.202   4.171   2.207 -0.5440  0.5622  1.0515
 1158SOL     OW13287   3.293   1.104   1.324  0.4429 -0.0084 -0.1044
 1158SOL    HW113288   3.228   1.058   1.384 -0.4957 -0.3453 -1.3585
 1158SOL    HW213289   3.334   1.037   1.262  1.1117  0.4002 -0.1034
 1159SOL     OW13290   2.871   3.736   0.210  0.0716 -0.1707 -0.0317
 1159SOL    HW113291   2.829   3.808   0.264 -0.3782 -1.1772  0.9854
 1159SOL    HW213292   2.919   3.673   0.271  0.2505 -0.8626 -0.8822
 1160SOL     OW13293   3.052   2.168   1.162  0.0261  0.2872 -0.3345
 1160SOL    HW113294   3.130   2.163   1.100 -0.3280 -2.1456 -0.6343
 1160SOL    HW213295   3.067   2.106   1.239 -1.7563 -0.5273 -0.6070
 1161SOL     OW13296   3.382   9.974   0.469  0.2169  0.2678 -0.5508
 1161SOL    HW113297   3.431   9.916   0.403 -0.5796 -1.5519  0.4254
 1161SOL    HW213298   3.439   9.988   0.549  0.0842  0.1210 -0.4297
 1162SOL     OW13299   1.791   7.957   0.037  0.2640  0.5318 -0.3049
 1162SOL    HW113300   1.881   7.988   0.005  1.0345  1.6396  2.7730
 1162SOL    HW213301   1.729   8.035   0.044  0.1255  0.3173  0.9105
 1163SOL     OW13302   2.706   0.469   2.294 -0.0113 -0.2755  0.2496
 1163SOL    HW113303   2.726   0.380   2.334  0.0434 -0.8533 -1.0433
 1163SOL    HW213304   2.792   0.517   2.273 -0.0415  0.3926  1.6080
 1164SOL     OW13305   2.417   7.306   2.518  0.4431 -0.3430 -0.2700
 1164SOL    HW113306   2.414   7.237   2.446 -1.6768 -0.2400 -0.3009
 1164SOL    HW213307   2.443   7.394   2.478  1.0840 -0.6691 -0.5839
 1165SOL     OW13308   2.586   0.005   2.176 -0.3530  0.0887  0.1659
 1165SOL    HW113309   2.644  -0.056   2.230  2.5333  2.4680 -0.1138
 1165SOL    HW213310   2.550   0.078   2.235 -1.2350 -0.0913 -0.1374
 1166SOL     OW13311   4.279   4.238   1.419  0.0353 -0.3206  0.2053
 1166SOL    HW113312   4.321   4.147   1.413 -0.7603 -0.7547  1.1498
 1166SOL    HW213313   4.211   4.248   1.346 -0.8049 -0.9731  0.8920
 1167SOL     OW13314   2.812   1.817   1.742  0.7959  0.1064 -0.1353
 1167SOL    HW113315   2.758   1.742   1.704 -0.1468  0.4593  0.4777
 1167SOL    HW213316   2.898   1.782   1.778  0.4005 -0.6605  0.0584
 1168SOL     OW13317   2.066   5.940   1.538 -0.1382 -0.3769 -0.8392
 1168SOL    HW113318   1.977   5.934   1.583 -0.1712  0.5197 -0.7807
 1168SOL    HW213319   2.075   5.865   1.471 -0.9147 -0.4896 -0.8187
 1169SOL     OW13320   2.572   9.717   0.735  0.4952  0.2706 -0.1289
 1169SOL    HW113321   2.651   9.656   0.733 -0.6543 -1.2002 -2.1147
 1169SOL    HW213322   2.560   9.760   0.646  0.3681  2.2327  0.8080
 1170SOL     OW13323   3.003   7.226   0.179  0.3872 -0.0117  0.0309
 1170SOL    HW113324   3.044   7.259   0.264  0.5948  0.3592 -0.2153
 1170SOL    HW213325   2.942   7.296   0.142 -0.3069 -0.4758  0.2841
 1171SOL     OW13326   4.124   1.316   1.602 -0.3653  0.1269 -0.5810
 1171SOL    HW113327   4.055   1.387   1.591  0.6873  1.2393 -0.2107
 1171SOL    HW213328   4.183   1.339   1.679  0.4778 -0.7564 -0.9486
 1172SOL     OW13329   3.988   3.672   1.366 -0.2452  0.0379 -0.1575
 1172SOL    HW113330   4.065   3.707   1.312  1.2636 -0.0271  1.8830
 1172SOL    HW213331   3.981   3.724   1.451 -3.3171  0.8984 -0.8885
 1173SOL     OW13332   2.363   6.111   0.689  0.0343 -0.1585  0.3744
 1173SOL    HW113333   2.337   6.152   0.777  1.4854 -1.8253  1.6017
 1173SOL    HW213334   2.454   6.143   0.663 -1.0444  1.6100 -1.3630
 1174SOL     OW13335   3.585   9.433   1.383  0.5690 -0.1325 -0.0499
 1174SOL    HW113336   3.542   9.523   1.371  0.1890 -0.1111  1.4534
 1174SOL    HW213337   3.651   9.418   1.309 -0.2554  0.8557 -1.0163
 1175SOL     OW13338   2.959   5.931   1.544 -0.0667 -0.3058  0.0978
 1175SOL    HW113339   2.876   5.976   1.510 -0.1276 -0.2537  0.3123
 1175SOL    HW213340   2.943   5.900   1.638  0.0233 -0.6517 -0.0033
 1176SOL     OW13341   3.040   3.917   2.548 -0.3095  0.2457 -0.0546
 1176SOL    HW113342   3.065   3.830   2.592  1.2388  1.3159  1.2369
 1176SOL    HW213343   3.075   3.993   2.602 -1.2063  1.6897 -1.4540
 1177SOL     OW13344   3.088   7.820   0.116  0.5982  0.7224  0.3327
 1177SOL    HW113345   3.178   7.862   0.112  0.6749  0.6342  1.1474
 1177SOL    HW213346   3.070   7.786   0.208 -0.8272  1.9976  0.5627
 1178SOL     OW13347   3.975   1.619   1.902  0.1781  0.4449  0.2637
 1178SOL    HW113348   3.876   1.607   1.903  0.3790 -1.3337  1.1459
 1178SOL    HW213349   3.997   1.716   1.893 -1.6258  0.7721 -0.8414
 1179SOL     OW13350   4.457   3.115   2.183  0.8100  0.2364 -0.5086
 1179SOL    HW113351   4.507   3.052   2.125  0.0341 -1.0028  0.1543
 1179SOL    HW213352   4.447   3.203   2.136 -2.4270 -1.6250 -3.5184
 1180SOL     OW13353   2.343   1.745   0.886  0.4235 -0.0401  0.1631
 1180SOL    HW113354   2.259   1.773   0.932  0.1494  0.9481 -0.9113
 1180SOL    HW213355   2.379   1.663   0.930  1.2802  1.9975  3.4317
 1181SOL     OW13356   4.010   4.023   0.988  0.2975  0.0333  0.1426
 1181SOL    HW113357   3.938   4.042   1.054  0.5255 -0.1808  0.4532
 1181SOL    HW213358   4.068   3.949   1.022 -1.8021 -2.7343 -1.8955
 1182SOL     OW13359   2.472   8.992   0.774  0.4483  0.3220 -0.0078
 1182SOL    HW113360   2.559   8.942   0.765  0.6665  0.9334 -1.3468
 1182SOL    HW213361   2.466   9.031   0.866  0.7988 -1.1957  0.6824
 1183SOL     OW13362   2.488   1.528   0.986 -0.3723 -0.1432  0.5718
 1183SOL    HW113363   2.571   1.562   1.031 -0.0199 -1.9466  1.3185
 1183SOL    HW213364   2.492   1.428   0.980 -2.3581 -0.2193  0.3243
 1184SOL     OW13365   2.986   2.121   2.240 -0.0665 -0.0535  0.0011
 1184SOL    HW113366   2.890   2.118   2.212  0.0254  0.3776 -0.3727
 1184SOL    HW213367   3.003   2.207   2.288  0.0070 -0.3649  0.5375
 1185SOL     OW13368   4.224   4.220   0.453 -0.4469 -0.2790  0.0941
 1185SOL    HW113369   4.305   4.274   0.474 -0.4498 -0.7945  1.4316
 1185SOL    HW213370   4.148   4.282   0.431  0.2234  0.2051 -0.8634
 1186SOL     OW13371   4.221   2.459   2.139 -0.0489 -0.8559  0.1663
 1186SOL    HW113372   4.230   2.557   2.117 -0.5504 -0.5896  1.1364
 1186SOL    HW213373   4.176   2.413   2.063  1.8082 -0.6755 -1.0845
 1187SOL     OW13374   2.240   7.564   0.369 -0.2642 -0.4363  0.4754
 1187SOL    HW113375   2.205   7.471   0.357 -0.3308 -0.4506  0.7838
 1187SOL    HW213376   2.311   7.564   0.439 -1.1175 -0.0427  1.3519
 1188SOL     OW13377   2.493   2.662   0.949  0.1783  0.7585  0.3010
 1188SOL    HW113378   2.405   2.652   0.904 -0.1793  3.8921  0.1605
 1188SOL    HW213379   2.538   2.746   0.916  2.7741 -0.2589  1.0838
 1189SOL     OW13380   3.085   3.678   1.268 -0.0400 -0.0365 -0.0125
 1189SOL    HW113381   3.154   3.637   1.327 -1.5914  0.5919  2.3108
 1189SOL    HW213382   3.098   3.777   1.265 -0.6473  0.0523  0.2083
 1190SOL     OW13383   3.399   4.541   1.965 -0.1582  0.1510  0.2721
 1190SOL    HW113384   3.317   4.510   2.014  0.9147 -2.9732  0.2378
 1190SOL    HW213385   3.387   4.527   1.867 -0.3697  1.6693  0.0708
 1191SOL     OW13386   3.685   0.979   1.870  0.2712 -0.1344  0.5901
 1191SOL    HW113387   3.721   0.886   1.868 -1.0828 -0.6588 -0.1712
 1191SOL    HW213388   3.718   1.029   1.790 -2.0547 -1.1710 -1.0909
 1192SOL     OW13389   3.886   0.919   1.606  0.0022  0.1864 -0.0715
 1192SOL    HW113390   3.922   1.004   1.567 -0.8749  1.4218  1.7375
 1192SOL    HW213391   3.792   0.904   1.572  0.9957 -1.3587 -2.2733
 1193SOL     OW13392   3.943   2.752   1.406  0.4926  0.4962 -0.0166
 1193SOL    HW113393   3.867   2.804   1.445 -0.6195  0.4528 -2.0420
 1193SOL    HW213394   3.934   2.749   1.307  0.8684 -3.0174 -0.0279
 1194SOL     OW13395   3.571   2.979   0.788 -0.6044 -0.0627 -0.1665
 1194SOL    HW113396   3.589   2.883   0.806 -3.0002 -0.8249 -1.6358
 1194SOL    HW213397   3.566   3.029   0.874  1.7795 -1.0050  0.5546
 1195SOL     OW13398   3.204   6.138   0.112 -0.0502  0.3675 -0.2876
 1195SOL    HW113399   3.190   6.086   0.196  0.2546  0.5783 -0.1022
 1195SOL    HW213400   3.171   6.232   0.125 -0.4727  0.2552 -0.5737
 1196SOL     OW13401   2.837   5.360   2.582  0.2722  0.8601 -0.0248
 1196SOL    HW113402   2.776   5.334   2.657 -0.2636 -1.5693 -1.2524
 1196SOL    HW213403   2.928   5.320   2.597  0.3254  0.8395 -0.3934
 1197SOL     OW13404   3.780   8.954   2.051 -0.6949  0.4893 -0.0774
 1197SOL    HW113405   3.718   9.026   2.022 -0.9305 -0.3744 -1.7822
 1197SOL    HW213406   3.871   8.992   2.066 -0.1085  0.7258 -3.7051
 1198SOL     OW13407   2.640   1.893   0.240  0.1296  0.0610 -0.2883
 1198SOL    HW113408   2.722   1.860   0.287 -0.0525 -0.0716 -0.0651
 1198SOL    HW213409   2.570   1.823   0.242 -0.4887  0.6912  0.7531
 1199SOL     OW13410   3.671   8.466   2.656  0.1824  0.2087 -0.0813
 1199SOL    HW113411   3.638   8.549   2.610  0.0856  0.2971  0.1442
 1199SOL    HW213412   3.765   8.448   2.629  0.1895  0.3694 -0.1645
 1200SOL     OW13413   2.949   9.956   2.424  0.3211  0.0687  0.2108
 1200SOL    HW113414   2.951   9.965   2.524  1.5267 -0.5363  0.2457
 1200SOL    HW213415   3.017   9.889   2.395 -0.8043 -0.5916 -0.9390
 1201SOL     OW13416   2.816   2.873   2.693 -0.1714 -0.5280  0.5991
 1201SOL    HW113417   2.861   2.799   2.644  0.8140  1.8283 -2.1805
 1201SOL    HW213418   2.823   2.857   2.791 -1.9027 -5.2091  0.0714
 1202SOL     OW13419   3.073   4.690   1.338  0.4661 -0.2869  0.5559
 1202SOL    HW113420   3.000   4.718   1.401 -0.3607  1.6390 -1.2080
 1202SOL    HW213421   3.135   4.767   1.323  1.0228 -0.9312 -0.4854
 1203SOL     OW13422   4.236   4.198   0.970  0.0574  0.3594 -0.0993
 1203SOL    HW113423   4.198   4.110   1.000 -0.2560  0.5987  0.2019
 1203SOL    HW213424   4.186   4.230   0.890  1.1949 -0.5087 -1.1761
 1204SOL     OW13425   3.662   0.091   2.011  0.1444  0.1408  0.3054
 1204SOL    HW113426   3.713   0.006   2.001  1.9298  1.3969 -1.8405
 1204SOL    HW213427   3.629   0.121   1.922 -0.6441  1.5842  1.0636
 1205SOL     OW13428   2.668   9.685   0.019  0.0795  0.4575 -0.2811
 1205SOL    HW113429   2.639   9.624  -0.054  0.8607  2.1055 -2.0162
 1205SOL    HW213430   2.766   9.673   0.036  0.7986  2.9805 -2.4076
 1206SOL     OW13431   3.114   8.617   2.359  0.1329 -0.4766 -0.0897
 1206SOL    HW113432   3.209   8.632   2.332  0.1028 -0.4196 -0.1625
 1206SOL    HW213433   3.083   8.529   2.323 -0.1545 -0.0464 -0.9082
 1207SOL     OW13434   3.910   1.138   0.562 -0.0079  0.1980  0.5804
 1207SOL    HW113435   3.921   1.065   0.630 -0.5228  0.1027  0.5642
 1207SOL    HW213436   3.978   1.127   0.490 -1.9231 -1.9849 -0.9517
 1208SOL     OW13437   2.757   6.517   1.280  0.0524 -0.6700 -0.6845
 1208SOL    HW113438   2.723   6.582   1.347  1.5306  0.0327 -0.5759
 1208SOL    HW213439   2.686   6.497   1.213 -1.1129 -0.6220  0.5258
 1209SOL     OW13440   2.801   1.630   1.972 -0.6419 -0.4017 -0.0993
 1209SOL    HW113441   2.731   1.559   1.977 -1.6718  0.6143  0.2237
 1209SOL    HW213442   2.827   1.658   2.065 -1.1087  0.4654 -0.2222
 1210SOL     OW13443   3.597   3.732   2.334 -0.1606  0.6840 -0.3971
 1210SOL    HW113444   3.505   3.725   2.372 -0.6282 -1.5576 -1.7965
 1210SOL    HW213445   3.630   3.640   2.309  3.0577  1.2505  1.4427
 1211SOL     OW13446   2.634   0.372   0.442 -0.3953 -0.2380  0.5879
 1211SOL    HW113447   2.664   0.399   0.533  2.4315 -1.8176  0.1788
 1211SOL    HW213448   2.553   0.314   0.450 -0.7832  0.4701  2.0124
 1212SOL     OW13449   4.332   1.054   1.169  0.1242 -0.0489 -0.1398
 1212SOL    HW113450   4.348   0.979   1.234  1.5106  0.0661 -0.3376
 1212SOL    HW213451   4.285   1.129   1.216  0.1629 -0.4018  0.4669
 1213SOL     OW13452   2.521   4.438   0.963  0.3865  0.2237 -0.0401
 1213SOL    HW113453   2.497   4.358   0.907 -0.3128 -0.0962  0.7028
 1213SOL    HW213454   2.554   4.511   0.904 -0.1083 -0.1958 -0.8475
 1214SOL     OW13455   2.916   2.225   0.806  0.5795  0.2930  0.2356
 1214SOL    HW113456   2.859   2.218   0.724  1.3657 -3.0330 -0.1219
 1214SOL    HW213457   2.863   2.197   0.886  1.6531 -2.9211 -0.1138
 1215SOL     OW13458   3.932   1.672   1.339 -0.3877  0.4468 -0.6045
 1215SOL    HW113459   3.834   1.686   1.355 -0.3619 -1.5239  1.5029
 1215SOL    HW213460   3.944   1.605   1.266 -0.6137 -0.6317  0.3534
 1216SOL     OW13461   3.152   9.911   1.797 -0.3605  0.0939 -0.2250
 1216SOL    HW113462   3.159   9.939   1.701  0.9400 -0.3487 -0.2576
 1216SOL    HW213463   3.091   9.832   1.805 -0.6934  0.3039 -0.6377
 1217SOL     OW13464   4.088   0.754   1.279  0.3639  1.1716  0.1679
 1217SOL    HW113465   4.186   0.766   1.296  0.9444 -1.6702 -1.0165
 1217SOL    HW213466   4.056   0.673   1.327 -0.3846 -0.5735 -3.1438
 1218SOL     OW13467   3.289   9.733   1.511  0.1834 -0.7715  0.5659
 1218SOL    HW113468   3.378   9.748   1.468 -0.7414  0.2541 -1.0576
 1218SOL    HW213469   3.251   9.821   1.541 -0.9989 -0.9881 -0.2440
 1219SOL     OW13470   3.098   5.843   2.452 -0.6539 -1.0318  0.2436
 1219SOL    HW113471   3.123   5.916   2.387 -2.9265 -0.4266  0.0306
 1219SOL    HW213472   3.070   5.762   2.401 -1.6111 -0.8433  0.4674
 1220SOL     OW13473   3.949   3.623   0.587 -0.3582 -0.3545  0.8358
 1220SOL    HW113474   3.939   3.524   0.588  0.5512 -0.5163 -1.7384
 1220SOL    HW213475   3.869   3.666   0.629 -1.9804 -2.1212 -0.4022
 1221SOL     OW13476   2.908   3.640   2.089  0.1987  0.9348 -0.3637
 1221SOL    HW113477   2.818   3.638   2.133  0.6291 -0.9190  0.5045
 1221SOL    HW213478   2.897   3.644   1.990 -0.8860 -1.0707 -0.3505
 1222SOL     OW13479   2.686   3.046   0.320 -1.0660 -0.3469 -0.5666
 1222SOL    HW113480   2.738   3.113   0.267  0.2639 -0.9849 -0.0930
 1222SOL    HW213481   2.636   3.093   0.392  3.1880 -0.1887  2.4783
 1223SOL     OW13482   2.947   5.492   0.642 -0.3511 -0.3882 -0.2282
 1223SOL    HW113483   3.005   5.415   0.669 -0.8909 -0.6559  0.1898
 1223SOL    HW213484   2.898   5.526   0.723 -0.4508  0.1089 -0.4974
 1224SOL     OW13485   3.612   1.265   2.190 -0.1567  0.2591  0.1242
 1224SOL    HW113486   3.553   1.266   2.270 -0.7150 -4.2588 -0.1132
 1224SOL    HW213487   3.707   1.280   2.219 -0.7739  2.7467  1.0460
 1225SOL     OW13488   2.923   6.259   1.815 -0.0669 -0.2089  0.0098
 1225SOL    HW113489   2.838   6.206   1.822  0.1524 -0.4286  1.0912
 1225SOL    HW213490   2.991   6.206   1.765 -0.9088  0.4250 -1.8933
 1226SOL     OW13491   3.333   3.583   1.042  0.2842  0.5580  0.0725
 1226SOL    HW113492   3.277   3.573   0.959 -0.1786 -0.4901  0.5050
 1226SOL    HW213493   3.285   3.544   1.120  2.3410 -1.9466  0.1504
 1227SOL     OW13494   3.898   4.492   1.186  0.0522 -0.0002  0.1140
 1227SOL    HW113495   3.858   4.512   1.275  0.1509  2.8337 -0.4422
 1227SOL    HW213496   3.984   4.442   1.199  0.4419  1.0320  1.6401
 1228SOL     OW13497   2.717   0.649   0.935 -0.0838 -0.3257  0.0747
 1228SOL    HW113498   2.681   0.721   0.995 -1.2084 -1.2396  0.5180
 1228SOL    HW213499   2.784   0.689   0.873 -1.0386  1.2056 -0.0181
 1229SOL     OW13500   4.846   3.666   0.042 -0.1941 -0.1195  0.6276
 1229SOL    HW113501   4.812   3.749   0.086 -1.2992 -0.0803 -0.2840
 1229SOL    HW213502   4.896   3.691  -0.041 -1.9996 -0.4586 -0.5723
 1230SOL     OW13503   2.405   7.893   0.316  0.2174 -0.2908 -0.5504
 1230SOL    HW113504   2.450   7.828   0.255  0.2933 -1.2282  0.4944
 1230SOL    HW213505   2.470   7.927   0.383 -1.0553 -3.4105  2.4451
 1231SOL     OW13506   4.626   2.960   0.246 -0.7132 -0.7790 -0.3510
 1231SOL    HW113507   4.573   2.894   0.299 -0.0010  0.9710  2.6467
 1231SOL    HW213508   4.619   3.050   0.289 -0.5226  0.8301 -3.5575
 1232SOL     OW13509   2.928   5.471   2.129 -0.1879  0.6230  0.0164
 1232SOL    HW113510   2.968   5.386   2.096  1.6386  1.2156  0.6442
 1232SOL    HW213511   2.829   5.468   2.117  0.1361 -0.3770 -2.6862
 1233SOL     OW13512   2.364   4.629   0.570  0.2294  0.0304 -0.2946
 1233SOL    HW113513   2.350   4.679   0.485  0.8191  0.0479 -0.3833
 1233SOL    HW213514   2.382   4.693   0.644 -0.8379  0.0461 -0.0411
 1234SOL     OW13515   2.417   8.131   2.350 -0.4241  0.0590 -0.4981
 1234SOL    HW113516   2.435   8.215   2.402  0.5339 -0.4927  0.0777
 1234SOL    HW213517   2.345   8.079   2.396 -0.1126 -0.0558 -0.1338
 1235SOL     OW13518   3.127   1.365   0.071  0.2789 -0.2082 -0.0289
 1235SOL    HW113519   3.167   1.348  -0.019 -0.4544 -2.1682 -0.0019
 1235SOL    HW213520   3.168   1.303   0.138  0.2908  0.7438  0.8551
 1236SOL     OW13521   3.345   0.654   0.233 -0.2958 -0.2624 -0.3012
 1236SOL    HW113522   3.261   0.646   0.179 -0.5607 -2.7305  0.4088
 1236SOL    HW213523   3.400   0.572   0.222  0.4072 -0.1239  1.9205
 1237SOL     OW13524   3.093   2.932   2.694 -0.1173  0.2157 -0.3774
 1237SOL    HW113525   3.001   2.928   2.732  0.1983 -0.6392  0.3017
 1237SOL    HW213526   3.098   2.875   2.612  0.2403 -1.0970  0.5339
 1238SOL     OW13527   4.485   4.181   0.886  0.8123 -0.3333 -0.5722
 1238SOL    HW113528   4.388   4.177   0.909  1.0804  2.5123  1.3768
 1238SOL    HW213529   4.537   4.130   0.954  0.9587  1.5040  0.7439
 1239SOL     OW13530   2.189   7.625   0.115 -0.0190  1.1036  0.0449
 1239SOL    HW113531   2.237   7.620   0.203  0.9651 -1.4200 -0.5720
 1239SOL    HW213532   2.112   7.688   0.122  0.7577  1.8478  2.3659
 1240SOL     OW13533   2.718   4.973   1.361  0.2623 -0.2516  0.2479
 1240SOL    HW113534   2.781   5.051   1.366 -0.2075  0.1041  0.7346
 1240SOL    HW213535   2.717   4.937   1.268 -0.4373  1.1119 -0.2975
 1241SOL     OW13536   2.610   2.337   0.927  0.1042 -0.2158 -0.1547
 1241SOL    HW113537   2.648   2.250   0.958  1.0158  0.2283 -0.0185
 1241SOL    HW213538   2.595   2.397   1.005 -0.7983 -0.3484 -0.2152
 1242SOL     OW13539   2.833   1.674   0.103 -0.8645  0.4703 -0.1883
 1242SOL    HW113540   2.809   1.606   0.034  1.1618 -0.6498  0.1483
 1242SOL    HW213541   2.841   1.629   0.192  0.2562  1.1646  0.0766
 1243SOL     OW13542   2.594   5.874   2.633  0.1200 -0.6919 -0.4041
 1243SOL    HW113543   2.540   5.907   2.555 -0.6798 -2.2851 -0.5610
 1243SOL    HW213544   2.657   5.945   2.663 -0.3610  0.3452 -1.7925
 1244SOL     OW13545   2.496   4.795   1.957 -0.6899  0.1157 -0.2761
 1244SOL    HW113546   2.534   4.767   1.869  0.1788 -2.0592  0.7840
 1244SOL    HW213547   2.426   4.730   1.986 -0.9090  0.7701  0.7052
 1245SOL     OW13548   1.953   4.374   2.186 -0.2176 -0.1657  0.5761
 1245SOL    HW113549   2.052   4.360   2.195 -0.6134 -4.3199 -0.7257
 1245SOL    HW213550   1.906   4.334   2.264 -0.9496  1.2994  0.9052
 1246SOL     OW13551   4.016   0.802   0.523  0.1655  0.0599  0.2604
 1246SOL    HW113552   4.005   0.828   0.619  1.1126 -1.0069  0.6630
 1246SOL    HW213553   4.113   0.799   0.500 -0.0632  0.6217 -0.8277
 1247SOL     OW13554   3.032   1.038   1.098 -0.4757  0.5739  0.7973
 1247SOL    HW113555   3.109   1.056   1.037 -1.7930 -1.0982 -1.4618
 1247SOL    HW213556   3.053   0.960   1.157 -0.8747 -0.6876 -0.6943
 1248SOL     OW13557   4.614   1.813   0.915  0.0049  0.4375 -0.2741
 1248SOL    HW113558   4.570   1.728   0.886 -0.9580  1.9082 -3.2996
 1248SOL    HW213559   4.556   1.860   0.982  0.4995 -1.1863  1.3438
 1249SOL     OW13560   4.467   3.879   0.246  0.1290  0.0090 -0.2018
 1249SOL    HW113561   4.465   3.978   0.261  0.0322  0.2219 -1.5634
 1249SOL    HW213562   4.410   3.856   0.167  0.6763 -1.0668 -0.2904
 1250SOL     OW13563   2.931   4.550   2.168  0.3480  0.2865 -0.2100
 1250SOL    HW113564   2.881   4.631   2.198 -1.7139 -0.7639 -0.6623
 1250SOL    HW213565   2.907   4.473   2.227 -0.3538 -0.7808 -1.8446
 1251SOL     OW13566   4.388   0.891   1.400  0.4572  0.2038  0.2990
 1251SOL    HW113567   4.322   0.933   1.462 -0.6488 -1.2726  0.1204
 1251SOL    HW213568   4.479   0.892   1.443  0.0669  0.9453  1.1231
 1252SOL     OW13569   4.615   4.480   1.518 -0.3964  0.0911  0.5050
 1252SOL    HW113570   4.608   4.579   1.501  1.7383  0.2212  0.3063
 1252SOL    HW213571   4.619   4.432   1.431 -1.9122 -0.2337  0.5963
 1253SOL     OW13572   2.742   8.805   0.445 -0.1535 -0.9966  0.5122
 1253SOL    HW113573   2.715   8.894   0.409  0.0636 -0.7011  1.0584
 1253SOL    HW213574   2.696   8.732   0.395  0.9239 -0.6391 -1.0234
 1254SOL     OW13575   3.638   2.772   1.999 -0.2417 -0.5386 -0.2956
 1254SOL    HW113576   3.663   2.859   1.957  0.4084 -1.6829 -2.3951
 1254SOL    HW213577   3.584   2.718   1.934 -1.3823 -1.3566  1.2920
 1255SOL     OW13578   3.197   4.918   1.788  0.3749 -0.2372 -0.2001
 1255SOL    HW113579   3.130   4.912   1.714 -1.1172 -1.0135  1.1620
 1255SOL    HW213580   3.169   4.857   1.862  1.6932  0.7224  1.1143
 1256SOL     OW13581   2.280   6.188   2.124  0.0654  0.4424  0.1026
 1256SOL    HW113582   2.378   6.189   2.145  0.1506  2.3751 -0.2892
 1256SOL    HW213583   2.236   6.269   2.163 -0.7015  1.4214 -2.6597
 1257SOL     OW13584   3.760   3.712   1.196 -0.2934 -0.2272  0.0037
 1257SOL    HW113585   3.835   3.701   1.262 -0.4358  1.1266  0.4115
 1257SOL    HW213586   3.779   3.792   1.138 -1.3884  0.0792  0.0632
 1258SOL     OW13587   3.880   1.281   2.253  0.6704  0.1258  0.1431
 1258SOL    HW113588   3.915   1.216   2.186 -0.5211 -0.0218 -0.3602
 1258SOL    HW213589   3.910   1.373   2.230  0.3832  0.0569 -0.5298
 1259SOL     OW13590   4.761   3.173   1.492 -0.1210 -0.1866  0.0162
 1259SOL    HW113591   4.712   3.086   1.486  1.0606 -0.8566  0.0804
 1259SOL    HW213592   4.696   3.248   1.480 -1.4396 -1.0263  1.6110
 1260SOL     OW13593   2.944   7.306   1.980 -0.0097  0.2781  0.7427
 1260SOL    HW113594   2.916   7.234   1.917  0.0364  0.4674  0.5048
 1260SOL    HW213595   2.951   7.269   2.072  1.2155 -0.3040  0.4257
 1261SOL     OW13596   3.775   0.351   1.998 -0.1205  0.5684  0.4688
 1261SOL    HW113597   3.837   0.374   2.073 -0.5825  0.4813  0.8848
 1261SOL    HW213598   3.746   0.255   2.007 -1.3877  0.9872  1.0751
 1262SOL     OW13599   2.444   6.733   0.125 -0.1712  0.4142 -0.4057
 1262SOL    HW113600   2.461   6.647   0.076 -0.4589  1.1658 -1.8458
 1262SOL    HW213601   2.510   6.802   0.095 -0.5981  0.9928 -0.0256
 1263SOL     OW13602   3.456   5.653   0.897  0.6790 -0.1269 -0.1617
 1263SOL    HW113603   3.544   5.644   0.851  0.6562 -2.5294  0.1861
 1263SOL    HW213604   3.462   5.612   0.988 -0.3756  1.0433  0.4500
 1264SOL     OW13605   3.610   2.009   2.367 -0.9156 -0.4366 -0.0246
 1264SOL    HW113606   3.687   2.072   2.371 -0.4970 -0.9532  0.0970
 1264SOL    HW213607   3.558   2.014   2.452 -0.9092 -0.2252 -0.0325
 1265SOL     OW13608   3.380   9.296   1.212  0.3639 -0.4785 -0.6720
 1265SOL    HW113609   3.349   9.201   1.222 -2.4717  0.6901  1.9431
 1265SOL    HW213610   3.451   9.315   1.279 -1.0568  0.0453  0.7044
 1266SOL     OW13611   2.362   4.299   2.602 -0.2677 -0.2882  0.1954
 1266SOL    HW113612   2.318   4.340   2.682 -2.3383 -1.0579 -0.5351
 1266SOL    HW213613   2.449   4.258   2.630 -1.0288 -0.6863  2.0944
 1267SOL     OW13614   4.569   3.383   1.439  0.2940  0.3089 -0.1558
 1267SOL    HW113615   4.537   3.467   1.482 -1.0403 -0.9176  1.3150
 1267SOL    HW213616   4.524   3.371   1.351 -0.6727  0.3692  0.3206
 1268SOL     OW13617   3.935   4.012   1.808  0.6401  0.5607 -0.3292
 1268SOL    HW113618   3.966   4.107   1.809 -0.1215  0.8133 -0.0247
 1268SOL    HW213619   4.012   3.951   1.827  1.2011  1.0963 -0.9054
 1269SOL     OW13620   2.859   4.113   0.533  0.3556  0.7637 -0.1187
 1269SOL    HW113621   2.780   4.169   0.556  1.2730  2.0156  0.0277
 1269SOL    HW213622   2.866   4.103   0.434  1.3247  2.5830 -0.2449
 1270SOL     OW13623   3.456   8.568   1.588 -0.5067 -0.4328  1.0250
 1270SOL    HW113624   3.417   8.525   1.669 -1.3643  0.4809  1.1057
 1270SOL    HW213625   3.419   8.525   1.506  0.3603 -1.3566  1.0998
 1271SOL     OW13626   3.021   0.560   1.161  0.2564  0.5702 -0.7202
 1271SOL    HW113627   3.058   0.652   1.149  1.3475  0.2693  0.3259
 1271SOL    HW213628   3.082   0.506   1.218 -2.1967  0.3112  1.7814
 1272SOL     OW13629   3.843   0.072   2.560  1.1558  0.4899 -0.2744
 1272SOL    HW113630   3.836   0.168   2.532  2.9244  1.3765  2.1160
 1272SOL    HW213631   3.938   0.052   2.585  0.9770 -2.1497 -1.6274
 1273SOL     OW13632   5.407   3.988   0.011  0.2971 -0.3569 -0.2170
 1273SOL    HW113633   5.409   3.889   0.025  1.5744 -0.4251 -0.8993
 1273SOL    HW213634   5.378   4.009  -0.083  0.3014 -0.0818 -0.1599
 1274SOL     OW13635   3.137   2.078   1.638  0.5030  0.3307  0.0938
 1274SOL    HW113636   3.082   2.142   1.691  0.6106  0.8374 -0.3963
 1274SOL    HW213637   3.178   2.010   1.699  1.2880  1.3910  0.7740
 1275SOL     OW13638   3.615   9.985   0.011  0.3921  0.2964  0.3830
 1275SOL    HW113639   3.571   9.903  -0.026  0.0615 -0.4198  2.3135
 1275SOL    HW213640   3.697  10.006  -0.042  1.0067 -1.8410  0.4612
 1276SOL     OW13641   2.352   3.459   1.969  0.1213  0.4503 -0.1666
 1276SOL    HW113642   2.410   3.472   1.889 -0.0618  1.0101 -0.2110
 1276SOL    HW213643   2.376   3.526   2.039  0.3616 -0.1113  0.2983
 1277SOL     OW13644   3.802   4.340   1.598  0.5707  0.2672 -0.5670
 1277SOL    HW113645   3.807   4.245   1.570  0.4898 -0.3048  1.2536
 1277SOL    HW213646   3.860   4.354   1.678 -0.9610  1.2716  0.3998
 1278SOL     OW13647   2.755   3.820   1.903 -0.0035 -0.1644  0.4477
 1278SOL    HW113648   2.847   3.860   1.898  0.1043 -0.4518  0.1253
 1278SOL    HW213649   2.725   3.819   1.999  0.7807 -1.0920  0.6934
 1279SOL     OW13650   3.624   9.982   0.290 -0.4119  0.3205  0.5648
 1279SOL    HW113651   3.695   9.914   0.270 -0.5426  0.0420  1.0513
 1279SOL    HW213652   3.594  10.024   0.204 -0.2235 -0.1298  0.2750
 1280SOL     OW13653   4.143   1.581   2.367 -0.3590  0.0871  0.3849
 1280SOL    HW113654   4.104   1.665   2.404  0.0621  0.3254  0.2922
 1280SOL    HW213655   4.137   1.508   2.435  0.2433  0.4706  0.8459
 1281SOL     OW13656   2.502   2.498   1.171 -0.5685 -0.2132 -0.5724
 1281SOL    HW113657   2.475   2.561   1.099 -0.4664 -2.6000 -2.7679
 1281SOL    HW213658   2.466   2.407   1.152  1.4310 -1.4306  1.1433
 1282SOL     OW13659   3.122   6.829   0.334  0.5589  0.3651 -0.2830
 1282SOL    HW113660   3.062   6.898   0.293  1.0573  1.1591  0.3158
 1282SOL    HW213661   3.217   6.847   0.308  0.8904  0.9206  1.2651
 1283SOL     OW13662   3.669   2.731   0.172  0.9051  0.3155 -0.1652
 1283SOL    HW113663   3.741   2.777   0.224  2.5232 -1.7239 -0.5586
 1283SOL    HW213664   3.591   2.713   0.231  1.2963  1.2391  0.6413
 1284SOL     OW13665   2.981   9.193   1.633  0.3000 -0.5684  0.2580
 1284SOL    HW113666   2.953   9.101   1.607  0.1252 -0.0423 -1.5260
 1284SOL    HW213667   3.081   9.201   1.629  0.4016 -1.0076  1.6119
 1285SOL     OW13668   4.120   2.336   2.612  0.8311  0.4758 -0.0804
 1285SOL    HW113669   4.159   2.408   2.555 -1.2456  2.9914  1.5432
 1285SOL    HW213670   4.182   2.316   2.687  0.5798  2.0418  0.5765
 1286SOL     OW13671   2.276   5.742   0.175 -0.3027 -0.0211 -0.5117
 1286SOL    HW113672   2.372   5.717   0.161 -0.6408 -2.5128  1.2503
 1286SOL    HW213673   2.218   5.683   0.119 -0.9142  0.1461 -0.0564
 1287SOL     OW13674   2.505   2.649   1.825 -0.3759 -0.0795 -0.1414
 1287SOL    HW113675   2.576   2.605   1.880  0.9404  1.9057 -0.2079
 1287SOL    HW213676   2.536   2.657   1.731 -2.5048 -3.2008 -1.2054
 1288SOL     OW13677   3.900   9.005   1.466 -0.0778  0.7144 -0.0772
 1288SOL    HW113678   3.873   9.015   1.562  0.6998  0.6961  0.1417
 1288SOL    HW213679   3.836   8.942   1.420  0.3116 -0.2982  0.7484
 1289SOL     OW13680   2.359   1.788   2.035  0.1413  0.0014 -0.0348
 1289SOL    HW113681   2.340   1.722   2.108  1.5813 -0.1671  0.2031
 1289SOL    HW213682   2.429   1.751   1.974 -1.5139 -0.1333 -1.9112
 1290SOL     OW13683   3.331   7.891   0.029  0.0859 -0.2006 -0.5845
 1290SOL    HW113684   3.380   7.976   0.009  0.5337 -0.4453 -0.5344
 1290SOL    HW213685   3.324   7.836  -0.054 -2.0089  0.7950 -1.1028
 1291SOL     OW13686   3.351   7.457   0.364 -0.5514 -0.0602 -0.5618
 1291SOL    HW113687   3.449   7.446   0.351 -0.1934  0.7216  1.2958
 1291SOL    HW213688   3.307   7.470   0.275  1.4095  2.4848 -1.2129
 1292SOL     OW13689   2.338   7.106   1.724 -0.1543  1.3553  0.2717
 1292SOL    HW113690   2.422   7.141   1.766 -0.2157  1.5296  0.2510
 1292SOL    HW213691   2.314   7.019   1.765 -0.4350  1.7144  0.8751
 1293SOL     OW13692   2.352   1.126   0.797  0.1587 -0.2180 -0.0450
 1293SOL    HW113693   2.299   1.138   0.713  0.4880 -0.8208 -0.3416
 1293SOL    HW213694   2.389   1.033   0.799  3.3975  0.9916 -1.1127
 1294SOL     OW13695   3.070   3.458   2.504 -0.4339 -0.0737  0.0929
 1294SOL    HW113696   3.052   3.544   2.552 -1.0424  0.5389 -1.2048
 1294SOL    HW213697   3.169   3.450   2.486 -0.2365 -0.2012  1.2372
 1295SOL     OW13698   3.606   4.373   2.026 -0.2000 -0.4042  0.2203
 1295SOL    HW113699   3.603   4.280   1.991 -2.3918 -0.0928 -0.4931
 1295SOL    HW213700   3.539   4.429   1.978  3.1717  2.3259 -1.5183
 1296SOL     OW13701   2.938   1.695   0.553 -0.1511 -0.3880 -0.2659
 1296SOL    HW113702   3.000   1.772   0.541  0.7701 -1.1892 -0.6472
 1296SOL    HW213703   2.907   1.692   0.648  1.7919 -1.0278  0.3684
 1297SOL     OW13704   4.510   0.876   0.434  0.0666  0.4595 -0.4995
 1297SOL    HW113705   4.470   0.960   0.469  0.5667  0.6328 -0.3340
 1297SOL    HW213706   4.558   0.829   0.509 -2.6445 -1.4336  0.1037
 1298SOL     OW13707   3.243   9.235   1.547  0.2395 -0.3526 -0.0787
 1298SOL    HW113708   3.256   9.327   1.510  1.1689 -0.6030 -0.3818
 1298SOL    HW213709   3.331   9.187   1.551 -0.2695 -1.3091 -0.1261
 1299SOL     OW13710   3.947   2.935   0.727  0.1078 -0.0143  0.7325
 1299SOL    HW113711   4.012   2.870   0.689 -0.4497  0.4099 -0.9979
 1299SOL    HW213712   3.996   3.016   0.760  0.3571  0.9400 -1.8921
 1300SOL     OW13713   3.101   1.718   2.306 -0.1444  0.2249  0.2316
 1300SOL    HW113714   3.140   1.781   2.239 -1.3722  0.4867 -0.2449
 1300SOL    HW213715   3.117   1.624   2.277  0.3327  0.3201  0.1694
 1301SOL     OW13716   2.161   7.973   0.205  0.9152 -0.1349  0.2317
 1301SOL    HW113717   2.111   7.887   0.213 -0.0516  0.4990  1.3626
 1301SOL    HW213718   2.258   7.958   0.225  1.0669 -1.2643 -1.3137
 1302SOL     OW13719   2.853   2.477   1.356 -0.5501 -0.0788  0.2344
 1302SOL    HW113720   2.923   2.534   1.400  1.5758 -3.1188  0.9023
 1302SOL    HW213721   2.854   2.494   1.258  2.3289 -1.3064  0.0186
 1303SOL     OW13722   3.392   4.001   2.674  0.2703  0.1733 -0.1103
 1303SOL    HW113723   3.389   3.901   2.671 -0.8281  0.1815  0.5184
 1303SOL    HW213724   3.480   4.030   2.712  0.1436 -0.5771  0.7766
 1304SOL     OW13725   3.217   2.870   0.732 -0.6148 -0.2566 -0.6689
 1304SOL    HW113726   3.269   2.785   0.731  1.0845  0.7129  1.4520
 1304SOL    HW213727   3.274   2.944   0.695 -1.7490  0.1626 -1.6202
 1305SOL     OW13728   3.009   0.990   0.801  0.3547 -0.3428  0.0312
 1305SOL    HW113729   3.027   0.980   0.899 -0.0382 -0.3728  0.1003
 1305SOL    HW213730   3.095   1.006   0.753  0.4926  0.2038  0.4487
 1306SOL     OW13731   3.312   9.326   0.970  0.3417 -0.4479 -0.0989
 1306SOL    HW113732   3.352   9.326   1.062 -1.5290  2.0362  0.7700
 1306SOL    HW213733   3.229   9.271   0.970  0.2366 -0.2893 -0.2568
 1307SOL     OW13734   3.592   1.006   0.645  0.2311 -0.0447 -0.0466
 1307SOL    HW113735   3.660   0.975   0.578  1.9838 -0.0686  1.7101
 1307SOL    HW213736   3.638   1.043   0.725 -1.8189 -0.7056  1.4932
 1308SOL     OW13737   3.970   8.939   0.125 -0.2728  0.3267 -0.3214
 1308SOL    HW113738   3.912   8.874   0.174  0.3298 -0.8572 -1.1663
 1308SOL    HW213739   4.064   8.930   0.157 -0.0900  0.4006 -0.8314
 1309SOL     OW13740   3.098   6.044   0.374  0.1809  0.1815  0.1711
 1309SOL    HW113741   3.123   6.044   0.471  1.0864 -1.1145 -0.0595
 1309SOL    HW213742   3.028   5.975   0.358  1.0157 -0.5437 -0.3513
 1310SOL     OW13743   4.085   1.549   0.254  0.3890 -0.2294  0.2161
 1310SOL    HW113744   4.000   1.521   0.299 -0.8150  2.8510 -0.0313
 1310SOL    HW213745   4.161   1.494   0.290 -1.3321 -1.4018  2.1808
 1311SOL     OW13746   3.822   4.665   2.532  0.3010  0.3457 -0.4437
 1311SOL    HW113747   3.833   4.715   2.618 -0.2991  0.8202 -0.6410
 1311SOL    HW213748   3.893   4.693   2.468  1.1296 -0.4665  0.1126
 1312SOL     OW13749   2.404   1.565   2.608  0.1893  0.3728  0.0614
 1312SOL    HW113750   2.370   1.574   2.702  0.6082  0.0162  0.2471
 1312SOL    HW213751   2.369   1.641   2.553  1.0358  1.3241  0.8187
 1313SOL     OW13752   3.878   3.510   0.025 -0.0295 -0.3356 -0.6959
 1313SOL    HW113753   3.841   3.431  -0.024  0.3960 -0.0136 -1.5513
 1313SOL    HW213754   3.806   3.551   0.081 -0.2014 -1.4301 -0.1154
 1314SOL     OW13755   3.337   0.269   0.905 -0.6592  0.3773  0.5882
 1314SOL    HW113756   3.256   0.294   0.958 -1.0860  1.1796 -0.4194
 1314SOL    HW213757   3.335   0.316   0.817 -0.5647 -1.8347 -0.6258
 1315SOL     OW13758   3.086   9.615   0.277 -0.2633 -0.0619 -0.1648
 1315SOL    HW113759   3.071   9.673   0.357 -1.5818  1.3769 -1.4179
 1315SOL    HW213760   3.115   9.524   0.307  0.9519  0.9533  1.8707
 1316SOL     OW13761   2.602   8.352   2.167 -0.7768 -0.0366 -0.3863
 1316SOL    HW113762   2.538   8.293   2.117 -0.6132 -0.3795 -0.1993
 1316SOL    HW213763   2.586   8.342   2.265 -0.7620  0.2480 -0.3560
 1317SOL     OW13764   3.470   9.381   1.988  0.2796  0.2247  0.0449
 1317SOL    HW113765   3.399   9.340   1.932  0.2083  0.3032  0.0782
 1317SOL    HW213766   3.513   9.457   1.938 -0.4892  0.9660  0.5063
 1318SOL     OW13767   2.394   3.884   0.200  0.2321 -0.1788 -0.2463
 1318SOL    HW113768   2.441   3.951   0.257  0.2750  0.5334 -1.1105
 1318SOL    HW213769   2.321   3.840   0.253  1.8987 -1.3431  1.1181
 1319SOL     OW13770   2.561   3.683   0.191 -0.2366  0.7633 -0.1236
 1319SOL    HW113771   2.654   3.717   0.208 -0.1319  0.3774  0.0917
 1319SOL    HW213772   2.495   3.756   0.210  0.0544  1.2024 -0.7998
 1320SOL     OW13773   3.337   2.893   0.152 -1.1004 -0.1089  0.0403
 1320SOL    HW113774   3.405   2.850   0.093 -0.3995  1.2139 -0.1510
 1320SOL    HW213775   3.256   2.917   0.098 -1.7175 -1.6694  0.2641
 1321SOL     OW13776   3.754   8.870   2.608 -0.5615  0.4472  0.5038
 1321SOL    HW113777   3.853   8.884   2.611 -0.6143  0.4838  2.5983
 1321SOL    HW213778   3.709   8.935   2.669 -1.9609  0.9887 -1.0739
 1322SOL     OW13779   1.871   4.685   2.233 -0.3083  0.4572 -0.5270
 1322SOL    HW113780   1.958   4.697   2.281 -0.3841  1.0401 -0.5336
 1322SOL    HW213781   1.863   4.591   2.201 -0.1812  0.1073  0.4641
 1323SOL     OW13782   2.775   8.447   0.793 -0.0282 -0.1213 -0.0107
 1323SOL    HW113783   2.691   8.490   0.826  1.3524  1.7980  1.1063
 1323SOL    HW213784   2.799   8.486   0.704  0.4779  0.4420  0.3672
 1324SOL     OW13785   3.039   1.461   0.834 -0.4550  0.0492  0.8465
 1324SOL    HW113786   3.105   1.386   0.837 -0.9862 -0.4343  0.4306
 1324SOL    HW213787   3.082   1.542   0.795 -0.6277 -0.7900 -1.1090
 1325SOL     OW13788   3.054   3.096   0.308  0.1337 -0.0946 -0.0211
 1325SOL    HW113789   3.039   3.004   0.345  0.2966  1.0611  3.0230
 1325SOL    HW213790   2.967   3.132   0.273  0.1018 -1.4531 -1.3754
 1326SOL     OW13791   3.631   5.259   0.394 -0.3099  0.1802 -0.0625
 1326SOL    HW113792   3.638   5.193   0.469 -0.0570 -0.9227 -1.0305
 1326SOL    HW213793   3.558   5.324   0.413  0.6037  0.7356  1.7549
 1327SOL     OW13794   2.276   6.330   1.606 -0.6110  0.0212 -0.0774
 1327SOL    HW113795   2.205   6.337   1.677 -2.2796  0.8432 -1.7683
 1327SOL    HW213796   2.282   6.235   1.575  0.5673 -0.4620  1.5811
 1328SOL     OW13797   3.214   2.349   1.494  0.3816 -0.3895  0.1717
 1328SOL    HW113798   3.119   2.327   1.516 -0.5317  1.9039 -1.3341
 1328SOL    HW213799   3.268   2.265   1.490 -1.6698 -1.7514  0.6045
 1329SOL     OW13800   4.044   8.954   2.563 -0.0869 -0.4257  0.1322
 1329SOL    HW113801   3.978   9.014   2.519 -1.8863 -1.5758  1.1993
 1329SOL    HW213802   4.026   8.950   2.661 -0.7373 -3.5669 -0.0572
 1330SOL     OW13803   2.767   2.887   1.937  0.5794  0.0491  0.0705
 1330SOL    HW113804   2.670   2.886   1.914  0.2203 -1.2080  1.5618
 1330SOL    HW213805   2.782   2.839   2.023  2.4987  0.4554 -0.0018
 1331SOL     OW13806   3.610   4.954   0.765 -0.1490  0.0735  0.2420
 1331SOL    HW113807   3.587   4.858   0.749  0.5404 -0.0515  0.0034
 1331SOL    HW213808   3.526   5.006   0.778 -0.6459 -0.1906 -1.7967
 1332SOL     OW13809   4.512   2.624   1.072  0.3696  0.4823 -0.7030
 1332SOL    HW113810   4.433   2.624   1.133  0.5694  1.3824 -0.4508
 1332SOL    HW213811   4.535   2.529   1.048  0.9404  0.0292  1.4673
 1333SOL     OW13812   2.570   9.586   2.491 -0.4078 -0.5486 -0.6665
 1333SOL    HW113813   2.573   9.496   2.448 -0.8440 -0.4284 -0.9558
 1333SOL    HW213814   2.624   9.650   2.437  0.5836 -0.8233 -0.0083
 1334SOL     OW13815   4.033   2.509   1.269  0.2815 -0.3204 -0.6956
 1334SOL    HW113816   3.995   2.558   1.347 -0.8690 -0.2437 -1.2810
 1334SOL    HW213817   4.083   2.429   1.300 -0.6601 -0.6131  0.0865
 1335SOL     OW13818   2.266   8.408   0.303 -0.1140 -0.1010 -0.3936
 1335SOL    HW113819   2.210   8.345   0.356  1.9927 -0.4359  1.5393
 1335SOL    HW213820   2.298   8.482   0.363  1.0179  0.3867 -1.5772
 1336SOL     OW13821   4.422   3.494   2.356 -0.2371  0.2097 -0.2305
 1336SOL    HW113822   4.352   3.508   2.426 -0.8147 -2.0045 -0.3238
 1336SOL    HW213823   4.468   3.406   2.371 -1.1163 -0.8340 -3.1893
 1337SOL     OW13824   2.573   4.659   2.639 -0.0195  0.1234  0.0920
 1337SOL    HW113825   2.632   4.579   2.650  0.0375 -0.0952 -1.5667
 1337SOL    HW213826   2.484   4.641   2.679  0.1040 -0.6500  0.0294
 1338SOL     OW13827   3.626   8.486   0.239 -0.9387  0.1148 -0.1782
 1338SOL    HW113828   3.627   8.499   0.140  0.4439  1.3247 -0.0214
 1338SOL    HW213829   3.549   8.537   0.278 -1.3940 -0.2388 -0.6034
 1339SOL     OW13830   3.353   4.638   1.422 -0.1375  0.7179  0.3252
 1339SOL    HW113831   3.388   4.700   1.492  0.1510 -0.3266  1.1126
 1339SOL    HW213832   3.253   4.644   1.418 -0.1825  0.4678  1.1184
 1340SOL     OW13833   4.357   2.074   2.259  0.1519 -0.5071  0.4518
 1340SOL    HW113834   4.314   2.066   2.349  1.4475  0.6681  1.1967
 1340SOL    HW213835   4.352   2.170   2.229 -1.1255 -1.0559 -1.1751
 1341SOL     OW13836   4.748   2.766   1.599 -0.6513 -0.2931  0.0705
 1341SOL    HW113837   4.846   2.779   1.620 -0.6164 -0.3076 -0.0830
 1341SOL    HW213838   4.715   2.683   1.643 -0.5027 -0.4856 -0.1818
 1342SOL     OW13839   3.027   8.168   2.562 -0.3585  0.2348 -0.4680
 1342SOL    HW113840   3.012   8.199   2.469  2.3335 -0.8587 -1.3181
 1342SOL    HW213841   3.030   8.068   2.564  1.6120  0.2717  0.3936
 1343SOL     OW13842   3.953   1.154   1.496  0.8418  0.1645 -0.5004
 1343SOL    HW113843   3.947   1.173   1.398  4.0525  0.2100 -0.7504
 1343SOL    HW213844   3.996   1.231   1.542 -1.4811  0.5377  1.1359
 1344SOL     OW13845   2.390   9.261   1.233  0.7065  0.3972 -0.0688
 1344SOL    HW113846   2.354   9.332   1.172  1.2333  0.7707  0.0543
 1344SOL    HW213847   2.486   9.281   1.255  0.3928  0.5036  1.2406
 1345SOL     OW13848   2.847   1.538   1.382  0.5147 -0.1276 -0.0767
 1345SOL    HW113849   2.920   1.605   1.370 -0.1100  0.3767 -1.1492
 1345SOL    HW213850   2.861   1.462   1.319 -0.1417  0.2071 -0.6377
 1346SOL     OW13851   2.227   6.233   0.479 -0.3981  0.7539 -0.3832
 1346SOL    HW113852   2.264   6.155   0.530 -0.1197  1.2801  0.2265
 1346SOL    HW213853   2.129   6.221   0.465 -0.4867  0.6550  0.3549
 1347SOL     OW13854   2.427   6.471   1.410  0.1859 -0.3032  0.2915
 1347SOL    HW113855   2.344   6.430   1.445 -0.8638  1.9713  0.5768
 1347SOL    HW213856   2.469   6.528   1.481 -0.5405  2.2264 -1.2326
 1348SOL     OW13857   4.148   3.791   1.034 -0.0588 -0.6143 -0.8008
 1348SOL    HW113858   4.235   3.809   0.987  0.7751 -0.0050  0.9516
 1348SOL    HW213859   4.109   3.705   0.999  0.1973  0.1479 -3.0619
 1349SOL     OW13860   2.516   5.652   1.910  0.8013 -0.7613 -0.3229
 1349SOL    HW113861   2.548   5.670   2.003  0.7231 -0.2782 -0.3868
 1349SOL    HW213862   2.579   5.590   1.864  1.1216 -0.5857 -0.1213
 1350SOL     OW13863   2.954   4.128   2.135 -0.0554  0.1370 -0.1369
 1350SOL    HW113864   2.975   4.063   2.063 -1.0713  0.8991 -1.1508
 1350SOL    HW213865   2.908   4.081   2.210  0.2559 -0.5127 -0.3525
 1351SOL     OW13866   2.774   2.262   0.279 -0.0482  0.5324 -0.1109
 1351SOL    HW113867   2.680   2.234   0.259  0.5317 -1.2537 -0.4223
 1351SOL    HW213868   2.838   2.202   0.231  1.2604  2.1597 -0.4585
 1352SOL     OW13869   2.540   8.209   0.521 -0.3460 -0.2623  0.2724
 1352SOL    HW113870   2.506   8.262   0.444 -0.5087  1.2199  1.3448
 1352SOL    HW213871   2.584   8.126   0.487 -0.3059  0.4206 -1.4118
 1353SOL     OW13872   3.085   3.443   0.095  0.4851  0.2783 -0.1469
 1353SOL    HW113873   3.170   3.469   0.141 -0.3515 -1.1042  2.2498
 1353SOL    HW213874   3.035   3.525   0.068  1.4731  1.0974  0.4825
 1354SOL     OW13875   2.392   7.728   1.591  0.8585 -0.0222 -0.4490
 1354SOL    HW113876   2.387   7.722   1.691 -0.4331  1.2707 -0.4099
 1354SOL    HW213877   2.435   7.646   1.555  0.2646 -1.0495  1.0972
 1355SOL     OW13878   3.451   1.553   0.794  0.2318  0.0607 -0.4533
 1355SOL    HW113879   3.455   1.461   0.754 -0.7172 -0.3756  0.4424
 1355SOL    HW213880   3.426   1.547   0.890  1.2866  1.1999 -0.0990
 1356SOL     OW13881   2.943   4.730   0.214  0.3106  0.8247 -0.4764
 1356SOL    HW113882   2.866   4.787   0.186 -0.6468 -0.6026 -0.8271
 1356SOL    HW213883   3.009   4.724   0.140 -0.1892  0.4680 -0.8968
 1357SOL     OW13884   2.681   3.789   0.606 -0.3746 -0.2423 -0.3101
 1357SOL    HW113885   2.741   3.839   0.669 -0.8950 -1.3319  1.0602
 1357SOL    HW213886   2.712   3.805   0.512  1.5577 -0.0996  0.3172
 1358SOL     OW13887   3.835   4.532   0.494 -0.2378 -0.1031 -0.4810
 1358SOL    HW113888   3.746   4.496   0.523 -0.5180  0.0981 -1.0863
 1358SOL    HW213889   3.846   4.625   0.529 -0.2409 -0.1494 -0.3548
 1359SOL     OW13890   2.434   9.001   1.282  0.3758  0.7416  0.0347
 1359SOL    HW113891   2.378   8.939   1.227  0.1187  0.4272  0.6478
 1359SOL    HW213892   2.407   9.095   1.263 -0.7701  0.5681  0.7603
 1360SOL     OW13893   2.652   9.554   0.961  0.3908 -0.1487 -0.4313
 1360SOL    HW113894   2.577   9.593   0.907 -0.2513 -0.9633 -0.1363
 1360SOL    HW213895   2.652   9.596   1.052  0.3158 -0.1211 -0.4432
 1361SOL     OW13896   3.481   8.654   1.988 -0.7743  0.2673 -0.2080
 1361SOL    HW113897   3.536   8.577   1.957  0.9735  0.6280  1.8766
 1361SOL    HW213898   3.386   8.626   1.997 -0.0119 -1.9040  1.3785
 1362SOL     OW13899   3.443   2.000   2.604 -0.0924  0.2419 -0.1820
 1362SOL    HW113900   3.346   2.005   2.627  0.3405 -0.6083  1.9499
 1362SOL    HW213901   3.481   1.915   2.640  1.6698  1.0339 -0.1448
 1363SOL     OW13902   5.016   1.912   2.627  0.0562 -0.1022  0.2878
 1363SOL    HW113903   5.085   1.899   2.697  1.1194 -1.5826 -1.0145
 1363SOL    HW213904   5.028   2.002   2.584 -0.0998  0.4680  1.4229
 1364SOL     OW13905   3.997   2.310   0.336  0.0016 -0.6256  0.1725
 1364SOL    HW113906   3.971   2.384   0.273  1.0301  0.3532  0.8841
 1364SOL    HW213907   3.927   2.239   0.334 -1.1511  0.5025 -0.2996
 1365SOL     OW13908   3.230   1.983   1.382 -0.2928  0.4683  0.3075
 1365SOL    HW113909   3.196   1.993   1.476 -0.8999  0.4778  0.0852
 1365SOL    HW213910   3.315   2.034   1.372  0.6576 -0.8688  1.3242
 1366SOL     OW13911   3.094   1.483   0.485 -0.1081 -0.1490 -0.3011
 1366SOL    HW113912   3.039   1.412   0.440  0.2365 -0.7960  0.2814
 1366SOL    HW213913   3.039   1.565   0.499 -1.7425 -1.6963  2.6792
 1367SOL     OW13914   3.412   4.484   0.309 -0.4318 -0.2632  0.8313
 1367SOL    HW113915   3.367   4.483   0.398 -0.1929 -0.1093  0.9559
 1367SOL    HW213916   3.484   4.415   0.306 -2.0122 -1.9258 -0.0808
 1368SOL     OW13917   3.199   4.949   1.363  0.3094  0.1793  0.5441
 1368SOL    HW113918   3.286   4.971   1.407 -0.4699  0.5461  1.9430
 1368SOL    HW213919   3.176   5.022   1.298  0.9291  0.1854  0.3215
 1369SOL     OW13920   2.374   0.909   1.993  0.3831  0.3138 -0.2108
 1369SOL    HW113921   2.361   0.959   1.908 -1.1681 -1.1719 -0.8782
 1369SOL    HW213922   2.353   0.970   2.070 -1.5775  0.7091 -1.0066
 1370SOL     OW13923   2.504   6.931   1.008  0.3243  0.7823 -0.1086
 1370SOL    HW113924   2.537   7.019   0.976 -0.0060  1.7198  2.0618
 1370SOL    HW213925   2.407   6.937   1.030  0.4437  0.0823  0.6715
 1371SOL     OW13926   2.474   3.831   2.025  0.1240 -0.2176 -0.0526
 1371SOL    HW113927   2.507   3.763   2.091 -0.5495 -0.0061  0.5036
 1371SOL    HW213928   2.488   3.923   2.062  1.3840 -0.0259 -0.9625
 1372SOL     OW13929   4.021   3.255   0.794 -0.4303  0.1531  0.5736
 1372SOL    HW113930   4.112   3.295   0.794 -0.1286 -0.5064 -0.6994
 1372SOL    HW213931   3.965   3.300   0.724 -0.5620 -0.5971  0.1962
 1373SOL     OW13932   3.956   9.275   1.472 -0.1907  0.1490  0.5817
 1373SOL    HW113933   3.928   9.180   1.487  0.3826 -0.0377  0.4911
 1373SOL    HW213934   4.023   9.279   1.398  0.9673  0.4294  1.6207
 1374SOL     OW13935   3.572   3.181   0.991  0.1727 -0.0349 -0.3377
 1374SOL    HW113936   3.615   3.260   1.036 -0.1557 -0.5658  0.9494
 1374SOL    HW213937   3.495   3.149   1.047 -0.3232 -0.6430 -1.3579
 1375SOL     OW13938   3.490   2.485   1.148  0.1784  0.5983 -0.2245
 1375SOL    HW113939   3.460   2.558   1.086  1.5784 -0.6924 -2.5031
 1375SOL    HW213940   3.550   2.523   1.218 -2.4213  2.3018  1.1862
 1376SOL     OW13941   4.384   2.659   0.153  0.3471 -0.1104 -0.2301
 1376SOL    HW113942   4.450   2.683   0.224  0.0935 -0.1476  0.0211
 1376SOL    HW213943   4.349   2.566   0.170  3.6976 -2.0013 -2.9696
 1377SOL     OW13944   2.409   4.331   2.029 -0.4732 -0.0799  0.5529
 1377SOL    HW113945   2.418   4.373   1.938  0.4346 -0.6327  0.3786
 1377SOL    HW213946   2.498   4.293   2.057 -0.2491  1.7766  2.5097
 1378SOL     OW13947   3.406   0.455   0.063  0.0848  0.3146  0.3410
 1378SOL    HW113948   3.457   0.374   0.037  1.2578  1.1187  0.0911
 1378SOL    HW213949   3.372   0.501  -0.020 -0.5213  0.1076  0.4764
 1379SOL     OW13950   4.074   2.734   2.045  0.0828 -0.0180  0.0144
 1379SOL    HW113951   4.058   2.782   1.958  3.0832 -2.1339 -1.8143
 1379SOL    HW213952   4.073   2.800   2.120 -1.7469  1.9879 -1.6926
 1380SOL     OW13953   3.062   9.031   0.661 -0.4232  0.1419 -0.3981
 1380SOL    HW113954   3.161   9.039   0.671 -0.4627 -0.7355  0.9630
 1380SOL    HW213955   3.039   8.936   0.639 -0.9267  0.4602 -1.2508
 1381SOL     OW13956   4.073   3.097   1.030  0.2239  0.1514  1.2925
 1381SOL    HW113957   4.042   3.160   0.958 -0.3916  0.4239  1.7909
 1381SOL    HW213958   4.057   3.138   1.120  2.9276  0.7199  1.5615
 1382SOL     OW13959   3.763   1.348   0.630 -0.2174  0.0513  0.4405
 1382SOL    HW113960   3.824   1.271   0.614 -0.9219  0.1120 -2.7649
 1382SOL    HW213961   3.668   1.316   0.635 -0.6517  0.8161 -2.2586
 1383SOL     OW13962   2.661   0.114   1.919  0.1604  0.0093  0.0442
 1383SOL    HW113963   2.648   0.053   1.997  0.3680  1.7943  1.5044
 1383SOL    HW213964   2.758   0.133   1.907  0.0293  0.7275  0.1195
 1384SOL     OW13965   2.059   7.444   1.115  0.2757 -0.3455 -0.0062
 1384SOL    HW113966   1.972   7.395   1.109  0.3844 -1.0635  3.2398
 1384SOL    HW213967   2.068   7.484   1.206  1.9386  2.4709 -1.3493
 1385SOL     OW13968   3.087   0.977   0.415 -0.1947  0.1466  0.5517
 1385SOL    HW113969   3.008   1.012   0.364  0.9599  1.6188 -0.2486
 1385SOL    HW213970   3.154   0.941   0.351  0.4395  0.2685  1.1470
 1386SOL     OW13971   4.152   3.470   1.913  0.0532  0.4495  0.6518
 1386SOL    HW113972   4.197   3.406   1.850 -1.2039  0.4565 -0.2684
 1386SOL    HW213973   4.149   3.429   2.004  0.1415 -0.4054  0.2842
 1387SOL     OW13974   3.074   9.232   2.049 -0.3599 -0.5683  0.4431
 1387SOL    HW113975   2.977   9.221   2.026 -0.6845  0.5958  1.2120
 1387SOL    HW213976   3.124   9.151   2.021 -1.3234 -0.6038 -1.2383
 1388SOL     OW13977   2.257   2.809   1.605  0.0722 -0.0713  0.0005
 1388SOL    HW113978   2.269   2.751   1.686 -2.0042 -0.7704 -0.1664
 1388SOL    HW213979   2.213   2.757   1.532  1.1263  0.8079 -1.2957
 1389SOL     OW13980   4.148   3.061   2.251  0.3403  0.0557 -0.0384
 1389SOL    HW113981   4.148   3.069   2.151  1.4198 -0.2308 -0.0670
 1389SOL    HW213982   4.242   3.067   2.285  0.0203 -0.3159  0.9208
 1390SOL     OW13983   2.067   7.561   1.386 -0.0166  0.3430  0.1190
 1390SOL    HW113984   2.002   7.548   1.462  0.3054 -1.0009  0.1720
 1390SOL    HW213985   2.136   7.629   1.413 -1.1362  1.4637  0.2257
 1391SOL     OW13986   3.382   1.987   0.229 -0.3035 -0.7748  0.3795
 1391SOL    HW113987   3.405   2.019   0.137 -0.1415 -0.5915  0.4825
 1391SOL    HW213988   3.353   2.066   0.284  0.5942 -0.7299  0.7886
 1392SOL     OW13989   3.001   5.471   1.828  0.2464 -0.1489  0.1386
 1392SOL    HW113990   3.096   5.454   1.855  0.7296  0.8967 -0.8560
 1392SOL    HW213991   3.000   5.519   1.741 -1.1878  0.7014  0.6144
 1393SOL     OW13992   3.548   9.636   0.151  0.3086 -0.1254  0.1042
 1393SOL    HW113993   3.474   9.689   0.112  0.1047  0.1208  0.8157
 1393SOL    HW213994   3.576   9.676   0.239 -1.5422 -2.6062  1.8933
 1394SOL     OW13995   2.644   4.467   2.388  0.2113  0.0702  0.1494
 1394SOL    HW113996   2.717   4.466   2.455  0.5981  0.4300 -0.2633
 1394SOL    HW213997   2.614   4.561   2.371 -0.0874 -0.0419  0.0409
 1395SOL     OW13998   2.724   3.495   2.511  0.2859 -0.0049 -0.2348
 1395SOL    HW113999   2.633   3.501   2.551  0.3217  1.4843 -0.3318
 1395SOL    HW214000   2.736   3.407   2.465  0.0229 -1.4880  2.4723
 1396SOL     OW14001   2.498   1.931   1.030  0.3667 -0.4165 -0.0198
 1396SOL    HW114002   2.439   1.856   1.001  2.7248 -1.4551 -2.3646
 1396SOL    HW214003   2.528   1.982   0.949  1.6206  0.8899  1.2448
 1397SOL     OW14004   3.350   3.449   1.685 -0.9251  0.4483  0.4139
 1397SOL    HW114005   3.343   3.492   1.775 -3.4639  2.0558 -0.4933
 1397SOL    HW214006   3.434   3.479   1.640 -0.3226  0.7091  1.7092
 1398SOL     OW14007   3.106   3.551   2.244  0.1079 -0.2721  0.6679
 1398SOL    HW114008   3.102   3.484   2.318  0.2005  0.7615  1.6152
 1398SOL    HW214009   3.016   3.562   2.204 -0.0869 -0.3055  1.0998
 1399SOL     OW14010   4.170   2.109   2.463  0.0076 -0.4295  0.1469
 1399SOL    HW114011   4.131   2.176   2.526 -0.2519 -1.0324  0.6265
 1399SOL    HW214012   4.176   2.020   2.508  0.1747 -0.7741 -0.5513
 1400SOL     OW14013   3.294   0.631   0.523 -0.1617  0.1105 -0.6919
 1400SOL    HW114014   3.275   0.645   0.426 -0.7636 -0.0947 -0.6042
 1400SOL    HW214015   3.261   0.709   0.575  0.3001  0.2910 -0.6657
 1401SOL     OW14016   2.792   3.142   2.609 -0.3903  0.6101  0.2580
 1401SOL    HW114017   2.821   3.170   2.700  0.7155 -1.2654  0.5118
 1401SOL    HW214018   2.754   3.049   2.613 -0.1270  0.4208 -1.2226
 1402SOL     OW14019   3.894   4.740   1.051  0.2238  0.1551  0.6676
 1402SOL    HW114020   3.986   4.757   1.016 -0.0099 -1.3057 -0.7163
 1402SOL    HW214021   3.895   4.659   1.109 -0.0728  0.4729  1.1132
 1403SOL     OW14022   2.812   2.139   1.031  0.4487 -0.6082  0.1163
 1403SOL    HW114023   2.767   2.067   1.084 -1.2887 -0.1512 -0.6945
 1403SOL    HW214024   2.892   2.173   1.081  0.0710 -1.6431  1.4507
 1404SOL     OW14025   4.393   3.872   2.510 -0.5781 -0.4565  0.2919
 1404SOL    HW114026   4.349   3.860   2.599  1.9933  1.5095  1.8979
 1404SOL    HW214027   4.471   3.809   2.503  0.1816  0.4965  0.0912
 1405SOL     OW14028   4.211   2.861   1.012 -0.4743 -0.0544  0.3475
 1405SOL    HW114029   4.160   2.947   1.021 -0.0736  0.1820  0.4021
 1405SOL    HW214030   4.309   2.882   1.006 -0.5530 -0.3376 -2.1870
 1406SOL     OW14031   4.436   1.572   2.330 -0.7003 -0.6454 -0.2241
 1406SOL    HW114032   4.454   1.666   2.299  0.3396 -0.9603 -0.6064
 1406SOL    HW214033   4.369   1.574   2.404 -1.1065  0.3530 -0.6041
 1407SOL     OW14034   2.667   9.202   1.334 -0.0813 -0.3145  0.1114
 1407SOL    HW114035   2.721   9.121   1.359 -0.2206 -0.9046 -1.3932
 1407SOL    HW214036   2.678   9.219   1.236  1.6302  2.7538  0.7560
 1408SOL     OW14037   3.785   8.719   0.192  0.1629  0.1978 -0.3855
 1408SOL    HW114038   3.830   8.684   0.109  0.7332 -0.4081  0.1630
 1408SOL    HW214039   3.750   8.642   0.245 -0.2493  0.5853 -0.0974
 1409SOL     OW14040   2.997   1.833   0.957  0.5665  0.6063  0.7450
 1409SOL    HW114041   3.062   1.772   0.913  3.2108  2.3483  2.0738
 1409SOL    HW214042   2.960   1.897   0.890 -0.5747 -1.0214 -0.2160
 1410SOL     OW14043   2.942   1.267   0.385  0.7584  0.4103 -0.2336
 1410SOL    HW114044   2.923   1.246   0.481 -0.7221  3.2713  0.1627
 1410SOL    HW214045   2.914   1.190   0.328 -1.8711  0.1278  1.3418
 1411SOL     OW14046   3.820   3.844   2.449  0.5321  0.7547  0.0783
 1411SOL    HW114047   3.750   3.790   2.402  2.4461 -1.5126 -0.2353
 1411SOL    HW214048   3.814   3.828   2.547  1.3820 -0.3588 -0.0540
 1412SOL     OW14049   3.645   2.785   1.219  0.1251  0.9163  0.2846
 1412SOL    HW114050   3.572   2.811   1.156 -0.0455 -0.2082  0.0199
 1412SOL    HW214051   3.734   2.800   1.176  0.0173  0.5607 -0.0590
 1413SOL     OW14052   3.722   2.452   0.878 -0.0078 -0.2236 -0.3894
 1413SOL    HW114053   3.662   2.382   0.916  0.3285 -0.0271  0.5217
 1413SOL    HW214054   3.809   2.450   0.926 -0.3892  1.5575  0.4282
 1414SOL     OW14055   2.583   2.372   1.435  0.5225 -0.4330 -0.6204
 1414SOL    HW114056   2.678   2.386   1.405  0.0112 -0.9056 -2.5171
 1414SOL    HW214057   2.521   2.387   1.358 -0.9446 -0.2955  0.5638
 1415SOL     OW14058   2.345   7.413   1.296 -0.1384  0.3232  0.3216
 1415SOL    HW114059   2.264   7.468   1.274 -1.0404 -1.3078 -0.6086
 1415SOL    HW214060   2.317   7.335   1.352  0.4845 -1.1343 -1.3251
 1416SOL     OW14061   3.323   2.554   1.354 -0.3316 -0.4570 -0.0327
 1416SOL    HW114062   3.262   2.481   1.385  0.3886 -1.1241 -0.1689
 1416SOL    HW214063   3.388   2.517   1.288  0.2448  0.2420  0.1357
 1417SOL     OW14064   2.675   0.498   1.599  0.1451 -0.0701  0.0876
 1417SOL    HW114065   2.638   0.449   1.679  0.0808 -0.0463  0.0723
 1417SOL    HW214066   2.626   0.468   1.517 -1.0365  1.2323  0.2983
 1418SOL     OW14067   3.971   0.040   1.906  0.5800 -0.4676 -0.2709
 1418SOL    HW114068   3.936   0.130   1.878 -0.6829 -0.0652  2.4280
 1418SOL    HW214069   3.917  -0.031   1.863  1.3082  0.0450 -2.0882
 1419SOL     OW14070   4.066   4.695   0.650  0.0945 -0.0001  0.2438
 1419SOL    HW114071   3.972   4.693   0.683 -0.1066 -0.7954 -0.3692
 1419SOL    HW214072   4.081   4.778   0.597 -0.3940 -0.1085 -0.0601
 1420SOL     OW14073   3.928   2.872   1.112 -0.1842  0.5942  0.1339
 1420SOL    HW114074   3.969   2.827   1.032  0.3187 -0.0572  0.7482
 1420SOL    HW214075   3.958   2.967   1.116 -0.1264  0.5991 -0.3940
 1421SOL     OW14076   3.484   1.095   2.015  0.2103 -0.1513 -0.3187
 1421SOL    HW114077   3.524   1.155   2.084  2.9949 -1.0213 -1.1038
 1421SOL    HW214078   3.553   1.073   1.946 -2.3939  0.4303 -3.2311
 1422SOL     OW14079   3.851   4.357   2.377 -0.0763  0.2417 -0.2874
 1422SOL    HW114080   3.838   4.404   2.290  0.9724  1.2534  0.0845
 1422SOL    HW214081   3.796   4.402   2.448 -0.0113  0.1498 -0.1778
 1423SOL     OW14082   2.506   1.967   0.652  0.4851 -0.0285 -0.6535
 1423SOL    HW114083   2.431   1.940   0.712  0.7210 -0.5903 -0.6104
 1423SOL    HW214084   2.545   1.886   0.608 -0.5676  0.5012 -2.6059
 1424SOL     OW14085   2.605   4.257   0.059 -0.2350 -0.3679  0.2177
 1424SOL    HW114086   2.672   4.325   0.089  0.7179 -1.9175  1.6686
 1424SOL    HW214087   2.650   4.167   0.052 -2.0183 -1.2986  0.5890
 1425SOL     OW14088   4.889   3.576   0.962 -0.7721 -0.1285  0.6823
 1425SOL    HW114089   4.836   3.541   1.040  0.4552 -0.9468  1.1629
 1425SOL    HW214090   4.975   3.615   0.996  0.0022 -0.9607 -0.3088
 1426SOL     OW14091   4.956   4.259   0.147 -0.4239 -0.7632 -0.3202
 1426SOL    HW114092   5.052   4.230   0.143 -0.8550 -2.1982 -0.5359
 1426SOL    HW214093   4.932   4.307   0.062 -0.4533 -2.2494 -1.1853
 1427SOL     OW14094   3.800   8.917   0.475  0.5560  0.1333  0.0641
 1427SOL    HW114095   3.704   8.936   0.455  0.3716  0.0982  0.8996
 1427SOL    HW214096   3.819   8.820   0.461  0.2281 -0.0462  0.8253
 1428SOL     OW14097   3.437   9.713   2.033  0.4543 -0.3538 -0.1533
 1428SOL    HW114098   3.364   9.650   2.060 -0.7984  0.7893 -0.8242
 1428SOL    HW214099   3.475   9.683   1.946  0.3838 -0.6182 -0.0958
 1429SOL     OW14100   3.516   8.199   0.509  0.1193 -0.1823  0.4836
 1429SOL    HW114101   3.496   8.101   0.500  0.1736 -0.2820  1.3912
 1429SOL    HW214102   3.611   8.216   0.483  0.1557 -0.3921  0.4777
 1430SOL     OW14103   3.453   1.788   1.414  0.4795 -0.1263 -0.0427
 1430SOL    HW114104   3.371   1.844   1.404  0.7856  0.0715 -1.5858
 1430SOL    HW214105   3.437   1.698   1.373  1.1480  0.0323 -0.6557
 1431SOL     OW14106   2.883   3.493   1.799 -0.2475 -0.1055 -0.0558
 1431SOL    HW114107   2.966   3.462   1.846 -0.5249 -0.8978 -0.0866
 1431SOL    HW214108   2.866   3.434   1.720 -2.3251 -1.6043  1.4868
 1432SOL     OW14109   3.431   7.908   0.505  0.0195  0.1845  0.3121
 1432SOL    HW114110   3.418   7.810   0.492 -0.4226  0.2198  0.4583
 1432SOL    HW214111   3.427   7.930   0.603  2.7017  0.0028  0.5013
 1433SOL     OW14112   2.906   8.058   0.911 -0.1787 -0.5956 -0.5726
 1433SOL    HW114113   2.872   8.098   0.826  1.6679  0.3268 -0.9045
 1433SOL    HW214114   2.863   8.104   0.988  0.0148  0.3084 -0.9898
 1434SOL     OW14115   3.049   0.334   0.989  0.0250  0.2235 -0.2779
 1434SOL    HW114116   3.036   0.417   1.044  0.1355  0.0649 -0.0131
 1434SOL    HW214117   3.038   0.356   0.892  0.9778  0.7330 -0.2719
 1435SOL     OW14118   2.951  10.000   2.148 -0.2589  0.1009  0.0462
 1435SOL    HW114119   3.049   9.986   2.132 -0.4013  1.3345 -2.0360
 1435SOL    HW214120   2.934  10.006   2.246  1.3828 -2.6846  0.5517
 1436SOL     OW14121   3.500   1.240   0.602 -0.6530  0.4797  0.2781
 1436SOL    HW114122   3.534   1.150   0.629 -1.0573  0.0814 -0.5360
 1436SOL    HW214123   3.515   1.254   0.504 -2.8106  0.2967 -0.1044
 1437SOL     OW14124   2.581   3.640   1.027  0.1300  0.3392  0.9407
 1437SOL    HW114125   2.515   3.589   1.082  0.5794 -2.1064 -0.7211
 1437SOL    HW214126   2.673   3.606   1.043  0.4244  0.5231 -0.2862
 1438SOL     OW14127   3.599   9.129   1.950  0.6587  0.3150  0.1269
 1438SOL    HW114128   3.559   9.220   1.963  1.3956  0.6759 -0.1119
 1438SOL    HW214129   3.531   9.060   1.974  1.0262  0.9219  3.1849
 1439SOL     OW14130   3.540   5.081   1.660  0.2959 -0.5236 -0.1355
 1439SOL    HW114131   3.629   5.099   1.618 -0.0766 -1.7577 -1.4707
 1439SOL    HW214132   3.550   5.083   1.760  1.1728  2.4455 -0.2309
 1440SOL     OW14133   3.013   7.016   0.978 -0.3759 -0.1133 -0.1398
 1440SOL    HW114134   2.939   7.030   0.913 -0.4541 -0.1770 -0.0634
 1440SOL    HW214135   3.065   6.934   0.953  0.7747  0.9143 -1.2495
 1441SOL     OW14136   4.247   2.236   0.404 -0.0948  0.4547 -0.3688
 1441SOL    HW114137   4.219   2.199   0.492 -0.9866  2.8657  0.4044
 1441SOL    HW214138   4.167   2.271   0.355  0.7139  1.5104 -0.9653
 1442SOL     OW14139   2.585   3.520   1.483  0.2118  0.8209  0.8420
 1442SOL    HW114140   2.659   3.570   1.436  2.0183 -1.4683  1.1655
 1442SOL    HW214141   2.541   3.581   1.549  3.4626  1.5610  2.4258
 1443SOL     OW14142   3.073   0.312   2.293  0.1128 -0.0633  0.1264
 1443SOL    HW114143   3.025   0.397   2.271 -1.5808 -0.8528  0.6825
 1443SOL    HW214144   3.116   0.276   2.211 -1.1553  0.1037 -0.6154
 1444SOL     OW14145   2.308   5.897   2.041 -0.3366 -0.3080 -0.1354
 1444SOL    HW114146   2.378   5.912   1.971  0.7802  0.1215  1.0512
 1444SOL    HW214147   2.264   5.984   2.064 -2.2467 -0.7864 -1.8685
 1445SOL     OW14148   2.446   4.014   1.827  0.2918  0.4344  0.0856
 1445SOL    HW114149   2.415   3.946   1.894 -0.8637  1.0331  0.1659
 1445SOL    HW214150   2.512   4.075   1.870 -0.5852  0.9365  0.7623
 1446SOL     OW14151   3.314   1.359   1.949  0.4061  0.2013  0.1841
 1446SOL    HW114152   3.373   1.279   1.960  0.4912  0.4269  1.4327
 1446SOL    HW214153   3.260   1.349   1.865  0.5783 -1.0653  0.2109
 1447SOL     OW14154   3.766   0.170   0.547  0.8739  0.0328  0.4009
 1447SOL    HW114155   3.725   0.080   0.553  0.9880 -0.0365  0.1340
 1447SOL    HW214156   3.835   0.171   0.475  1.5888  0.0435  1.0685
 1448SOL     OW14157   3.050   9.992   2.665 -0.2313  0.4123  0.0266
 1448SOL    HW114158   3.140  10.007   2.623  0.9561 -2.3307  1.4595
 1448SOL    HW214159   3.053  10.023   2.760 -1.0945  1.1973 -0.2042
 1449SOL     OW14160   4.363   3.629   0.425 -0.0280  0.6953  0.3756
 1449SOL    HW114161   4.270   3.616   0.390  0.4110  0.5176 -0.7631
 1449SOL    HW214162   4.369   3.714   0.476 -0.7860  0.7735  0.3337
 1450SOL     OW14163   2.729   4.009   2.639  0.4416 -0.0705 -0.4960
 1450SOL    HW114164   2.816   4.050   2.615  1.5159 -0.9055  1.8198
 1450SOL    HW214165   2.726   3.914   2.606  1.1271 -0.5848  0.8601
 1451SOL     OW14166   4.155   2.523   2.406  0.0194  0.0243  0.2936
 1451SOL    HW114167   4.182   2.482   2.319 -0.0479  0.7288 -0.0658
 1451SOL    HW214168   4.168   2.622   2.402 -1.1499  0.2034  0.6502
 1452SOL     OW14169   2.500   3.413   1.253 -0.1806  1.1179  0.1017
 1452SOL    HW114170   2.436   3.485   1.225  1.3505  2.2781 -0.4840
 1452SOL    HW214171   2.550   3.443   1.334  0.1478  0.5269  0.1148
 1453SOL     OW14172   4.342   2.960   1.814 -0.0964  0.4366 -0.1698
 1453SOL    HW114173   4.334   2.990   1.719  1.2287 -1.2021 -0.8163
 1453SOL    HW214174   4.274   2.890   1.833  0.5467 -0.2475 -0.3386
 1454SOL     OW14175   4.466   2.706   2.588  0.3556 -0.2633 -0.1750
 1454SOL    HW114176   4.553   2.754   2.604  0.5483 -0.6861  0.0682
 1454SOL    HW214177   4.415   2.701   2.674 -0.2309  0.6067 -0.4704
 1455SOL     OW14178   2.583   3.381   0.163 -0.2208  0.5125 -0.5474
 1455SOL    HW114179   2.659   3.380   0.228 -0.0361  0.8487 -0.7540
 1455SOL    HW214180   2.560   3.475   0.140  0.8459  0.3897 -2.2485
 1456SOL     OW14181   3.637   3.295   2.116  0.1286 -0.3502  0.2193
 1456SOL    HW114182   3.724   3.251   2.096  0.0147  0.2648 -1.6754
 1456SOL    HW214183   3.637   3.388   2.080 -0.2964  0.6379  2.6366
 1457SOL     OW14184   2.503   4.724   1.703  0.7603  0.7271 -0.0763
 1457SOL    HW114185   2.529   4.780   1.624 -1.8113 -0.5874 -1.9465
 1457SOL    HW214186   2.524   4.628   1.683  0.8530  0.4760  1.1990
 1458SOL     OW14187   3.887   0.062   0.836 -0.5216  0.7795  0.0206
 1458SOL    HW114188   3.880   0.075   0.738 -0.4347 -0.1723 -0.1201
 1458SOL    HW214189   3.883   0.150   0.883 -0.3738  1.2425 -0.8466
 1459SOL     OW14190   3.712   9.476   0.504 -0.1559  0.6905  0.0796
 1459SOL    HW114191   3.810   9.489   0.496 -0.5095  2.4709 -1.8657
 1459SOL    HW214192   3.688   9.457   0.599  2.0000  0.6593  0.6323
 1460SOL     OW14193   3.428   9.304   0.462  0.2763 -0.0446 -0.4846
 1460SOL    HW114194   3.409   9.284   0.366 -0.2614 -0.2460 -0.3340
 1460SOL    HW214195   3.527   9.299   0.477  0.4146  0.5175 -1.1447
 1461SOL     OW14196   3.182   8.936   2.210  0.1197 -0.1924  0.0455
 1461SOL    HW114197   3.088   8.919   2.237  0.6662 -2.4173  0.6006
 1461SOL    HW214198   3.218   9.013   2.264 -0.7452 -0.5911  1.2148
 1462SOL     OW14199   3.851   2.281   2.665  0.4910  0.7711 -0.8332
 1462SOL    HW114200   3.807   2.354   2.717  1.7264 -0.4333  1.9726
 1462SOL    HW214201   3.950   2.290   2.673  0.6562 -2.0278  0.7521
 1463SOL     OW14202   4.440   4.127   2.164 -0.5723 -0.2232 -0.4179
 1463SOL    HW114203   4.379   4.184   2.107  0.1089 -0.0092 -0.9390
 1463SOL    HW214204   4.390   4.095   2.244 -0.7436  1.8578  0.3593
 1464SOL     OW14205   3.654   0.325   0.748  0.3947  0.3280 -0.1003
 1464SOL    HW114206   3.673   0.261   0.674 -0.0738 -0.3970  0.4001
 1464SOL    HW214207   3.723   0.315   0.820  1.7914  2.1606 -1.1477
 1465SOL     OW14208   3.946   0.313   2.316  0.6154  0.2448 -0.1194
 1465SOL    HW114209   3.952   0.397   2.263  0.8156  1.0090  1.0847
 1465SOL    HW214210   3.991   0.326   2.405 -3.7073  0.5638  2.1938
 1466SOL     OW14211   3.155   4.785   2.006 -0.4484 -0.4375 -0.1564
 1466SOL    HW114212   3.167   4.696   1.963  0.6702 -0.6476  0.5679
 1466SOL    HW214213   3.088   4.778   2.080 -0.2381 -0.7192  0.0073
 1467SOL     OW14214   2.792   0.228   2.425 -0.3723 -0.2733 -0.7259
 1467SOL    HW114215   2.862   0.172   2.382  0.3103  0.6263 -0.8050
 1467SOL    HW214216   2.827   0.265   2.511 -0.7262  0.2047 -0.7835
 1468SOL     OW14217   3.178   0.410   1.711  0.2942 -0.2918 -0.2566
 1468SOL    HW114218   3.136   0.457   1.789  0.6710  0.6265 -0.5950
 1468SOL    HW214219   3.117   0.416   1.632 -0.7454 -2.4966  0.3552
 1469SOL     OW14220   3.094   1.363   2.434 -0.6032  0.0927  0.4975
 1469SOL    HW114221   2.997   1.365   2.409 -0.2838  0.5993 -0.7479
 1469SOL    HW214222   3.136   1.451   2.413  0.5314 -0.7079 -0.7044
 1470SOL     OW14223   3.616   4.728   1.774 -0.1996  0.3926  0.1187
 1470SOL    HW114224   3.604   4.742   1.872  1.2657 -1.7028  0.6350
 1470SOL    HW214225   3.709   4.755   1.748 -0.8648  1.7577 -0.8623
 1471SOL     OW14226   2.813   5.534   1.412  0.5890  0.2021 -0.1156
 1471SOL    HW114227   2.865   5.477   1.348 -1.3205 -0.2023 -1.3599
 1471SOL    HW214228   2.716   5.509   1.407 -0.2400  3.3393 -0.4223
 1472SOL     OW14229   2.275   5.630   1.811  0.1384 -0.5905  0.5725
 1472SOL    HW114230   2.189   5.663   1.852 -0.7992 -2.1015 -0.1293
 1472SOL    HW214231   2.338   5.603   1.883 -1.0335 -2.0703  1.0654
 1473SOL     OW14232   3.419   9.041   1.294 -0.0512  0.0600 -0.2240
 1473SOL    HW114233   3.456   8.949   1.284  1.5021  0.9192 -2.9196
 1473SOL    HW214234   3.442   9.077   1.385  1.0849 -1.4284  0.0923
 1474SOL     OW14235   2.727   2.408   1.913  0.0117  0.3589 -0.2196
 1474SOL    HW114236   2.667   2.374   1.986  1.8614 -4.7796 -0.8849
 1474SOL    HW214237   2.683   2.395   1.825  0.8641 -0.6149 -0.5048
 1475SOL     OW14238   2.051   7.696   0.532 -0.3775 -0.4195 -0.1652
 1475SOL    HW114239   2.116   7.653   0.469 -0.3739  0.2219 -0.6108
 1475SOL    HW214240   2.038   7.638   0.612  2.9161  0.7243  1.3022
 1476SOL     OW14241   2.501   6.374   0.921  0.1219  1.1704  0.4201
 1476SOL    HW114242   2.590   6.365   0.876  0.2459 -0.6324  0.9695
 1476SOL    HW214243   2.514   6.407   1.014  0.5045 -1.7216  1.4453
 1477SOL     OW14244   4.143   2.790   0.589  0.2257 -0.0562 -0.3195
 1477SOL    HW114245   4.204   2.741   0.650  1.9106  1.0296 -1.0640
 1477SOL    HW214246   4.115   2.730   0.514  1.3337 -0.2280 -0.6044
 1478SOL     OW14247   2.479   5.903   1.783  0.2348  0.0767  0.5149
 1478SOL    HW114248   2.481   5.815   1.830  0.8482  0.7323  1.7508
 1478SOL    HW214249   2.434   5.893   1.694  0.7029 -1.5595  0.4524
 1479SOL     OW14250   2.829   4.444   0.124 -0.2351  0.8346  0.0939
 1479SOL    HW114251   2.894   4.519   0.135  0.0527  0.3946  1.5148
 1479SOL    HW214252   2.870   4.373   0.066  0.4788  0.6860  0.7542
 1480SOL     OW14253   4.239   1.270   1.298  0.0619  0.1878  0.1532
 1480SOL    HW114254   4.234   1.327   1.380 -2.0418 -0.9473  0.8436
 1480SOL    HW214255   4.148   1.261   1.258  1.0672  0.8232 -2.4172
 1481SOL     OW14256   4.999   2.565   1.645  0.1396 -0.0716  0.4236
 1481SOL    HW114257   4.964   2.568   1.738  0.8640 -1.9090  0.7695
 1481SOL    HW214258   5.024   2.471   1.621 -0.1523  0.3425 -1.6634
 1482SOL     OW14259   3.260   1.356   0.715 -0.0122 -0.2265  0.5034
 1482SOL    HW114260   3.327   1.301   0.665 -0.1127 -0.6649  0.8403
 1482SOL    HW214261   3.208   1.412   0.651  0.3949 -0.1975  0.1991
 1483SOL     OW14262   2.765   7.424   1.598 -0.2992 -0.2191  0.4158
 1483SOL    HW114263   2.855   7.405   1.637  0.2418  1.8147  0.2429
 1483SOL    HW214264   2.728   7.507   1.641 -2.4801 -1.5114  1.1203
 1484SOL     OW14265   3.231   3.248   0.447  0.1011  0.3636  0.3115
 1484SOL    HW114266   3.273   3.199   0.524 -0.1158  1.8921  1.4180
 1484SOL    HW214267   3.170   3.185   0.398 -0.7271 -0.3070  2.1406
 1485SOL     OW14268   4.438   3.380   2.098 -0.2667  0.0958 -0.4575
 1485SOL    HW114269   4.421   3.461   2.154  3.1098  0.7706 -0.2758
 1485SOL    HW214270   4.460   3.408   2.005 -0.6531 -0.7048 -0.7890
 1486SOL     OW14271   3.740   4.298   0.314  0.2661 -0.1019 -0.1293
 1486SOL    HW114272   3.758   4.252   0.401 -0.1015 -0.5877 -0.3094
 1486SOL    HW214273   3.823   4.299   0.259  1.0764  2.0271  1.0649
 1487SOL     OW14274   3.317   4.649   1.016 -0.2175 -0.1350  0.4670
 1487SOL    HW114275   3.403   4.675   0.972 -0.3555 -0.3639  0.0603
 1487SOL    HW214276   3.329   4.651   1.116 -0.6234  2.8534  0.4761
 1488SOL     OW14277   3.780   4.646   0.239 -0.3677  0.3435 -0.1871
 1488SOL    HW114278   3.835   4.581   0.185 -0.0318  1.7519 -1.5731
 1488SOL    HW214279   3.775   4.614   0.334  0.9551 -0.9861 -0.5376
 1489SOL     OW14280   3.562   0.664   0.891  0.2705  0.1508  0.4525
 1489SOL    HW114281   3.564   0.662   0.791 -0.0328 -0.4532  0.4529
 1489SOL    HW214282   3.565   0.571   0.926 -2.3701  0.1901  0.9221
 1490SOL     OW14283   3.138   3.907   2.268 -0.2014 -0.1247 -0.8008
 1490SOL    HW114284   3.203   3.982   2.273 -1.4919  0.9577  0.3334
 1490SOL    HW214285   3.074   3.913   2.345 -1.4815 -1.2937 -1.7380
 1491SOL     OW14286   3.961   1.779   0.094  0.2676 -0.2245  0.2477
 1491SOL    HW114287   4.026   1.717   0.138  1.8626  1.5876  0.5438
 1491SOL    HW214288   3.910   1.830   0.164  1.1452  0.9724  0.0378
 1492SOL     OW14289   4.187   3.376   2.181 -0.6832  0.0094  0.3404
 1492SOL    HW114290   4.179   3.358   2.279 -1.1076  0.1576  0.3360
 1492SOL    HW214291   4.281   3.361   2.151 -0.5577 -0.0480  0.7688
 1493SOL     OW14292   3.537   2.743   0.434 -0.0460 -0.0828 -0.0143
 1493SOL    HW114293   3.444   2.731   0.401 -0.0164 -0.1532 -0.0731
 1493SOL    HW214294   3.564   2.839   0.425  0.2814 -0.2659 -1.0326
 1494SOL     OW14295   3.187   0.395   1.354  0.6703  0.4732 -0.0876
 1494SOL    HW114296   3.106   0.384   1.412  0.6135 -0.2354 -0.2976
 1494SOL    HW214297   3.219   0.305   1.324 -1.3851  0.9375 -4.0535
 1495SOL     OW14298   3.056   2.453   0.729  0.4215  0.3192  0.2146
 1495SOL    HW114299   3.010   2.369   0.760  0.9522 -0.2412 -0.4814
 1495SOL    HW214300   3.155   2.435   0.721  0.9281  1.7952  2.6731
 1496SOL     OW14301   2.757   9.823   2.308  0.4806 -0.5289  0.0313
 1496SOL    HW114302   2.839   9.859   2.352 -0.0146 -0.1455  0.6489
 1496SOL    HW214303   2.764   9.723   2.300 -0.0907 -0.7772  2.3848
 1497SOL     OW14304   3.066   6.758   0.598 -0.3204  0.1067 -0.4517
 1497SOL    HW114305   3.104   6.765   0.505 -0.1974  2.5861 -0.2327
 1497SOL    HW214306   2.971   6.786   0.598  0.2093  1.9756  0.4983
 1498SOL     OW14307   3.748   0.636   2.598  0.3918 -0.1357 -0.6435
 1498SOL    HW114308   3.847   0.623   2.596  0.2204 -2.0318  1.3769
 1498SOL    HW214309   3.703   0.548   2.617 -1.6585  0.7665 -1.1910
 1499SOL     OW14310   2.512   3.087   1.486  0.1390  0.3533 -0.5333
 1499SOL    HW114311   2.582   3.130   1.428  1.3344 -0.8363 -0.0016
 1499SOL    HW214312   2.539   3.098   1.582  0.1748 -1.0957 -0.3727
 1500SOL     OW14313   3.858   4.916   0.299 -0.0358 -0.1207  0.2518
 1500SOL    HW114314   3.889   4.915   0.394 -0.8344  0.6549  0.5308
 1500SOL    HW214315   3.805   4.833   0.280  0.2518 -0.3483  0.4315
 1501SOL     OW14316   2.272   1.171   0.479  0.4817 -1.0321  0.2976
 1501SOL    HW114317   2.330   1.247   0.450 -2.2297  0.0340 -2.5930
 1501SOL    HW214318   2.310   1.085   0.444  0.1658 -0.3050 -1.9097
 1502SOL     OW14319   2.503   5.308   2.218 -0.4578  0.1251  0.1495
 1502SOL    HW114320   2.593   5.295   2.259  0.1092  0.9772 -0.7868
 1502SOL    HW214321   2.470   5.221   2.181 -0.3699 -0.3512  1.1660
 1503SOL     OW14322   3.579   0.413   1.014 -0.1749  0.1434  0.1248
 1503SOL    HW114323   3.662   0.361   0.993  0.2453  1.2948 -1.1409
 1503SOL    HW214324   3.502   0.350   1.025  0.3923 -0.7731 -1.0477
 1504SOL     OW14325   3.579   0.744   2.040 -0.2332 -0.7556 -0.3888
 1504SOL    HW114326   3.656   0.752   1.976  0.6406 -0.5874  0.6651
 1504SOL    HW214327   3.498   0.785   1.999  1.1126  2.3170 -0.1178
 1505SOL     OW14328   4.126   3.070   1.981  0.0999 -0.1967 -0.0593
 1505SOL    HW114329   4.096   3.136   1.912 -0.4503  2.0878  2.3415
 1505SOL    HW214330   4.207   3.021   1.947 -0.8955 -0.0201 -2.8298
 1506SOL     OW14331   3.937   3.512   2.204 -0.4788  0.0677  0.5148
 1506SOL    HW114332   3.964   3.551   2.292 -0.6104 -0.7280  0.9102
 1506SOL    HW214333   4.005   3.446   2.173 -0.5961  0.1010  0.1778
 1507SOL     OW14334   2.769   5.512   0.392 -0.0258  0.7010  0.2101
 1507SOL    HW114335   2.720   5.596   0.368  0.2122  0.8126  0.1120
 1507SOL    HW214336   2.778   5.505   0.491 -2.6238 -0.6649  0.3920
 1508SOL     OW14337   2.096   7.621   0.894  0.3873 -0.7147 -0.5970
 1508SOL    HW114338   2.057   7.705   0.932  0.5426 -0.3056 -1.3402
 1508SOL    HW214339   2.092   7.549   0.963  0.0616 -0.1557 -0.0236
 1509SOL     OW14340   3.856   9.669   1.047  0.2299 -0.4863  0.1458
 1509SOL    HW114341   3.766   9.660   1.004 -0.6698  2.3974  1.2879
 1509SOL    HW214342   3.908   9.585   1.034 -1.3034 -0.9362 -3.5254
 1510SOL     OW14343   2.547   8.620   1.528  0.7544 -0.7579 -0.1850
 1510SOL    HW114344   2.579   8.637   1.621 -1.0941 -0.1660  0.3567
 1510SOL    HW214345   2.570   8.698   1.470 -1.9387  0.8572  0.8076
 1511SOL     OW14346   2.569   5.644   0.076  0.8596  0.9218 -0.0730
 1511SOL    HW114347   2.570   5.725   0.018  0.9593  1.3349  0.5025
 1511SOL    HW214348   2.631   5.576   0.038 -0.2897  0.5476 -1.3522
 1512SOL     OW14349   3.459   8.851   0.900  0.5342 -0.3602 -0.4082
 1512SOL    HW114350   3.526   8.924   0.886  0.2707 -0.1659 -0.6565
 1512SOL    HW214351   3.484   8.772   0.844  0.5682 -0.3003 -0.4758
 1513SOL     OW14352   1.972   7.811   1.042 -0.1380 -0.2577  0.1905
 1513SOL    HW114353   1.998   7.889   1.098  1.6107 -0.9479  0.3705
 1513SOL    HW214354   1.908   7.753   1.093  0.0479  0.0490  0.7737
 1514SOL     OW14355   2.600   8.163   1.704  0.1412 -0.1885  0.1220
 1514SOL    HW114356   2.574   8.086   1.645  0.8728 -0.3561  0.0175
 1514SOL    HW214357   2.573   8.249   1.661 -0.0754 -0.3498 -0.0673
 1515SOL     OW14358   2.638   1.738   2.461 -1.0097  0.1149  0.2676
 1515SOL    HW114359   2.541   1.762   2.460 -0.7510  1.1489 -0.2237
 1515SOL    HW214360   2.687   1.798   2.524 -0.8907 -1.2361  1.4917
 1516SOL     OW14361   3.472   1.181   1.041 -0.4207 -0.2817  0.1596
 1516SOL    HW114362   3.445   1.098   1.089  0.4339 -0.3899  0.4762
 1516SOL    HW214363   3.554   1.163   0.987 -0.8084  0.0975 -0.5659
 1517SOL     OW14364   3.279   7.128   0.676 -0.5082 -0.4417  0.3971
 1517SOL    HW114365   3.297   7.030   0.676 -0.8997 -0.5208  1.2870
 1517SOL    HW214366   3.247   7.156   0.766  2.1083  0.9679  0.9514
 1518SOL     OW14367   3.673   8.731   2.183 -0.5985  0.1022  0.3822
 1518SOL    HW114368   3.706   8.815   2.140 -1.9037  0.1320 -0.6076
 1518SOL    HW214369   3.595   8.695   2.131 -0.9326 -0.9730  1.5831
 1519SOL     OW14370   4.313   3.043   0.731  0.5294  0.1093 -0.0370
 1519SOL    HW114371   4.296   2.946   0.747 -1.5406  0.5080  0.2556
 1519SOL    HW214372   4.385   3.075   0.793 -0.7556 -0.5860  1.8681
 1520SOL     OW14373   3.455   2.673   2.569 -0.2209  0.0872 -0.4973
 1520SOL    HW114374   3.488   2.735   2.497 -1.8008  2.7235  1.0074
 1520SOL    HW214375   3.532   2.617   2.602  1.3903  1.6999 -1.4190
 1521SOL     OW14376   3.561   4.669   2.433 -0.0258 -0.2492  0.4401
 1521SOL    HW114377   3.543   4.590   2.375 -2.2931  0.3591  0.2771
 1521SOL    HW214378   3.659   4.675   2.451  0.3077 -2.4181 -0.4880
 1522SOL     OW14379   2.547   1.676   1.874 -0.5857  0.1424 -0.3674
 1522SOL    HW114380   2.561   1.626   1.789  1.4487  1.0304 -0.5843
 1522SOL    HW214381   2.635   1.696   1.917 -1.5357  0.4380  1.5336
 1523SOL     OW14382   3.747   3.240   0.763  0.5400  0.1786  0.1687
 1523SOL    HW114383   3.689   3.212   0.840 -0.6754 -1.4151 -1.2827
 1523SOL    HW214384   3.838   3.200   0.775 -0.3061 -1.9651 -0.3412
 1524SOL     OW14385   3.536   4.022   1.547 -0.2246  0.3862  0.0619
 1524SOL    HW114386   3.452   3.995   1.499 -1.0745  1.0897  1.1502
 1524SOL    HW214387   3.552   4.120   1.535  0.3323  0.3000  0.0524
 1525SOL     OW14388   3.505   1.813   0.819 -0.2654  0.3448  0.5911
 1525SOL    HW114389   3.495   1.715   0.803  1.7563  0.2898 -0.5006
 1525SOL    HW214390   3.541   1.829   0.911 -0.2615  0.0603  0.6381
 1526SOL     OW14391   2.537   9.852   1.609 -0.5127 -0.4220 -0.2628
 1526SOL    HW114392   2.636   9.858   1.593 -0.6076  1.3260 -0.1987
 1526SOL    HW214393   2.489   9.906   1.540 -1.3452  0.0679  0.7060
 1527SOL     OW14394   2.638   6.586   0.718  0.1594  0.2260  0.3689
 1527SOL    HW114395   2.551   6.620   0.753  0.7879  0.4202  1.7463
 1527SOL    HW214396   2.635   6.486   0.715 -0.2212  0.2430  0.1224
 1528SOL     OW14397   2.814   7.775   0.832 -0.1713  0.0323 -0.1907
 1528SOL    HW114398   2.724   7.762   0.789  0.1428  1.1853 -1.2433
 1528SOL    HW214399   2.821   7.869   0.865  1.8836  1.0069 -3.1573
 1529SOL     OW14400   3.682   3.521   0.212 -0.1064  0.3650 -0.0208
 1529SOL    HW114401   3.614   3.449   0.227 -0.7222  0.5655 -1.7313
 1529SOL    HW214402   3.680   3.584   0.290 -1.8869  0.3498 -0.0202
 1530SOL     OW14403   2.401   7.254   0.944 -0.1364 -0.1705 -0.8527
 1530SOL    HW114404   2.417   7.315   1.022 -0.6566  0.0974 -0.9550
 1530SOL    HW214405   2.487   7.210   0.918  0.0579 -0.2038 -0.1737
 1531SOL     OW14406   3.067   9.572   2.596 -0.7561  0.2365 -0.0135
 1531SOL    HW114407   3.005   9.620   2.657 -1.3384 -1.5030  0.7861
 1531SOL    HW214408   3.081   9.627   2.514 -0.0268  2.5642  1.6125
 1532SOL     OW14409   4.131   3.979   0.554  0.2269  0.4373 -0.2002
 1532SOL    HW114410   4.147   4.063   0.503  0.6260  0.8936  0.6796
 1532SOL    HW214411   4.075   3.998   0.634  1.5558  0.1318  0.8192
 1533SOL     OW14412   4.222   9.152   0.733  0.0298 -0.0111 -0.6238
 1533SOL    HW114413   4.304   9.102   0.704 -0.2783 -2.6384  2.7325
 1533SOL    HW214414   4.144   9.089   0.733 -0.7039  0.8583  2.1834
 1534SOL     OW14415   2.635   4.208   2.345  0.4438 -0.2037 -0.0504
 1534SOL    HW114416   2.642   4.306   2.365 -1.8609 -0.2424  1.0946
 1534SOL    HW214417   2.726   4.166   2.352  1.0440  1.3749  2.0915
 1535SOL     OW14418   2.417   2.510   0.454 -0.2327  0.5144  0.0184
 1535SOL    HW114419   2.444   2.446   0.526 -1.8853  1.0040  1.1091
 1535SOL    HW214420   2.438   2.603   0.483 -1.8564  0.7958  0.3244
 1536SOL     OW14421   4.681   2.187   2.429 -0.3569  0.1367  0.3303
 1536SOL    HW114422   4.612   2.234   2.374 -0.6668 -0.8629 -0.1540
 1536SOL    HW214423   4.639   2.152   2.512 -0.4817 -0.6262 -0.0485
 1537SOL     OW14424   3.284   9.773   1.182 -0.8124 -0.3628 -0.4936
 1537SOL    HW114425   3.300   9.855   1.126 -2.6933 -0.3811 -1.0941
 1537SOL    HW214426   3.259   9.697   1.122 -0.5508 -0.9860  0.1899
 1538SOL     OW14427   3.474   0.249   0.444  0.1192  0.4683  0.3396
 1538SOL    HW114428   3.467   0.150   0.436 -0.5583  0.4335  1.2365
 1538SOL    HW214429   3.449   0.277   0.537  0.4052  1.4674  0.1252
 1539SOL     OW14430   4.240   0.242   1.813  0.1003 -0.4075 -0.1055
 1539SOL    HW114431   4.284   0.154   1.831  0.4002 -0.4663 -1.0489
 1539SOL    HW214432   4.251   0.303   1.892  0.0041 -1.1720  0.4975
 1540SOL     OW14433   2.455   7.161   0.346 -0.4309  0.0698 -0.0598
 1540SOL    HW114434   2.545   7.142   0.385 -0.5127  2.3304  1.3304
 1540SOL    HW214435   2.385   7.148   0.417 -0.8696  1.4792 -0.2299
 1541SOL     OW14436   4.617   2.087   0.549 -0.1770 -0.5533 -0.6309
 1541SOL    HW114437   4.650   2.052   0.637 -1.6110 -2.3930 -0.8203
 1541SOL    HW214438   4.604   2.186   0.556  2.0186 -0.3095  0.4952
 1542SOL     OW14439   2.385   4.884   0.839  0.0956  0.8346 -0.7726
 1542SOL    HW114440   2.376   4.870   0.938 -1.5671  1.5557 -0.8161
 1542SOL    HW214441   2.409   4.980   0.822 -0.5615  0.9308 -1.1316
 1543SOL     OW14442   3.521   4.694   0.704 -0.5014 -0.2329 -0.5561
 1543SOL    HW114443   3.512   4.740   0.615 -1.4429 -0.2578 -0.4835
 1543SOL    HW214444   3.507   4.595   0.692  2.7888 -0.6979 -0.9160
 1544SOL     OW14445   2.469   4.109   0.345  0.0360  0.2749 -0.0846
 1544SOL    HW114446   2.474   4.125   0.444 -0.0469 -1.1747  0.1661
 1544SOL    HW214447   2.453   4.196   0.298  0.0347  0.9713  1.1804
  10.00000  10.00000   2.69955
