chitosan Film  in water:acetic acid 2%
10523
    1CHTO  H203    1   4.100   6.017   0.440
    1CHTO   O82    2   4.083   6.050   0.526
    1CHTO  C123    3   4.198   6.032   0.611
    1CHTO  H227    4   4.177   6.078   0.709
    1CHTO   O77    5   4.209   5.887   0.625
    1CHTO  C118    6   4.313   5.844   0.714
    1CHTO  H222    7   4.299   5.889   0.814
    1CHTO  C125    8   4.304   5.688   0.728
    1CHTO   O84    9   4.182   5.649   0.791
    1CHTO  H205   10   4.175   5.555   0.791
    1CHTO  C114   11   4.450   5.887   0.659
    1CHTO  H218   12   4.467   5.836   0.564
    1CHTO  C116   13   4.455   6.041   0.632
    1CHTO  H220   14   4.458   6.095   0.730
    1CHTO   O79   15   4.578   6.074   0.564
    1CHTO  H201   16   4.652   6.056   0.619
    1CHTO  C120   17   4.330   6.090   0.548
    1CHTO  H224   18   4.343   6.050   0.445
    1CHTO   N21   19   4.325   6.238   0.537
    1CHTO  H211   20   4.276   6.266   0.444
    1CHTO  H212   21   4.424   6.280   0.539
    1CHTO   O75   22   4.545   5.843   0.758
    1CHTO  C112   23   4.692   5.813   0.699
    1CHTO  H216   24   4.705   5.867   0.604
    1CHTO   O73   25   4.704   5.671   0.681
    1CHTO  C113   26   4.827   5.631   0.619
    1CHTO  H217   27   4.838   5.683   0.521
    1CHTO  C124   28   4.817   5.481   0.591
    1CHTO   O83   29   4.921   5.432   0.507
    1CHTO  H204   30   4.912   5.339   0.496
    1CHTO  C109   31   4.946   5.668   0.713
    1CHTO  H213   32   4.932   5.611   0.806
    1CHTO  C110   33   4.943   5.822   0.744
    1CHTO  H214   34   4.963   5.876   0.651
    1CHTO   O78   35   5.049   5.854   0.835
    1CHTO  H200   36   5.053   5.947   0.849
    1CHTO  C111   37   4.803   5.862   0.800
    1CHTO  H215   38   4.787   5.810   0.895
    1CHTO   N19   39   4.790   6.008   0.827
    1CHTO  H207   40   4.692   6.029   0.866
    1CHTO  H208   41   4.864   6.038   0.900
    1CHTO   O74   42   5.073   5.630   0.653
    1CHTO  C115   43   5.181   5.581   0.758
    1CHTO  H219   44   5.149   5.600   0.861
    1CHTO   O76   45   5.203   5.421   0.751
    1CHTO  C122   46   5.250   5.377   0.623
    1CHTO  H226   47   5.166   5.380   0.554
    1CHTO  C126   48   5.290   5.226   0.635
    1CHTO   O85   49   5.324   5.167   0.509
    1CHTO  H206   50   5.404   5.204   0.477
    1CHTO  C121   51   5.371   5.464   0.568
    1CHTO  H225   52   5.454   5.396   0.538
    1CHTO   O81   53   5.333   5.536   0.451
    1CHTO  H202   54   5.311   5.477   0.382
    1CHTO  C119   55   5.426   5.559   0.679
    1CHTO  H223   56   5.447   5.495   0.764
    1CHTO  C117   57   5.316   5.660   0.727
    1CHTO  H221   58   5.288   5.736   0.654
    1CHTO   N20   59   5.363   5.738   0.847
    1CHTO  H209   60   5.452   5.793   0.822
    1CHTO  H210   61   5.383   5.671   0.929
    1CHTO   O80   62   5.565   5.615   0.646
    1CHTO  C103   63   5.692   5.549   0.709
    1CHTO  H190   64   5.701   5.579   0.813
    1CHTO  C101   65   5.700   5.390   0.699
    1CHTO  H188   66   5.665   5.361   0.599
    1CHTO   O68   67   5.604   5.325   0.805
    1CHTO  H168   68   5.634   5.346   0.892
    1CHTO   C99   69   5.848   5.333   0.718
    1CHTO  H186   70   5.877   5.344   0.824
    1CHTO   N17   71   5.859   5.188   0.684
    1CHTO  H174   72   5.840   5.172   0.579
    1CHTO  H175   73   5.957   5.151   0.711
    1CHTO   C97   74   5.949   5.419   0.637
    1CHTO  H184   75   5.928   5.404   0.530
    1CHTO   O64   76   5.936   5.557   0.675
    1CHTO  C104   77   5.812   5.615   0.630
    1CHTO  H191   78   5.798   5.601   0.523
    1CHTO  C108   79   5.824   5.766   0.653
    1CHTO   O71   80   5.721   5.840   0.585
    1CHTO  H171   81   5.638   5.824   0.625
    1CHTO   O62   82   6.086   5.386   0.668
    1CHTO   C91   83   6.182   5.423   0.567
    1CHTO  H178   84   6.140   5.502   0.504
    1CHTO   C92   85   6.210   5.301   0.473
    1CHTO  H179   86   6.236   5.214   0.536
    1CHTO   O66   87   6.088   5.266   0.405
    1CHTO  H166   88   6.025   5.233   0.467
    1CHTO   C93   89   6.325   5.331   0.369
    1CHTO  H180   90   6.289   5.410   0.302
    1CHTO   N16   91   6.359   5.215   0.282
    1CHTO  H172   92   6.437   5.243   0.212
    1CHTO  H173   93   6.392   5.132   0.343
    1CHTO   C94   94   6.450   5.385   0.448
    1CHTO  H181   95   6.486   5.312   0.520
    1CHTO   O61   96   6.414   5.503   0.520
    1CHTO   C95   97   6.318   5.478   0.625
    1CHTO  H182   98   6.360   5.406   0.695
    1CHTO  C106   99   6.296   5.612   0.705
    1CHTO   O69  100   6.416   5.655   0.769
    1CHTO  H169  101   6.479   5.683   0.705
    1CHTO   O63  102   6.563   5.423   0.349
    1CHTO   C96  103   6.697   5.484   0.400
    1CHTO  H183  104   6.683   5.592   0.402
    1CHTO   C98  105   6.812   5.451   0.301
    1CHTO  H185  106   6.785   5.485   0.199
    1CHTO   O67  107   6.924   5.531   0.339
    1CHTO  H167  108   6.994   5.521   0.277
    1CHTO  C102  109   6.852   5.295   0.303
    1CHTO  H189  110   6.959   5.291   0.277
    1CHTO   N18  111   6.783   5.211   0.202
    1CHTO  H176  112   6.805   5.247   0.103
    1CHTO  H177  113   6.816   5.108   0.211
    1CHTO  C105  114   6.835   5.238   0.447
    1CHTO  H192  115   6.736   5.193   0.458
    1CHTO   O65  116   6.847   5.340   0.548
    1CHTO  C100  117   6.740   5.436   0.548
    1CHTO  H187  118   6.655   5.389   0.600
    1CHTO  C107  119   6.783   5.556   0.636
    1CHTO   O70  120   6.813   5.516   0.769
    1CHTO  H170  121   6.893   5.467   0.771
    1CHTO   O57  122   6.950   5.127   0.466
    1CHTO   C85  123   6.914   5.003   0.528
    1CHTO  H157  124   6.824   4.967   0.473
    1CHTO   C83  125   6.868   5.025   0.676
    1CHTO  H155  126   6.781   5.091   0.674
    1CHTO   O56  127   6.971   5.096   0.749
    1CHTO  H135  128   6.941   5.116   0.835
    1CHTO   C81  129   6.826   4.889   0.736
    1CHTO  H153  130   6.750   4.845   0.672
    1CHTO   N14  131   6.758   4.902   0.867
    1CHTO  H141  132   6.721   4.806   0.899
    1CHTO  H142  133   6.826   4.939   0.941
    1CHTO   C79  134   6.950   4.791   0.738
    1CHTO  H151  135   6.913   4.694   0.771
    1CHTO   O52  136   7.001   4.772   0.602
    1CHTO   C86  137   7.030   4.895   0.528
    1CHTO  H158  138   7.121   4.935   0.576
    1CHTO   C90  139   7.069   4.861   0.382
    1CHTO   O60  140   7.189   4.782   0.379
    1CHTO  H138  141   7.213   4.765   0.290
    1CHTO   O50  142   7.057   4.832   0.826
    1CHTO   C73  143   7.144   4.749   0.904
    1CHTO  H145  144   7.178   4.662   0.845
    1CHTO   C74  145   7.070   4.696   1.031
    1CHTO  H146  146   6.981   4.641   0.996
    1CHTO   O54  147   7.153   4.598   1.097
    1CHTO  H133  148   7.232   4.637   1.129
    1CHTO   C75  149   7.031   4.818   1.123
    1CHTO  H147  150   6.963   4.883   1.067
    1CHTO   N13  151   6.957   4.780   1.246
    1CHTO  H139  152   6.933   4.869   1.303
    1CHTO  H140  153   6.865   4.731   1.219
    1CHTO   C76  154   7.161   4.905   1.157
    1CHTO  H148  155   7.226   4.845   1.221
    1CHTO   O49  156   7.235   4.940   1.035
    1CHTO   C77  157   7.270   4.829   0.951
    1CHTO  H149  158   7.335   4.763   1.007
    1CHTO   C88  159   7.355   4.879   0.833
    1CHTO   O58  160   7.291   4.993   0.759
    1CHTO  H136  161   7.290   5.070   0.813
    1CHTO   O51  162   7.118   5.048   1.229
    1CHTO   C78  163   7.071   5.167   1.129
    1CHTO  H150  164   7.051   5.128   1.027
    1CHTO   C80  165   7.181   5.275   1.121
    1CHTO  H152  166   7.212   5.302   1.225
    1CHTO   O55  167   7.295   5.215   1.056
    1CHTO  H134  168   7.366   5.276   1.053
    1CHTO   C84  169   7.131   5.405   1.045
    1CHTO  H156  170   7.109   5.377   0.942
    1CHTO   N15  171   7.235   5.513   1.041
    1CHTO  H143  172   7.258   5.539   0.940
    1CHTO  H144  173   7.202   5.601   1.093
    1CHTO   C87  174   6.998   5.451   1.111
    1CHTO  H159  175   7.017   5.477   1.216
    1CHTO   O53  176   6.901   5.340   1.102
    1CHTO   C82  177   6.939   5.227   1.182
    1CHTO  H154  178   6.949   5.256   1.286
    1CHTO   C89  179   6.825   5.124   1.174
    1CHTO   O59  180   6.700   5.177   1.219
    1CHTO  H137  181   6.704   5.193   1.312
    1CHTO   O45  182   6.933   5.580   1.032
    1CHTO   C67  183   6.838   5.665   1.101
    1CHTO  H124  184   6.827   5.754   1.039
    1CHTO   C65  185   6.696   5.598   1.117
    1CHTO  H122  186   6.714   5.493   1.140
    1CHTO   O44  187   6.634   5.607   0.987
    1CHTO  H102  188   6.608   5.695   0.970
    1CHTO   C63  189   6.615   5.653   1.241
    1CHTO  H120  190   6.648   5.599   1.330
    1CHTO   N11  191   6.467   5.625   1.241
    1CHTO  H108  192   6.443   5.551   1.315
    1CHTO  H109  193   6.411   5.714   1.261
    1CHTO   C61  194   6.655   5.803   1.266
    1CHTO  H118  195   6.596   5.839   1.352
    1CHTO   O40  196   6.795   5.813   1.304
    1CHTO   C68  197   6.889   5.718   1.242
    1CHTO  H125  198   6.902   5.633   1.312
    1CHTO   C72  199   7.026   5.788   1.228
    1CHTO   O48  200   7.089   5.809   1.355
    1CHTO  H105  201   7.173   5.850   1.342
    1CHTO   O38  202   6.633   5.886   1.149
    1CHTO   C55  203   6.578   6.018   1.166
    1CHTO  H112  204   6.549   6.036   1.271
    1CHTO   C56  205   6.455   6.034   1.067
    1CHTO  H113  206   6.490   5.999   0.968
    1CHTO   O42  207   6.349   5.943   1.105
    1CHTO  H100  208   6.318   5.964   1.191
    1CHTO   C57  209   6.402   6.183   1.057
    1CHTO  H114  210   6.346   6.201   1.148
    1CHTO   N10  211   6.308   6.205   0.944
    1CHTO  H106  212   6.361   6.231   0.853
    1CHTO  H107  213   6.249   6.116   0.926
    1CHTO   C58  214   6.519   6.285   1.050
    1CHTO  H115  215   6.564   6.284   0.948
    1CHTO   O37  216   6.621   6.256   1.148
    1CHTO   C59  217   6.683   6.128   1.130
    1CHTO  H116  218   6.717   6.117   1.027
    1CHTO   C70  219   6.807   6.124   1.220
    1CHTO   O46  220   6.779   6.147   1.358
    1CHTO  H103  221   6.858   6.141   1.408
    1CHTO   O39  222   6.464   6.434   1.086
    1CHTO   C60  223   6.562   6.538   1.070
    1CHTO  H117  224   6.663   6.497   1.082
    1CHTO   C62  225   6.555   6.601   0.927
    1CHTO  H119  226   6.578   6.518   0.856
    1CHTO   O43  227   6.421   6.648   0.902
    1CHTO  H101  228   6.362   6.575   0.897
    1CHTO   C66  229   6.666   6.716   0.913
    1CHTO  H123  230   6.764   6.672   0.935
    1CHTO   N12  231   6.675   6.770   0.775
    1CHTO  H110  232   6.754   6.844   0.770
    1CHTO  H111  233   6.580   6.812   0.746
    1CHTO   C69  234   6.640   6.825   1.020
    1CHTO  H126  235   6.539   6.870   1.005
    1CHTO   O41  236   6.646   6.759   1.162
    1CHTO   C64  237   6.543   6.646   1.180
    1CHTO  H121  238   6.441   6.687   1.173
    1CHTO   C71  239   6.560   6.583   1.320
    1CHTO   O47  240   6.541   6.680   1.423
    1CHTO  H104  241   6.551   6.639   1.507
    1CHTO   O34  242   6.745   6.940   1.015
    1CHTO   C49  243   6.872   7.006   1.061
    1CHTO   H91  244   6.878   7.098   1.004
    1CHTO   C47  245   6.995   6.919   1.028
    1CHTO   H89  246   7.007   6.927   0.917
    1CHTO   O33  247   6.972   6.781   1.061
    1CHTO   H70  248   7.041   6.727   1.028
    1CHTO   C45  249   7.128   6.968   1.108
    1CHTO   H87  250   7.141   6.902   1.195
    1CHTO    N8  251   7.248   6.956   1.023
    1CHTO   H75  252   7.337   6.979   1.081
    1CHTO   H76  253   7.256   6.856   0.984
    1CHTO   C43  254   7.108   7.113   1.174
    1CHTO   H85  255   7.199   7.135   1.230
    1CHTO   O29  256   6.992   7.111   1.259
    1CHTO   C50  257   6.874   7.042   1.213
    1CHTO   H92  258   6.861   6.949   1.270
    1CHTO   C54  259   6.751   7.127   1.252
    1CHTO   O36  260   6.741   7.142   1.394
    1CHTO   H72  261   6.719   7.060   1.434
    1CHTO   O27  262   7.094   7.217   1.076
    1CHTO   C37  263   7.124   7.349   1.028
    1CHTO   H79  264   7.108   7.423   1.107
    1CHTO   C38  265   7.273   7.359   0.982
    1CHTO   H80  266   7.295   7.272   0.918
    1CHTO   O31  267   7.355   7.351   1.100
    1CHTO   H68  268   7.340   7.425   1.156
    1CHTO   C39  269   7.301   7.492   0.900
    1CHTO   H81  270   7.290   7.576   0.968
    1CHTO    N7  271   7.440   7.497   0.843
    1CHTO   H73  272   7.454   7.590   0.790
    1CHTO   H74  273   7.513   7.488   0.922
    1CHTO   C40  274   7.192   7.507   0.787
    1CHTO   H82  275   7.203   7.426   0.715
    1CHTO   O26  276   7.062   7.507   0.848
    1CHTO   C41  277   7.027   7.381   0.910
    1CHTO   H83  278   7.032   7.300   0.836
    1CHTO   C52  279   6.881   7.390   0.960
    1CHTO   O35  280   6.787   7.405   0.850
    1CHTO   H71  281   6.701   7.415   0.885
    1CHTO   O28  282   7.196   7.633   0.716
    1CHTO   C42  283   7.137   7.639   0.582
    1CHTO   H84  284   7.075   7.549   0.573
    1CHTO   C44  285   7.236   7.636   0.462
    1CHTO   H86  286   7.294   7.729   0.461
    1CHTO   O32  287   7.326   7.526   0.485
    1CHTO   H69  288   7.395   7.526   0.421
    1CHTO   C48  289   7.159   7.622   0.325
    1CHTO   H90  290   7.115   7.522   0.324
    1CHTO    N9  291   7.252   7.625   0.206
    1CHTO   H77  292   7.304   7.719   0.202
    1CHTO   H78  293   7.196   7.608   0.115
    1CHTO   C51  294   7.042   7.728   0.310
    1CHTO   H93  295   7.084   7.824   0.281
    1CHTO   O30  296   6.962   7.738   0.429
    1CHTO   C46  297   7.042   7.761   0.560
    1CHTO   H88  298   7.101   7.852   0.549
    1CHTO   C53  299   6.941   7.780   0.676
    1CHTO   O72  300   6.851   7.669   0.690
    1CHTO  H199  301   6.788   7.670   0.621
    1CHTO   O22  302   6.949   7.679   0.211
    1CHTO   C31  303   6.876   7.760   0.112
    1CHTO   H59  304   6.854   7.858   0.161
    1CHTO   C29  305   6.959   7.792   2.863
    1CHTO   H57  306   7.007   7.697   2.833
    1CHTO   O21  307   7.065   7.881   0.023
    1CHTO   H37  308   7.125   7.892   2.829
    1CHTO   C27  309   6.872   7.846   2.742
    1CHTO   H55  310   6.832   7.945   2.769
    1CHTO    N5  311   6.950   7.859   2.616
    1CHTO   H43  312   6.950   7.962   2.583
    1CHTO   H44  313   7.051   7.825   2.629
    1CHTO   C25  314   6.750   7.750   2.723
    1CHTO   H53  315   6.787   7.647   2.707
    1CHTO   O17  316   6.671   7.754   2.846
    1CHTO   C32  317   6.738   7.695   0.080
    1CHTO   H60  318   6.753   7.588   0.060
    1CHTO   C36  319   6.645   7.708   0.203
    1CHTO   O25  320   6.521   7.638   0.184
    1CHTO   H40  321   6.536   7.545   0.187
    1CHTO   O15  322   6.653   7.791   2.598
    1CHTO   C19  323   6.562   7.706   2.522
    1CHTO   H47  324   6.526   7.773   2.442
    1CHTO   C20  325   6.628   7.581   2.455
    1CHTO   H48  326   6.677   7.516   2.529
    1CHTO   O19  327   6.729   7.631   2.365
    1CHTO   H35  328   6.802   7.665   2.414
    1CHTO   C21  329   6.520   7.493   2.378
    1CHTO   H49  330   6.478   7.553   2.297
    1CHTO    N4  331   6.578   7.372   2.315
    1CHTO   H41  332   6.655   7.400   2.245
    1CHTO   H42  333   6.501   7.317   2.263
    1CHTO   C22  334   6.406   7.460   2.478
    1CHTO   H50  335   6.450   7.406   2.562
    1CHTO   O14  336   6.349   7.583   2.523
    1CHTO   C23  337   6.436   7.664   2.603
    1CHTO   H51  338   6.462   7.607   2.694
    1CHTO   C34  339   6.357   7.788   2.647
    1CHTO   O23  340   6.243   7.753   2.725
    1CHTO   H38  341   6.270   7.722   2.810
    1CHTO   O16  342   6.292   7.390   2.423
    1CHTO   C24  343   6.292   7.228   2.451
    1CHTO   H52  344   6.393   7.189   2.467
    1CHTO   C26  345   6.229   7.159   2.328
    1CHTO   H54  346   6.126   7.200   2.314
    1CHTO   O20  347   6.306   7.192   2.211
    1CHTO   H36  348   6.298   7.283   2.191
    1CHTO   C30  349   6.219   7.005   2.348
    1CHTO   H58  350   6.320   6.961   2.342
    1CHTO    N6  351   6.140   6.940   2.239
    1CHTO   H45  352   6.137   6.833   2.254
    1CHTO   H46  353   6.039   6.979   2.238
    1CHTO   C33  354   6.164   6.966   2.489
    1CHTO   H61  355   6.055   6.981   2.493
    1CHTO   O18  356   6.224   7.047   2.592
    1CHTO   C28  357   6.209   7.189   2.576
    1CHTO   H56  358   6.104   7.215   2.558
    1CHTO   C35  359   6.257   7.255   2.706
    1CHTO   O24  360   6.217   7.392   2.718
    1CHTO   H39  361   6.248   7.427   2.799
    1CHTO    O9  362   6.185   6.825   2.513
    1CHTO   C13  363   6.146   6.768   2.658
    1CHTO   H26  364   6.068   6.835   2.701
    1CHTO   C11  365   6.276   6.762   2.748
    1CHTO   H24  366   6.303   6.866   2.775
    1CHTO    O8  367   6.387   6.708   2.674
    1CHTO    H3  368   6.369   6.618   2.650
    1CHTO    C9  369   6.242   6.685   0.000
    1CHTO   H22  370   6.155   6.736   0.043
    1CHTO    N2  371   6.346   6.694   0.106
    1CHTO   H10  372   6.368   6.797   0.127
    1CHTO   H11  373   6.435   6.642   0.074
    1CHTO    C7  374   6.201   6.539   2.843
    1CHTO   H20  375   6.174   6.492   0.062
    1CHTO    O4  376   6.083   6.540   2.760
    1CHTO   C14  377   6.077   6.624   2.643
    1CHTO   H27  378   5.969   6.643   2.626
    1CHTO   C18  379   6.129   6.545   2.520
    1CHTO   O13  380   6.044   6.433   2.491
    1CHTO    H7  381   6.046   6.372   2.562
    1CHTO    O2  382   6.323   6.450   2.766
    1CHTO    C1  383   6.371   6.336   2.840
    1CHTO   H14  384   6.315   6.326   0.058
    1CHTO    C2  385   6.527   6.342   2.873
    1CHTO   H15  386   6.578   6.353   2.776
    1CHTO    O6  387   6.556   6.457   0.076
    1CHTO    H1  388   6.511   6.451   0.158
    1CHTO    C3  389   6.575   6.207   0.068
    1CHTO   H16  390   6.534   6.205   0.170
    1CHTO    N1  391   6.725   6.201   0.082
    1CHTO    H8  392   6.754   6.110   0.133
    1CHTO    H9  393   6.760   6.286   0.139
    1CHTO    C4  394   6.518   6.079   2.875
    1CHTO   H17  395   6.574   6.061   2.782
    1CHTO    O1  396   6.377   6.092   2.845
    1CHTO    C5  397   6.347   6.205   2.760
    1CHTO   H18  398   6.417   6.205   2.676
    1CHTO   C16  399   6.203   6.188   2.704
    1CHTO   O11  400   6.103   6.181   2.806
    1CHTO    H5  401   6.097   6.263   2.851
    1CHTO    O3  402   6.528   5.964   0.084
    1CHTO    C6  403   6.509   5.835   0.018
    1CHTO   H19  404   6.455   5.843   2.801
    1CHTO    C8  405   6.646   5.765   2.867
    1CHTO   H21  406   6.699   5.754   0.084
    1CHTO    O7  407   6.721   5.851   2.779
    1CHTO    H2  408   6.676   5.861   2.697
    1CHTO   C12  409   6.621   5.621   2.805
    1CHTO   H25  410   6.573   5.638   2.706
    1CHTO    N3  411   6.750   5.549   2.780
    1CHTO   H12  412   6.812   5.607   2.712
    1CHTO   H13  413   6.730   5.452   2.737
    1CHTO   C15  414   6.521   5.541   0.019
    1CHTO   H28  415   6.568   5.513   0.113
    1CHTO   O10  416   6.466   5.415   2.828
    1CHTO    H4  417   6.536   5.356   2.809
    1CHTO    O5  418   6.401   5.615   0.044
    1CHTO   C10  419   6.424   5.741   0.109
    1CHTO   H23  420   6.478   5.723   0.202
    1CHTO   C17  421   6.288   5.803   0.148
    1CHTO   O12  422   6.208   5.835   0.034
    1CHTO    H6  423   6.244   5.909   2.867
    2CHTO  H203  424   3.566   3.892   1.290
    2CHTO   O82  425   3.629   3.934   1.234
    2CHTO  C123  426   3.673   4.058   1.292
    2CHTO  H227  427   3.719   4.036   1.390
    2CHTO   O77  428   3.774   4.104   1.198
    2CHTO  C118  429   3.840   4.226   1.237
    2CHTO  H222  430   3.886   4.214   1.336
    2CHTO  C125  431   3.952   4.256   1.131
    2CHTO   O84  432   4.052   4.153   1.132
    2CHTO  H205  433   4.115   4.170   1.065
    2CHTO  C114  434   3.736   4.340   1.242
    2CHTO  H218  435   3.693   4.352   1.142
    2CHTO  C116  436   3.620   4.305   1.340
    2CHTO  H220  437   3.660   4.304   1.444
    2CHTO   O79  438   3.522   4.410   1.336
    2CHTO  H201  439   3.558   4.490   1.369
    2CHTO  C120  440   3.557   4.164   1.305
    2CHTO  H224  441   3.506   4.176   1.207
    2CHTO   N21  442   3.453   4.123   1.403
    2CHTO  H211  443   3.401   4.209   1.442
    2CHTO  H212  444   3.497   4.067   1.484
    2CHTO   O75  445   3.809   4.458   1.281
    2CHTO  C112  446   3.765   4.606   1.206
    2CHTO  H216  447   3.763   4.684   1.284
    2CHTO   O73  448   3.637   4.590   1.143
    2CHTO  C113  449   3.585   4.712   1.088
    2CHTO  H217  450   3.582   4.789   1.169
    2CHTO  C124  451   3.440   4.683   1.047
    2CHTO   O83  452   3.366   4.801   1.017
    2CHTO  H204  453   3.280   4.778   0.989
    2CHTO  C109  454   3.675   4.761   0.971
    2CHTO  H213  455   3.667   4.686   0.891
    2CHTO  C110  456   3.824   4.773   1.019
    2CHTO  H214  457   3.832   4.861   1.083
    2CHTO   O78  458   3.907   4.796   0.904
    2CHTO  H200  459   3.996   4.812   0.931
    2CHTO  C111  460   3.871   4.646   1.097
    2CHTO  H215  461   3.878   4.562   1.026
    2CHTO   N19  462   4.005   4.661   1.160
    2CHTO  H207  463   4.005   4.744   1.228
    2CHTO  H208  464   4.080   4.676   1.084
    2CHTO   O74  465   3.624   4.889   0.921
    2CHTO  C115  466   3.667   4.934   0.771
    2CHTO  H219  467   3.776   4.937   0.760
    2CHTO   O76  468   3.618   4.833   0.663
    2CHTO  C122  469   3.475   4.818   0.661
    2CHTO  H226  470   3.447   4.759   0.748
    2CHTO  C126  471   3.436   4.730   0.537
    2CHTO   O85  472   3.490   4.598   0.543
    2CHTO  H206  473   3.461   4.548   0.469
    2CHTO  C121  474   3.396   4.956   0.659
    2CHTO  H225  475   3.324   4.955   0.575
    2CHTO   O81  476   3.320   4.971   0.780
    2CHTO  H202  477   3.256   4.903   0.786
    2CHTO  C119  478   3.493   5.077   0.640
    2CHTO  H223  479   3.539   5.060   0.542
    2CHTO  C117  480   3.607   5.079   0.748
    2CHTO  H221  481   3.575   5.112   0.847
    2CHTO   N20  482   3.714   5.178   0.709
    2CHTO  H209  483   3.670   5.276   0.696
    2CHTO  H210  484   3.790   5.181   0.785
    2CHTO   O80  485   3.417   5.216   0.616
    2CHTO  C103  486   3.321   5.230   0.496
    2CHTO  H190  487   3.325   5.140   0.434
    2CHTO  C101  488   3.170   5.259   0.530
    2CHTO  H188  489   3.164   5.351   0.589
    2CHTO   O68  490   3.112   5.142   0.615
    2CHTO  H168  491   3.158   5.136   0.697
    2CHTO   C99  492   3.088   5.280   0.394
    2CHTO  H186  493   3.089   5.184   0.337
    2CHTO   N17  494   2.943   5.315   0.414
    2CHTO  H174  495   2.892   5.317   0.319
    2CHTO  H175  496   2.897   5.245   0.482
    2CHTO   C97  497   3.159   5.383   0.302
    2CHTO  H184  498   3.143   5.485   0.343
    2CHTO   O64  499   3.298   5.353   0.286
    2CHTO  C104  500   3.374   5.349   0.408
    2CHTO  H191  501   3.364   5.442   0.464
    2CHTO  C108  502   3.523   5.335   0.375
    2CHTO   O71  503   3.571   5.450   0.305
    2CHTO  H171  504   3.661   5.438   0.282
    2CHTO   O62  505   3.112   5.374   0.166
    2CHTO   C91  506   3.081   5.495   0.094
    2CHTO  H178  507   3.032   5.565   0.162
    2CHTO   C92  508   2.974   5.453   2.865
    2CHTO  H179  509   3.009   5.362   2.814
    2CHTO   O66  510   2.855   5.413   0.058
    2CHTO  H166  511   2.817   5.485   0.104
    2CHTO   C93  512   2.941   5.566   2.759
    2CHTO  H180  513   2.888   5.646   2.813
    2CHTO   N16  514   2.848   5.522   2.651
    2CHTO  H172  515   2.819   5.419   2.665
    2CHTO  H173  516   2.892   5.536   2.553
    2CHTO   C94  517   3.075   5.624   2.701
    2CHTO  H181  518   3.132   5.548   2.647
    2CHTO   O61  519   3.158   5.669   2.809
    2CHTO   C95  520   3.202   5.568   0.022
    2CHTO  H182  521   3.262   5.494   2.846
    2CHTO  C106  522   3.298   5.638   0.125
    2CHTO   O69  523   3.417   5.687   0.063
    2CHTO  H169  524   3.397   5.760   0.007
    2CHTO   O63  525   3.045   5.754   2.599
    2CHTO   C96  526   3.019   5.893   2.673
    2CHTO  H183  527   3.037   5.881   2.780
    2CHTO   C98  528   2.876   5.952   2.657
    2CHTO  H185  529   2.851   5.958   2.549
    2CHTO   O67  530   2.782   5.858   2.712
    2CHTO  H167  531   2.796   5.847   2.804
    2CHTO  C102  532   2.860   6.096   2.727
    2CHTO  H189  533   2.864   6.077   2.835
    2CHTO   N18  534   2.730   6.164   2.702
    2CHTO  H176  535   2.727   6.258   2.755
    2CHTO  H177  536   2.649   6.100   2.735
    2CHTO  C105  537   2.981   6.187   2.690
    2CHTO  H192  538   2.970   6.223   2.588
    2CHTO   O65  539   3.108   6.119   2.700
    2CHTO  C100  540   3.120   6.001   2.620
    2CHTO  H187  541   3.095   6.026   2.516
    2CHTO  C107  542   3.266   5.950   2.623
    2CHTO   O70  543   3.355   6.047   2.566
    2CHTO  H170  544   3.443   6.014   2.568
    2CHTO   O57  545   2.978   6.311   2.797
    2CHTO   C85  546   3.053   6.431   2.771
    2CHTO  H157  547   3.035   6.456   2.664
    2CHTO   C83  548   3.206   6.403   2.782
    2CHTO  H155  549   3.234   6.334   2.702
    2CHTO   O56  550   3.232   6.334   0.028
    2CHTO  H135  551   3.322   6.308   0.033
    2CHTO   C81  552   3.286   6.535   2.765
    2CHTO  H153  553   3.259   6.578   2.668
    2CHTO   N14  554   3.432   6.513   2.756
    2CHTO  H141  555   3.469   6.474   2.849
    2CHTO  H142  556   3.454   6.443   2.678
    2CHTO   C79  557   3.243   6.638   2.876
    2CHTO  H151  558   3.298   6.730   2.858
    2CHTO   O52  559   3.101   6.669   2.861
    2CHTO   C86  560   3.013   6.551   2.866
    2CHTO  H158  561   3.017   6.520   0.094
    2CHTO   C90  562   2.866   6.594   2.841
    2CHTO   O60  563   2.848   6.650   2.710
    2CHTO  H138  564   2.854   6.582   2.646
    2CHTO   O50  565   3.270   6.595   0.133
    2CHTO   C73  566   3.291   6.619   0.273
    2CHTO  H145  567   3.217   6.691   0.311
    2CHTO   C74  568   3.434   6.676   0.299
    2CHTO  H146  569   3.441   6.771   0.245
    2CHTO   O54  570   3.446   6.709   0.439
    2CHTO  H133  571   3.438   6.632   0.492
    2CHTO   C75  572   3.540   6.571   0.250
    2CHTO  H147  573   3.525   6.554   0.142
    2CHTO   N13  574   3.680   6.617   0.262
    2CHTO  H139  575   3.747   6.541   0.225
    2CHTO  H140  576   3.695   6.707   0.204
    2CHTO   C76  577   3.513   6.431   0.324
    2CHTO  H148  578   3.535   6.444   0.430
    2CHTO   O49  579   3.373   6.390   0.307
    2CHTO   C77  580   3.276   6.485   0.352
    2CHTO  H149  581   3.290   6.505   0.458
    2CHTO   C88  582   3.137   6.423   0.338
    2CHTO   O58  583   3.032   6.513   0.391
    2CHTO  H136  584   2.948   6.472   0.382
    2CHTO   O51  585   3.600   6.312   0.257
    2CHTO   C78  586   3.574   6.173   0.331
    2CHTO  H150  587   3.480   6.177   0.391
    2CHTO   C80  588   3.691   6.139   0.426
    2CHTO  H152  589   3.784   6.129   0.366
    2CHTO   O55  590   3.706   6.249   0.518
    2CHTO  H134  591   3.738   6.325   0.473
    2CHTO   C84  592   3.661   6.004   0.502
    2CHTO  H156  593   3.574   6.023   0.564
    2CHTO   N15  594   3.771   5.962   0.596
    2CHTO  H143  595   3.850   6.034   0.596
    2CHTO  H144  596   3.811   5.866   0.569
    2CHTO   C87  597   3.627   5.891   0.400
    2CHTO  H159  598   3.718   5.863   0.346
    2CHTO   O53  599   3.520   5.940   0.299
    2CHTO   C82  600   3.559   6.060   0.229
    2CHTO  H154  601   3.653   6.043   0.175
    2CHTO   C89  602   3.452   6.094   0.123
    2CHTO   O59  603   3.448   5.994   0.021
    2CHTO  H137  604   3.383   6.017   2.836
    2CHTO   O45  605   3.567   5.749   0.475
    2CHTO   C67  606   3.459   5.764   0.570
    2CHTO  H124  607   3.473   5.857   0.625
    2CHTO   C65  608   3.318   5.768   0.501
    2CHTO  H122  609   3.329   5.711   0.408
    2CHTO   O44  610   3.292   5.906   0.469
    2CHTO  H102  611   3.272   5.954   0.547
    2CHTO   C63  612   3.207   5.690   0.583
    2CHTO  H120  613   3.221   5.583   0.568
    2CHTO   N11  614   3.066   5.708   0.535
    2CHTO  H108  615   3.034   5.809   0.552
    2CHTO  H109  616   3.001   5.641   0.587
    2CHTO   C61  617   3.229   5.717   0.736
    2CHTO  H118  618   3.154   5.656   0.790
    2CHTO   O40  619   3.360   5.672   0.782
    2CHTO   C68  620   3.464   5.651   0.681
    2CHTO  H125  621   3.449   5.551   0.634
    2CHTO   C72  622   3.602   5.647   0.751
    2CHTO   O48  623   3.615   5.535   0.840
    2CHTO  H105  624   3.700   5.538   0.881
    2CHTO   O38  625   3.214   5.856   0.769
    2CHTO   C55  626   3.178   5.889   0.904
    2CHTO  H112  627   3.211   5.808   0.972
    2CHTO   C56  628   3.021   5.913   0.913
    2CHTO  H113  629   2.994   5.981   0.830
    2CHTO   O42  630   2.951   5.790   0.889
    2CHTO  H100  631   2.966   5.761   0.801
    2CHTO   C57  632   2.979   5.978   1.051
    2CHTO  H114  633   2.997   5.903   1.129
    2CHTO   N10  634   2.835   6.015   1.057
    2CHTO  H106  635   2.820   6.116   1.020
    2CHTO  H107  636   2.800   6.009   1.159
    2CHTO   C58  637   3.071   6.100   1.078
    2CHTO  H115  638   3.058   6.173   0.995
    2CHTO   O37  639   3.208   6.056   1.079
    2CHTO   C59  640   3.255   6.017   0.949
    2CHTO  H116  641   3.241   6.098   0.878
    2CHTO   C70  642   3.406   5.991   0.963
    2CHTO   O46  643   3.473   5.984   0.837
    2CHTO  H103  644   3.564   5.969   0.851
    2CHTO   O39  645   3.043   6.174   1.225
    2CHTO   C60  646   2.993   6.309   1.210
    2CHTO  H117  647   2.974   6.331   1.105
    2CHTO   C62  648   2.858   6.326   1.285
    2CHTO  H119  649   2.790   6.248   1.245
    2CHTO   O43  650   2.876   6.301   1.426
    2CHTO  H101  651   2.933   6.365   1.464
    2CHTO   C66  652   2.797   6.471   1.252
    2CHTO  H123  653   2.789   6.480   1.143
    2CHTO   N12  654   2.660   6.487   1.306
    2CHTO  H110  655   2.590   6.508   1.226
    2CHTO  H111  656   2.656   6.563   1.382
    2CHTO   C69  657   2.896   6.580   1.300
    2CHTO  H126  658   2.905   6.576   1.410
    2CHTO   O41  659   3.038   6.556   1.235
    2CHTO   C64  660   3.095   6.415   1.261
    2CHTO  H121  661   3.112   6.402   1.370
    2CHTO   C71  662   3.232   6.406   1.189
    2CHTO   O47  663   3.306   6.291   1.230
    2CHTO  H104  664   3.334   6.301   1.319
    2CHTO   O34  665   2.847   6.722   1.260
    2CHTO   C49  666   2.818   6.869   1.243
    2CHTO   H91  667   2.778   6.904   1.338
    2CHTO   C47  668   2.712   6.885   1.132
    2CHTO   H89  669   2.681   6.992   1.133
    2CHTO   O33  670   2.597   6.804   1.165
    2CHTO   H70  671   2.554   6.838   1.242
    2CHTO   C45  672   2.778   6.848   0.990
    2CHTO   H87  673   2.824   6.748   0.998
    2CHTO    N8  674   2.681   6.845   0.877
    2CHTO   H75  675   2.582   6.876   0.910
    2CHTO   H76  676   2.676   6.746   0.834
    2CHTO   C43  677   2.899   6.950   0.964
    2CHTO   H85  678   2.944   6.922   0.868
    2CHTO   O29  679   2.995   6.940   1.072
    2CHTO   C50  680   2.946   6.950   1.208
    2CHTO   H92  681   3.027   6.911   1.272
    2CHTO   C54  682   2.933   7.098   1.253
    2CHTO   O36  683   3.060   7.165   1.252
    2CHTO   H72  684   3.048   7.254   1.279
    2CHTO   O27  685   2.854   7.086   0.949
    2CHTO   C37  686   2.797   7.194   0.874
    2CHTO   H79  687   2.745   7.156   0.785
    2CHTO   C38  688   2.690   7.270   0.959
    2CHTO   H80  689   2.733   7.291   1.058
    2CHTO   O31  690   2.578   7.181   0.976
    2CHTO   H68  691   2.600   7.110   1.032
    2CHTO   C39  692   2.646   7.406   0.892
    2CHTO   H81  693   2.596   7.381   0.798
    2CHTO    N7  694   2.550   7.486   0.975
    2CHTO   H73  695   2.593   7.507   1.071
    2CHTO   H74  696   2.458   7.431   0.987
    2CHTO   C40  697   2.775   7.490   0.855
    2CHTO   H82  698   2.827   7.518   0.947
    2CHTO   O26  699   2.858   7.411   0.768
    2CHTO   C41  700   2.911   7.290   0.829
    2CHTO   H83  701   2.972   7.317   0.916
    2CHTO   C52  702   3.004   7.221   0.727
    2CHTO   O35  703   2.935   7.185   0.599
    2CHTO   H71  704   2.997   7.144   0.541
    2CHTO   O28  705   2.747   7.609   0.779
    2CHTO   C42  706   2.832   7.728   0.792
    2CHTO   H84  707   2.803   7.790   0.707
    2CHTO   C44  708   2.987   7.706   0.778
    2CHTO   H86  709   3.018   7.631   0.852
    2CHTO   O32  710   3.010   7.651   0.647
    2CHTO   H69  711   2.973   7.565   0.640
    2CHTO   C48  712   3.072   7.837   0.804
    2CHTO   H90  713   3.051   7.908   0.723
    2CHTO    N9  714   3.220   7.811   0.799
    2CHTO   H77  715   3.267   7.835   0.893
    2CHTO   H78  716   3.265   7.867   0.719
    2CHTO   C51  717   3.025   7.902   0.940
    2CHTO   H93  718   3.043   7.830   1.020
    2CHTO   O30  719   2.886   7.934   0.927
    2CHTO   C46  720   2.799   7.811   0.920
    2CHTO   H88  721   2.819   7.749   1.008
    2CHTO   C53  722   2.651   7.858   0.924
    2CHTO   O72  723   2.618   7.945   0.815
    2CHTO  H199  724   2.618   7.897   0.734
    2CHTO   O22  725   3.091   8.028   0.969
    2CHTO   C31  726   3.097   8.082   1.107
    2CHTO   H59  727   3.144   8.182   1.098
    2CHTO   C29  728   2.959   8.103   1.173
    2CHTO   H57  729   2.906   8.006   1.172
    2CHTO   O21  730   2.883   8.194   1.090
    2CHTO   H37  731   2.864   8.154   1.007
    2CHTO   C27  732   2.969   8.153   1.323
    2CHTO   H55  733   3.010   8.255   1.323
    2CHTO    N5  734   2.836   8.156   1.391
    2CHTO   H43  735   2.846   8.196   1.491
    2CHTO   H44  736   2.767   8.217   1.334
    2CHTO   C25  737   3.069   8.062   1.401
    2CHTO   H53  738   3.030   7.959   1.405
    2CHTO   O17  739   3.198   8.059   1.332
    2CHTO   C32  740   3.191   7.999   1.202
    2CHTO   H60  741   3.151   7.898   1.210
    2CHTO   C36  742   3.335   7.991   1.145
    2CHTO   O25  743   3.417   7.907   1.226
    2CHTO   H40  744   3.503   7.901   1.188
    2CHTO   O15  745   3.094   8.113   1.550
    2CHTO   C19  746   3.109   8.029   1.669
    2CHTO   H47  747   3.034   7.950   1.655
    2CHTO   C20  748   3.250   7.962   1.685
    2CHTO   H48  749   3.330   8.037   1.689
    2CHTO   O19  750   3.273   7.881   1.568
    2CHTO   H35  751   3.210   7.812   1.563
    2CHTO   C21  752   3.258   7.874   1.817
    2CHTO   H49  753   3.193   7.787   1.804
    2CHTO    N4  754   3.394   7.820   1.842
    2CHTO   H41  755   3.395   7.760   1.932
    2CHTO   H42  756   3.465   7.901   1.853
    2CHTO   C22  757   3.203   7.954   1.939
    2CHTO   H50  758   3.274   8.032   1.965
    2CHTO   O14  759   3.075   8.011   1.911
    2CHTO   C23  760   3.071   8.103   1.801
    2CHTO   H51  761   3.141   8.185   1.823
    2CHTO   C34  762   2.930   8.163   1.793
    2CHTO   O23  763   2.902   8.245   1.907
    2CHTO   H38  764   2.891   8.191   1.983
    2CHTO   O16  765   3.178   7.866   2.050
    2CHTO   C24  766   3.192   7.934   2.196
    2CHTO   H52  767   3.209   8.042   2.190
    2CHTO   C26  768   3.309   7.867   2.271
    2CHTO   H54  769   3.298   7.756   2.261
    2CHTO   O20  770   3.430   7.905   2.204
    2CHTO   H36  771   3.504   7.861   2.243
    2CHTO   C30  772   3.311   7.903   2.423
    2CHTO   H58  773   3.340   8.009   2.435
    2CHTO    N6  774   3.414   7.824   2.497
    2CHTO   H45  775   3.394   7.719   2.486
    2CHTO   H46  776   3.512   7.846   2.458
    2CHTO   C33  777   3.169   7.889   2.486
    2CHTO   H61  778   3.139   7.783   2.486
    2CHTO   O18  779   3.075   7.964   2.407
    2CHTO   C28  780   3.058   7.915   2.274
    2CHTO   H56  781   3.033   7.809   2.274
    2CHTO   C35  782   2.941   7.992   2.209
    2CHTO   O24  783   2.960   8.134   2.204
    2CHTO   H39  784   3.030   8.155   2.146
    2CHTO    O9  785   3.166   7.929   2.625
    2CHTO   C13  786   3.020   7.913   2.697
    2CHTO   H26  787   2.967   7.827   2.649
    2CHTO   C11  788   2.939   8.048   2.681
    2CHTO   H24  789   2.915   8.061   2.574
    2CHTO    O8  790   3.021   8.160   2.721
    2CHTO    H3  791   3.094   8.169   2.663
    2CHTO    C9  792   2.806   8.036   2.760
    2CHTO   H22  793   2.757   7.946   2.720
    2CHTO    N2  794   2.710   8.146   2.734
    2CHTO   H10  795   2.676   8.191   2.826
    2CHTO   H11  796   2.753   8.221   2.669
    2CHTO    C7  797   2.838   8.012   0.034
    2CHTO   H20  798   2.738   7.991   0.078
    2CHTO    O4  799   2.922   7.897   0.055
    2CHTO   C14  800   3.038   7.872   2.850
    2CHTO   H27  801   3.052   7.762   2.853
    2CHTO   C18  802   3.164   7.935   0.036
    2CHTO   O13  803   3.194   7.874   0.162
    2CHTO    H7  804   3.272   7.912   0.198
    2CHTO    O2  805   2.905   8.145   0.107
    2CHTO    C1  806   2.919   8.142   0.250
    2CHTO   H14  807   2.981   8.054   0.279
    2CHTO    C2  808   2.783   8.137   0.331
    2CHTO   H15  809   2.718   8.213   0.285
    2CHTO    O6  810   2.722   8.007   0.316
    2CHTO    H1  811   2.637   8.006   0.354
    2CHTO    C3  812   2.803   8.168   0.488
    2CHTO   H16  813   2.849   8.080   0.535
    2CHTO    N1  814   2.672   8.190   0.558
    2CHTO    H8  815   2.620   8.275   0.514
    2CHTO    H9  816   2.688   8.208   0.663
    2CHTO    C4  817   2.904   8.287   0.512
    2CHTO   H17  818   2.855   8.381   0.485
    2CHTO    O1  819   3.023   8.270   0.434
    2CHTO    C5  820   3.000   8.268   0.292
    2CHTO   H18  821   2.941   8.356   0.265
    2CHTO   C16  822   3.137   8.277   0.221
    2CHTO   O11  823   3.198   8.404   0.243
    2CHTO    H5  824   3.278   8.410   0.193
    2CHTO    O3  825   2.946   8.289   0.650
    2CHTO    C6  826   2.998   8.416   0.700
    2CHTO   H19  827   3.039   8.479   0.621
    2CHTO    C8  828   2.886   8.496   0.774
    2CHTO   H21  829   2.839   8.430   0.848
    2CHTO    O7  830   2.788   8.535   0.676
    2CHTO    H2  831   2.741   8.460   0.645
    2CHTO   C12  832   2.946   8.622   0.850
    2CHTO   H25  833   2.979   8.692   0.771
    2CHTO    N3  834   2.840   8.693   0.930
    2CHTO   H12  835   2.865   8.694   1.035
    2CHTO   H13  836   2.826   8.793   0.893
    2CHTO   C15  837   3.071   8.579   0.935
    2CHTO   H28  838   3.042   8.517   1.021
    2CHTO   O10  839   3.153   8.701   0.986
    2CHTO    H4  840   3.174   8.759   0.914
    2CHTO    O5  841   3.166   8.508   0.854
    2CHTO   C10  842   3.115   8.386   0.799
    2CHTO   H23  843   3.079   8.323   0.880
    2CHTO   C17  844   3.229   8.311   0.729
    2CHTO   O12  845   3.334   8.277   0.821
    2CHTO    H6  846   3.407   8.243   0.774
    3CHTO  H203  847   7.505   2.539   2.345
    3CHTO   O82  848   7.454   2.505   2.274
    3CHTO  C123  849   7.494   2.370   2.244
    3CHTO  H227  850   7.604   2.365   2.241
    3CHTO   O77  851   7.443   2.293   2.357
    3CHTO  C118  852   7.477   2.154   2.356
    3CHTO  H222  853   7.586   2.142   2.352
    3CHTO  C125  854   7.423   2.095   2.492
    3CHTO   O84  855   7.473   1.963   2.518
    3CHTO  H205  856   7.441   1.933   2.601
    3CHTO  C114  857   7.412   2.087   2.233
    3CHTO  H218  858   7.304   2.094   2.242
    3CHTO  C116  859   7.453   2.159   2.100
    3CHTO  H220  860   7.561   2.138   2.080
    3CHTO   O79  861   7.380   2.102   1.990
    3CHTO  H201  862   7.288   2.115   2.001
    3CHTO  C120  863   7.430   2.316   2.110
    3CHTO  H224  864   7.320   2.331   2.112
    3CHTO   N21  865   7.483   2.387   1.991
    3CHTO  H211  866   7.426   2.477   1.973
    3CHTO  H212  867   7.588   2.409   2.002
    3CHTO   O75  868   7.455   1.950   2.240
    3CHTO  C112  869   7.359   1.841   2.163
    3CHTO  H216  870   7.355   1.865   2.056
    3CHTO   O73  871   7.229   1.846   2.224
    3CHTO  C113  872   7.133   1.762   2.159
    3CHTO  H217  873   7.127   1.790   2.051
    3CHTO  C124  874   6.996   1.792   2.222
    3CHTO   O83  875   6.888   1.733   2.149
    3CHTO  H204  876   6.807   1.755   2.191
    3CHTO  C109  877   7.174   1.613   2.174
    3CHTO  H213  878   7.171   1.590   2.282
    3CHTO  C110  879   7.319   1.591   2.120
    3CHTO  H214  880   7.317   1.601   2.012
    3CHTO   O78  881   7.361   1.456   2.150
    3CHTO  H200  882   7.364   1.442   2.242
    3CHTO  C111  883   7.418   1.695   2.181
    3CHTO  H215  884   7.428   1.676   2.288
    3CHTO   N19  885   7.555   1.687   2.123
    3CHTO  H207  886   7.620   1.759   2.171
    3CHTO  H208  887   7.552   1.706   2.017
    3CHTO   O74  888   7.079   1.526   2.104
    3CHTO  C115  889   7.057   1.379   2.176
    3CHTO  H219  890   7.148   1.319   2.173
    3CHTO   O76  891   7.021   1.394   2.329
    3CHTO  C122  892   6.997   1.271   2.399
    3CHTO  H226  893   6.958   1.297   2.498
    3CHTO  C126  894   7.132   1.193   2.426
    3CHTO   O85  895   7.224   1.269   2.505
    3CHTO  H206  896   7.192   1.276   2.593
    3CHTO  C121  897   6.891   1.181   2.326
    3CHTO  H225  898   6.890   1.081   2.376
    3CHTO   O81  899   6.761   1.240   2.344
    3CHTO  H202  900   6.694   1.181   2.314
    3CHTO  C119  901   6.924   1.160   2.174
    3CHTO  H223  902   7.021   1.109   2.173
    3CHTO  C117  903   6.945   1.298   2.101
    3CHTO  H221  904   6.858   1.364   2.098
    3CHTO   N20  905   6.983   1.277   1.957
    3CHTO  H209  906   6.993   1.372   1.907
    3CHTO  H210  907   7.075   1.221   1.951
    3CHTO   O80  908   6.828   1.047   2.094
    3CHTO  C103  909   6.701   0.986   2.164
    3CHTO  H190  910   6.700   1.007   2.270
    3CHTO  C101  911   6.563   1.033   2.104
    3CHTO  H188  912   6.565   1.018   1.995
    3CHTO   O68  913   6.545   1.185   2.132
    3CHTO  H168  914   6.613   1.234   2.089
    3CHTO   C99  915   6.444   0.946   2.165
    3CHTO  H186  916   6.439   0.964   2.275
    3CHTO   N17  917   6.308   0.981   2.110
    3CHTO  H174  918   6.303   0.954   2.005
    3CHTO  H175  919   6.231   0.931   2.167
    3CHTO   C97  920   6.475   0.794   2.150
    3CHTO  H184  921   6.471   0.768   2.042
    3CHTO   O64  922   6.603   0.763   2.207
    3CHTO  C104  923   6.715   0.830   2.147
    3CHTO  H191  924   6.721   0.806   2.040
    3CHTO  C108  925   6.845   0.777   2.209
    3CHTO   O71  926   6.851   0.799   2.350
    3CHTO  H171  927   6.863   0.890   2.368
    3CHTO   O62  928   6.383   0.713   2.225
    3CHTO   C91  929   6.360   0.578   2.180
    3CHTO  H178  930   6.383   0.573   2.073
    3CHTO   C92  931   6.207   0.551   2.193
    3CHTO  H179  932   6.174   0.580   2.294
    3CHTO   O66  933   6.142   0.641   2.101
    3CHTO  H166  934   6.049   0.634   2.110
    3CHTO   C93  935   6.172   0.400   2.165
    3CHTO  H180  936   6.198   0.379   2.061
    3CHTO   N16  937   6.026   0.372   2.176
    3CHTO  H172  938   6.007   0.268   2.154
    3CHTO  H173  939   5.972   0.435   2.107
    3CHTO   C94  940   6.256   0.304   2.259
    3CHTO  H181  941   6.196   0.263   2.340
    3CHTO   O61  942   6.364   0.371   2.326
    3CHTO   C95  943   6.446   0.468   2.256
    3CHTO  H182  944   6.508   0.519   2.329
    3CHTO  C106  945   6.547   0.393   2.159
    3CHTO   O69  946   6.635   0.484   2.093
    3CHTO  H169  947   6.694   0.523   2.155
    3CHTO   O63  948   6.317   0.182   2.170
    3CHTO   C96  949   6.255   0.034   2.194
    3CHTO  H183  950   6.311   9.965   2.131
    3CHTO   C98  951   6.105   0.021   2.156
    3CHTO  H185  952   6.046   0.097   2.210
    3CHTO   O67  953   6.095   0.054   2.017
    3CHTO  H167  954   6.005   0.054   1.990
    3CHTO  C102  955   6.047   9.875   2.187
    3CHTO  H189  956   6.096   9.807   2.115
    3CHTO   N18  957   5.901   9.862   2.160
    3CHTO  H176  958   5.846   9.930   2.223
    3CHTO  H177  959   5.869   9.760   2.179
    3CHTO  C105  960   6.085   9.831   2.331
    3CHTO  H192  961   6.025   9.887   2.403
    3CHTO   O65  962   6.224   9.853   2.360
    3CHTO  C100  963   6.276   9.986   2.344
    3CHTO  H187  964   6.222   0.053   2.413
    3CHTO  C107  965   6.425   9.980   2.385
    3CHTO   O70  966   6.485   0.109   2.393
    3CHTO  H170  967   6.575   0.100   2.418
    3CHTO   O57  968   6.054   9.668   2.340
    3CHTO   C85  969   6.004   9.598   2.456
    3CHTO  H157  970   6.042   9.495   2.441
    3CHTO   C83  971   5.849   9.586   2.449
    3CHTO  H155  972   5.824   9.537   2.356
    3CHTO   O56  973   5.790   9.717   2.443
    3CHTO  H135  974   5.697   9.710   2.431
    3CHTO   C81  975   5.801   9.498   2.568
    3CHTO  H153  976   5.855   9.403   2.564
    3CHTO   N14  977   5.658   9.458   2.556
    3CHTO  H141  978   5.633   9.389   2.634
    3CHTO  H142  979   5.595   9.544   2.564
    3CHTO   C79  980   5.837   9.569   2.704
    3CHTO  H151  981   5.809   9.500   2.784
    3CHTO   O52  982   5.981   9.589   2.713
    3CHTO   C86  983   6.044   9.656   2.598
    3CHTO  H158  984   6.014   9.762   2.609
    3CHTO   C90  985   6.197   9.654   2.618
    3CHTO   O60  986   6.248   9.520   2.623
    3CHTO  H138  987   6.240   9.480   2.538
    3CHTO   O50  988   5.770   9.695   2.725
    3CHTO   C73  989   5.684   9.750   2.826
    3CHTO  H145  990   5.706   9.703   0.045
    3CHTO   C74  991   5.534   9.724   2.790
    3CHTO  H146  992   5.521   9.615   2.780
    3CHTO   O54  993   5.453   9.765   0.023
    3CHTO  H133  994   5.468   9.709   0.097
    3CHTO   C75  995   5.500   9.799   2.655
    3CHTO  H147  996   5.564   9.758   2.575
    3CHTO   N13  997   5.361   9.780   2.609
    3CHTO  H139  998   5.342   9.675   2.592
    3CHTO  H140  999   5.345   9.832   2.515
    3CHTO   C76 1000   5.538   9.954   2.672
    3CHTO  H148 1001   5.473   9.996   2.748
    3CHTO   O49 1002   5.678   9.969   2.713
    3CHTO   C77 1003   5.709   9.903   2.837
    3CHTO  H149 1004   5.647   9.944   0.039
    3CHTO   C88 1005   5.854   9.938   2.873
    3CHTO   O58 1006   5.890   9.885   0.129
    3CHTO  H136 1007   5.978   9.910   0.150
    3CHTO   O51 1008   5.528   0.030   2.533
    3CHTO   C78 1009   5.536   0.186   2.551
    3CHTO  H150 1010   5.588   0.213   2.646
    3CHTO   C80 1011   5.394   0.246   2.552
    3CHTO  H152 1012   5.341   0.214   2.460
    3CHTO   O55 1013   5.326   0.189   2.666
    3CHTO  H134 1014   5.236   0.215   2.666
    3CHTO   C84 1015   5.398   0.404   2.560
    3CHTO  H156 1016   5.443   0.431   2.655
    3CHTO   N15 1017   5.260   0.463   2.558
    3CHTO  H143 1018   5.210   0.438   2.467
    3CHTO  H144 1019   5.265   0.570   2.567
    3CHTO   C87 1020   5.487   0.461   2.447
    3CHTO  H159 1021   5.439   0.445   2.350
    3CHTO   O53 1022   5.627   0.388   2.450
    3CHTO   C82 1023   5.620   0.246   2.436
    3CHTO  H154 1024   5.579   0.219   2.338
    3CHTO   C89 1025   5.767   0.195   2.438
    3CHTO   O59 1026   5.778   0.055   2.412
    3CHTO  H137 1027   5.755   0.037   2.323
    3CHTO   O45 1028   5.507   0.628   2.467
    3CHTO   C67 1029   5.641   0.679   2.478
    3CHTO  H124 1030   5.707   0.600   2.514
    3CHTO   C65 1031   5.694   0.729   2.338
    3CHTO  H122 1032   5.607   0.761   2.282
    3CHTO   O44 1033   5.752   0.613   2.275
    3CHTO  H102 1034   5.774   0.633   2.186
    3CHTO   C63 1035   5.785   0.858   2.350
    3CHTO  H120 1036   5.719   0.945   2.364
    3CHTO   N11 1037   5.860   0.899   2.227
    3CHTO  H108 1038   5.935   0.826   2.205
    3CHTO  H109 1039   5.793   0.907   2.144
    3CHTO   C61 1040   5.872   0.848   2.480
    3CHTO  H118 1041   5.930   0.941   2.489
    3CHTO   O40 1042   5.791   0.837   2.601
    3CHTO   C68 1043   5.651   0.794   2.585
    3CHTO  H125 1044   5.590   0.881   2.553
    3CHTO   C72 1045   5.597   0.748   2.723
    3CHTO   O48 1046   5.593   0.855   2.819
    3CHTO  H105 1047   5.528   0.918   2.794
    3CHTO   O38 1048   5.963   0.735   2.472
    3CHTO   C55 1049   6.061   0.719   2.575
    3CHTO  H112 1050   6.028   0.769   2.668
    3CHTO   C56 1051   6.202   0.774   2.526
    3CHTO  H113 1052   6.218   0.736   2.424
    3CHTO   O42 1053   6.196   0.917   2.513
    3CHTO  H100 1054   6.179   0.957   2.596
    3CHTO   C57 1055   6.321   0.729   2.621
    3CHTO  H114 1056   6.310   0.784   2.714
    3CHTO   N10 1057   6.455   0.761   2.565
    3CHTO  H106 1058   6.484   0.861   2.597
    3CHTO  H107 1059   6.529   0.691   2.599
    3CHTO   C58 1060   6.308   0.577   2.651
    3CHTO  H115 1061   6.323   0.519   2.557
    3CHTO   O37 1062   6.177   0.550   2.706
    3CHTO   C59 1063   6.072   0.568   2.611
    3CHTO  H116 1064   6.091   0.509   2.521
    3CHTO   C70 1065   5.941   0.518   2.674
    3CHTO   O46 1066   5.941   0.377   2.699
    3CHTO  H103 1067   5.939   0.330   2.618
    3CHTO   O39 1068   6.416   0.529   2.766
    3CHTO   C60 1069   6.449   0.390   2.783
    3CHTO  H117 1070   6.517   0.385   2.868
    3CHTO   C62 1071   6.328   0.297   2.818
    3CHTO  H119 1072   6.272   0.350   0.021
    3CHTO   O43 1073   6.239   0.280   2.706
    3CHTO  H101 1074   6.198   0.361   2.684
    3CHTO   C66 1075   6.385   0.158   2.874
    3CHTO  H123 1076   6.456   0.180   0.076
    3CHTO   N12 1077   6.279   0.074   0.056
    3CHTO  H110 1078   6.205   0.049   2.860
    3CHTO  H111 1079   6.323   9.984   0.099
    3CHTO   C69 1080   6.464   0.085   2.761
    3CHTO  H126 1081   6.393   0.049   2.683
    3CHTO   O41 1082   6.573   0.184   2.694
    3CHTO   C64 1083   6.525   0.330   2.661
    3CHTO  H121 1084   6.456   0.328   2.573
    3CHTO   C71 1085   6.648   0.416   2.624
    3CHTO   O47 1086   6.708   0.369   2.502
    3CHTO  H104 1087   6.750   0.287   2.518
    3CHTO   O34 1088   6.539   9.963   2.820
    3CHTO   C49 1089   6.600   9.828   2.790
    3CHTO   H91 1090   6.604   9.821   2.682
    3CHTO   C47 1091   6.510   9.715   2.846
    3CHTO   H89 1092   6.430   9.703   2.770
    3CHTO   O33 1093   6.449   9.752   0.093
    3CHTO   H70 1094   6.392   9.826   0.081
    3CHTO   C45 1095   6.591   9.577   2.869
    3CHTO   H87 1096   6.629   9.578   0.095
    3CHTO    N8 1097   6.502   9.460   2.854
    3CHTO   H75 1098   6.416   9.470   0.040
    3CHTO   H76 1099   6.555   9.370   0.001
    3CHTO   C43 1100   6.724   9.573   2.780
    3CHTO   H85 1101   6.773   9.477   2.801
    3CHTO   O29 1102   6.809   9.685   2.813
    3CHTO   C50 1103   6.745   9.810   2.845
    3CHTO   H92 1104   6.742   9.822   0.076
    3CHTO   C54 1105   6.836   9.926   2.797
    3CHTO   O36 1106   6.961   9.927   2.867
    3CHTO   H72 1107   7.011   9.851   2.844
    3CHTO   O27 1108   6.694   9.573   2.639
    3CHTO   C37 1109   6.708   9.564   2.497
    3CHTO   H79 1110   6.753   9.468   2.469
    3CHTO   C38 1111   6.567   9.570   2.429
    3CHTO   H80 1112   6.513   9.658   2.469
    3CHTO   O31 1113   6.495   9.451   2.468
    3CHTO   H68 1114   6.537   9.374   2.434
    3CHTO   C39 1115   6.576   9.582   2.272
    3CHTO   H81 1116   6.615   9.486   2.235
    3CHTO    N7 1117   6.443   9.604   2.205
    3CHTO   H73 1118   6.363   9.606   2.277
    3CHTO   H74 1119   6.425   9.527   2.131
    3CHTO   C40 1120   6.681   9.693   2.230
    3CHTO   H82 1121   6.640   9.792   2.250
    3CHTO   O26 1122   6.805   9.671   2.297
    3CHTO   C41 1123   6.797   9.679   2.443
    3CHTO   H83 1124   6.753   9.776   2.472
    3CHTO   C52 1125   6.940   9.672   2.499
    3CHTO   O35 1126   7.021   9.788   2.460
    3CHTO   H71 1127   7.106   9.782   2.499
    3CHTO   O28 1128   6.712   9.683   2.089
    3CHTO   C42 1129   6.786   9.785   2.015
    3CHTO   H84 1130   6.780   9.751   1.912
    3CHTO   C44 1131   6.939   9.798   2.046
    3CHTO   H86 1132   6.951   9.828   2.151
    3CHTO   O32 1133   6.997   9.667   2.030
    3CHTO   H69 1134   6.993   9.640   1.940
    3CHTO   C48 1135   7.010   9.907   1.955
    3CHTO   H90 1136   7.007   9.871   1.852
    3CHTO    N9 1137   7.155   9.925   1.989
    3CHTO   H77 1138   7.166   9.956   2.092
    3CHTO   H78 1139   7.209   9.834   1.970
    3CHTO   C51 1140   6.929   0.042   1.963
    3CHTO   H93 1141   6.937   0.081   2.065
    3CHTO   O30 1142   6.793   0.017   1.926
    3CHTO   C46 1143   6.720   9.927   2.019
    3CHTO   H88 1144   6.726   9.967   2.120
    3CHTO   C53 1145   6.572   9.922   1.973
    3CHTO   O72 1146   6.513   0.052   1.972
    3CHTO  H199 1147   6.505   0.084   2.060
    3CHTO   O22 1148   6.975   0.139   1.868
    3CHTO   C31 1149   6.935   0.281   1.883
    3CHTO   H59 1150   6.861   0.284   1.966
    3CHTO   C29 1151   7.052   0.375   1.922
    3CHTO   H57 1152   7.127   0.369   1.842
    3CHTO   O21 1153   7.113   0.324   2.042
    3CHTO   H37 1154   7.155   0.242   2.025
    3CHTO   C27 1155   7.004   0.525   1.937
    3CHTO   H55 1156   6.937   0.532   2.025
    3CHTO    N5 1157   7.117   0.619   1.957
    3CHTO   H43 1158   7.174   0.591   2.045
    3CHTO   H44 1159   7.181   0.619   1.870
    3CHTO   C25 1160   6.918   0.567   1.812
    3CHTO   H53 1161   6.983   0.572   1.723
    3CHTO   O17 1162   6.814   0.469   1.786
    3CHTO   C32 1163   6.862   0.337   1.758
    3CHTO   H60 1164   6.933   0.341   1.674
    3CHTO   C36 1165   6.742   0.250   1.716
    3CHTO   O25 1166   6.686   0.294   1.592
    3CHTO   H40 1167   6.644   0.377   1.604
    3CHTO   O15 1168   6.848   0.709   1.834
    3CHTO   C19 1169   6.759   0.765   1.732
    3CHTO   H47 1170   6.773   0.699   1.645
    3CHTO   C20 1171   6.609   0.766   1.770
    3CHTO   H48 1172   6.588   0.834   1.855
    3CHTO   O19 1173   6.574   0.632   1.811
    3CHTO   H35 1174   6.485   0.630   1.842
    3CHTO   C21 1175   6.521   0.814   1.647
    3CHTO   H49 1176   6.532   0.741   1.567
    3CHTO    N4 1177   6.376   0.823   1.678
    3CHTO   H41 1178   6.339   0.725   1.707
    3CHTO   H42 1179   6.359   0.892   1.759
    3CHTO   C22 1180   6.578   0.948   1.592
    3CHTO   H50 1181   6.554   1.028   1.662
    3CHTO   O14 1182   6.720   0.943   1.571
    3CHTO   C23 1183   6.799   0.907   1.685
    3CHTO   H51 1184   6.781   0.983   1.764
    3CHTO   C34 1185   6.948   0.913   1.647
    3CHTO   O23 1186   6.989   1.047   1.617
    3CHTO   H38 1187   7.081   1.048   1.600
    3CHTO   O16 1188   6.524   0.975   1.461
    3CHTO   C24 1189   6.509   1.129   1.428
    3CHTO   H52 1190   6.565   1.191   1.498
    3CHTO   C26 1191   6.359   1.165   1.433
    3CHTO   H54 1192   6.303   1.093   1.369
    3CHTO   O20 1193   6.313   1.149   1.569
    3CHTO   H36 1194   6.220   1.160   1.573
    3CHTO   C30 1195   6.332   1.310   1.381
    3CHTO   H58 1196   6.368   1.382   1.456
    3CHTO    N6 1197   6.186   1.338   1.368
    3CHTO   H45 1198   6.126   1.253   1.398
    3CHTO   H46 1199   6.160   1.364   1.266
    3CHTO   C33 1200   6.410   1.338   1.249
    3CHTO   H61 1201   6.365   1.279   1.167
    3CHTO   O18 1202   6.548   1.298   1.262
    3CHTO   C28 1203   6.565   1.158   1.287
    3CHTO   H56 1204   6.511   1.098   1.214
    3CHTO   C35 1205   6.715   1.123   1.278
    3CHTO   O24 1206   6.767   1.142   1.146
    3CHTO   H39 1207   6.858   1.119   1.144
    3CHTO    O9 1208   6.399   1.475   1.207
    3CHTO   C13 1209   6.477   1.587   1.300
    3CHTO   H26 1210   6.497   1.543   1.399
    3CHTO   C11 1211   6.383   1.714   1.310
    3CHTO   H24 1212   6.298   1.687   1.376
    3CHTO    O8 1213   6.329   1.747   1.181
    3CHTO    H3 1214   6.265   1.816   1.189
    3CHTO    C9 1215   6.462   1.830   1.377
    3CHTO   H22 1216   6.498   1.790   1.473
    3CHTO    N2 1217   6.378   1.946   1.414
    3CHTO   H10 1218   6.340   1.994   1.325
    3CHTO   H11 1219   6.436   2.017   1.472
    3CHTO    C7 1220   6.586   1.865   1.287
    3CHTO   H20 1221   6.639   1.946   1.342
    3CHTO    O4 1222   6.674   1.751   1.276
    3CHTO   C14 1223   6.620   1.622   1.239
    3CHTO   H27 1224   6.691   1.548   1.282
    3CHTO   C18 1225   6.626   1.605   1.085
    3CHTO   O13 1226   6.761   1.598   1.038
    3CHTO    H7 1227   6.803   1.682   1.049
    3CHTO    O2 1228   6.543   1.918   1.131
    3CHTO    C1 1229   6.622   2.025   1.074
    3CHTO   H14 1230   6.593   2.035   0.967
    3CHTO    C2 1231   6.778   2.003   1.082
    3CHTO   H15 1232   6.801   1.979   1.187
    3CHTO    O6 1233   6.812   1.891   0.998
    3CHTO    H1 1234   6.902   1.869   1.008
    3CHTO    C3 1235   6.858   2.134   1.038
    3CHTO   H16 1236   6.842   2.150   0.930
    3CHTO    N1 1237   7.007   2.120   1.058
    3CHTO    H8 1238   7.057   2.211   1.028
    3CHTO    H9 1239   7.044   2.037   1.000
    3CHTO    C4 1240   6.799   2.261   1.109
    3CHTO   H17 1241   6.820   2.254   1.216
    3CHTO    O1 1242   6.657   2.271   1.089
    3CHTO    C5 1243   6.582   2.159   1.141
    3CHTO   H18 1244   6.601   2.151   1.248
    3CHTO   C16 1245   6.431   2.188   1.120
    3CHTO   O11 1246   6.383   2.286   1.213
    3CHTO    H5 1247   6.420   2.370   1.193
    3CHTO    O3 1248   6.856   2.380   1.053
    3CHTO    C6 1249   6.860   2.501   1.136
    3CHTO   H19 1250   6.773   2.510   1.201
    3CHTO    C8 1251   6.991   2.504   1.223
    3CHTO   H21 1252   7.075   2.476   1.160
    3CHTO    O7 1253   6.977   2.405   1.328
    3CHTO    H2 1254   6.976   2.319   1.292
    3CHTO   C12 1255   7.018   2.647   1.285
    3CHTO   H25 1256   6.944   2.660   1.367
    3CHTO    N3 1257   7.154   2.654   1.350
    3CHTO   H12 1258   7.231   2.633   1.277
    3CHTO   H13 1259   7.159   2.585   1.432
    3CHTO   C15 1260   6.996   2.760   1.178
    3CHTO   H28 1261   7.075   2.762   1.104
    3CHTO   O10 1262   6.982   2.900   1.242
    3CHTO    H4 1263   7.062   2.924   1.283
    3CHTO    O5 1264   6.868   2.745   1.113
    3CHTO   C10 1265   6.858   2.623   1.040
    3CHTO   H23 1266   6.942   2.616   0.971
    3CHTO   C17 1267   6.730   2.625   0.955
    3CHTO   O12 1268   6.738   2.726   0.854
    3CHTO    H6 1269   6.803   2.703   0.791
    4CHTO  H203 1270   5.490   7.037   0.003
    4CHTO   O82 1271   5.433   7.064   0.072
    4CHTO  C123 1272   5.443   7.206   0.096
    4CHTO  H227 1273   5.371   7.234   0.174
    4CHTO   O77 1274   5.579   7.223   0.146
    4CHTO  C118 1275   5.611   7.357   0.187
    4CHTO  H222 1276   5.540   7.390   0.265
    4CHTO  C125 1277   5.757   7.356   0.247
    4CHTO   O84 1278   5.767   7.268   0.360
    4CHTO  H205 1279   5.856   7.262   0.387
    4CHTO  C114 1280   5.602   7.452   0.066
    4CHTO  H218 1281   5.679   7.424   2.872
    4CHTO  C116 1282   5.464   7.442   2.873
    4CHTO  H220 1283   5.387   7.491   0.058
    4CHTO   O79 1284   5.471   7.519   2.751
    4CHTO  H201 1285   5.387   7.522   2.710
    4CHTO  C120 1286   5.423   7.292   2.843
    4CHTO  H224 1287   5.491   7.257   2.764
    4CHTO   N21 1288   5.285   7.282   2.789
    4CHTO  H211 1289   5.213   7.274   2.869
    4CHTO  H212 1290   5.262   7.366   2.726
    4CHTO   O75 1291   5.628   7.584   0.119
    4CHTO  C112 1292   5.740   7.673   0.036
    4CHTO  H216 1293   5.753   7.630   2.813
    4CHTO   O73 1294   5.862   7.668   0.112
    4CHTO  C113 1295   5.971   7.743   0.057
    4CHTO  H217 1296   5.994   7.704   2.833
    4CHTO  C124 1297   6.095   7.719   0.145
    4CHTO   O83 1298   6.141   7.584   0.139
    4CHTO  H204 1299   6.178   7.566   0.055
    4CHTO  C109 1300   5.936   7.894   0.048
    4CHTO  H213 1301   5.922   7.929   0.152
    4CHTO  C110 1302   5.805   7.912   2.845
    4CHTO  H214 1303   5.824   7.886   2.741
    4CHTO   O78 1304   5.769   8.052   2.849
    4CHTO  H200 1305   5.695   8.068   2.792
    4CHTO  C111 1306   5.691   7.822   0.024
    4CHTO  H215 1307   5.666   7.857   0.126
    4CHTO   N19 1308   5.565   7.830   2.823
    4CHTO  H207 1309   5.528   7.931   2.823
    4CHTO  H208 1310   5.583   7.797   2.722
    4CHTO   O74 1311   6.046   7.969   2.865
    4CHTO  C115 1312   6.085   8.109   0.062
    4CHTO  H219 1313   6.030   8.121   0.156
    4CHTO   O76 1314   6.238   8.113   0.103
    4CHTO  C122 1315   6.322   8.089   2.867
    4CHTO  H226 1316   6.308   7.984   2.840
    4CHTO  C126 1317   6.472   8.102   0.035
    4CHTO   O85 1318   6.563   8.062   2.810
    4CHTO  H206 1319   6.651   8.073   2.840
    4CHTO  C121 1320   6.288   8.184   2.744
    4CHTO  H225 1321   6.381   8.236   2.712
    4CHTO   O81 1322   6.243   8.105   2.633
    4CHTO  H202 1323   6.235   8.159   2.556
    4CHTO  C119 1324   6.182   8.292   2.782
    4CHTO  H223 1325   6.228   8.352   2.860
    4CHTO  C117 1326   6.050   8.228   2.841
    4CHTO  H221 1327   5.984   8.184   2.767
    4CHTO   N20 1328   5.966   8.333   0.030
    4CHTO  H209 1329   5.942   8.412   2.838
    4CHTO  H210 1330   5.875   8.289   0.068
    4CHTO   O80 1331   6.159   8.399   2.669
    4CHTO  C103 1332   6.244   8.534   2.667
    4CHTO  H190 1333   6.205   8.604   2.741
    4CHTO  C101 1334   6.401   8.523   2.684
    4CHTO  H188 1335   6.436   8.439   2.623
    4CHTO   O68 1336   6.433   8.492   2.834
    4CHTO  H168 1337   6.524   8.474   2.843
    4CHTO   C99 1338   6.475   8.656   2.634
    4CHTO  H186 1339   6.442   8.742   2.697
    4CHTO   N17 1340   6.625   8.650   2.643
    4CHTO  H174 1341   6.667   8.745   2.614
    4CHTO  H175 1342   6.662   8.570   2.580
    4CHTO   C97 1343   6.426   8.688   2.490
    4CHTO  H184 1344   6.452   8.602   2.426
    4CHTO   O64 1345   6.284   8.711   2.495
    4CHTO  C104 1346   6.209   8.592   2.524
    4CHTO  H191 1347   6.229   8.516   2.448
    4CHTO  C108 1348   6.059   8.625   2.511
    4CHTO   O71 1349   6.018   8.729   2.600
    4CHTO  H171 1350   5.926   8.745   2.590
    4CHTO   O62 1351   6.479   8.811   2.435
    4CHTO   C91 1352   6.494   8.813   2.291
    4CHTO  H178 1353   6.494   8.711   2.252
    4CHTO   C92 1354   6.635   8.872   2.256
    4CHTO  H179 1355   6.640   8.975   2.294
    4CHTO   O66 1356   6.737   8.800   2.328
    4CHTO  H166 1357   6.738   8.709   2.303
    4CHTO   C93 1358   6.664   8.866   2.101
    4CHTO  H180 1359   6.701   8.764   2.081
    4CHTO   N16 1360   6.775   8.955   2.058
    4CHTO  H172 1361   6.865   8.928   2.111
    4CHTO  H173 1362   6.790   8.946   1.952
    4CHTO   C94 1363   6.532   8.889   2.016
    4CHTO  H181 1364   6.550   8.953   1.929
    4CHTO   O61 1365   6.430   8.957   2.091
    4CHTO   C95 1366   6.385   8.899   2.215
    4CHTO  H182 1367   6.355   8.979   2.282
    4CHTO  C106 1368   6.255   8.814   2.188
    4CHTO   O69 1369   6.144   8.900   2.159
    4CHTO  H169 1370   6.068   8.848   2.142
    4CHTO   O63 1371   6.478   8.747   1.965
    4CHTO   C96 1372   6.560   8.689   1.842
    4CHTO  H183 1373   6.662   8.725   1.848
    4CHTO   C98 1374   6.503   8.730   1.703
    4CHTO  H185 1375   6.395   8.709   1.700
    4CHTO   O67 1376   6.515   8.873   1.691
    4CHTO  H167 1377   6.458   8.916   1.752
    4CHTO  C102 1378   6.577   8.657   1.580
    4CHTO  H189 1379   6.678   8.700   1.577
    4CHTO   N18 1380   6.518   8.682   1.446
    4CHTO  H176 1381   6.432   8.747   1.454
    4CHTO  H177 1382   6.591   8.726   1.380
    4CHTO  C105 1383   6.591   8.505   1.611
    4CHTO  H192 1384   6.493   8.458   1.602
    4CHTO   O65 1385   6.642   8.479   1.742
    4CHTO  C100 1386   6.564   8.531   1.851
    4CHTO  H187 1387   6.462   8.490   1.844
    4CHTO  C107 1388   6.630   8.479   1.981
    4CHTO   O70 1389   6.547   8.501   2.096
    4CHTO  H170 1390   6.472   8.444   2.093
    4CHTO   O57 1391   6.695   8.445   1.501
    4CHTO   C85 1392   6.677   8.310   1.455
    4CHTO  H157 1393   6.568   8.297   1.438
    4CHTO   C83 1394   6.715   8.208   1.568
    4CHTO  H155 1395   6.648   8.225   1.653
    4CHTO   O56 1396   6.848   8.237   1.616
    4CHTO  H135 1397   6.868   8.183   1.690
    4CHTO   C81 1398   6.695   8.063   1.516
    4CHTO  H153 1399   6.591   8.054   1.484
    4CHTO   N14 1400   6.710   7.960   1.622
    4CHTO  H141 1401   6.811   7.958   1.656
    4CHTO  H142 1402   6.685   7.864   1.583
    4CHTO   C79 1403   6.787   8.038   1.391
    4CHTO  H151 1404   6.762   7.940   1.351
    4CHTO   O52 1405   6.757   8.135   1.285
    4CHTO   C86 1406   6.761   8.275   1.326
    4CHTO  H158 1407   6.869   8.295   1.343
    4CHTO   C90 1408   6.720   8.365   1.207
    4CHTO   O60 1409   6.589   8.332   1.158
    4CHTO  H138 1410   6.524   8.356   1.221
    4CHTO   O50 1411   6.928   8.040   1.421
    4CHTO   C73 1412   7.069   8.034   1.396
    4CHTO  H145 1413   7.113   8.134   1.407
    4CHTO   C74 1414   7.098   7.981   1.252
    4CHTO  H146 1415   7.046   8.048   1.182
    4CHTO   O54 1416   7.240   7.997   1.227
    4CHTO  H133 1417   7.262   8.088   1.223
    4CHTO   C75 1418   7.049   7.831   1.240
    4CHTO  H147 1419   6.940   7.830   1.253
    4CHTO   N13 1420   7.073   7.771   1.106
    4CHTO  H139 1421   7.178   7.771   1.084
    4CHTO  H140 1422   7.037   7.669   1.104
    4CHTO   C76 1423   7.113   7.744   1.358
    4CHTO  H148 1424   7.220   7.739   1.342
    4CHTO   O49 1425   7.085   7.805   1.488
    4CHTO   C77 1426   7.135   7.939   1.501
    4CHTO  H149 1427   7.243   7.940   1.486
    4CHTO   C88 1428   7.113   7.989   1.644
    4CHTO   O58 1429   7.186   7.905   1.743
    4CHTO  H136 1430   7.147   7.819   1.746
    4CHTO   O51 1431   7.045   7.600   1.363
    4CHTO   C78 1432   7.103   7.502   1.474
    4CHTO  H150 1433   7.138   7.559   1.563
    4CHTO   C80 1434   7.221   7.420   1.418
    4CHTO  H152 1435   7.190   7.376   1.321
    4CHTO   O55 1436   7.329   7.512   1.394
    4CHTO  H134 1437   7.401   7.468   1.353
    4CHTO   C84 1438   7.264   7.303   1.517
    4CHTO  H156 1439   7.299   7.349   1.610
    4CHTO   N15 1440   7.377   7.220   1.464
    4CHTO  H143 1441   7.348   7.118   1.450
    4CHTO  H144 1442   7.414   7.258   1.371
    4CHTO   C87 1443   7.137   7.219   1.549
    4CHTO  H159 1444   7.098   7.180   1.455
    4CHTO   O53 1445   7.033   7.312   1.614
    4CHTO   C82 1446   6.987   7.412   1.521
    4CHTO  H154 1447   6.940   7.364   1.435
    4CHTO   C89 1448   6.879   7.499   1.589
    4CHTO   O59 1449   6.758   7.425   1.611
    4CHTO  H137 1450   6.696   7.479   1.656
    4CHTO   O45 1451   7.167   7.096   1.652
    4CHTO   C67 1452   7.132   6.968   1.595
    4CHTO  H124 1453   7.137   6.970   1.486
    4CHTO   C65 1454   7.230   6.858   1.648
    4CHTO  H122 1455   7.330   6.899   1.634
    4CHTO   O44 1456   7.217   6.738   1.571
    4CHTO  H102 1457   7.240   6.753   1.481
    4CHTO   C63 1458   7.211   6.843   1.803
    4CHTO  H120 1459   7.225   6.941   1.849
    4CHTO   N11 1460   7.316   6.762   1.871
    4CHTO  H108 1461   7.305   6.770   1.978
    4CHTO  H109 1462   7.413   6.796   1.843
    4CHTO   C61 1463   7.062   6.801   1.836
    4CHTO  H118 1464   7.053   6.819   1.944
    4CHTO   O40 1465   6.964   6.889   1.771
    4CHTO   C68 1466   6.983   6.933   1.632
    4CHTO  H125 1467   6.926   7.028   1.622
    4CHTO   C72 1468   6.921   6.832   1.532
    4CHTO   O48 1469   6.778   6.835   1.533
    4CHTO  H105 1470   6.745   6.772   1.472
    4CHTO   O38 1471   7.027   6.664   1.806
    4CHTO   C55 1472   6.956   6.593   1.911
    4CHTO  H112 1473   6.932   6.661   1.995
    4CHTO   C56 1474   7.040   6.467   1.960
    4CHTO  H113 1475   7.054   6.401   1.873
    4CHTO   O42 1476   7.171   6.508   2.002
    4CHTO  H100 1477   7.223   6.433   2.022
    4CHTO   C57 1478   6.963   6.393   2.077
    4CHTO  H114 1479   6.965   6.460   2.162
    4CHTO   N10 1480   7.028   6.266   2.120
    4CHTO  H106 1481   7.006   6.247   2.224
    4CHTO  H107 1482   6.994   6.183   2.060
    4CHTO   C58 1483   6.814   6.367   2.038
    4CHTO  H115 1484   6.809   6.281   1.966
    4CHTO   O37 1485   6.751   6.482   1.979
    4CHTO   C59 1486   6.819   6.537   1.864
    4CHTO  H116 1487   6.833   6.460   1.788
    4CHTO   C70 1488   6.730   6.646   1.805
    4CHTO   O46 1489   6.615   6.591   1.738
    4CHTO  H103 1490   6.642   6.549   1.659
    4CHTO   O39 1491   6.729   6.333   2.173
    4CHTO   C60 1492   6.602   6.271   2.148
    4CHTO  H117 1493   6.563   6.305   2.052
    4CHTO   C62 1494   6.617   6.116   2.143
    4CHTO  H119 1495   6.692   6.094   2.063
    4CHTO   O43 1496   6.669   6.069   2.269
    4CHTO  H101 1497   6.685   5.976   2.265
    4CHTO   C66 1498   6.477   6.051   2.103
    4CHTO  H123 1499   6.446   6.091   2.007
    4CHTO   N12 1500   6.484   5.903   2.084
    4CHTO  H110 1501   6.553   5.880   2.004
    4CHTO  H111 1502   6.515   5.856   2.176
    4CHTO   C69 1503   6.367   6.091   2.206
    4CHTO  H126 1504   6.389   6.044   2.305
    4CHTO   O41 1505   6.364   6.249   2.222
    4CHTO   C64 1506   6.498   6.311   2.257
    4CHTO  H121 1507   6.532   6.273   2.356
    4CHTO   C71 1508   6.478   6.464   2.268
    4CHTO   O47 1509   6.592   6.530   2.323
    4CHTO  H104 1510   6.576   6.622   2.328
    4CHTO   O34 1511   6.226   6.040   2.157
    4CHTO   C49 1512   6.087   6.088   2.122
    4CHTO   H91 1513   6.038   6.112   2.216
    4CHTO   C47 1514   6.012   5.974   2.050
    4CHTO   H89 1515   5.907   6.011   2.042
    4CHTO   O33 1516   6.011   5.855   2.131
    4CHTO   H70 1517   5.955   5.790   2.093
    4CHTO   C45 1518   6.075   5.943   1.903
    4CHTO   H87 1519   6.146   5.859   1.913
    4CHTO    N8 1520   5.965   5.901   1.813
    4CHTO   H75 1521   6.006   5.875   1.716
    4CHTO   H76 1522   5.914   5.815   1.854
    4CHTO   C43 1523   6.165   6.067   1.852
    4CHTO   H85 1524   6.259   6.056   1.905
    4CHTO   O29 1525   6.099   6.191   1.885
    4CHTO   C50 1526   6.087   6.213   2.028
    4CHTO   H92 1527   6.171   6.278   2.058
    4CHTO   C54 1528   5.962   6.300   2.056
    4CHTO   O36 1529   5.979   6.434   2.007
    4CHTO   H72 1530   5.902   6.484   2.024
    4CHTO   O27 1531   6.202   6.060   1.713
    4CHTO   C37 1532   6.327   6.034   1.646
    4CHTO   H79 1533   6.314   6.047   1.537
    4CHTO   C38 1534   6.437   6.137   1.690
    4CHTO   H80 1535   6.434   6.146   1.799
    4CHTO   O31 1536   6.402   6.265   1.634
    4CHTO   H68 1537   6.324   6.298   1.675
    4CHTO   C39 1538   6.582   6.093   1.646
    4CHTO   H81 1539   6.587   6.096   1.537
    4CHTO    N7 1540   6.689   6.185   1.699
    4CHTO   H73 1541   6.687   6.184   1.807
    4CHTO   H74 1542   6.786   6.154   1.663
    4CHTO   C40 1543   6.606   5.943   1.690
    4CHTO   H82 1544   6.597   5.940   1.799
    4CHTO   O26 1545   6.507   5.862   1.626
    4CHTO   C41 1546   6.371   5.887   1.673
    4CHTO   H83 1547   6.365   5.866   1.781
    4CHTO   C52 1548   6.277   5.789   1.599
    4CHTO   O35 1549   6.305   5.650   1.632
    4CHTO   H71 1550   6.279   5.633   1.721
    4CHTO   O28 1551   6.731   5.886   1.647
    4CHTO   C42 1552   6.829   5.824   1.740
    4CHTO   H84 1553   6.871   5.743   1.680
    4CHTO   C44 1554   6.772   5.756   1.869
    4CHTO   H86 1555   6.712   5.829   1.924
    4CHTO   O32 1556   6.685   5.650   1.826
    4CHTO   H69 1557   6.642   5.610   1.899
    4CHTO   C48 1558   6.884   5.706   1.969
    4CHTO   H90 1559   6.939   5.624   1.922
    4CHTO    N9 1560   6.827   5.648   2.097
    4CHTO   H77 1561   6.719   5.651   2.096
    4CHTO   H78 1562   6.866   5.700   2.184
    4CHTO   C51 1563   6.982   5.825   1.995
    4CHTO   H93 1564   6.924   5.909   2.035
    4CHTO   O30 1565   7.043   5.859   1.870
    4CHTO   C46 1566   6.947   5.921   1.773
    4CHTO   H88 1567   6.908   6.013   1.817
    4CHTO   C53 1568   7.033   5.953   1.649
    4CHTO   O72 1569   6.962   6.029   1.551
    4CHTO  H199 1570   7.017   6.043   1.477
    4CHTO   O22 1571   7.092   5.792   2.082
    4CHTO   C31 1572   7.141   5.891   2.179
    4CHTO   H59 1573   7.128   5.991   2.131
    4CHTO   C29 1574   7.062   5.893   2.312
    4CHTO   H57 1575   7.056   5.789   2.347
    4CHTO   O21 1576   6.926   5.934   2.285
    4CHTO   H37 1577   6.884   5.872   2.227
    4CHTO   C27 1578   7.126   5.983   2.425
    4CHTO   H55 1579   7.108   6.088   2.400
    4CHTO    N5 1580   7.066   5.955   2.558
    4CHTO   H43 1581   6.959   5.972   2.554
    4CHTO   H44 1582   7.086   5.853   2.588
    4CHTO   C25 1583   7.283   5.966   2.429
    4CHTO   H53 1584   7.308   5.866   2.468
    4CHTO   O17 1585   7.339   5.978   2.295
    4CHTO   C32 1586   7.294   5.877   2.205
    4CHTO   H60 1587   7.313   5.778   2.247
    4CHTO   C36 1588   7.374   5.888   2.073
    4CHTO   O25 1589   7.512   5.854   2.093
    4CHTO   H40 1590   7.553   5.918   2.148
    4CHTO   O15 1591   7.353   6.073   2.522
    4CHTO   C19 1592   7.351   6.218   2.542
    4CHTO   H47 1593   7.453   6.239   2.578
    4CHTO   C20 1594   7.328   6.299   2.410
    4CHTO   H48 1595   7.236   6.268   2.359
    4CHTO   O19 1596   7.439   6.268   2.323
    4CHTO   H35 1597   7.425   6.306   2.238
    4CHTO   C21 1598   7.318   6.454   2.438
    4CHTO   H49 1599   7.414   6.489   2.476
    4CHTO    N4 1600   7.289   6.534   2.316
    4CHTO   H41 1601   7.285   6.639   2.340
    4CHTO   H42 1602   7.194   6.504   2.274
    4CHTO   C22 1603   7.213   6.476   2.550
    4CHTO   H50 1604   7.117   6.439   2.515
    4CHTO   O14 1605   7.254   6.405   2.668
    4CHTO   C23 1606   7.254   6.262   2.656
    4CHTO   H51 1607   7.151   6.231   2.636
    4CHTO   C34 1608   7.296   6.209   2.794
    4CHTO   O23 1609   7.287   6.066   2.802
    4CHTO   H38 1610   7.319   6.038   0.008
    4CHTO   O16 1611   7.205   6.612   2.594
    4CHTO   C24 1612   7.057   6.675   2.588
    4CHTO   H52 1613   7.012   6.662   2.490
    4CHTO   C26 1614   7.072   6.825   2.621
    4CHTO   H54 1615   7.145   6.871   2.548
    4CHTO   O20 1616   6.947   6.892   2.599
    4CHTO   H36 1617   6.958   6.985   2.604
    4CHTO   C30 1618   7.117   6.850   2.768
    4CHTO   H58 1619   7.065   6.939   2.808
    4CHTO    N6 1620   7.262   6.881   2.780
    4CHTO   H45 1621   7.277   6.978   2.826
    4CHTO   H46 1622   7.314   6.806   2.837
    4CHTO   C33 1623   7.074   6.733   2.861
    4CHTO   H61 1624   7.151   6.654   2.859
    4CHTO   O18 1625   6.950   6.676   2.815
    4CHTO   C28 1626   6.964   6.602   2.692
    4CHTO   H56 1627   7.008   6.505   2.716
    4CHTO   C35 1628   6.823   6.571   2.634
    4CHTO   O24 1629   6.743   6.686   2.609
    4CHTO   H39 1630   6.780   6.737   2.539
    4CHTO    O9 1631   7.065   6.775   0.121
    4CHTO   C13 1632   7.154   6.687   0.221
    4CHTO   H26 1633   7.256   6.680   0.178
    4CHTO   C11 1634   7.087   6.544   0.237
    4CHTO   H24 1635   7.089   6.494   0.139
    4CHTO    O8 1636   6.949   6.557   0.276
    4CHTO    H3 1637   6.943   6.598   0.361
    4CHTO    C9 1638   7.175   6.462   0.336
    4CHTO   H22 1639   7.274   6.457   0.289
    4CHTO    N2 1640   7.135   6.319   0.345
    4CHTO   H10 1641   7.125   6.289   0.448
    4CHTO   H11 1642   7.043   6.300   0.292
    4CHTO    C7 1643   7.191   6.541   0.473
    4CHTO   H20 1644   7.302   6.553   0.480
    4CHTO    O4 1645   7.128   6.671   0.471
    4CHTO   C14 1646   7.172   6.756   0.364
    4CHTO   H27 1647   7.280   6.778   0.379
    4CHTO   C18 1648   7.097   6.891   0.380
    4CHTO   O13 1649   7.145   6.991   0.291
    4CHTO    H7 1650   7.122   6.969   0.202
    4CHTO    O2 1651   7.140   6.460   0.607
    4CHTO    C1 1652   7.162   6.525   0.734
    4CHTO   H14 1653   7.112   6.625   0.732
    4CHTO    C2 1654   7.315   6.547   0.772
    4CHTO   H15 1655   7.366   6.452   0.748
    4CHTO    O6 1656   7.371   6.652   0.691
    4CHTO    H1 1657   7.326   6.733   0.707
    4CHTO    C3 1658   7.336   6.581   0.928
    4CHTO   H16 1659   7.299   6.683   0.946
    4CHTO    N1 1660   7.481   6.580   0.967
    4CHTO    H8 1661   7.491   6.604   1.072
    4CHTO    H9 1662   7.536   6.652   0.908
    4CHTO    C4 1663   7.248   6.486   1.016
    4CHTO   H17 1664   7.286   6.384   1.007
    4CHTO    O1 1665   7.111   6.494   0.974
    4CHTO    C5 1666   7.088   6.441   0.843
    4CHTO   H18 1667   7.124   6.338   0.838
    4CHTO   C16 1668   6.934   6.441   0.827
    4CHTO   O11 1669   6.892   6.371   0.710
    4CHTO    H5 1670   6.799   6.374   0.703
    4CHTO    O3 1671   7.246   6.527   1.155
    4CHTO    C6 1672   7.231   6.418   1.251
    4CHTO   H19 1673   7.197   6.324   1.205
    4CHTO    C8 1674   7.368   6.390   1.321
    4CHTO   H21 1675   7.407   6.485   1.358
    4CHTO    O7 1676   7.458   6.338   1.221
    4CHTO    H2 1677   7.427   6.255   1.189
    4CHTO   C12 1678   7.350   6.291   1.443
    4CHTO   H25 1679   7.320   6.193   1.400
    4CHTO    N3 1680   7.481   6.270   1.515
    4CHTO   H12 1681   7.510   6.166   1.511
    4CHTO   H13 1682   7.474   6.302   1.618
    4CHTO   C15 1683   7.234   6.343   1.535
    4CHTO   H28 1684   7.260   6.438   1.583
    4CHTO   O10 1685   7.193   6.243   1.642
    4CHTO    H4 1686   7.266   6.224   1.698
    4CHTO    O5 1687   7.113   6.357   1.459
    4CHTO   C10 1688   7.123   6.457   1.356
    4CHTO   H23 1689   7.148   6.552   1.402
    4CHTO   C17 1690   6.985   6.472   1.291
    4CHTO   O12 1691   6.885   6.511   1.386
    4CHTO    H6 1692   6.864   6.438   1.441
    5CHTO  H203 1693   7.391   3.416   2.393
    5CHTO   O82 1694   7.445   3.429   2.468
    5CHTO  C123 1695   7.371   3.409   2.589
    5CHTO  H227 1696   7.439   3.421   2.675
    5CHTO   O77 1697   7.273   3.517   2.588
    5CHTO  C118 1698   7.194   3.526   2.708
    5CHTO  H222 1699   7.260   3.537   2.795
    5CHTO  C125 1700   7.103   3.653   2.697
    5CHTO   O84 1701   7.181   3.773   2.689
    5CHTO  H205 1702   7.222   3.790   2.772
    5CHTO  C114 1703   7.109   3.398   2.723
    5CHTO  H218 1704   7.039   3.393   2.639
    5CHTO  C116 1705   7.197   3.269   2.719
    5CHTO  H220 1706   7.256   3.262   2.814
    5CHTO   O79 1707   7.110   3.155   2.717
    5CHTO  H201 1708   7.064   3.146   2.798
    5CHTO  C120 1709   7.295   3.270   2.595
    5CHTO  H224 1710   7.232   3.258   2.504
    5CHTO   N21 1711   7.391   3.156   2.598
    5CHTO  H211 1712   7.348   3.070   2.548
    5CHTO  H212 1713   7.418   3.131   2.700
    5CHTO   O75 1714   7.039   3.412   2.848
    5CHTO  C112 1715   6.879   3.394   2.835
    5CHTO  H216 1716   6.856   3.322   2.755
    5CHTO   O73 1717   6.824   3.524   2.808
    5CHTO  C113 1718   6.683   3.522   2.781
    5CHTO  H217 1719   6.662   3.451   2.698
    5CHTO  C124 1720   6.647   3.663   2.732
    5CHTO   O83 1721   6.515   3.672   2.678
    5CHTO  H204 1722   6.451   3.660   2.746
    5CHTO  C109 1723   6.607   3.479   0.032
    5CHTO  H213 1724   6.621   3.560   0.106
    5CHTO  C110 1725   6.663   3.344   0.087
    5CHTO  H214 1726   6.626   3.264   0.022
    5CHTO   O78 1727   6.605   3.320   0.217
    5CHTO  H200 1728   6.632   3.386   0.278
    5CHTO  C111 1729   6.819   3.340   0.093
    5CHTO  H215 1730   6.852   3.408   0.173
    5CHTO   N19 1731   6.872   3.205   0.125
    5CHTO  H207 1732   6.931   3.165   0.044
    5CHTO  H208 1733   6.932   3.209   0.215
    5CHTO   O74 1734   6.465   3.464   0.003
    5CHTO  C115 1735   6.365   3.564   0.077
    5CHTO  H219 1736   6.419   3.645   0.128
    5CHTO   O76 1737   6.270   3.636   2.854
    5CHTO  C122 1738   6.209   3.540   2.766
    5CHTO  H226 1739   6.286   3.507   2.696
    5CHTO  C126 1740   6.101   3.613   2.677
    5CHTO   O85 1741   5.993   3.668   2.754
    5CHTO  H206 1742   5.933   3.712   2.696
    5CHTO  C121 1743   6.148   3.414   2.842
    5CHTO  H225 1744   6.045   3.399   2.805
    5CHTO   O81 1745   6.223   3.296   2.810
    5CHTO  H202 1746   6.180   3.220   2.843
    5CHTO  C119 1747   6.142   3.438   0.119
    5CHTO  H223 1748   6.074   3.522   0.131
    5CHTO  C117 1749   6.282   3.479   0.180
    5CHTO  H221 1750   6.347   3.394   0.204
    5CHTO   N20 1751   6.264   3.550   0.312
    5CHTO  H209 1752   6.212   3.643   0.296
    5CHTO  H210 1753   6.360   3.568   0.357
    5CHTO   O80 1754   6.066   3.323   0.206
    5CHTO  C103 1755   5.952   3.239   0.142
    5CHTO  H190 1756   5.934   3.268   0.039
    5CHTO  C101 1757   5.971   3.083   0.147
    5CHTO  H188 1758   5.989   3.053   0.251
    5CHTO   O68 1759   6.097   3.044   0.062
    5CHTO  H168 1760   6.082   3.066   2.849
    5CHTO   C99 1761   5.838   3.010   0.096
    5CHTO  H186 1762   5.822   3.038   2.867
    5CHTO   N17 1763   5.844   2.860   0.101
    5CHTO  H174 1764   5.934   2.827   0.150
    5CHTO  H175 1765   5.836   2.819   0.001
    5CHTO   C97 1766   5.714   3.065   0.172
    5CHTO  H184 1767   5.717   3.028   0.276
    5CHTO   O64 1768   5.709   3.209   0.166
    5CHTO  C104 1769   5.823   3.277   0.223
    5CHTO  H191 1770   5.837   3.248   0.327
    5CHTO  C108 1771   5.795   3.428   0.224
    5CHTO   O71 1772   5.778   3.482   0.092
    5CHTO  H171 1773   5.861   3.482   0.047
    5CHTO   O62 1774   5.591   3.022   0.109
    5CHTO   C91 1775   5.468   3.049   0.179
    5CHTO  H178 1776   5.485   3.129   0.251
    5CHTO   C92 1777   5.426   2.923   0.262
    5CHTO  H179 1778   5.510   2.890   0.324
    5CHTO   O66 1779   5.324   2.964   0.355
    5CHTO  H166 1780   5.304   2.894   0.414
    5CHTO   C93 1781   5.367   2.806   0.173
    5CHTO  H180 1782   5.302   2.746   0.238
    5CHTO   N16 1783   5.470   2.712   0.123
    5CHTO  H172 1784   5.569   2.739   0.158
    5CHTO  H173 1785   5.447   2.611   0.153
    5CHTO   C94 1786   5.280   2.864   0.053
    5CHTO  H181 1787   5.336   2.866   2.837
    5CHTO   O61 1788   5.240   3.000   0.078
    5CHTO   C95 1789   5.350   3.092   0.080
    5CHTO  H182 1790   5.390   3.100   2.857
    5CHTO  C106 1791   5.296   3.236   0.115
    5CHTO   O69 1792   5.234   3.241   0.244
    5CHTO  H169 1793   5.204   3.328   0.261
    5CHTO   O63 1794   5.150   2.775   0.038
    5CHTO   C96 1795   5.116   2.739   2.765
    5CHTO  H183 1796   5.205   2.754   2.704
    5CHTO   C98 1797   5.000   2.823   2.703
    5CHTO  H185 1798   4.912   2.819   2.769
    5CHTO   O67 1799   5.042   2.960   2.702
    5CHTO  H167 1800   5.115   2.973   2.644
    5CHTO  C102 1801   4.961   2.773   2.555
    5CHTO  H189 1802   5.047   2.799   2.491
    5CHTO   N18 1803   4.843   2.840   2.494
    5CHTO  H176 1804   4.802   2.913   2.562
    5CHTO  H177 1805   4.870   2.887   2.401
    5CHTO  C105 1806   4.947   2.618   2.552
    5CHTO  H192 1807   4.853   2.589   2.599
    5CHTO   O65 1808   5.055   2.550   2.619
    5CHTO  C100 1809   5.077   2.587   2.755
    5CHTO  H187 1810   4.985   2.569   2.812
    5CHTO  C107 1811   5.186   2.493   2.814
    5CHTO   O70 1812   5.310   2.504   2.743
    5CHTO  H170 1813   5.373   2.446   2.782
    5CHTO   O57 1814   4.948   2.574   2.392
    5CHTO   C85 1815   4.910   2.441   2.351
    5CHTO  H157 1816   4.814   2.419   2.402
    5CHTO   C83 1817   5.013   2.335   2.405
    5CHTO  H155 1818   5.004   2.332   2.514
    5CHTO   O56 1819   5.147   2.378   2.375
    5CHTO  H135 1820   5.167   2.457   2.421
    5CHTO   C81 1821   4.977   2.195   2.349
    5CHTO  H153 1822   4.875   2.172   2.377
    5CHTO   N14 1823   5.057   2.086   2.411
    5CHTO  H141 1824   5.021   1.991   2.378
    5CHTO  H142 1825   5.160   2.096   2.384
    5CHTO   C79 1826   4.986   2.196   2.191
    5CHTO  H151 1827   4.955   2.097   2.157
    5CHTO   O52 1828   4.888   2.291   2.139
    5CHTO   C86 1829   4.898   2.427   2.193
    5CHTO  H158 1830   4.988   2.469   2.144
    5CHTO   C90 1831   4.779   2.512   2.141
    5CHTO   O60 1832   4.653   2.456   2.178
    5CHTO  H138 1833   4.641   2.461   2.271
    5CHTO   O50 1834   5.116   2.225   2.139
    5CHTO   C73 1835   5.184   2.204   2.014
    5CHTO  H145 1836   5.112   2.206   1.930
    5CHTO   C74 1837   5.258   2.066   2.011
    5CHTO  H146 1838   5.182   1.988   2.029
    5CHTO   O54 1839   5.306   2.044   1.877
    5CHTO  H133 1840   5.348   1.961   1.871
    5CHTO   C75 1841   5.371   2.065   2.121
    5CHTO  H147 1842   5.323   2.066   2.220
    5CHTO   N13 1843   5.454   1.941   2.122
    5CHTO  H139 1844   5.422   1.873   2.044
    5CHTO  H140 1845   5.558   1.963   2.108
    5CHTO   C76 1846   5.463   2.197   2.113
    5CHTO  H148 1847   5.528   2.188   2.026
    5CHTO   O49 1848   5.383   2.319   2.101
    5CHTO   C77 1849   5.290   2.315   1.991
    5CHTO  H149 1850   5.345   2.294   1.899
    5CHTO   C88 1851   5.227   2.453   1.970
    5CHTO   O58 1852   5.327   2.548   1.917
    5CHTO  H136 1853   5.391   2.567   1.984
    5CHTO   O51 1854   5.544   2.214   2.252
    5CHTO   C78 1855   5.642   2.340   2.259
    5CHTO  H150 1856   5.603   2.424   2.198
    5CHTO   C80 1857   5.782   2.301   2.208
    5CHTO  H152 1858   5.819   2.215   2.268
    5CHTO   O55 1859   5.770   2.259   2.071
    5CHTO  H134 1860   5.724   2.177   2.066
    5CHTO   C84 1861   5.884   2.421   2.222
    5CHTO  H156 1862   5.851   2.501   2.156
    5CHTO   N15 1863   6.024   2.384   2.180
    5CHTO  H143 1864   6.024   2.354   2.078
    5CHTO  H144 1865   6.089   2.468   2.192
    5CHTO   C87 1866   5.881   2.475   2.368
    5CHTO  H159 1867   5.926   2.403   2.436
    5CHTO   O53 1868   5.735   2.505   2.409
    5CHTO   C82 1869   5.651   2.389   2.405
    5CHTO  H154 1870   5.690   2.311   2.471
    5CHTO   C89 1871   5.512   2.430   2.461
    5CHTO   O59 1872   5.431   2.316   2.493
    5CHTO  H137 1873   5.407   2.270   2.415
    5CHTO   O45 1874   5.960   2.617   2.378
    5CHTO   C67 1875   6.040   2.631   2.497
    5CHTO  H124 1876   5.992   2.578   2.579
    5CHTO   C65 1877   6.185   2.575   2.476
    5CHTO  H122 1878   6.188   2.534   2.375
    5CHTO   O44 1879   6.204   2.467   2.570
    5CHTO  H102 1880   6.286   2.423   2.552
    5CHTO   C63 1881   6.294   2.688   2.479
    5CHTO  H120 1882   6.271   2.760   2.400
    5CHTO   N11 1883   6.433   2.647   2.441
    5CHTO  H108 1884   6.473   2.582   2.515
    5CHTO  H109 1885   6.432   2.598   2.346
    5CHTO   C61 1886   6.281   2.766   2.616
    5CHTO  H118 1887   6.338   2.859   2.603
    5CHTO   O40 1888   6.143   2.805   2.645
    5CHTO   C68 1889   6.043   2.783   2.540
    5CHTO  H125 1890   6.069   2.847   2.453
    5CHTO   C72 1891   5.905   2.830   2.591
    5CHTO   O48 1892   5.900   2.971   2.616
    5CHTO  H105 1893   5.956   2.993   2.688
    5CHTO   O38 1894   6.334   2.690   2.727
    5CHTO   C55 1895   6.323   2.744   2.860
    5CHTO  H112 1896   6.228   2.799   2.871
    5CHTO   C56 1897   6.448   2.835   0.019
    5CHTO  H113 1898   6.539   2.774   0.005
    5CHTO   O42 1899   6.458   2.944   2.803
    5CHTO  H100 1900   6.535   2.995   2.821
    5CHTO   C57 1901   6.436   2.887   0.167
    5CHTO  H114 1902   6.352   2.957   0.169
    5CHTO   N10 1903   6.556   2.961   0.213
    5CHTO  H106 1904   6.546   3.066   0.188
    5CHTO  H107 1905   6.570   2.952   0.319
    5CHTO   C58 1906   6.404   2.770   0.265
    5CHTO  H115 1907   6.495   2.707   0.278
    5CHTO   O37 1908   6.297   2.686   0.217
    5CHTO   C59 1909   6.317   2.629   0.087
    5CHTO  H116 1910   6.409   2.571   0.086
    5CHTO   C70 1911   6.202   2.531   0.057
    5CHTO   O46 1912   6.072   2.591   0.059
    5CHTO  H103 1913   6.064   2.651   2.865
    5CHTO   O39 1914   6.355   2.831   0.417
    5CHTO   C60 1915   6.219   2.878   0.422
    5CHTO  H117 1916   6.186   2.902   0.321
    5CHTO   C62 1917   6.123   2.769   0.479
    5CHTO  H119 1918   6.136   2.679   0.415
    5CHTO   O43 1919   6.163   2.735   0.613
    5CHTO  H101 1920   6.110   2.665   0.645
    5CHTO   C66 1921   5.972   2.822   0.467
    5CHTO  H123 1922   5.953   2.849   0.363
    5CHTO   N12 1923   5.873   2.717   0.501
    5CHTO  H110 1924   5.886   2.631   0.436
    5CHTO  H111 1925   5.773   2.757   0.492
    5CHTO   C69 1926   5.955   2.950   0.552
    5CHTO  H126 1927   5.974   2.926   0.659
    5CHTO   O41 1928   6.060   3.059   0.504
    5CHTO   C64 1929   6.206   3.008   0.506
    5CHTO  H121 1930   6.236   2.986   0.610
    5CHTO   C71 1931   6.299   3.121   0.454
    5CHTO   O47 1932   6.270   3.158   0.319
    5CHTO  H104 1933   6.296   3.089   0.260
    5CHTO   O34 1934   5.804   3.011   0.537
    5CHTO   C49 1935   5.746   3.133   0.614
    5CHTO   H91 1936   5.826   3.207   0.619
    5CHTO   C47 1937   5.706   3.089   0.756
    5CHTO   H89 1938   5.681   3.182   0.812
    5CHTO   O33 1939   5.819   3.026   0.820
    5CHTO   H70 1940   5.888   3.089   0.834
    5CHTO   C45 1941   5.577   2.993   0.747
    5CHTO   H87 1942   5.599   2.913   0.675
    5CHTO    N8 1943   5.541   2.932   0.877
    5CHTO   H75 1944   5.515   3.009   0.948
    5CHTO   H76 1945   5.624   2.874   0.915
    5CHTO   C43 1946   5.457   3.078   0.683
    5CHTO   H85 1947   5.372   3.010   0.676
    5CHTO   O29 1948   5.497   3.126   0.553
    5CHTO   C50 1949   5.623   3.195   0.540
    5CHTO   H92 1950   5.647   3.194   0.433
    5CHTO   C54 1951   5.609   3.346   0.572
    5CHTO   O36 1952   5.523   3.411   0.477
    5CHTO   H72 1953   5.435   3.382   0.488
    5CHTO   O27 1954   5.414   3.187   0.767
    5CHTO   C37 1955   5.289   3.226   0.826
    5CHTO   H79 1956   5.215   3.146   0.815
    5CHTO   C38 1957   5.305   3.253   0.979
    5CHTO   H80 1958   5.385   3.327   0.993
    5CHTO   O31 1959   5.345   3.129   1.041
    5CHTO   H68 1960   5.364   3.143   1.132
    5CHTO   C39 1961   5.172   3.306   1.044
    5CHTO   H81 1962   5.103   3.222   1.044
    5CHTO    N7 1963   5.191   3.348   1.187
    5CHTO   H73 1964   5.096   3.379   1.229
    5CHTO   H74 1965   5.263   3.428   1.193
    5CHTO   C40 1966   5.105   3.423   0.959
    5CHTO   H82 1967   5.155   3.517   0.982
    5CHTO   O26 1968   5.107   3.394   0.818
    5CHTO   C41 1969   5.234   3.355   0.759
    5CHTO   H83 1970   5.307   3.437   0.772
    5CHTO   C52 1971   5.212   3.337   0.607
    5CHTO   O35 1972   5.119   3.225   0.573
    5CHTO   H71 1973   5.032   3.245   0.605
    5CHTO   O28 1974   4.965   3.443   0.991
    5CHTO   C42 1975   4.855   3.344   0.995
    5CHTO   H84 1976   4.768   3.408   0.984
    5CHTO   C44 1977   4.836   3.270   1.133
    5CHTO   H86 1978   4.933   3.242   1.172
    5CHTO   O32 1979   4.781   3.366   1.226
    5CHTO   H69 1980   4.844   3.433   1.245
    5CHTO   C48 1981   4.749   3.137   1.127
    5CHTO   H90 1982   4.645   3.164   1.108
    5CHTO    N9 1983   4.750   3.060   1.256
    5CHTO   H77 1984   4.650   3.049   1.294
    5CHTO   H78 1985   4.813   3.108   1.330
    5CHTO   C51 1986   4.804   3.055   1.006
    5CHTO   H93 1987   4.913   3.048   1.018
    5CHTO   O30 1988   4.767   3.131   0.891
    5CHTO   C46 1989   4.855   3.247   0.871
    5CHTO   H88 1990   4.956   3.209   0.854
    5CHTO   C53 1991   4.804   3.320   0.745
    5CHTO   O72 1992   4.816   3.238   0.628
    5CHTO  H199 1993   4.907   3.227   0.606
    5CHTO   O22 1994   4.748   2.924   0.983
    5CHTO   C31 1995   4.832   2.821   0.917
    5CHTO   H59 1996   4.762   2.740   0.887
    5CHTO   C29 1997   4.904   2.869   0.788
    5CHTO   H57 1998   4.956   2.962   0.814
    5CHTO   O21 1999   4.803   2.905   0.692
    5CHTO   H37 2000   4.757   2.829   0.662
    5CHTO   C27 2001   5.009   2.766   0.730
    5CHTO   H55 2002   4.954   2.681   0.687
    5CHTO    N5 2003   5.092   2.828   0.622
    5CHTO   H43 2004   5.197   2.823   0.646
    5CHTO   H44 2005   5.073   2.779   0.528
    5CHTO   C25 2006   5.097   2.709   0.846
    5CHTO   H53 2007   5.157   2.791   0.889
    5CHTO   O17 2008   5.011   2.655   0.951
    5CHTO   C32 2009   4.933   2.755   1.017
    5CHTO   H60 2010   4.998   2.832   1.057
    5CHTO   C36 2011   4.859   2.688   1.135
    5CHTO   O25 2012   4.951   2.638   1.232
    5CHTO   H40 2013   4.904   2.598   1.303
    5CHTO   O15 2014   5.194   2.595   0.796
    5CHTO   C19 2015   5.322   2.561   0.858
    5CHTO   H47 2016   5.353   2.654   0.908
    5CHTO   C20 2017   5.314   2.447   0.963
    5CHTO   H48 2018   5.271   2.355   0.921
    5CHTO   O19 2019   5.224   2.492   1.067
    5CHTO   H35 2020   5.210   2.423   1.130
    5CHTO   C21 2021   5.455   2.412   1.025
    5CHTO   H49 2022   5.484   2.491   1.094
    5CHTO    N4 2023   5.452   2.286   1.105
    5CHTO   H41 2024   5.549   2.266   1.147
    5CHTO   H42 2025   5.423   2.203   1.042
    5CHTO   C22 2026   5.567   2.408   0.916
    5CHTO   H50 2027   5.559   2.315   0.860
    5CHTO   O14 2028   5.559   2.519   0.826
    5CHTO   C23 2029   5.434   2.528   0.755
    5CHTO   H51 2030   5.417   2.432   0.705
    5CHTO   C34 2031   5.445   2.636   0.646
    5CHTO   O23 2032   5.540   2.600   0.546
    5CHTO   H38 2033   5.545   2.668   0.482
    5CHTO   O16 2034   5.695   2.419   0.980
    5CHTO   C24 2035   5.818   2.369   0.894
    5CHTO   H52 2036   5.797   2.370   0.788
    5CHTO   C26 2037   5.856   2.226   0.938
    5CHTO   H54 2038   5.869   2.225   1.050
    5CHTO   O20 2039   5.746   2.138   0.906
    5CHTO   H36 2040   5.761   2.053   0.941
    5CHTO   C30 2041   5.989   2.178   0.873
    5CHTO   H58 2042   5.973   2.164   0.765
    5CHTO    N6 2043   6.034   2.046   0.925
    5CHTO   H45 2044   5.959   1.971   0.904
    5CHTO   H46 2045   6.048   2.052   1.032
    5CHTO   C33 2046   6.100   2.288   0.888
    5CHTO   H61 2047   6.125   2.298   0.995
    5CHTO   O18 2048   6.049   2.414   0.842
    5CHTO   C28 2049   5.938   2.464   0.918
    5CHTO   H56 2050   5.962   2.466   1.024
    5CHTO   C35 2051   5.904   2.608   0.872
    5CHTO   O24 2052   6.011   2.700   0.897
    5CHTO   H39 2053   5.985   2.786   0.870
    5CHTO    O9 2054   6.225   2.254   0.823
    5CHTO   C13 2055   6.226   2.249   0.660
    5CHTO   H26 2056   6.125   2.221   0.624
    5CHTO   C11 2057   6.335   2.143   0.615
    5CHTO   H24 2058   6.302   2.045   0.652
    5CHTO    O8 2059   6.462   2.171   0.675
    5CHTO    H3 2060   6.523   2.103   0.655
    5CHTO    C9 2061   6.337   2.139   0.460
    5CHTO   H22 2062   6.234   2.115   0.430
    5CHTO    N2 2063   6.417   2.028   0.402
    5CHTO   H10 2064   6.488   2.065   0.330
    5CHTO   H11 2065   6.468   1.972   0.480
    5CHTO    C7 2066   6.373   2.281   0.403
    5CHTO   H20 2067   6.351   2.273   0.295
    5CHTO    O4 2068   6.289   2.386   0.456
    5CHTO   C14 2069   6.255   2.392   0.597
    5CHTO   H27 2070   6.162   2.452   0.603
    5CHTO   C18 2071   6.365   2.473   0.670
    5CHTO   O13 2072   6.324   2.519   0.799
    5CHTO    H7 2073   6.395   2.565   0.840
    5CHTO    O2 2074   6.535   2.322   0.426
    5CHTO    C1 2075   6.587   2.413   0.327
    5CHTO   H14 2076   6.508   2.487   0.301
    5CHTO    C2 2077   6.637   2.345   0.192
    5CHTO   H15 2078   6.709   2.267   0.222
    5CHTO    O6 2079   6.526   2.283   0.125
    5CHTO    H1 2080   6.493   2.211   0.176
    5CHTO    C3 2081   6.710   2.452   0.096
    5CHTO   H16 2082   6.635   2.525   0.063
    5CHTO    N1 2083   6.767   2.388   2.850
    5CHTO    H8 2084   6.724   2.433   2.762
    5CHTO    H9 2085   6.874   2.398   2.847
    5CHTO    C4 2086   6.817   2.534   0.178
    5CHTO   H17 2087   6.899   2.468   0.205
    5CHTO    O1 2088   6.756   2.590   0.295
    5CHTO    C5 2089   6.704   2.495   0.389
    5CHTO   H18 2090   6.783   2.424   0.418
    5CHTO   C16 2091   6.662   2.576   0.513
    5CHTO   O11 2092   6.773   2.646   0.571
    5CHTO    H5 2093   6.745   2.689   0.649
    5CHTO    O3 2094   6.864   2.651   0.108
    5CHTO    C6 2095   7.007   2.682   0.121
    5CHTO   H19 2096   7.060   2.614   0.189
    5CHTO    C8 2097   7.074   2.670   2.858
    5CHTO   H21 2098   7.013   2.727   2.787
    5CHTO    O7 2099   7.072   2.531   2.822
    5CHTO    H2 2100   7.105   2.519   2.735
    5CHTO   C12 2101   7.221   2.729   2.857
    5CHTO   H25 2102   7.283   2.660   0.041
    5CHTO    N3 2103   7.280   2.726   2.719
    5CHTO   H12 2104   7.222   2.789   2.652
    5CHTO   H13 2105   7.383   2.760   2.722
    5CHTO   C15 2106   7.221   2.871   0.045
    5CHTO   H28 2107   7.166   2.943   2.863
    5CHTO   O10 2108   7.364   2.925   0.073
    5CHTO    H4 2109   7.359   3.014   0.103
    5CHTO    O5 2110   7.165   2.863   0.176
    5CHTO   C10 2111   7.026   2.826   0.178
    5CHTO   H23 2112   6.970   2.899   0.120
    5CHTO   C17 2113   6.985   2.841   0.326
    5CHTO   O12 2114   6.843   2.852   0.342
    5CHTO    H6 2115   6.813   2.933   0.306
    6CHTO  H203 2116   3.914   4.494   0.757
    6CHTO   O82 2117   3.981   4.442   0.797
    6CHTO  C123 2118   4.111   4.487   0.757
    6CHTO  H227 2119   4.111   4.503   0.647
    6CHTO   O77 2120   4.125   4.616   0.824
    6CHTO  C118 2121   4.247   4.686   0.794
    6CHTO  H222 2122   4.256   4.699   0.685
    6CHTO  C125 2123   4.240   4.829   0.860
    6CHTO   O84 2124   4.242   4.825   1.003
    6CHTO  H205 2125   4.235   4.912   1.037
    6CHTO  C114 2126   4.366   4.603   0.846
    6CHTO  H218 2127   4.353   4.587   0.953
    6CHTO  C116 2128   4.367   4.461   0.780
    6CHTO  H220 2129   4.389   4.472   0.671
    6CHTO   O79 2130   4.476   4.385   0.836
    6CHTO  H201 2131   4.464   4.372   0.928
    6CHTO  C120 2132   4.227   4.390   0.801
    6CHTO  H224 2133   4.218   4.368   0.910
    6CHTO   N21 2134   4.222   4.259   0.729
    6CHTO  H211 2135   4.120   4.235   0.701
    6CHTO  H212 2136   4.262   4.181   0.792
    6CHTO   O75 2137   4.483   4.682   0.820
    6CHTO  C112 2138   4.592   4.670   0.940
    6CHTO  H216 2139   4.618   4.564   0.954
    6CHTO   O73 2140   4.532   4.725   1.058
    6CHTO  C113 2141   4.608   4.698   1.176
    6CHTO  H217 2142   4.626   4.588   1.184
    6CHTO  C124 2143   4.525   4.739   1.298
    6CHTO   O83 2144   4.401   4.668   1.309
    6CHTO  H204 2145   4.342   4.695   1.241
    6CHTO  C109 2146   4.744   4.773   1.170
    6CHTO  H213 2147   4.722   4.881   1.179
    6CHTO  C110 2148   4.818   4.745   1.034
    6CHTO  H214 2149   4.862   4.645   1.041
    6CHTO   O78 2150   4.928   4.837   1.020
    6CHTO  H200 2151   4.993   4.821   1.086
    6CHTO  C111 2152   4.723   4.752   0.911
    6CHTO  H215 2153   4.694   4.856   0.895
    6CHTO   N19 2154   4.786   4.705   0.784
    6CHTO  H207 2155   4.819   4.603   0.795
    6CHTO  H208 2156   4.870   4.768   0.760
    6CHTO   O74 2157   4.825   4.732   1.284
    6CHTO  C115 2158   4.929   4.840   1.342
    6CHTO  H219 2159   4.970   4.902   1.262
    6CHTO   O76 2160   4.861   4.938   1.440
    6CHTO  C122 2161   4.785   4.868   1.539
    6CHTO  H226 2162   4.699   4.825   1.490
    6CHTO  C126 2163   4.727   4.974   1.639
    6CHTO   O85 2164   4.640   4.916   1.736
    6CHTO  H206 2165   4.604   4.984   1.790
    6CHTO  C121 2166   4.868   4.753   1.612
    6CHTO  H225 2167   4.864   4.774   1.721
    6CHTO   O81 2168   4.802   4.628   1.588
    6CHTO  H202 2169   4.805   4.606   1.497
    6CHTO  C119 2170   5.019   4.746   1.569
    6CHTO  H223 2171   5.065   4.831   1.619
    6CHTO  C117 2172   5.043   4.759   1.413
    6CHTO  H221 2173   5.045   4.663   1.361
    6CHTO   N20 2174   5.179   4.819   1.387
    6CHTO  H209 2175   5.182   4.921   1.422
    6CHTO  H210 2176   5.200   4.815   1.281
    6CHTO   O80 2177   5.105   4.618   1.636
    6CHTO  C103 2178   5.127   4.607   1.797
    6CHTO  H190 2179   5.207   4.536   1.817
    6CHTO  C101 2180   5.164   4.741   1.872
    6CHTO  H188 2181   5.095   4.819   1.841
    6CHTO   O68 2182   5.308   4.783   1.828
    6CHTO  H168 2183   5.329   4.867   1.865
    6CHTO   C99 2184   5.151   4.723   2.031
    6CHTO  H186 2185   5.222   4.644   2.065
    6CHTO   N17 2186   5.179   4.847   2.110
    6CHTO  H174 2187   5.199   4.931   2.045
    6CHTO  H175 2188   5.261   4.830   2.178
    6CHTO   C97 2189   5.009   4.667   2.061
    6CHTO  H184 2190   4.936   4.739   2.021
    6CHTO   O64 2191   4.997   4.538   1.999
    6CHTO  C104 2192   4.994   4.545   1.855
    6CHTO  H191 2193   4.909   4.604   1.824
    6CHTO  C108 2194   4.971   4.404   1.798
    6CHTO   O71 2195   4.841   4.354   1.833
    6CHTO  H171 2196   4.837   4.338   1.925
    6CHTO   O62 2197   4.983   4.635   2.200
    6CHTO   C91 2198   4.875   4.709   2.262
    6CHTO  H178 2199   4.908   4.813   2.268
    6CHTO   C92 2200   4.860   4.659   2.410
    6CHTO  H179 2201   4.958   4.657   2.460
    6CHTO   O66 2202   4.782   4.756   2.482
    6CHTO  H166 2203   4.830   4.836   2.490
    6CHTO   C93 2204   4.785   4.520   2.422
    6CHTO  H180 2205   4.739   4.516   2.522
    6CHTO   N16 2206   4.878   4.404   2.417
    6CHTO  H172 2207   4.856   4.339   2.333
    6CHTO  H173 2208   4.874   4.348   2.509
    6CHTO   C94 2209   4.670   4.508   2.313
    6CHTO  H181 2210   4.703   4.452   2.225
    6CHTO   O61 2211   4.632   4.639   2.267
    6CHTO   C95 2212   4.733   4.701   2.187
    6CHTO  H182 2213   4.745   4.645   2.095
    6CHTO  C106 2214   4.683   4.845   2.146
    6CHTO   O69 2215   4.567   4.836   2.062
    6CHTO  H169 2216   4.591   4.799   1.979
    6CHTO   O63 2217   4.544   4.438   2.376
    6CHTO   C96 2218   4.423   4.435   2.272
    6CHTO  H183 2219   4.457   4.476   2.177
    6CHTO   C98 2220   4.299   4.517   2.316
    6CHTO  H185 2221   4.256   4.474   2.408
    6CHTO   O67 2222   4.340   4.651   2.351
    6CHTO  H167 2223   4.393   4.649   2.428
    6CHTO  C102 2224   4.189   4.521   2.199
    6CHTO  H189 2225   4.226   4.595   2.126
    6CHTO   N18 2226   4.055   4.571   2.239
    6CHTO  H176 2227   4.064   4.672   2.277
    6CHTO  H177 2228   4.014   4.507   2.316
    6CHTO  C105 2229   4.183   4.383   2.127
    6CHTO  H192 2230   4.079   4.356   2.106
    6CHTO   O65 2231   4.240   4.274   2.203
    6CHTO  C100 2232   4.378   4.286   2.245
    6CHTO  H187 2233   4.387   4.231   2.340
    6CHTO  C107 2234   4.468   4.213   2.142
    6CHTO   O70 2235   4.604   4.206   2.184
    6CHTO  H170 2236   4.642   4.292   2.185
    6CHTO   O57 2237   4.261   4.407   1.987
    6CHTO   C85 2238   4.188   4.436   1.867
    6CHTO  H157 2239   4.113   4.514   1.894
    6CHTO   C83 2240   4.106   4.311   1.820
    6CHTO  H155 2241   4.031   4.289   1.897
    6CHTO   O56 2242   4.193   4.196   1.815
    6CHTO  H135 2243   4.226   4.175   1.900
    6CHTO   C81 2244   4.034   4.343   1.686
    6CHTO  H153 2245   3.969   4.429   1.703
    6CHTO   N14 2246   3.940   4.235   1.643
    6CHTO  H141 2247   3.995   4.146   1.621
    6CHTO  H142 2248   3.870   4.214   1.721
    6CHTO   C79 2249   4.139   4.381   1.576
    6CHTO  H151 2250   4.083   4.410   1.487
    6CHTO   O52 2251   4.215   4.498   1.619
    6CHTO   C86 2252   4.282   4.484   1.749
    6CHTO  H158 2253   4.363   4.410   1.730
    6CHTO   C90 2254   4.352   4.616   1.787
    6CHTO   O60 2255   4.450   4.654   1.689
    6CHTO  H138 2256   4.407   4.682   1.610
    6CHTO   O50 2257   4.230   4.276   1.541
    6CHTO   C73 2258   4.265   4.169   1.452
    6CHTO  H145 2259   4.177   4.140   1.391
    6CHTO   C74 2260   4.313   4.046   1.534
    6CHTO  H146 2261   4.232   4.018   1.603
    6CHTO   O54 2262   4.329   3.935   1.444
    6CHTO  H133 2263   4.352   3.857   1.492
    6CHTO   C75 2264   4.445   4.084   1.612
    6CHTO  H147 2265   4.423   4.167   1.681
    6CHTO   N13 2266   4.499   3.975   1.697
    6CHTO  H139 2267   4.520   3.888   1.638
    6CHTO  H140 2268   4.427   3.949   1.773
    6CHTO   C76 2269   4.554   4.139   1.508
    6CHTO  H148 2270   4.581   4.057   1.441
    6CHTO   O49 2271   4.497   4.249   1.430
    6CHTO   C77 2272   4.379   4.214   1.356
    6CHTO  H149 2273   4.402   4.133   1.287
    6CHTO   C88 2274   4.337   4.333   1.268
    6CHTO   O58 2275   4.443   4.366   1.166
    6CHTO  H136 2276   4.452   4.296   1.105
    6CHTO   O51 2277   4.681   4.202   1.584
    6CHTO   C78 2278   4.818   4.217   1.496
    6CHTO  H150 2279   4.894   4.272   1.554
    6CHTO   C80 2280   4.794   4.292   1.363
    6CHTO  H152 2281   4.724   4.232   1.300
    6CHTO   O55 2282   4.732   4.417   1.397
    6CHTO  H134 2283   4.707   4.463   1.320
    6CHTO   C84 2284   4.930   4.313   1.287
    6CHTO  H156 2285   4.992   4.377   1.348
    6CHTO   N15 2286   4.912   4.384   1.156
    6CHTO  H143 2287   4.850   4.326   1.090
    6CHTO  H144 2288   5.007   4.400   1.109
    6CHTO   C87 2289   5.003   4.177   1.267
    6CHTO  H159 2290   4.956   4.121   1.187
    6CHTO   O53 2291   5.004   4.089   1.400
    6CHTO   C82 2292   4.878   4.077   1.467
    6CHTO  H154 2293   4.810   4.018   1.406
    6CHTO   C89 2294   4.900   3.998   1.599
    6CHTO   O59 2295   4.995   4.060   1.686
    6CHTO  H137 2296   4.960   4.140   1.720
    6CHTO   O45 2297   5.159   4.210   1.220
    6CHTO   C67 2298   5.269   4.194   1.311
    6CHTO  H124 2299   5.282   4.089   1.337
    6CHTO   C65 2300   5.397   4.246   1.239
    6CHTO  H122 2301   5.396   4.200   1.140
    6CHTO   O44 2302   5.516   4.204   1.307
    6CHTO  H102 2303   5.524   4.111   1.306
    6CHTO   C63 2304   5.381   4.400   1.215
    6CHTO  H120 2305   5.285   4.419   1.167
    6CHTO   N11 2306   5.476   4.461   1.116
    6CHTO  H108 2307   5.448   4.563   1.098
    6CHTO  H109 2308   5.473   4.406   1.025
    6CHTO   C61 2309   5.375   4.474   1.355
    6CHTO  H118 2310   5.340   4.576   1.331
    6CHTO   O40 2311   5.277   4.417   1.445
    6CHTO   C68 2312   5.250   4.272   1.449
    6CHTO  H125 2313   5.143   4.265   1.477
    6CHTO   C72 2314   5.329   4.204   1.563
    6CHTO   O48 2315   5.285   4.245   1.693
    6CHTO  H105 2316   5.313   4.334   1.709
    6CHTO   O38 2317   5.503   4.483   1.423
    6CHTO   C55 2318   5.522   4.599   1.507
    6CHTO  H112 2319   5.425   4.630   1.549
    6CHTO   C56 2320   5.591   4.718   1.425
    6CHTO  H113 2321   5.683   4.677   1.380
    6CHTO   O42 2322   5.508   4.760   1.316
    6CHTO  H100 2323   5.498   4.690   1.254
    6CHTO   C57 2324   5.627   4.840   1.520
    6CHTO  H114 2325   5.533   4.885   1.551
    6CHTO   N10 2326   5.705   4.947   1.452
    6CHTO  H106 2327   5.678   4.953   1.348
    6CHTO  H107 2328   5.811   4.927   1.459
    6CHTO   C58 2329   5.701   4.789   1.647
    6CHTO  H115 2330   5.803   4.753   1.618
    6CHTO   O37 2331   5.628   4.683   1.710
    6CHTO   C59 2332   5.612   4.566   1.629
    6CHTO  H116 2333   5.709   4.530   1.597
    6CHTO   C70 2334   5.548   4.458   1.718
    6CHTO   O46 2335   5.634   4.417   1.825
    6CHTO  H103 2336   5.709   4.372   1.791
    6CHTO   O39 2337   5.710   4.905   1.763
    6CHTO   C60 2338   5.840   4.962   1.789
    6CHTO  H117 2339   5.907   4.941   1.705
    6CHTO   C62 2340   5.827   5.116   1.804
    6CHTO  H119 2341   5.788   5.154   1.707
    6CHTO   O43 2342   5.731   5.147   1.907
    6CHTO  H101 2343   5.718   5.240   1.912
    6CHTO   C66 2344   5.972   5.181   1.831
    6CHTO  H123 2345   6.039   5.150   1.752
    6CHTO   N12 2346   5.968   5.330   1.828
    6CHTO  H110 2347   5.934   5.363   1.731
    6CHTO  H111 2348   6.067   5.369   1.849
    6CHTO   C69 2349   6.027   5.125   1.965
    6CHTO  H126 2350   5.958   5.149   2.049
    6CHTO   O41 2351   6.040   4.970   1.951
    6CHTO   C64 2352   5.906   4.899   1.916
    6CHTO  H121 2353   5.835   4.908   2.001
    6CHTO   C71 2354   5.936   4.748   1.894
    6CHTO   O47 2355   5.984   4.687   2.015
    6CHTO  H104 2356   5.913   4.679   2.076
    6CHTO   O34 2357   6.168   5.183   2.000
    6CHTO   C49 2358   6.245   5.177   2.132
    6CHTO   H91 2359   6.172   5.157   2.211
    6CHTO   C47 2360   6.311   5.315   2.155
    6CHTO   H89 2361   6.357   5.312   2.256
    6CHTO   O33 2362   6.208   5.415   2.154
    6CHTO   H70 2363   6.245   5.499   2.173
    6CHTO   C45 2364   6.424   5.337   2.042
    6CHTO   H87 2365   6.375   5.328   1.943
    6CHTO    N8 2366   6.484   5.472   2.051
    6CHTO   H75 2367   6.592   5.466   2.056
    6CHTO   H76 2368   6.456   5.532   1.966
    6CHTO   C43 2369   6.532   5.217   2.045
    6CHTO   H85 2370   6.592   5.231   1.955
    6CHTO   O29 2371   6.466   5.089   2.045
    6CHTO   C50 2372   6.352   5.066   2.131
    6CHTO   H92 2373   6.302   4.975   2.094
    6CHTO   C54 2374   6.395   5.026   2.275
    6CHTO   O36 2375   6.472   4.905   2.276
    6CHTO   H72 2376   6.417   4.832   2.253
    6CHTO   O27 2377   6.623   5.224   2.156
    6CHTO   C37 2378   6.759   5.183   2.178
    6CHTO   H79 2379   6.768   5.074   2.166
    6CHTO   C38 2380   6.856   5.248   2.073
    6CHTO   H80 2381   6.829   5.354   2.064
    6CHTO   O31 2382   6.834   5.185   1.946
    6CHTO   H68 2383   6.855   5.094   1.949
    6CHTO   C39 2384   7.009   5.237   2.112
    6CHTO   H81 2385   7.039   5.134   2.094
    6CHTO    N7 2386   7.098   5.324   2.027
    6CHTO   H73 2387   7.069   5.427   2.036
    6CHTO   H74 2388   7.092   5.293   1.924
    6CHTO   C40 2389   7.032   5.265   2.266
    6CHTO   H82 2390   7.019   5.372   2.285
    6CHTO   O26 2391   6.943   5.185   2.344
    6CHTO   C41 2392   6.803   5.221   2.323
    6CHTO   H83 2393   6.789   5.329   2.337
    6CHTO   C52 2394   6.719   5.147   2.429
    6CHTO   O35 2395   6.752   5.191   2.566
    6CHTO   H71 2396   6.700   5.143   2.628
    6CHTO   O28 2397   7.166   5.227   2.305
    6CHTO   C42 2398   7.230   5.256   2.434
    6CHTO   H84 2399   7.337   5.248   2.411
    6CHTO   C44 2400   7.203   5.154   2.550
    6CHTO   H86 2401   7.097   5.157   2.574
    6CHTO   O32 2402   7.234   5.023   2.498
    6CHTO   H69 2403   7.326   5.016   2.478
    6CHTO   C48 2404   7.286   5.190   2.680
    6CHTO   H90 2405   7.392   5.179   2.656
    6CHTO    N9 2406   7.259   5.094   2.793
    6CHTO   H77 2407   7.351   5.045   2.823
    6CHTO   H78 2408   7.215   5.145   2.878
    6CHTO   C51 2409   7.260   5.340   2.720
    6CHTO   H93 2410   7.156   5.350   2.751
    6CHTO   O30 2411   7.292   5.424   2.609
    6CHTO   C46 2412   7.207   5.401   2.487
    6CHTO   H88 2413   7.102   5.413   2.514
    6CHTO   C53 2414   7.250   5.508   2.385
    6CHTO   O72 2415   7.223   5.638   2.437
    6CHTO  H199 2416   7.280   5.656   2.509
    6CHTO   O22 2417   7.350   5.387   2.823
    6CHTO   C31 2418   7.306   5.493   0.039
    6CHTO   H59 2419   7.204   5.524   0.006
    6CHTO   C29 2420   7.293   5.443   0.185
    6CHTO   H57 2421   7.393   5.410   0.218
    6CHTO   O21 2422   7.207   5.328   0.187
    6CHTO   H37 2423   7.245   5.257   0.138
    6CHTO   C27 2424   7.241   5.556   0.282
    6CHTO   H55 2425   7.137   5.578   0.257
    6CHTO    N5 2426   7.249   5.516   0.425
    6CHTO   H43 2427   7.197   5.422   0.439
    6CHTO   H44 2428   7.203   5.592   0.487
    6CHTO   C25 2429   7.316   5.693   0.258
    6CHTO   H53 2430   7.417   5.688   0.302
    6CHTO   O17 2431   7.330   5.724   0.116
    6CHTO   C32 2432   7.394   5.622   0.038
    6CHTO   H60 2433   7.492   5.598   0.081
    6CHTO   C36 2434   7.416   5.678   2.773
    6CHTO   O25 2435   7.505   5.789   2.775
    6CHTO   H40 2436   7.521   5.818   2.687
    6CHTO   O15 2437   7.232   5.816   0.327
    6CHTO   C19 2438   7.109   5.852   0.398
    6CHTO   H47 2439   7.062   5.756   0.421
    6CHTO   C20 2440   7.135   5.929   0.531
    6CHTO   H48 2441   7.191   6.022   0.515
    6CHTO   O19 2442   7.215   5.841   0.613
    6CHTO   H35 2443   7.241   5.885   0.692
    6CHTO   C21 2444   6.999   5.966   0.605
    6CHTO   H49 2445   6.950   5.874   0.636
    6CHTO    N4 2446   7.021   6.047   0.728
    6CHTO   H41 2447   7.070   6.140   0.704
    6CHTO   H42 2448   6.927   6.068   0.776
    6CHTO   C22 2449   6.903   6.036   0.504
    6CHTO   H50 2450   6.947   6.132   0.475
    6CHTO   O14 2451   6.886   5.952   0.388
    6CHTO   C23 2452   7.006   5.931   0.311
    6CHTO   H51 2453   7.044   6.030   0.280
    6CHTO   C34 2454   6.963   5.855   0.185
    6CHTO   O23 2455   7.067   5.851   0.086
    6CHTO   H38 2456   7.137   5.797   0.116
    6CHTO   O16 2457   6.772   6.056   0.561
    6CHTO   C24 2458   6.662   6.127   0.465
    6CHTO   H52 2459   6.684   6.112   0.359
    6CHTO   C26 2460   6.655   6.278   0.495
    6CHTO   H54 2461   6.653   6.291   0.606
    6CHTO   O20 2462   6.777   6.337   0.446
    6CHTO   H36 2463   6.781   6.428   0.471
    6CHTO   C30 2464   6.530   6.348   0.434
    6CHTO   H58 2465   6.542   6.357   0.325
    6CHTO    N6 2466   6.515   6.487   0.485
    6CHTO   H45 2467   6.427   6.533   0.441
    6CHTO   H46 2468   6.602   6.546   0.459
    6CHTO   C33 2469   6.401   6.262   0.457
    6CHTO   H61 2470   6.377   6.260   0.565
    6CHTO   O18 2471   6.427   6.128   0.413
    6CHTO   C28 2472   6.525   6.059   0.492
    6CHTO   H56 2473   6.501   6.066   0.598
    6CHTO   C35 2474   6.524   5.910   0.449
    6CHTO   O24 2475   6.602   5.827   0.536
    6CHTO   H39 2476   6.597   5.738   0.507
    6CHTO    O9 2477   6.285   6.318   0.393
    6CHTO   C13 2478   6.151   6.229   0.418
    6CHTO   H26 2479   6.176   6.145   0.488
    6CHTO   C11 2480   6.099   6.175   0.279
    6CHTO   H24 2481   6.180   6.115   0.234
    6CHTO    O8 2482   6.074   6.286   0.191
    6CHTO    H3 2483   6.004   6.339   0.224
    6CHTO    C9 2484   5.976   6.083   0.305
    6CHTO   H22 2485   6.015   6.000   0.365
    6CHTO    N2 2486   5.927   6.016   0.182
    6CHTO   H10 2487   5.973   6.058   0.093
    6CHTO   H11 2488   5.820   6.023   0.175
    6CHTO    C7 2489   5.868   6.160   0.393
    6CHTO   H20 2490   5.864   6.100   0.487
    6CHTO    O4 2491   5.906   6.296   0.424
    6CHTO   C14 2492   6.033   6.311   0.490
    6CHTO   H27 2493   6.022   6.271   0.593
    6CHTO   C18 2494   6.063   6.463   0.503
    6CHTO   O13 2495   6.068   6.529   0.376
    6CHTO    H7 2496   6.143   6.499   0.327
    6CHTO    O2 2497   5.715   6.161   0.327
    6CHTO    C1 2498   5.615   6.238   0.395
    6CHTO   H14 2499   5.662   6.310   0.465
    6CHTO    C2 2500   5.511   6.149   0.476
    6CHTO   H15 2501   5.485   6.065   0.410
    6CHTO    O6 2502   5.578   6.098   0.593
    6CHTO    H1 2503   5.523   6.036   0.637
    6CHTO    C3 2504   5.378   6.231   0.517
    6CHTO   H16 2505   5.405   6.303   0.597
    6CHTO    N1 2506   5.272   6.140   0.572
    6CHTO    H8 2507   5.184   6.141   0.510
    6CHTO    H9 2508   5.246   6.169   0.673
    6CHTO    C4 2509   5.329   6.319   0.396
    6CHTO   H17 2510   5.294   6.252   0.316
    6CHTO    O1 2511   5.438   6.400   0.349
    6CHTO    C5 2512   5.542   6.323   0.288
    6CHTO   H18 2513   5.499   6.255   0.214
    6CHTO   C16 2514   5.638   6.421   0.216
    6CHTO   O11 2515   5.573   6.489   0.108
    6CHTO    H5 2516   5.556   6.428   0.038
    6CHTO    O3 2517   5.224   6.411   0.433
    6CHTO    C6 2518   5.137   6.470   0.329
    6CHTO   H19 2519   5.074   6.547   0.373
    6CHTO    C8 2520   5.216   6.540   0.213
    6CHTO   H21 2521   5.284   6.467   0.168
    6CHTO    O7 2522   5.292   6.647   0.274
    6CHTO    H2 2523   5.349   6.686   0.211
    6CHTO   C12 2524   5.119   6.592   0.100
    6CHTO   H25 2525   5.061   6.675   0.146
    6CHTO    N3 2526   5.197   6.651   2.864
    6CHTO   H12 2527   5.177   6.597   2.772
    6CHTO   H13 2528   5.174   6.756   2.852
    6CHTO   C15 2529   5.020   6.479   0.058
    6CHTO   H28 2530   5.070   6.399   0.002
    6CHTO   O10 2531   4.902   6.532   2.853
    6CHTO    H4 2532   4.933   6.568   2.772
    6CHTO    O5 2533   4.952   6.423   0.172
    6CHTO   C10 2534   5.041   6.363   0.268
    6CHTO   H23 2535   5.098   6.285   0.218
    6CHTO   C17 2536   4.955   6.296   0.377
    6CHTO   O12 2537   4.878   6.187   0.323
    6CHTO    H6 2538   4.828   6.148   0.391
    7CHTO  H203 2539   4.815   1.809   0.835
    7CHTO   O82 2540   4.809   1.867   0.763
    7CHTO  C123 2541   4.864   1.807   0.645
    7CHTO  H227 2542   4.808   1.715   0.622
    7CHTO   O77 2543   4.840   1.906   0.541
    7CHTO  C118 2544   4.880   1.865   0.410
    7CHTO  H222 2545   4.835   1.768   0.384
    7CHTO  C125 2546   4.827   1.974   0.310
    7CHTO   O84 2547   4.829   1.928   0.174
    7CHTO  H205 2548   4.767   1.858   0.163
    7CHTO  C114 2549   5.034   1.854   0.410
    7CHTO  H218 2550   5.076   1.950   0.440
    7CHTO  C116 2551   5.080   1.747   0.514
    7CHTO  H220 2552   5.046   1.647   0.480
    7CHTO   O79 2553   5.224   1.743   0.517
    7CHTO  H201 2554   5.253   1.675   0.575
    7CHTO  C120 2555   5.019   1.779   0.657
    7CHTO  H224 2556   5.070   1.871   0.693
    7CHTO   N21 2557   5.049   1.671   0.754
    7CHTO  H211 2558   5.143   1.690   0.803
    7CHTO  H212 2559   4.971   1.663   0.828
    7CHTO   O75 2560   5.072   1.824   0.274
    7CHTO  C112 2561   5.229   1.870   0.224
    7CHTO  H216 2562   5.285   1.779   0.200
    7CHTO   O73 2563   5.291   1.945   0.330
    7CHTO  C113 2564   5.430   1.969   0.306
    7CHTO  H217 2565   5.480   1.872   0.286
    7CHTO  C124 2566   5.492   2.027   0.434
    7CHTO   O83 2567   5.488   1.936   0.544
    7CHTO  H204 2568   5.399   1.924   0.572
    7CHTO  C109 2569   5.447   2.063   0.184
    7CHTO  H213 2570   5.409   2.162   0.214
    7CHTO  C110 2571   5.369   2.008   0.060
    7CHTO  H214 2572   5.424   1.923   0.020
    7CHTO   O78 2573   5.368   2.110   2.836
    7CHTO  H200 2574   5.454   2.123   2.802
    7CHTO  C111 2575   5.224   1.963   0.097
    7CHTO  H215 2576   5.165   2.052   0.122
    7CHTO   N19 2577   5.153   1.895   2.864
    7CHTO  H207 2578   5.143   1.962   2.779
    7CHTO  H208 2579   5.208   1.807   2.833
    7CHTO   O74 2580   5.590   2.074   0.155
    7CHTO  C115 2581   5.641   2.213   0.116
    7CHTO  H219 2582   5.566   2.270   0.060
    7CHTO   O76 2583   5.675   2.304   0.249
    7CHTO  C122 2584   5.784   2.250   0.325
    7CHTO  H226 2585   5.756   2.150   0.360
    7CHTO  C126 2586   5.806   2.336   0.455
    7CHTO   O85 2587   5.694   2.327   0.544
    7CHTO  H206 2588   5.714   2.374   0.623
    7CHTO  C121 2589   5.914   2.240   0.237
    7CHTO  H225 2590   5.938   2.341   0.195
    7CHTO   O81 2591   6.027   2.195   0.313
    7CHTO  H202 2592   6.049   2.258   0.379
    7CHTO  C119 2593   5.884   2.142   0.119
    7CHTO  H223 2594   5.975   2.134   0.059
    7CHTO  C117 2595   5.767   2.190   0.025
    7CHTO  H221 2596   5.735   2.117   2.829
    7CHTO   N20 2597   5.801   2.312   2.823
    7CHTO  H209 2598   5.822   2.395   0.011
    7CHTO  H210 2599   5.720   2.337   2.757
    7CHTO   O80 2600   5.867   1.994   0.169
    7CHTO  C103 2601   5.927   1.877   0.088
    7CHTO  H190 2602   5.911   1.891   2.859
    7CHTO  C101 2603   6.079   1.845   0.116
    7CHTO  H188 2604   6.096   1.846   0.224
    7CHTO   O68 2605   6.167   1.959   0.053
    7CHTO  H168 2606   6.157   1.959   2.837
    7CHTO   C99 2607   6.119   1.700   0.060
    7CHTO  H186 2608   6.107   1.699   2.827
    7CHTO   N17 2609   6.261   1.661   0.089
    7CHTO  H174 2610   6.328   1.736   0.052
    7CHTO  H175 2611   6.282   1.565   0.045
    7CHTO   C97 2612   6.019   1.595   0.115
    7CHTO  H184 2613   6.029   1.589   0.224
    7CHTO   O64 2614   5.886   1.631   0.075
    7CHTO  C104 2615   5.838   1.753   0.131
    7CHTO  H191 2616   5.835   1.748   0.240
    7CHTO  C108 2617   5.692   1.772   0.086
    7CHTO   O71 2618   5.606   1.671   0.140
    7CHTO  H171 2619   5.627   1.588   0.102
    7CHTO   O62 2620   6.028   1.465   0.052
    7CHTO   C91 2621   6.088   1.353   0.121
    7CHTO  H178 2622   6.196   1.367   0.112
    7CHTO   C92 2623   6.053   1.225   0.037
    7CHTO  H179 2624   6.072   1.244   2.808
    7CHTO   O66 2625   6.145   1.120   0.073
    7CHTO  H166 2626   6.232   1.142   0.046
    7CHTO   C93 2627   5.907   1.172   0.063
    7CHTO  H180 2628   5.904   1.068   0.027
    7CHTO   N16 2629   5.803   1.242   2.861
    7CHTO  H172 2630   5.802   1.347   0.007
    7CHTO  H173 2631   5.706   1.198   0.001
    7CHTO   C94 2632   5.873   1.173   0.218
    7CHTO  H181 2633   5.800   1.251   0.244
    7CHTO   O61 2634   5.990   1.200   0.298
    7CHTO   C95 2635   6.048   1.329   0.274
    7CHTO  H182 2636   5.977   1.405   0.306
    7CHTO  C106 2637   6.174   1.343   0.367
    7CHTO   O69 2638   6.138   1.337   0.505
    7CHTO  H169 2639   6.113   1.250   0.528
    7CHTO   O63 2640   5.815   1.034   0.254
    7CHTO   C96 2641   5.812   1.000   0.407
    7CHTO  H183 2642   5.803   1.094   0.463
    7CHTO   C98 2643   5.941   0.926   0.457
    7CHTO  H185 2644   6.031   0.987   0.436
    7CHTO   O67 2645   5.935   0.914   0.600
    7CHTO  H167 2646   6.014   0.877   0.633
    7CHTO  C102 2647   5.954   0.779   0.392
    7CHTO  H189 2648   6.010   0.719   0.466
    7CHTO   N18 2649   6.033   0.773   0.267
    7CHTO  H176 2650   5.987   0.834   0.191
    7CHTO  H177 2651   6.040   0.670   0.233
    7CHTO  C105 2652   5.812   0.716   0.376
    7CHTO  H192 2653   5.776   0.732   0.273
    7CHTO   O65 2654   5.714   0.774   0.465
    7CHTO  C100 2655   5.683   0.911   0.434
    7CHTO  H187 2656   5.622   0.910   0.342
    7CHTO  C107 2657   5.592   0.970   0.545
    7CHTO   O70 2658   5.654   0.968   0.675
    7CHTO  H170 2659   5.727   1.027   0.676
    7CHTO   O57 2660   5.830   0.564   0.404
    7CHTO   C85 2661   5.758   0.469   0.324
    7CHTO  H157 2662   5.775   0.499   0.218
    7CHTO   C83 2663   5.603   0.487   0.347
    7CHTO  H155 2664   5.575   0.586   0.312
    7CHTO   O56 2665   5.576   0.485   0.489
    7CHTO  H135 2666   5.486   0.505   0.505
    7CHTO   C81 2667   5.526   0.380   0.265
    7CHTO  H153 2668   5.553   0.392   0.160
    7CHTO   N14 2669   5.378   0.401   0.268
    7CHTO  H141 2670   5.341   0.425   0.170
    7CHTO  H142 2671   5.327   0.315   0.305
    7CHTO   C79 2672   5.570   0.237   0.311
    7CHTO  H151 2673   5.518   0.165   0.248
    7CHTO   O52 2674   5.713   0.219   0.285
    7CHTO   C86 2675   5.799   0.318   0.350
    7CHTO  H158 2676   5.794   0.294   0.458
    7CHTO   C90 2677   5.945   0.290   0.307
    7CHTO   O60 2678   6.040   0.367   0.382
    7CHTO  H138 2679   6.127   0.347   0.354
    7CHTO   O50 2680   5.541   0.209   0.449
    7CHTO   C73 2681   5.534   0.086   0.522
    7CHTO  H145 2682   5.615   0.018   0.491
    7CHTO   C74 2683   5.397   0.016   0.495
    7CHTO  H146 2684   5.389   0.000   0.386
    7CHTO   O54 2685   5.399   9.885   0.554
    7CHTO  H133 2686   5.407   9.891   0.647
    7CHTO   C75 2687   5.281   0.108   0.549
    7CHTO  H147 2688   5.286   0.205   0.498
    7CHTO   N13 2689   5.145   0.055   0.522
    7CHTO  H139 2690   5.131   0.044   0.415
    7CHTO  H140 2691   5.070   0.123   0.559
    7CHTO   C76 2692   5.306   0.136   0.705
    7CHTO  H148 2693   5.299   0.040   0.758
    7CHTO   O49 2694   5.439   0.193   0.726
    7CHTO   C77 2695   5.548   0.115   0.675
    7CHTO  H149 2696   5.553   0.020   0.729
    7CHTO   C88 2697   5.678   0.191   0.709
    7CHTO   O58 2698   5.799   0.119   0.662
    7CHTO  H136 2699   5.802   0.119   0.568
    7CHTO   O51 2700   5.208   0.246   0.763
    7CHTO   C78 2701   5.172   0.220   0.916
    7CHTO  H150 2702   5.230   0.134   0.957
    7CHTO   C80 2703   5.022   0.188   0.927
    7CHTO  H152 2704   4.964   0.269   0.876
    7CHTO   O55 2705   5.000   0.065   0.856
    7CHTO  H134 2706   4.908   0.046   0.852
    7CHTO   C84 2707   4.972   0.176   1.077
    7CHTO  H156 2708   5.013   0.083   1.118
    7CHTO   N15 2709   4.823   0.165   1.087
    7CHTO  H143 2710   4.793   0.156   1.189
    7CHTO  H144 2711   4.789   0.079   1.033
    7CHTO   C87 2712   5.026   0.293   1.164
    7CHTO  H159 2713   4.972   0.385   1.142
    7CHTO   O53 2714   5.178   0.313   1.138
    7CHTO   C82 2715   5.205   0.344   1.001
    7CHTO  H154 2716   5.145   0.429   0.969
    7CHTO   C89 2717   5.354   0.385   0.986
    7CHTO   O59 2718   5.379   0.508   1.054
    7CHTO  H137 2719   5.468   0.533   1.042
    7CHTO   O45 2720   5.005   0.257   1.325
    7CHTO   C67 2721   5.067   0.352   1.413
    7CHTO  H124 2722   5.148   0.402   1.361
    7CHTO   C65 2723   4.964   0.460   1.461
    7CHTO  H122 2724   4.869   0.409   1.474
    7CHTO   O44 2725   4.952   0.554   1.352
    7CHTO  H102 2726   4.910   0.514   1.279
    7CHTO   C63 2727   4.999   0.518   1.604
    7CHTO  H120 2728   4.958   0.451   1.680
    7CHTO   N11 2729   4.933   0.648   1.642
    7CHTO  H108 2730   4.952   0.670   1.745
    7CHTO  H109 2731   4.828   0.641   1.625
    7CHTO   C61 2732   5.155   0.515   1.625
    7CHTO  H118 2733   5.176   0.554   1.726
    7CHTO   O40 2734   5.206   0.379   1.622
    7CHTO   C68 2735   5.134   0.282   1.538
    7CHTO  H125 2736   5.056   0.233   1.600
    7CHTO   C72 2737   5.233   0.172   1.493
    7CHTO   O48 2738   5.276   0.090   1.602
    7CHTO  H105 2739   5.205   0.037   1.633
    7CHTO   O38 2740   5.225   0.592   1.525
    7CHTO   C55 2741   5.352   0.649   1.562
    7CHTO  H112 2742   5.395   0.595   1.648
    7CHTO   C56 2743   5.331   0.802   1.595
    7CHTO  H113 2744   5.270   0.844   1.512
    7CHTO   O42 2745   5.251   0.816   1.714
    7CHTO  H100 2746   5.232   0.906   1.730
    7CHTO   C57 2747   5.467   0.880   1.607
    7CHTO  H114 2748   5.513   0.849   1.701
    7CHTO   N10 2749   5.448   1.028   1.613
    7CHTO  H106 2750   5.354   1.052   1.660
    7CHTO  H107 2751   5.529   1.073   1.669
    7CHTO   C58 2752   5.563   0.843   1.491
    7CHTO  H115 2753   5.521   0.883   1.395
    7CHTO   O37 2754   5.577   0.700   1.481
    7CHTO   C59 2755   5.454   0.634   1.445
    7CHTO  H116 2756   5.413   0.677   1.354
    7CHTO   C70 2757   5.483   0.486   1.419
    7CHTO   O46 2758   5.569   0.465   1.306
    7CHTO  H103 2759   5.524   0.487   1.227
    7CHTO   O39 2760   5.713   0.907   1.518
    7CHTO   C60 2761   5.806   0.898   1.408
    7CHTO  H117 2762   5.809   0.795   1.372
    7CHTO   C62 2763   5.769   0.991   1.289
    7CHTO  H119 2764   5.669   0.957   1.252
    7CHTO   O43 2765   5.756   1.127   1.334
    7CHTO  H101 2766   5.838   1.159   1.367
    7CHTO   C66 2767   5.876   0.972   1.171
    7CHTO  H123 2768   5.875   0.868   1.140
    7CHTO   N12 2769   5.844   1.050   1.048
    7CHTO  H110 2770   5.749   1.017   1.008
    7CHTO  H111 2771   5.841   1.155   1.071
    7CHTO   C69 2772   6.019   1.005   1.223
    7CHTO  H126 2773   6.028   1.113   1.245
    7CHTO   O41 2774   6.050   0.924   1.352
    7CHTO   C64 2775   5.949   0.932   1.459
    7CHTO  H121 2776   5.948   1.035   1.501
    7CHTO   C71 2777   5.993   0.838   1.574
    7CHTO   O47 2778   6.005   0.702   1.531
    7CHTO  H104 2779   6.037   0.649   1.601
    7CHTO   O34 2780   6.129   0.967   1.117
    7CHTO   C49 2781   6.230   0.855   1.080
    7CHTO   H91 2782   6.291   0.896   1.000
    7CHTO   C47 2783   6.155   0.730   1.029
    7CHTO   H89 2784   6.233   0.664   0.985
    7CHTO   O33 2785   6.066   0.772   0.924
    7CHTO   H70 2786   6.026   0.697   0.884
    7CHTO   C45 2787   6.082   0.655   1.151
    7CHTO   H87 2788   6.018   0.727   1.204
    7CHTO    N8 2789   5.996   0.542   1.108
    7CHTO   H75 2790   5.945   0.500   1.193
    7CHTO   H76 2791   5.924   0.577   1.036
    7CHTO   C43 2792   6.193   0.612   1.258
    7CHTO   H85 2793   6.140   0.566   1.342
    7CHTO   O29 2794   6.268   0.728   1.300
    7CHTO   C50 2795   6.322   0.818   1.201
    7CHTO   H92 2796   6.343   0.912   1.255
    7CHTO   C54 2797   6.463   0.772   1.158
    7CHTO   O36 2798   6.531   0.871   1.080
    7CHTO   H72 2799   6.618   0.841   1.059
    7CHTO   O27 2800   6.280   0.510   1.206
    7CHTO   C37 2801   6.340   0.387   1.251
    7CHTO   H79 2802   6.293   0.355   1.346
    7CHTO   C38 2803   6.315   0.273   1.147
    7CHTO   H80 2804   6.336   0.313   1.046
    7CHTO   O31 2805   6.176   0.238   1.154
    7CHTO   H68 2806   6.155   0.176   1.087
    7CHTO   C39 2807   6.408   0.148   1.172
    7CHTO   H81 2808   6.379   0.103   1.267
    7CHTO    N7 2809   6.395   0.041   1.067
    7CHTO   H73 2810   6.293   0.006   1.063
    7CHTO   H74 2811   6.462   9.959   1.089
    7CHTO   C40 2812   6.556   0.198   1.187
    7CHTO   H82 2813   6.585   0.248   1.094
    7CHTO   O26 2814   6.562   0.287   1.299
    7CHTO   C41 2815   6.491   0.412   1.277
    7CHTO   H83 2816   6.535   0.464   1.190
    7CHTO   C52 2817   6.513   0.500   1.402
    7CHTO   O35 2818   6.655   0.542   1.418
    7CHTO   H71 2819   6.708   0.467   1.437
    7CHTO   O28 2820   6.654   0.097   1.218
    7CHTO   C42 2821   6.792   0.115   1.171
    7CHTO   H84 2822   6.848   0.044   1.231
    7CHTO   C44 2823   6.857   0.256   1.200
    7CHTO   H86 2824   6.789   0.333   1.164
    7CHTO   O32 2825   6.866   0.269   1.343
    7CHTO   H69 2826   6.781   0.279   1.381
    7CHTO   C48 2827   6.996   0.278   1.128
    7CHTO   H90 2828   7.070   0.212   1.174
    7CHTO    N9 2829   7.048   0.418   1.149
    7CHTO   H77 2830   7.144   0.428   1.101
    7CHTO   H78 2831   6.978   0.489   1.108
    7CHTO   C51 2832   6.979   0.240   0.977
    7CHTO   H93 2833   6.898   0.301   0.937
    7CHTO   O30 2834   6.947   0.100   0.973
    7CHTO   C46 2835   6.807   0.072   1.022
    7CHTO   H88 2836   6.737   0.128   0.960
    7CHTO   C53 2837   6.781   9.921   1.007
    7CHTO   O72 2838   6.788   9.880   0.870
    7CHTO  H199 2839   6.783   9.787   0.864
    7CHTO   O22 2840   7.097   0.255   0.896
    7CHTO   C31 2841   7.084   0.287   0.752
    7CHTO   H59 2842   7.186   0.275   0.709
    7CHTO   C29 2843   6.990   0.191   0.674
    7CHTO   H57 2844   6.893   0.191   0.726
    7CHTO   O21 2845   7.044   0.058   0.687
    7CHTO   H37 2846   6.983   9.995   0.652
    7CHTO   C27 2847   6.969   0.234   0.524
    7CHTO   H55 2848   7.064   0.222   0.470
    7CHTO    N5 2849   6.866   0.151   0.455
    7CHTO   H43 2850   6.858   0.181   0.352
    7CHTO   H44 2851   6.894   0.047   0.461
    7CHTO   C25 2852   6.932   0.386   0.519
    7CHTO   H53 2853   6.835   0.402   0.570
    7CHTO   O17 2854   7.033   0.465   0.587
    7CHTO   C32 2855   7.044   0.436   0.727
    7CHTO   H60 2856   6.948   0.455   0.776
    7CHTO   C36 2857   7.149   0.532   0.788
    7CHTO   O25 2858   7.103   0.667   0.784
    7CHTO   H40 2859   7.166   0.723   0.825
    7CHTO   O15 2860   6.921   0.438   0.374
    7CHTO   C19 2861   6.863   0.545   0.294
    7CHTO   H47 2862   6.850   0.498   0.195
    7CHTO   C20 2863   6.725   0.596   0.344
    7CHTO   H48 2864   6.733   0.644   0.443
    7CHTO   O19 2865   6.639   0.482   0.356
    7CHTO   H35 2866   6.558   0.506   0.397
    7CHTO   C21 2867   6.665   0.702   0.242
    7CHTO   H49 2868   6.643   0.652   0.148
    7CHTO    N4 2869   6.537   0.762   0.289
    7CHTO   H41 2870   6.552   0.812   0.383
    7CHTO   H42 2871   6.464   0.684   0.302
    7CHTO   C22 2872   6.772   0.812   0.210
    7CHTO   H50 2873   6.786   0.876   0.297
    7CHTO   O14 2874   6.897   0.752   0.173
    7CHTO   C23 2875   6.957   0.667   0.272
    7CHTO   H51 2876   6.971   0.726   0.364
    7CHTO   C34 2877   7.096   0.627   0.218
    7CHTO   O23 2878   7.175   0.563   0.319
    7CHTO   H38 2879   7.259   0.543   0.284
    7CHTO   O16 2880   6.738   0.889   0.092
    7CHTO   C24 2881   6.703   1.047   0.118
    7CHTO   H52 2882   6.684   1.068   0.223
    7CHTO   C26 2883   6.577   1.082   0.035
    7CHTO   H54 2884   6.596   1.053   2.807
    7CHTO   O20 2885   6.467   1.004   0.083
    7CHTO   H36 2886   6.392   1.017   0.028
    7CHTO   C30 2887   6.545   1.235   0.040
    7CHTO   H58 2888   6.509   1.262   0.140
    7CHTO    N6 2889   6.435   1.271   2.823
    7CHTO   H45 2890   6.412   1.376   2.833
    7CHTO   H46 2891   6.465   1.251   2.722
    7CHTO   C33 2892   6.673   1.321   0.015
    7CHTO   H61 2893   6.704   1.312   2.787
    7CHTO   O18 2894   6.781   1.274   0.098
    7CHTO   C28 2895   6.821   1.138   0.073
    7CHTO   H56 2896   6.840   1.123   2.845
    7CHTO   C35 2897   6.951   1.114   0.153
    7CHTO   O24 2898   7.023   1.000   0.106
    7CHTO   H39 2899   7.102   0.991   0.156
    7CHTO    O9 2900   6.648   1.461   0.036
    7CHTO   C13 2901   6.740   1.563   2.827
    7CHTO   H26 2902   6.727   1.537   2.720
    7CHTO   C11 2903   6.892   1.552   2.872
    7CHTO   H24 2904   6.929   1.453   2.840
    7CHTO    O8 2905   6.903   1.559   0.137
    7CHTO    H3 2906   6.861   1.485   0.177
    7CHTO    C9 2907   6.973   1.661   2.796
    7CHTO   H22 2908   6.953   1.644   2.689
    7CHTO    N2 2909   7.120   1.649   2.811
    7CHTO   H10 2910   7.149   1.664   0.036
    7CHTO   H11 2911   7.152   1.551   2.777
    7CHTO    C7 2912   6.918   1.803   2.835
    7CHTO   H20 2913   6.973   1.872   2.768
    7CHTO    O4 2914   6.777   1.816   2.805
    7CHTO   C14 2915   6.684   1.712   2.842
    7CHTO   H27 2916   6.599   1.721   2.773
    7CHTO   C18 2917   6.629   1.740   0.106
    7CHTO   O13 2918   6.558   1.864   0.110
    7CHTO    H7 2919   6.527   1.879   0.197
    7CHTO    O2 2920   6.945   1.841   0.118
    7CHTO    C1 2921   6.943   1.980   0.155
    7CHTO   H14 2922   6.851   2.028   0.114
    7CHTO    C2 2923   7.070   2.064   0.106
    7CHTO   H15 2924   7.158   2.003   0.132
    7CHTO    O6 2925   7.064   2.080   2.841
    7CHTO    H1 2926   7.145   2.117   2.809
    7CHTO    C3 2927   7.080   2.208   0.177
    7CHTO   H16 2928   7.000   2.272   0.138
    7CHTO    N1 2929   7.210   2.279   0.147
    7CHTO    H8 2930   7.272   2.219   0.081
    7CHTO    H9 2931   7.264   2.301   0.237
    7CHTO    C4 2932   7.053   2.195   0.332
    7CHTO   H17 2933   7.136   2.142   0.378
    7CHTO    O1 2934   6.930   2.125   0.353
    7CHTO    C5 2935   6.933   1.989   0.310
    7CHTO   H18 2936   7.021   1.939   0.352
    7CHTO   C16 2937   6.806   1.920   0.365
    7CHTO   O11 2938   6.805   1.918   0.508
    7CHTO    H5 2939   6.726   1.878   0.539
    7CHTO    O3 2940   7.032   2.323   0.396
    7CHTO    C6 2941   7.092   2.339   0.529
    7CHTO   H19 2942   7.147   2.251   0.562
    7CHTO    C8 2943   7.190   2.460   0.527
    7CHTO   H21 2944   7.136   2.547   0.488
    7CHTO    O7 2945   7.298   2.426   0.439
    7CHTO    H2 2946   7.355   2.499   0.427
    7CHTO   C12 2947   7.243   2.494   0.673
    7CHTO   H25 2948   7.308   2.409   0.703
    7CHTO    N3 2949   7.328   2.617   0.674
    7CHTO   H12 2950   7.413   2.603   0.608
    7CHTO   H13 2951   7.362   2.638   0.774
    7CHTO   C15 2952   7.123   2.502   0.774
    7CHTO   H28 2953   7.062   2.591   0.759
    7CHTO   O10 2954   7.169   2.495   0.920
    7CHTO    H4 2955   7.222   2.570   0.940
    7CHTO    O5 2956   7.040   2.385   0.766
    7CHTO   C10 2957   6.981   2.365   0.636
    7CHTO   H23 2958   6.926   2.454   0.609
    7CHTO   C17 2959   6.880   2.249   0.647
    7CHTO   O12 2960   6.767   2.287   0.726
    7CHTO    H6 2961   6.708   2.215   0.732
    8CHTO  H203 2962   6.948   8.306   2.432
    8CHTO   O82 2963   6.949   8.235   2.370
    8CHTO  C123 2964   6.817   8.218   2.314
    8CHTO  H227 2965   6.786   8.313   2.268
    8CHTO   O77 2966   6.839   8.117   2.211
    8CHTO  C118 2967   6.724   8.092   2.128
    8CHTO  H222 2968   6.693   8.185   2.078
    8CHTO  C125 2969   6.767   7.987   2.020
    8CHTO   O84 2970   6.869   8.039   1.934
    8CHTO  H205 2971   6.897   7.973   1.875
    8CHTO  C114 2972   6.608   8.037   2.214
    8CHTO  H218 2973   6.638   7.941   2.255
    8CHTO  C116 2974   6.578   8.128   2.339
    8CHTO  H220 2975   6.529   8.222   2.306
    8CHTO   O79 2976   6.483   8.060   2.423
    8CHTO  H201 2977   6.399   8.056   2.381
    8CHTO  C120 2978   6.711   8.165   2.417
    8CHTO  H224 2979   6.747   8.071   2.464
    8CHTO   N21 2980   6.684   8.262   2.526
    8CHTO  H211 2981   6.691   8.363   2.490
    8CHTO  H212 2982   6.754   8.247   2.607
    8CHTO   O75 2983   6.499   8.016   2.122
    8CHTO  C112 2984   6.400   8.146   2.095
    8CHTO  H216 2985   6.460   8.238   2.099
    8CHTO   O73 2986   6.299   8.143   2.198
    8CHTO  C113 2987   6.206   8.253   2.193
    8CHTO  H217 2988   6.263   8.348   2.199
    8CHTO  C124 2989   6.117   8.246   2.318
    8CHTO   O83 2990   6.043   8.123   2.329
    8CHTO  H204 2991   5.990   8.125   2.406
    8CHTO  C109 2992   6.127   8.248   2.060
    8CHTO  H213 2993   6.071   8.153   2.059
    8CHTO  C110 2994   6.226   8.253   1.940
    8CHTO  H214 2995   6.277   8.349   1.940
    8CHTO   O78 2996   6.151   8.244   1.817
    8CHTO  H200 2997   6.099   8.321   1.805
    8CHTO  C111 2998   6.330   8.137   1.953
    8CHTO  H215 2999   6.277   8.041   1.947
    8CHTO   N19 3000   6.432   8.137   1.845
    8CHTO  H207 3001   6.384   8.129   1.749
    8CHTO  H208 3002   6.500   8.054   1.859
    8CHTO   O74 3003   6.032   8.360   2.054
    8CHTO  C115 3004   5.880   8.317   2.050
    8CHTO  H219 3005   5.867   8.213   2.082
    8CHTO   O76 3006   5.790   8.404   2.153
    8CHTO  C122 3007   5.784   8.543   2.117
    8CHTO  H226 3008   5.885   8.585   2.120
    8CHTO  C126 3009   5.703   8.617   2.228
    8CHTO   O85 3010   5.715   8.759   2.219
    8CHTO  H206 3011   5.672   8.790   2.141
    8CHTO  C121 3012   5.721   8.556   1.972
    8CHTO  H225 3013   5.624   8.503   1.971
    8CHTO   O81 3014   5.692   8.691   1.934
    8CHTO  H202 3015   5.770   8.743   1.934
    8CHTO  C119 3016   5.819   8.485   1.873
    8CHTO  H223 3017   5.780   8.498   1.772
    8CHTO  C117 3018   5.831   8.331   1.901
    8CHTO  H221 3019   5.906   8.279   1.842
    8CHTO   N20 3020   5.704   8.254   1.877
    8CHTO  H209 3021   5.719   8.179   1.800
    8CHTO  H210 3022   5.668   8.208   1.968
    8CHTO   O80 3023   5.964   8.556   1.860
    8CHTO  C103 3024   5.980   8.690   1.780
    8CHTO  H190 3025   5.890   8.711   1.721
    8CHTO  C101 3026   6.021   8.817   1.863
    8CHTO  H188 3027   6.114   8.796   1.915
    8CHTO   O68 3028   5.915   8.847   1.966
    8CHTO  H168 3029   5.834   8.871   1.923
    8CHTO   C99 3030   6.046   8.941   1.764
    8CHTO  H186 3031   5.951   8.965   1.712
    8CHTO   N17 3032   6.090   9.067   1.834
    8CHTO  H174 3033   6.097   9.148   1.763
    8CHTO  H175 3034   6.021   9.091   1.913
    8CHTO   C97 3035   6.147   8.901   1.652
    8CHTO  H184 3036   6.248   8.896   1.697
    8CHTO   O64 3037   6.109   8.777   1.589
    8CHTO  C104 3038   6.097   8.664   1.678
    8CHTO  H191 3039   6.190   8.649   1.733
    8CHTO  C108 3040   6.075   8.536   1.596
    8CHTO   O71 3041   6.193   8.502   1.521
    8CHTO  H171 3042   6.209   8.567   1.455
    8CHTO   O62 3043   6.145   8.998   1.545
    8CHTO   C91 3044   6.263   9.007   1.464
    8CHTO  H178 3045   6.317   8.912   1.471
    8CHTO   C92 3046   6.359   9.117   1.523
    8CHTO  H179 3047   6.364   9.108   1.632
    8CHTO   O66 3048   6.492   9.090   1.476
    8CHTO  H166 3049   6.525   9.011   1.514
    8CHTO   C93 3050   6.323   9.264   1.477
    8CHTO  H180 3051   6.411   9.326   1.499
    8CHTO   N16 3052   6.214   9.325   1.557
    8CHTO  H172 3053   6.196   9.426   1.523
    8CHTO  H173 3054   6.124   9.266   1.548
    8CHTO   C94 3055   6.294   9.270   1.322
    8CHTO  H181 3056   6.191   9.299   1.300
    8CHTO   O61 3057   6.313   9.143   1.256
    8CHTO   C95 3058   6.232   9.036   1.310
    8CHTO  H182 3059   6.127   9.064   1.301
    8CHTO  C106 3060   6.252   8.907   1.223
    8CHTO   O69 3061   6.211   8.928   1.088
    8CHTO  H169 3062   6.274   8.982   1.043
    8CHTO   O63 3063   6.393   9.372   1.258
    8CHTO   C96 3064   6.338   9.437   1.127
    8CHTO  H183 3065   6.232   9.412   1.117
    8CHTO   C98 3066   6.408   9.393   0.997
    8CHTO  H185 3067   6.515   9.417   1.002
    8CHTO   O67 3068   6.401   9.249   0.987
    8CHTO  H167 3069   6.450   9.219   0.912
    8CHTO  C102 3070   6.340   9.460   0.867
    8CHTO  H189 3071   6.252   9.398   0.845
    8CHTO   N18 3072   6.423   9.456   0.744
    8CHTO  H176 3073   6.371   9.401   0.666
    8CHTO  H177 3074   6.519   9.411   0.763
    8CHTO  C105 3075   6.289   9.604   0.901
    8CHTO  H192 3076   6.309   9.671   0.816
    8CHTO   O65 3077   6.350   9.666   1.016
    8CHTO  C100 3078   6.350   9.594   1.141
    8CHTO  H187 3079   6.447   9.615   1.189
    8CHTO  C107 3080   6.240   9.648   1.236
    8CHTO   O70 3081   6.262   9.786   1.270
    8CHTO  H170 3082   6.339   9.793   1.323
    8CHTO   O57 3083   6.131   9.585   0.915
    8CHTO   C85 3084   6.044   9.685   0.859
    8CHTO  H157 3085   6.104   9.743   0.785
    8CHTO   C83 3086   6.005   9.788   0.970
    8CHTO  H155 3087   6.097   9.836   1.006
    8CHTO   O56 3088   5.947   9.719   1.082
    8CHTO  H135 3089   6.009   9.661   1.121
    8CHTO   C81 3090   5.913   9.896   0.909
    8CHTO  H153 3091   5.965   9.942   0.824
    8CHTO   N14 3092   5.888   0.011   1.000
    8CHTO  H141 3093   5.930   9.993   1.097
    8CHTO  H142 3094   5.784   0.031   1.010
    8CHTO   C79 3095   5.781   9.828   0.853
    8CHTO  H151 3096   5.724   9.906   0.802
    8CHTO   O52 3097   5.815   9.728   0.752
    8CHTO   C86 3098   5.912   9.627   0.796
    8CHTO  H158 3099   5.856   9.566   0.870
    8CHTO   C90 3100   5.945   9.531   0.679
    8CHTO   O60 3101   6.002   9.602   0.568
    8CHTO  H138 3102   6.019   9.542   0.498
    8CHTO   O50 3103   5.697   9.770   0.953
    8CHTO   C73 3104   5.557   9.744   0.973
    8CHTO  H145 3105   5.509   9.719   0.878
    8CHTO   C74 3106   5.485   9.869   1.033
    8CHTO  H146 3107   5.497   9.951   0.961
    8CHTO   O54 3108   5.344   9.841   1.042
    8CHTO  H133 3109   5.307   9.832   0.956
    8CHTO   C75 3110   5.552   9.902   1.172
    8CHTO  H147 3111   5.656   9.932   1.154
    8CHTO   N13 3112   5.493   0.018   1.243
    8CHTO  H139 3113   5.501   0.107   1.182
    8CHTO  H140 3114   5.388   0.000   1.262
    8CHTO   C76 3115   5.558   9.772   1.266
    8CHTO  H148 3116   5.459   9.753   1.307
    8CHTO   O49 3117   5.606   9.652   1.196
    8CHTO   C77 3118   5.541   9.624   1.071
    8CHTO  H149 3119   5.434   9.606   1.088
    8CHTO   C88 3120   5.598   9.494   1.015
    8CHTO   O58 3121   5.525   9.450   0.897
    8CHTO  H136 3122   5.563   9.371   0.864
    8CHTO   O51 3123   5.667   9.794   1.373
    8CHTO   C78 3124   5.648   9.719   1.504
    8CHTO  H150 3125   5.593   9.623   1.489
    8CHTO   C80 3126   5.568   9.808   1.602
    8CHTO  H152 3127   5.608   9.912   1.595
    8CHTO   O55 3128   5.432   9.811   1.555
    8CHTO  H134 3129   5.381   9.871   1.607
    8CHTO   C84 3130   5.577   9.759   1.752
    8CHTO  H156 3131   5.526   9.663   1.759
    8CHTO   N15 3132   5.508   9.853   1.848
    8CHTO  H143 3133   5.577   9.893   1.920
    8CHTO  H144 3134   5.460   9.933   1.796
    8CHTO   C87 3135   5.726   9.737   1.787
    8CHTO  H159 3136   5.780   9.831   1.777
    8CHTO   O53 3137   5.781   9.634   1.691
    8CHTO   C82 3138   5.789   9.683   1.557
    8CHTO  H154 3139   5.856   9.769   1.552
    8CHTO   C89 3140   5.855   9.570   1.474
    8CHTO   O59 3141   5.889   9.612   1.341
    8CHTO  H137 3142   5.960   9.674   1.345
    8CHTO   O45 3143   5.747   9.685   1.937
    8CHTO   C67 3144   5.741   9.544   1.960
    8CHTO  H124 3145   5.670   9.498   1.892
    8CHTO   C65 3146   5.882   9.477   1.940
    8CHTO  H122 3147   5.945   9.552   1.891
    8CHTO   O44 3148   5.868   9.364   1.851
    8CHTO  H102 3149   5.819   9.296   1.893
    8CHTO   C63 3150   5.951   9.447   2.078
    8CHTO  H120 3151   5.954   9.539   2.136
    8CHTO   N11 3152   6.096   9.409   2.074
    8CHTO  H108 3153   6.108   9.315   2.024
    8CHTO  H109 3154   6.152   9.485   2.022
    8CHTO   C61 3155   5.858   9.347   2.158
    8CHTO  H118 3156   5.892   9.350   2.262
    8CHTO   O40 3157   5.718   9.389   2.157
    8CHTO   C68 3158   5.684   9.521   2.105
    8CHTO  H125 3159   5.727   9.597   2.173
    8CHTO   C72 3160   5.531   9.539   2.109
    8CHTO   O48 3161   5.480   9.539   2.243
    8CHTO  H105 3162   5.388   9.557   2.242
    8CHTO   O38 3163   5.868   9.212   2.107
    8CHTO   C55 3164   5.772   9.108   2.135
    8CHTO  H112 3165   5.829   9.014   2.132
    8CHTO   C56 3166   5.658   9.111   2.024
    8CHTO  H113 3167   5.621   9.214   2.017
    8CHTO   O42 3168   5.718   9.081   1.897
    8CHTO  H100 3169   5.655   9.091   1.828
    8CHTO   C57 3170   5.540   9.012   2.058
    8CHTO  H114 3171   5.578   8.910   2.047
    8CHTO   N10 3172   5.425   9.026   1.964
    8CHTO  H106 3173   5.373   8.932   1.955
    8CHTO  H107 3174   5.356   9.102   1.998
    8CHTO   C58 3175   5.496   9.033   2.205
    8CHTO  H115 3176   5.458   9.137   2.217
    8CHTO   O37 3177   5.609   9.013   2.292
    8CHTO   C59 3178   5.712   9.112   2.280
    8CHTO  H116 3179   5.670   9.210   2.304
    8CHTO   C70 3180   5.821   9.081   2.383
    8CHTO   O46 3181   5.775   9.091   2.519
    8CHTO  H103 3182   5.715   9.021   2.537
    8CHTO   O39 3183   5.384   8.924   2.254
    8CHTO   C60 3184   5.253   8.979   2.275
    8CHTO  H117 3185   5.249   9.082   2.238
    8CHTO   C62 3186   5.147   8.897   2.197
    8CHTO  H119 3187   5.180   8.897   2.090
    8CHTO   O43 3188   5.147   8.760   2.243
    8CHTO  H101 3189   5.227   8.718   2.221
    8CHTO   C66 3190   5.005   8.969   2.209
    8CHTO  H123 3191   5.016   9.074   2.178
    8CHTO   N12 3192   4.902   8.911   2.119
    8CHTO  H110 3193   4.939   8.823   2.070
    8CHTO  H111 3194   4.869   8.984   2.047
    8CHTO   C69 3195   4.961   8.969   2.357
    8CHTO  H126 3196   4.946   8.865   2.393
    8CHTO   O41 3197   5.074   9.039   2.445
    8CHTO   C64 3198   5.216   8.984   2.426
    8CHTO  H121 3199   5.224   8.882   2.469
    8CHTO   C71 3200   5.311   9.078   2.505
    8CHTO   O47 3201   5.438   9.018   2.529
    8CHTO  H104 3202   5.429   8.947   2.590
    8CHTO   O34 3203   4.822   9.049   2.377
    8CHTO   C49 3204   4.772   9.195   2.402
    8CHTO   H91 3205   4.741   9.201   2.507
    8CHTO   C47 3206   4.650   9.223   2.312
    8CHTO   H89 3207   4.607   9.319   2.346
    8CHTO   O33 3208   4.553   9.119   2.335
    8CHTO   H70 3209   4.474   9.137   2.287
    8CHTO   C45 3210   4.696   9.233   2.158
    8CHTO   H87 3211   4.743   9.138   2.131
    8CHTO    N8 3212   4.580   9.255   2.067
    8CHTO   H75 3213   4.595   9.341   2.005
    8CHTO   H76 3214   4.564   9.167   2.005
    8CHTO   C43 3215   4.813   9.343   2.141
    8CHTO   H85 3216   4.850   9.332   2.040
    8CHTO   O29 3217   4.917   9.325   2.239
    8CHTO   C50 3218   4.884   9.300   2.377
    8CHTO   H92 3219   4.975   9.259   2.422
    8CHTO   C54 3220   4.865   9.430   2.460
    8CHTO   O36 3221   4.751   9.507   2.422
    8CHTO   H72 3222   4.744   9.583   2.478
    8CHTO   O27 3223   4.764   9.478   2.149
    8CHTO   C37 3224   4.777   9.605   2.084
    8CHTO   H79 3225   4.793   9.591   1.976
    8CHTO   C38 3226   4.645   9.687   2.101
    8CHTO   H80 3227   4.622   9.692   2.209
    8CHTO   O31 3228   4.539   9.615   2.036
    8CHTO   H68 3229   4.555   9.608   1.943
    8CHTO   C39 3230   4.659   9.833   2.043
    8CHTO   H81 3231   4.666   9.824   1.935
    8CHTO    N7 3232   4.540   9.920   2.073
    8CHTO   H73 3233   4.525   9.927   2.180
    8CHTO   H74 3234   4.451   9.877   2.027
    8CHTO   C40 3235   4.792   9.903   2.094
    8CHTO   H82 3236   4.780   9.929   2.199
    8CHTO   O26 3237   4.904   9.815   2.074
    8CHTO   C41 3238   4.895   9.687   2.142
    8CHTO   H83 3239   4.880   9.702   2.250
    8CHTO   C52 3240   5.032   9.616   2.123
    8CHTO   O35 3241   5.142   9.689   2.188
    8CHTO   H71 3242   5.222   9.642   2.176
    8CHTO   O28 3243   4.827   0.026   2.026
    8CHTO   C42 3244   4.842   0.055   1.882
    8CHTO   H84 3245   4.897   0.150   1.883
    8CHTO   C44 3246   4.709   0.086   1.804
    8CHTO   H86 3247   4.643  10.000   1.814
    8CHTO   O32 3248   4.647   0.198   1.870
    8CHTO   H69 3249   4.700   0.275   1.860
    8CHTO   C48 3250   4.730   0.112   1.650
    8CHTO   H90 3251   4.787   0.204   1.637
    8CHTO    N9 3252   4.600   0.134   1.577
    8CHTO   H77 3253   4.549   0.220   1.618
    8CHTO   H78 3254   4.538   0.046   1.585
    8CHTO   C51 3255   4.813   9.993   1.590
    8CHTO   H93 3256   4.757   9.900   1.605
    8CHTO   O30 3257   4.940   9.990   1.656
    8CHTO   C46 3258   4.931   9.953   1.803
    8CHTO   H88 3259   4.888   9.853   1.811
    8CHTO   C53 3260   5.077   9.954   1.855
    8CHTO   O72 3261   5.156   9.854   1.789
    8CHTO  H199 3262   5.170   9.879   1.700
    8CHTO   O22 3263   4.846   0.010   1.450
    8CHTO   C31 3264   4.871   9.895   1.361
    8CHTO   H59 3265   4.901   9.938   1.264
    8CHTO   C29 3266   4.985   9.801   1.406
    8CHTO   H57 3267   4.958   9.758   1.503
    8CHTO   O21 3268   5.104   9.880   1.427
    8CHTO   H37 3269   5.133   9.917   1.346
    8CHTO   C27 3270   5.009   9.684   1.302
    8CHTO   H55 3271   5.045   9.729   1.208
    8CHTO    N5 3272   5.110   9.586   1.348
    8CHTO   H43 3273   5.202   9.636   1.372
    8CHTO   H44 3274   5.127   9.512   1.271
    8CHTO   C25 3275   4.872   9.614   1.270
    8CHTO   H53 3276   4.837   9.561   1.359
    8CHTO   O17 3277   4.769   9.711   1.233
    8CHTO   C32 3278   4.742   9.811   1.332
    8CHTO   H60 3279   4.710   9.763   1.424
    8CHTO   C36 3280   4.627   9.900   1.280
    8CHTO   O25 3281   4.502   9.832   1.278
    8CHTO   H40 3282   4.435   9.890   1.249
    8CHTO   O15 3283   4.886   9.511   1.150
    8CHTO   C19 3284   4.920   9.504   1.009
    8CHTO   H47 3285   4.824   9.478   0.960
    8CHTO   C20 3286   4.974   9.638   0.949
    8CHTO   H48 3287   5.063   9.673   1.002
    8CHTO   O19 3288   4.870   9.736   0.965
    8CHTO   H35 3289   4.860   9.758   1.056
    8CHTO   C21 3290   5.013   9.623   0.797
    8CHTO   H49 3291   4.923   9.602   0.739
    8CHTO    N4 3292   5.073   9.747   0.740
    8CHTO   H41 3293   5.097   9.732   0.636
    8CHTO   H42 3294   5.003   9.828   0.749
    8CHTO   C22 3295   5.107   9.500   0.782
    8CHTO   H50 3296   5.199   9.520   0.838
    8CHTO   O14 3297   5.043   9.382   0.834
    8CHTO   C23 3298   5.018   9.387   0.976
    8CHTO   H51 3299   5.115   9.400   1.026
    8CHTO   C34 3300   4.962   9.250   1.014
    8CHTO   O23 3301   4.952   9.233   1.156
    8CHTO   H38 3302   4.918   9.147   1.175
    8CHTO   O16 3303   5.137   9.468   0.644
    8CHTO   C24 3304   5.286   9.414   0.623
    8CHTO   H52 3305   5.325   9.366   0.714
    8CHTO   C26 3306   5.378   9.530   0.582
    8CHTO   H54 3307   5.333   9.580   0.493
    8CHTO   O20 3308   5.382   9.626   0.689
    8CHTO   H36 3309   5.420   9.589   0.766
    8CHTO   C30 3310   5.521   9.481   0.545
    8CHTO   H58 3311   5.574   9.451   0.637
    8CHTO    N6 3312   5.603   9.591   0.486
    8CHTO   H45 3313   5.611   9.673   0.556
    8CHTO   H46 3314   5.702   9.555   0.462
    8CHTO   C33 3315   5.518   9.355   0.453
    8CHTO   H61 3316   5.491   9.384   0.350
    8CHTO   O18 3317   5.422   9.258   0.499
    8CHTO   C28 3318   5.287   9.306   0.512
    8CHTO   H56 3319   5.254   9.351   0.418
    8CHTO   C35 3320   5.191   9.189   0.544
    8CHTO   O24 3321   5.217   9.123   0.669
    8CHTO   H39 3322   5.200   9.182   0.740
    8CHTO    O9 3323   5.650   9.298   0.444
    8CHTO   C13 3324   5.680   9.210   0.312
    8CHTO   H26 3325   5.598   9.227   0.238
    8CHTO   C11 3326   5.690   9.057   0.353
    8CHTO   H24 3327   5.591   9.025   0.390
    8CHTO    O8 3328   5.784   9.044   0.461
    8CHTO    H3 3329   5.784   8.956   0.494
    8CHTO    C9 3330   5.727   8.973   0.227
    8CHTO   H22 3331   5.642   8.986   0.158
    8CHTO    N2 3332   5.728   8.826   0.253
    8CHTO   H10 3333   5.721   8.805   0.358
    8CHTO   H11 3334   5.818   8.781   0.212
    8CHTO    C7 3335   5.856   9.033   0.156
    8CHTO   H20 3336   5.817   9.064   0.056
    8CHTO    O4 3337   5.908   9.148   0.225
    8CHTO   C14 3338   5.814   9.256   0.239
    8CHTO   H27 3339   5.788   9.294   0.137
    8CHTO   C18 3340   5.887   9.372   0.312
    8CHTO   O13 3341   6.000   9.420   0.237
    8CHTO    H7 3342   6.070   9.357   0.241
    8CHTO    O2 3343   5.985   8.923   0.129
    8CHTO    C1 3344   6.111   8.986   0.101
    8CHTO   H14 3345   6.127   9.071   0.170
    8CHTO    C2 3346   6.128   9.039   2.830
    8CHTO   H15 3347   6.118   8.951   2.764
    8CHTO    O6 3348   6.024   9.133   2.799
    8CHTO    H1 3349   6.028   9.207   2.857
    8CHTO    C3 3350   6.273   9.106   2.812
    8CHTO   H16 3351   6.271   9.201   2.868
    8CHTO    N1 3352   6.303   9.142   2.669
    8CHTO    H8 3353   6.230   9.214   2.634
    8CHTO    H9 3354   6.300   9.053   2.608
    8CHTO    C4 3355   6.388   9.020   2.877
    8CHTO   H17 3356   6.421   8.944   2.806
    8CHTO    O1 3357   6.353   8.959   0.125
    8CHTO    C5 3358   6.228   8.887   0.129
    8CHTO   H18 3359   6.228   8.810   0.052
    8CHTO   C16 3360   6.216   8.820   0.268
    8CHTO   O11 3361   6.319   8.722   0.289
    8CHTO    H5 3362   6.402   8.765   0.295
    8CHTO    O3 3363   6.496   9.108   0.034
    8CHTO    C6 3364   6.632   9.055   0.030
    8CHTO   H19 3365   6.636   8.947   0.019
    8CHTO    C8 3366   6.709   9.121   2.789
    8CHTO   H21 3367   6.693   9.229   2.794
    8CHTO    O7 3368   6.652   9.070   2.667
    8CHTO    H2 3369   6.667   8.978   2.660
    8CHTO   C12 3370   6.865   9.094   2.797
    8CHTO   H25 3371   6.879   8.986   2.777
    8CHTO    N3 3372   6.939   9.169   2.690
    8CHTO   H12 3373   6.925   9.276   2.703
    8CHTO   H13 3374   7.044   9.145   2.694
    8CHTO   C15 3375   6.917   9.125   0.064
    8CHTO   H28 3376   6.913   9.231   0.087
    8CHTO   O10 3377   7.061   9.072   0.089
    8CHTO    H4 3378   7.093   9.103   0.171
    8CHTO    O5 3379   6.841   9.050   0.161
    8CHTO   C10 3380   6.703   9.088   0.166
    8CHTO   H23 3381   6.695   9.195   0.186
    8CHTO   C17 3382   6.637   9.013   0.283
    8CHTO   O12 3383   6.691   9.054   0.409
    8CHTO    H6 3384   6.666   9.142   0.428
    9CHTO  H203 3385   6.839   3.110   0.997
    9CHTO   O82 3386   6.844   3.024   0.958
    9CHTO  C123 3387   6.910   3.031   0.830
    9CHTO  H227 3388   6.917   2.928   0.789
    9CHTO   O77 3389   6.819   3.110   0.748
    9CHTO  C118 3390   6.860   3.124   0.611
    9CHTO  H222 3391   6.873   3.024   0.566
    9CHTO  C125 3392   6.747   3.200   0.533
    9CHTO   O84 3393   6.627   3.122   0.530
    9CHTO  H205 3394   6.560   3.169   0.485
    9CHTO  C114 3395   6.993   3.201   0.605
    9CHTO  H218 3396   6.977   3.300   0.649
    9CHTO  C116 3397   7.102   3.129   0.689
    9CHTO  H220 3398   7.129   3.033   0.639
    9CHTO   O79 3399   7.221   3.210   0.688
    9CHTO  H201 3400   7.292   3.165   0.731
    9CHTO  C120 3401   7.051   3.100   0.836
    9CHTO  H224 3402   7.042   3.199   0.886
    9CHTO   N21 3403   7.150   3.020   0.914
    9CHTO  H211 3404   7.220   3.086   0.963
    9CHTO  H212 3405   7.100   2.959   0.987
    9CHTO   O75 3406   7.024   3.213   0.465
    9CHTO  C112 3407   7.096   3.356   0.427
    9CHTO  H216 3408   7.156   3.389   0.513
    9CHTO   O73 3409   6.992   3.450   0.396
    9CHTO  C113 3410   7.038   3.584   0.372
    9CHTO  H217 3411   7.088   3.622   0.463
    9CHTO  C124 3412   6.917   3.674   0.343
    9CHTO   O83 3413   6.823   3.680   0.452
    9CHTO  H204 3414   6.863   3.724   0.525
    9CHTO  C109 3415   7.137   3.588   0.252
    9CHTO  H213 3416   7.079   3.561   0.163
    9CHTO  C110 3417   7.251   3.481   0.269
    9CHTO  H214 3418   7.316   3.510   0.351
    9CHTO   O78 3419   7.329   3.479   0.148
    9CHTO  H200 3420   7.404   3.424   0.159
    9CHTO  C111 3421   7.191   3.341   0.302
    9CHTO  H215 3422   7.130   3.308   0.217
    9CHTO   N19 3423   7.294   3.236   0.325
    9CHTO  H207 3424   7.356   3.263   0.409
    9CHTO  H208 3425   7.246   3.141   0.344
    9CHTO   O74 3426   7.185   3.726   0.234
    9CHTO  C115 3427   7.330   3.769   0.289
    9CHTO  H219 3428   7.363   3.706   0.372
    9CHTO   O76 3429   7.442   3.755   0.177
    9CHTO  C122 3430   7.414   3.839   0.064
    9CHTO  H226 3431   7.317   3.811   0.023
    9CHTO  C126 3432   7.519   3.810   2.829
    9CHTO   O85 3433   7.508   3.677   2.778
    9CHTO  H206 3434   7.534   3.615   2.844
    9CHTO  C121 3435   7.412   3.991   0.107
    9CHTO  H225 3436   7.512   4.017   0.148
    9CHTO   O81 3437   7.389   4.077   2.873
    9CHTO  H202 3438   7.305   4.059   2.835
    9CHTO  C119 3439   7.304   4.013   0.219
    9CHTO  H223 3440   7.317   4.115   0.253
    9CHTO  C117 3441   7.322   3.917   0.343
    9CHTO  H221 3442   7.238   3.915   0.412
    9CHTO   N20 3443   7.441   3.951   0.428
    9CHTO  H209 3444   7.446   3.885   0.513
    9CHTO  H210 3445   7.434   4.053   0.461
    9CHTO   O80 3446   7.160   4.016   0.165
    9CHTO  C103 3447   7.042   4.082   0.255
    9CHTO  H190 3448   6.993   4.006   0.316
    9CHTO  C101 3449   7.079   4.206   0.346
    9CHTO  H188 3450   7.142   4.274   0.288
    9CHTO   O68 3451   7.160   4.156   0.468
    9CHTO  H168 3452   7.195   4.229   0.516
    9CHTO   C99 3453   6.949   4.287   0.394
    9CHTO  H186 3454   6.890   4.222   0.463
    9CHTO   N17 3455   6.981   4.412   0.470
    9CHTO  H174 3456   7.034   4.482   0.407
    9CHTO  H175 3457   7.039   4.389   0.558
    9CHTO   C97 3458   6.857   4.315   0.273
    9CHTO  H184 3459   6.909   4.386   0.205
    9CHTO   O64 3460   6.824   4.192   0.206
    9CHTO  C104 3461   6.937   4.128   0.145
    9CHTO  H191 3462   6.987   4.195   0.074
    9CHTO  C108 3463   6.888   4.008   0.063
    9CHTO   O71 3464   6.805   4.050   2.832
    9CHTO  H171 3465   6.723   4.083   2.865
    9CHTO   O62 3466   6.728   4.367   0.311
    9CHTO   C91 3467   6.668   4.460   0.218
    9CHTO  H178 3468   6.715   4.446   0.120
    9CHTO   C92 3469   6.702   4.606   0.263
    9CHTO  H179 3470   6.809   4.614   0.289
    9CHTO   O66 3471   6.683   4.693   0.151
    9CHTO  H166 3472   6.714   4.779   0.171
    9CHTO   C93 3473   6.610   4.657   0.381
    9CHTO  H180 3474   6.621   4.766   0.383
    9CHTO   N16 3475   6.654   4.612   0.515
    9CHTO  H172 3476   6.753   4.649   0.536
    9CHTO  H173 3477   6.652   4.504   0.520
    9CHTO   C94 3478   6.457   4.622   0.353
    9CHTO  H181 3479   6.419   4.549   0.425
    9CHTO   O61 3480   6.437   4.564   0.223
    9CHTO   C95 3481   6.511   4.442   0.202
    9CHTO  H182 3482   6.477   4.368   0.275
    9CHTO  C106 3483   6.475   4.383   0.062
    9CHTO   O69 3484   6.335   4.353   0.053
    9CHTO  H169 3485   6.313   4.283   0.111
    9CHTO   O63 3486   6.373   4.754   0.362
    9CHTO   C96 3487   6.306   4.774   0.505
    9CHTO  H183 3488   6.353   4.705   0.575
    9CHTO   C98 3489   6.153   4.748   0.508
    9CHTO  H185 3490   6.104   4.807   0.429
    9CHTO   O67 3491   6.131   4.611   0.472
    9CHTO  H167 3492   6.167   4.553   0.536
    9CHTO  C102 3493   6.088   4.782   0.652
    9CHTO  H189 3494   6.126   4.705   0.721
    9CHTO   N18 3495   5.940   4.771   0.658
    9CHTO  H176 3496   5.895   4.841   0.589
    9CHTO  H177 3497   5.905   4.791   0.758
    9CHTO  C105 3498   6.139   4.920   0.701
    9CHTO  H192 3499   6.094   4.999   0.641
    9CHTO   O65 3500   6.282   4.931   0.690
    9CHTO  C100 3501   6.333   4.919   0.557
    9CHTO  H187 3502   6.282   4.992   0.492
    9CHTO  C107 3503   6.484   4.954   0.560
    9CHTO   O70 3504   6.508   5.085   0.614
    9CHTO  H170 3505   6.476   5.150   0.555
    9CHTO   O57 3506   6.097   4.936   0.861
    9CHTO   C85 3507   6.115   5.061   0.930
    9CHTO  H157 3508   6.074   5.140   0.863
    9CHTO   C83 3509   6.267   5.095   0.943
    9CHTO  H155 3510   6.307   5.114   0.844
    9CHTO   O56 3511   6.338   4.979   0.993
    9CHTO  H135 3512   6.312   4.960   1.080
    9CHTO   C81 3513   6.286   5.223   1.029
    9CHTO  H153 3514   6.230   5.304   0.981
    9CHTO   N14 3515   6.427   5.273   1.031
    9CHTO  H141 3516   6.434   5.367   0.980
    9CHTO  H142 3517   6.494   5.203   0.986
    9CHTO   C79 3518   6.227   5.200   1.172
    9CHTO  H151 3519   6.237   5.294   1.227
    9CHTO   O52 3520   6.083   5.174   1.161
    9CHTO   C86 3521   6.045   5.064   1.073
    9CHTO  H158 3522   6.069   4.973   1.131
    9CHTO   C90 3523   5.890   5.068   1.062
    9CHTO   O60 3524   5.836   4.960   0.985
    9CHTO  H138 3525   5.859   4.971   0.894
    9CHTO   O50 3526   6.291   5.096   1.247
    9CHTO   C73 3527   6.278   5.022   1.369
    9CHTO  H145 3528   6.194   4.950   1.362
    9CHTO   C74 3529   6.252   5.117   1.490
    9CHTO  H146 3530   6.158   5.171   1.469
    9CHTO   O54 3531   6.226   5.037   1.607
    9CHTO  H133 3532   6.145   4.990   1.598
    9CHTO   C75 3533   6.375   5.215   1.506
    9CHTO  H147 3534   6.383   5.275   1.415
    9CHTO   N13 3535   6.359   5.313   1.617
    9CHTO  H139 3536   6.437   5.300   1.691
    9CHTO  H140 3537   6.364   5.413   1.579
    9CHTO   C76 3538   6.509   5.129   1.518
    9CHTO  H148 3539   6.511   5.080   1.616
    9CHTO   O49 3540   6.521   5.030   1.411
    9CHTO   C77 3541   6.409   4.942   1.396
    9CHTO  H149 3542   6.397   4.881   1.486
    9CHTO   C88 3543   6.440   4.843   1.282
    9CHTO   O58 3544   6.558   4.757   1.314
    9CHTO  H136 3545   6.536   4.699   1.385
    9CHTO   O51 3546   6.633   5.220   1.492
    9CHTO   C78 3547   6.755   5.217   1.595
    9CHTO  H150 3548   6.719   5.217   1.700
    9CHTO   C80 3549   6.836   5.345   1.568
    9CHTO  H152 3550   6.853   5.354   1.459
    9CHTO   O55 3551   6.754   5.456   1.608
    9CHTO  H134 3552   6.795   5.537   1.586
    9CHTO   C84 3553   6.976   5.346   1.642
    9CHTO  H156 3554   6.957   5.351   1.750
    9CHTO   N15 3555   7.060   5.466   1.608
    9CHTO  H143 3556   7.079   5.468   1.502
    9CHTO  H144 3557   7.009   5.556   1.636
    9CHTO   C87 3558   7.050   5.214   1.612
    9CHTO  H159 3559   7.074   5.208   1.505
    9CHTO   O53 3560   6.961   5.100   1.653
    9CHTO   C82 3561   6.842   5.090   1.575
    9CHTO  H154 3562   6.866   5.076   1.469
    9CHTO   C89 3563   6.770   4.961   1.622
    9CHTO   O59 3564   6.845   4.843   1.589
    9CHTO  H137 3565   6.923   4.839   1.641
    9CHTO   O45 3566   7.186   5.198   1.698
    9CHTO   C67 3567   7.262   5.082   1.658
    9CHTO  H124 3568   7.199   5.014   1.601
    9CHTO   C65 3569   7.384   5.124   1.568
    9CHTO  H122 3570   7.413   5.224   1.600
    9CHTO   O44 3571   7.334   5.131   1.433
    9CHTO  H102 3572   7.321   5.045   1.398
    9CHTO   C63 3573   7.513   5.035   1.594
    9CHTO  H120 3574   7.560   5.069   1.686
    9CHTO   N11 3575   7.625   5.052   1.496
    9CHTO  H108 3576   7.711   4.998   1.530
    9CHTO  H109 3577   7.650   5.156   1.487
    9CHTO   C61 3578   7.468   4.886   1.620
    9CHTO  H118 3579   7.559   4.830   1.646
    9CHTO   O40 3580   7.378   4.875   1.735
    9CHTO   C68 3581   7.313   4.998   1.782
    9CHTO  H125 3582   7.387   5.057   1.839
    9CHTO   C72 3583   7.198   4.963   1.880
    9CHTO   O48 3584   7.093   4.884   1.824
    9CHTO  H105 3585   7.046   4.934   1.760
    9CHTO   O38 3586   7.403   4.828   1.505
    9CHTO   C55 3587   7.424   4.688   1.484
    9CHTO  H112 3588   7.455   4.638   1.577
    9CHTO   C56 3589   7.531   4.668   1.368
    9CHTO  H113 3590   7.497   4.729   1.283
    9CHTO   O42 3591   7.658   4.722   1.409
    9CHTO  H100 3592   7.690   4.676   1.484
    9CHTO   C57 3593   7.543   4.516   1.326
    9CHTO  H114 3594   7.592   4.464   1.408
    9CHTO   N10 3595   7.628   4.495   1.205
    9CHTO  H106 3596   7.620   4.580   1.138
    9CHTO  H107 3597   7.731   4.482   1.233
    9CHTO   C58 3598   7.402   4.455   1.305
    9CHTO  H115 3599   7.356   4.499   1.214
    9CHTO   O37 3600   7.318   4.479   1.418
    9CHTO   C59 3601   7.291   4.618   1.442
    9CHTO  H116 3602   7.249   4.663   1.353
    9CHTO   C70 3603   7.187   4.625   1.555
    9CHTO   O46 3604   7.130   4.756   1.568
    9CHTO  H103 3605   7.069   4.756   1.639
    9CHTO   O39 3606   7.412   4.293   1.291
    9CHTO   C60 3607   7.320   4.234   1.197
    9CHTO  H117 3608   7.221   4.276   1.212
    9CHTO   C62 3609   7.363   4.261   1.049
    9CHTO  H119 3610   7.353   4.370   1.032
    9CHTO   O43 3611   7.501   4.223   1.030
    9CHTO  H101 3612   7.557   4.281   1.078
    9CHTO   C66 3613   7.264   4.184   0.948
    9CHTO  H123 3614   7.161   4.215   0.969
    9CHTO   N12 3615   7.289   4.219   0.806
    9CHTO  H110 3616   7.390   4.192   0.778
    9CHTO  H111 3617   7.216   4.171   0.742
    9CHTO   C69 3618   7.274   4.032   0.976
    9CHTO  H126 3619   7.381   3.999   0.968
    9CHTO   O41 3620   7.224   4.008   1.121
    9CHTO   C64 3621   7.309   4.082   1.227
    9CHTO  H121 3622   7.412   4.038   1.228
    9CHTO   C71 3623   7.246   4.059   1.366
    9CHTO   O47 3624   7.245   3.920   1.399
    9CHTO  H104 3625   7.207   3.908   1.484
    9CHTO   O34 3626   7.189   3.944   0.879
    9CHTO   C49 3627   7.241   3.801   0.837
    9CHTO   H91 3628   7.337   3.815   0.787
    9CHTO   C47 3629   7.138   3.741   0.739
    9CHTO   H89 3630   7.189   3.649   0.699
    9CHTO   O33 3631   7.115   3.830   0.629
    9CHTO   H70 3632   7.066   3.787   0.562
    9CHTO   C45 3633   6.998   3.705   0.813
    9CHTO   H87 3634   6.927   3.786   0.793
    9CHTO    N8 3635   6.944   3.580   0.755
    9CHTO   H75 3636   6.934   3.590   0.648
    9CHTO   H76 3637   6.848   3.558   0.798
    9CHTO   C43 3638   7.017   3.704   0.974
    9CHTO   H85 3639   7.016   3.809   1.003
    9CHTO   O29 3640   7.139   3.639   1.010
    9CHTO   C50 3641   7.258   3.703   0.958
    9CHTO   H92 3642   7.301   3.761   1.041
    9CHTO   C54 3643   7.366   3.595   0.932
    9CHTO   O36 3644   7.321   3.492   0.845
    9CHTO   H72 3645   7.388   3.427   0.835
    9CHTO   O27 3646   6.904   3.648   1.042
    9CHTO   C37 3647   6.838   3.638   1.169
    9CHTO   H79 3648   6.748   3.575   1.159
    9CHTO   C38 3649   6.929   3.571   1.277
    9CHTO   H80 3650   7.024   3.627   1.281
    9CHTO   O31 3651   6.956   3.436   1.234
    9CHTO   H68 3652   7.011   3.437   1.157
    9CHTO   C39 3653   6.860   3.572   1.419
    9CHTO   H81 3654   6.775   3.505   1.414
    9CHTO    N7 3655   6.949   3.523   1.530
    9CHTO   H73 3656   6.906   3.435   1.577
    9CHTO   H74 3657   7.048   3.500   1.493
    9CHTO   C40 3658   6.803   3.716   1.453
    9CHTO   H82 3659   6.886   3.783   1.474
    9CHTO   O26 3660   6.722   3.763   1.344
    9CHTO   C41 3661   6.796   3.779   1.219
    9CHTO   H83 3662   6.886   3.840   1.237
    9CHTO   C52 3663   6.708   3.855   1.118
    9CHTO   O35 3664   6.585   3.784   1.083
    9CHTO   H71 3665   6.529   3.779   1.158
    9CHTO   O28 3666   6.718   3.715   1.570
    9CHTO   C42 3667   6.631   3.827   1.609
    9CHTO   H84 3668   6.618   3.812   1.716
    9CHTO   C44 3669   6.487   3.824   1.548
    9CHTO   H86 3670   6.495   3.806   1.440
    9CHTO   O32 3671   6.420   3.710   1.605
    9CHTO   H69 3672   6.337   3.697   1.563
    9CHTO   C48 3673   6.404   3.958   1.569
    9CHTO   H90 3674   6.376   3.965   1.674
    9CHTO    N9 3675   6.274   3.958   1.492
    9CHTO   H77 3676   6.220   4.049   1.511
    9CHTO   H78 3677   6.295   3.948   1.386
    9CHTO   C51 3678   6.496   4.078   1.532
    9CHTO   H93 3679   6.530   4.064   1.429
    9CHTO   O30 3680   6.606   4.074   1.625
    9CHTO   C46 3681   6.700   3.967   1.591
    9CHTO   H88 3682   6.731   3.980   1.487
    9CHTO   C53 3683   6.823   3.983   1.683
    9CHTO   O72 3684   6.891   4.106   1.656
    9CHTO  H199 3685   6.964   4.115   1.714
    9CHTO   O22 3686   6.439   4.210   1.548
    9CHTO   C31 3687   6.497   4.321   1.470
    9CHTO   H59 3688   6.447   4.414   1.507
    9CHTO   C29 3689   6.650   4.341   1.491
    9CHTO   H57 3690   6.698   4.243   1.471
    9CHTO   O21 3691   6.674   4.370   1.630
    9CHTO   H37 3692   6.649   4.297   1.683
    9CHTO   C27 3693   6.715   4.448   1.395
    9CHTO   H55 3694   6.678   4.548   1.424
    9CHTO    N5 3695   6.863   4.448   1.403
    9CHTO   H43 3696   6.903   4.524   1.337
    9CHTO   H44 3697   6.895   4.468   1.504
    9CHTO   C25 3698   6.666   4.418   1.249
    9CHTO   H53 3699   6.699   4.316   1.223
    9CHTO   O17 3700   6.521   4.423   1.247
    9CHTO   C32 3701   6.463   4.312   1.317
    9CHTO   H60 3702   6.502   4.219   1.278
    9CHTO   C36 3703   6.310   4.313   1.293
    9CHTO   O25 3704   6.279   4.298   1.154
    9CHTO   H40 3705   6.301   4.211   1.126
    9CHTO   O15 3706   6.723   4.521   1.139
    9CHTO   C19 3707   6.722   4.481   0.999
    9CHTO   H47 3708   6.772   4.564   0.947
    9CHTO   C20 3709   6.802   4.349   0.969
    9CHTO   H48 3710   6.767   4.265   1.031
    9CHTO   O19 3711   6.939   4.374   1.006
    9CHTO   H35 3712   6.977   4.440   0.952
    9CHTO   C21 3713   6.791   4.303   0.818
    9CHTO   H49 3714   6.843   4.376   0.756
    9CHTO    N4 3715   6.856   4.172   0.793
    9CHTO   H41 3716   6.846   4.145   0.688
    9CHTO   H42 3717   6.960   4.176   0.818
    9CHTO   C22 3718   6.642   4.305   0.777
    9CHTO   H50 3719   6.588   4.230   0.836
    9CHTO   O14 3720   6.586   4.435   0.800
    9CHTO   C23 3721   6.578   4.473   0.938
    9CHTO   H51 3722   6.516   4.398   0.990
    9CHTO   C34 3723   6.507   4.608   0.948
    9CHTO   O23 3724   6.372   4.601   0.901
    9CHTO   H38 3725   6.334   4.686   0.902
    9CHTO   O16 3726   6.622   4.285   0.636
    9CHTO   C24 3727   6.502   4.183   0.598
    9CHTO   H52 3728   6.466   4.129   0.685
    9CHTO   C26 3729   6.557   4.083   0.494
    9CHTO   H54 3730   6.609   4.141   0.414
    9CHTO   O20 3731   6.655   4.001   0.560
    9CHTO   H36 3732   6.696   3.944   0.498
    9CHTO   C30 3733   6.444   3.999   0.427
    9CHTO   H58 3734   6.401   3.929   0.501
    9CHTO    N6 3735   6.496   3.914   0.316
    9CHTO   H45 3736   6.542   3.976   0.241
    9CHTO   H46 3737   6.569   3.844   0.355
    9CHTO   C33 3738   6.327   4.091   0.381
    9CHTO   H61 3739   6.364   4.159   0.302
    9CHTO   O18 3740   6.284   4.171   0.493
    9CHTO   C28 3741   6.382   4.263   0.541
    9CHTO   H56 3742   6.417   4.327   0.461
    9CHTO   C35 3743   6.314   4.356   0.645
    9CHTO   O24 3744   6.266   4.289   0.762
    9CHTO   H39 3745   6.194   4.234   0.740
    9CHTO    O9 3746   6.217   4.019   0.322
    9CHTO   C13 3747   6.129   4.111   0.218
    9CHTO   H26 3748   6.199   4.153   0.144
    9CHTO   C11 3749   6.052   4.224   0.298
    9CHTO   H24 3750   6.125   4.299   0.330
    9CHTO    O8 3751   5.990   4.169   0.416
    9CHTO    H3 3752   6.056   4.140   0.476
    9CHTO    C9 3753   5.949   4.290   0.202
    9CHTO   H22 3754   6.005   4.316   0.111
    9CHTO    N2 3755   5.897   4.420   0.252
    9CHTO   H10 3756   5.979   4.487   0.272
    9CHTO   H11 3757   5.838   4.404   0.341
    9CHTO    C7 3758   5.838   4.183   0.164
    9CHTO   H20 3759   5.806   4.212   0.062
    9CHTO    O4 3760   5.888   4.047   0.162
    9CHTO   C14 3761   6.026   4.024   0.131
    9CHTO   H27 3762   6.040   4.052   0.025
    9CHTO   C18 3763   6.052   3.871   0.140
    9CHTO   O13 3764   6.012   3.815   0.265
    9CHTO    H7 3765   6.027   3.723   0.265
    9CHTO    O2 3766   5.711   4.186   0.265
    9CHTO    C1 3767   5.591   4.129   0.211
    9CHTO   H14 3768   5.615   4.069   0.119
    9CHTO    C2 3769   5.483   4.238   0.173
    9CHTO   H15 3770   5.478   4.306   0.259
    9CHTO    O6 3771   5.531   4.312   0.059
    9CHTO    H1 3772   5.473   4.383   0.040
    9CHTO    C3 3773   5.339   4.173   0.145
    9CHTO   H16 3774   5.342   4.121   0.048
    9CHTO    N1 3775   5.232   4.278   0.134
    9CHTO    H8 3776   5.255   4.346   0.053
    9CHTO    H9 3777   5.225   4.333   0.226
    9CHTO    C4 3778   5.304   4.063   0.252
    9CHTO   H17 3779   5.283   4.112   0.348
    9CHTO    O1 3780   5.412   3.970   0.266
    9CHTO    C5 3781   5.533   4.029   0.315
    9CHTO   H18 3782   5.512   4.085   0.406
    9CHTO   C16 3783   5.632   3.914   0.350
    9CHTO   O11 3784   5.665   3.833   0.236
    9CHTO    H5 3785   5.589   3.785   0.208
    9CHTO    O3 3786   5.195   3.979   0.211
    9CHTO    C6 3787   5.079   3.968   0.300
    9CHTO   H19 3788   5.074   4.048   0.374
    9CHTO    C8 3789   4.949   3.974   0.214
    9CHTO   H21 3790   4.959   3.904   0.131
    9CHTO    O7 3791   4.940   4.108   0.162
    9CHTO    H2 3792   4.868   4.115   0.101
    9CHTO   C12 3793   4.820   3.935   0.298
    9CHTO   H25 3794   4.806   4.015   0.373
    9CHTO    N3 3795   4.697   3.933   0.212
    9CHTO   H12 3796   4.679   4.031   0.170
    9CHTO   H13 3797   4.707   3.859   0.133
    9CHTO   C15 3798   4.846   3.800   0.373
    9CHTO   H28 3799   4.856   3.716   0.304
    9CHTO   O10 3800   4.738   3.767   0.478
    9CHTO    H4 3801   4.655   3.753   0.435
    9CHTO    O5 3802   4.963   3.812   0.455
    9CHTO   C10 3803   5.085   3.834   0.381
    9CHTO   H23 3804   5.099   3.750   0.312
    9CHTO   C17 3805   5.200   3.831   0.482
    9CHTO   O12 3806   5.212   3.705   0.547
    9CHTO    H6 3807   5.139   3.692   0.606
   10CHTO  H203 3808   3.445   6.806   2.497
   10CHTO   O82 3809   3.385   6.830   2.565
   10CHTO  C123 3810   3.445   6.928   2.651
   10CHTO  H227 3811   3.468   7.018   2.591
   10CHTO   O77 3812   3.338   6.958   2.746
   10CHTO  C118 3813   3.367   7.061   2.841
   10CHTO  H222 3814   3.388   7.155   2.787
   10CHTO  C125 3815   3.239   7.081   0.053
   10CHTO   O84 3816   3.201   6.962   0.123
   10CHTO  H205 3817   3.171   6.898   0.062
   10CHTO  C114 3818   3.490   7.022   0.048
   10CHTO  H218 3819   3.464   6.934   0.108
   10CHTO  C116 3820   3.612   6.983   2.838
   10CHTO  H220 3821   3.653   7.075   2.789
   10CHTO   O79 3822   3.716   6.935   0.047
   10CHTO  H201 3823   3.794   6.915   2.876
   10CHTO  C120 3824   3.571   6.876   2.729
   10CHTO  H224 3825   3.546   6.784   2.784
   10CHTO   N21 3826   3.684   6.843   2.637
   10CHTO  H211 3827   3.778   6.849   2.689
   10CHTO  H212 3828   3.684   6.909   2.552
   10CHTO   O75 3829   3.514   7.136   0.133
   10CHTO  C112 3830   3.547   7.096   0.289
   10CHTO  H216 3831   3.596   6.997   0.292
   10CHTO   O73 3832   3.422   7.095   0.360
   10CHTO  C113 3833   3.436   7.050   0.496
   10CHTO  H217 3834   3.484   6.950   0.495
   10CHTO  C124 3835   3.296   7.032   0.556
   10CHTO   O83 3836   3.220   6.928   0.492
   10CHTO  H204 3837   3.256   6.844   0.515
   10CHTO  C109 3838   3.522   7.147   0.580
   10CHTO  H213 3839   3.464   7.239   0.592
   10CHTO  C110 3840   3.658   7.178   0.508
   10CHTO  H214 3841   3.725   7.093   0.525
   10CHTO   O78 3842   3.722   7.290   0.572
   10CHTO  H200 3843   3.669   7.367   0.564
   10CHTO  C111 3844   3.642   7.203   0.355
   10CHTO  H215 3845   3.595   7.302   0.341
   10CHTO   N19 3846   3.772   7.207   0.283
   10CHTO  H207 3847   3.834   7.287   0.321
   10CHTO  H208 3848   3.823   7.112   0.294
   10CHTO   O74 3849   3.542   7.086   0.712
   10CHTO  C115 3850   3.593   7.177   0.831
   10CHTO  H219 3851   3.692   7.220   0.810
   10CHTO   O76 3852   3.500   7.303   0.853
   10CHTO  C122 3853   3.378   7.272   0.921
   10CHTO  H226 3854   3.322   7.201   0.858
   10CHTO  C126 3855   3.289   7.400   0.929
   10CHTO   O85 3856   3.252   7.450   0.800
   10CHTO  H206 3857   3.195   7.523   0.810
   10CHTO  C121 3858   3.402   7.210   1.065
   10CHTO  H225 3859   3.381   7.288   1.141
   10CHTO   O81 3860   3.308   7.104   1.085
   10CHTO  H202 3861   3.326   7.033   1.026
   10CHTO  C119 3862   3.549   7.160   1.086
   10CHTO  H223 3863   3.611   7.250   1.098
   10CHTO  C117 3864   3.602   7.084   0.959
   10CHTO  H221 3865   3.544   6.995   0.933
   10CHTO   N20 3866   3.742   7.034   0.977
   10CHTO  H209 3867   3.744   6.926   0.975
   10CHTO  H210 3868   3.786   7.071   1.069
   10CHTO   O80 3869   3.576   7.081   1.231
   10CHTO  C103 3870   3.546   7.154   1.371
   10CHTO  H190 3871   3.607   7.108   1.449
   10CHTO  C101 3872   3.570   7.309   1.378
   10CHTO  H188 3873   3.522   7.357   1.292
   10CHTO   O68 3874   3.722   7.336   1.370
   10CHTO  H168 3875   3.738   7.429   1.368
   10CHTO   C99 3876   3.505   7.373   1.511
   10CHTO  H186 3877   3.563   7.337   1.599
   10CHTO   N17 3878   3.511   7.523   1.516
   10CHTO  H174 3879   3.544   7.564   1.421
   10CHTO  H175 3880   3.416   7.566   1.545
   10CHTO   C97 3881   3.361   7.320   1.531
   10CHTO  H184 3882   3.297   7.362   1.452
   10CHTO   O64 3883   3.360   7.176   1.530
   10CHTO  C104 3884   3.396   7.120   1.404
   10CHTO  H191 3885   3.332   7.160   1.326
   10CHTO  C108 3886   3.369   6.968   1.406
   10CHTO   O71 3887   3.439   6.901   1.511
   10CHTO  H171 3888   3.401   6.924   1.594
   10CHTO   O62 3889   3.308   7.353   1.662
   10CHTO   C91 3890   3.164   7.354   1.673
   10CHTO  H178 3891   3.119   7.324   1.579
   10CHTO   C92 3892   3.116   7.501   1.699
   10CHTO  H179 3893   3.171   7.541   1.786
   10CHTO   O66 3894   3.156   7.581   1.586
   10CHTO  H166 3895   3.135   7.671   1.602
   10CHTO   C93 3896   2.960   7.509   1.723
   10CHTO  H180 3897   2.911   7.486   1.627
   10CHTO   N16 3898   2.913   7.645   1.761
   10CHTO  H172 3899   2.939   7.716   1.684
   10CHTO  H173 3900   2.807   7.644   1.778
   10CHTO   C94 3901   2.915   7.401   1.829
   10CHTO  H181 3902   2.955   7.423   1.928
   10CHTO   O61 3903   2.963   7.271   1.792
   10CHTO   C95 3904   3.106   7.261   1.786
   10CHTO  H182 3905   3.147   7.290   1.883
   10CHTO  C106 3906   3.145   7.110   1.765
   10CHTO   O69 3907   3.096   7.061   1.639
   10CHTO  H169 3908   3.118   6.971   1.630
   10CHTO   O63 3909   2.753   7.391   1.835
   10CHTO   C96 3910   2.705   7.309   1.958
   10CHTO  H183 3911   2.792   7.263   2.005
   10CHTO   C98 3912   2.605   7.194   1.926
   10CHTO  H185 3913   2.521   7.234   1.867
   10CHTO   O67 3914   2.672   7.101   1.839
   10CHTO  H167 3915   2.743   7.058   1.884
   10CHTO  C102 3916   2.550   7.120   2.058
   10CHTO  H189 3917   2.635   7.060   2.096
   10CHTO   N18 3918   2.441   7.023   2.034
   10CHTO  H176 3919   2.474   6.946   1.965
   10CHTO  H177 3920   2.410   6.977   2.127
   10CHTO  C105 3921   2.513   7.224   2.167
   10CHTO  H192 3922   2.416   7.269   2.143
   10CHTO   O65 3923   2.610   7.329   2.182
   10CHTO  C100 3924   2.638   7.404   2.063
   10CHTO  H187 3925   2.543   7.443   2.022
   10CHTO  C107 3926   2.727   7.524   2.102
   10CHTO   O70 3927   2.662   7.611   2.196
   10CHTO  H170 3928   2.590   7.655   2.154
   10CHTO   O57 3929   2.505   7.142   2.308
   10CHTO   C85 3930   2.443   7.199   2.424
   10CHTO  H157 3931   2.341   7.231   2.392
   10CHTO   C83 3932   2.516   7.330   2.468
   10CHTO  H155 3933   2.500   7.405   2.391
   10CHTO   O56 3934   2.658   7.305   2.472
   10CHTO  H135 3935   2.705   7.385   2.487
   10CHTO   C81 3936   2.458   7.383   2.602
   10CHTO  H153 3937   2.351   7.399   2.588
   10CHTO   N14 3938   2.511   7.516   2.641
   10CHTO  H141 3939   2.494   7.587   2.563
   10CHTO  H142 3940   2.617   7.509   2.659
   10CHTO   C79 3941   2.476   7.273   2.713
   10CHTO  H151 3942   2.431   7.312   2.805
   10CHTO   O52 3943   2.401   7.154   2.676
   10CHTO   C86 3944   2.436   7.096   2.546
   10CHTO  H158 3945   2.535   7.048   2.563
   10CHTO   C90 3946   2.337   6.981   2.518
   10CHTO   O60 3947   2.372   6.905   2.402
   10CHTO  H138 3948   2.306   6.840   2.386
   10CHTO   O50 3949   2.613   7.240   2.739
   10CHTO   C73 3950   2.686   7.167   2.839
   10CHTO  H145 3951   2.638   7.069   2.856
   10CHTO   C74 3952   2.687   7.246   0.095
   10CHTO  H146 3953   2.582   7.264   0.124
   10CHTO   O54 3954   2.742   7.160   0.197
   10CHTO  H133 3955   2.738   7.203   0.281
   10CHTO   C75 3956   2.766   7.381   0.075
   10CHTO  H147 3957   2.715   7.440   2.876
   10CHTO   N13 3958   2.771   7.467   0.196
   10CHTO  H139 3959   2.671   7.495   0.225
   10CHTO  H140 3960   2.817   7.414   0.278
   10CHTO   C76 3961   2.912   7.346   0.019
   10CHTO  H148 3962   2.963   7.287   0.095
   10CHTO   O49 3963   2.903   7.268   2.774
   10CHTO   C77 3964   2.832   7.143   2.790
   10CHTO  H149 3965   2.884   7.080   2.863
   10CHTO   C88 3966   2.840   7.068   2.656
   10CHTO   O58 3967   2.773   6.937   2.663
   10CHTO  H136 3968   2.821   6.880   2.720
   10CHTO   O51 3969   2.993   7.477   2.857
   10CHTO   C78 3970   3.148   7.453   2.866
   10CHTO  H150 3971   3.172   7.346   2.850
   10CHTO   C80 3972   3.200   7.496   0.127
   10CHTO  H152 3973   3.168   7.601   0.146
   10CHTO   O55 3974   3.136   7.412   0.225
   10CHTO  H134 3975   3.156   7.441   0.311
   10CHTO   C84 3976   3.357   7.486   0.137
   10CHTO  H156 3977   3.384   7.381   0.127
   10CHTO   N15 3978   3.410   7.532   0.271
   10CHTO  H143 3979   3.330   7.559   0.336
   10CHTO  H144 3980   3.476   7.615   0.259
   10CHTO   C87 3981   3.420   7.563   0.017
   10CHTO  H159 3982   3.397   7.669   0.026
   10CHTO   O53 3983   3.361   7.507   2.764
   10CHTO   C82 3984   3.220   7.532   2.754
   10CHTO  H154 3985   3.200   7.638   2.761
   10CHTO   C89 3986   3.174   7.486   2.613
   10CHTO   O59 3987   3.041   7.531   2.583
   10CHTO  H137 3988   3.018   7.504   2.496
   10CHTO   O45 3989   3.583   7.541   0.008
   10CHTO   C67 3990   3.655   7.653   0.061
   10CHTO  H124 3991   3.592   7.711   0.128
   10CHTO   C65 3992   3.779   7.603   0.141
   10CHTO  H122 3993   3.745   7.516   0.197
   10CHTO   O44 3994   3.820   7.706   0.233
   10CHTO  H102 3995   3.888   7.674   0.289
   10CHTO   C63 3996   3.890   7.550   0.042
   10CHTO  H120 3997   3.846   7.474   2.856
   10CHTO   N11 3998   4.004   7.478   0.106
   10CHTO  H108 3999   4.068   7.436   0.031
   10CHTO  H109 4000   3.967   7.399   0.169
   10CHTO   C61 4001   3.933   7.669   2.826
   10CHTO  H118 4002   4.005   7.627   2.754
   10CHTO   O40 4003   3.819   7.716   2.750
   10CHTO   C68 4004   3.695   7.752   2.820
   10CHTO  H125 4005   3.614   7.744   2.744
   10CHTO   C72 4006   3.699   7.900   2.865
   10CHTO   O48 4007   3.573   7.948   0.037
   10CHTO  H105 4008   3.511   7.952   2.845
   10CHTO   O38 4009   3.991   7.780   0.020
   10CHTO   C55 4010   4.119   7.833   2.858
   10CHTO  H112 4011   4.162   7.774   2.776
   10CHTO   C56 4012   4.215   7.836   0.108
   10CHTO  H113 4013   4.157   7.880   0.190
   10CHTO   O42 4014   4.245   7.702   0.148
   10CHTO  H100 4015   4.167   7.657   0.174
   10CHTO   C57 4016   4.347   7.920   0.083
   10CHTO  H114 4017   4.407   7.865   0.010
   10CHTO   N10 4018   4.428   7.938   0.205
   10CHTO  H106 4019   4.497   7.856   0.216
   10CHTO  H107 4020   4.485   8.030   0.201
   10CHTO   C58 4021   4.308   8.057   0.020
   10CHTO  H115 4022   4.248   8.115   0.095
   10CHTO   O37 4023   4.231   8.036   2.779
   10CHTO   C59 4024   4.102   7.977   2.802
   10CHTO  H116 4025   4.044   8.039   2.871
   10CHTO   C70 4026   4.029   7.975   2.667
   10CHTO   O46 4027   4.008   8.106   2.614
   10CHTO  H103 4028   3.963   8.100   2.532
   10CHTO   O39 4029   4.438   8.141   2.852
   10CHTO   C60 4030   4.416   8.284   2.844
   10CHTO  H117 4031   4.310   8.306   2.859
   10CHTO   C62 4032   4.496   8.359   0.077
   10CHTO  H119 4033   4.455   8.324   0.174
   10CHTO   O43 4034   4.635   8.321   0.070
   10CHTO  H101 4035   4.645   8.230   0.093
   10CHTO   C66 4036   4.473   8.518   0.064
   10CHTO  H123 4037   4.367   8.537   0.074
   10CHTO   N12 4038   4.539   8.596   0.171
   10CHTO  H110 4039   4.592   8.531   0.240
   10CHTO  H111 4040   4.467   8.657   0.223
   10CHTO   C69 4041   4.516   8.566   2.800
   10CHTO  H126 4042   4.626   8.549   2.786
   10CHTO   O41 4043   4.438   8.486   2.693
   10CHTO   C64 4044   4.454   8.335   2.703
   10CHTO  H121 4045   4.560   8.308   2.682
   10CHTO   C71 4046   4.367   8.270   2.592
   10CHTO   O47 4047   4.230   8.309   2.602
   10CHTO  H104 4048   4.180   8.267   2.536
   10CHTO   O34 4049   4.486   8.723   2.777
   10CHTO   C49 4050   4.377   8.817   2.716
   10CHTO   H91 4051   4.414   8.918   2.733
   10CHTO   C47 4052   4.243   8.800   2.790
   10CHTO   H89 4053   4.260   8.845   0.013
   10CHTO   O33 4054   4.209   8.661   2.806
   10CHTO   H70 4055   4.273   8.618   2.860
   10CHTO   C45 4056   4.120   8.870   2.711
   10CHTO   H87 4057   4.062   8.790   2.662
   10CHTO    N8 4058   4.030   8.939   2.807
   10CHTO   H75 4059   4.082   9.021   2.853
   10CHTO   H76 4060   3.943   8.976   2.755
   10CHTO   C43 4061   4.169   8.960   2.588
   10CHTO   H85 4062   4.078   8.993   2.536
   10CHTO   O29 4063   4.253   8.881   2.502
   10CHTO   C50 4064   4.356   8.799   2.562
   10CHTO   H92 4065   4.332   8.693   2.544
   10CHTO   C54 4066   4.489   8.822   2.486
   10CHTO   O36 4067   4.477   8.787   2.348
   10CHTO   H72 4068   4.420   8.847   2.304
   10CHTO   O27 4069   4.237   9.080   2.629
   10CHTO   C37 4070   4.305   9.191   2.569
   10CHTO   H79 4071   4.405   9.160   2.535
   10CHTO   C38 4072   4.228   9.243   2.443
   10CHTO   H80 4073   4.123   9.261   2.471
   10CHTO   O31 4074   4.230   9.140   2.342
   10CHTO   H68 4075   4.318   9.123   2.315
   10CHTO   C39 4076   4.290   9.377   2.386
   10CHTO   H81 4077   4.386   9.351   2.342
   10CHTO    N7 4078   4.208   9.441   2.277
   10CHTO   H73 4079   4.200   9.373   2.194
   10CHTO   H74 4080   4.110   9.465   2.315
   10CHTO   C40 4081   4.320   9.480   2.502
   10CHTO   H82 4082   4.228   9.529   2.535
   10CHTO   O26 4083   4.390   9.418   2.610
   10CHTO   C41 4084   4.320   9.306   2.672
   10CHTO   H83 4085   4.220   9.339   2.706
   10CHTO   C52 4086   4.402   9.266   2.797
   10CHTO   O35 4087   4.336   9.162   0.003
   10CHTO   H71 4088   4.332   9.081   2.835
   10CHTO   O28 4089   4.415   9.580   2.458
   10CHTO   C42 4090   4.412   9.718   2.506
   10CHTO   H84 4091   4.356   9.715   2.599
   10CHTO   C44 4092   4.337   9.818   2.412
   10CHTO   H86 4093   4.375   9.806   2.310
   10CHTO   O32 4094   4.198   9.780   2.411
   10CHTO   H69 4095   4.187   9.698   2.367
   10CHTO   C48 4096   4.357   9.970   2.453
   10CHTO   H90 4097   4.309   9.987   2.550
   10CHTO    N9 4098   4.292   0.066   2.358
   10CHTO   H77 4099   4.306   0.167   2.392
   10CHTO   H78 4100   4.334   0.054   2.259
   10CHTO   C51 4101   4.512   9.994   2.469
   10CHTO   H93 4102   4.560   9.967   2.375
   10CHTO   O30 4103   4.555   9.911   2.578
   10CHTO   C46 4104   4.556   9.767   2.541
   10CHTO   H88 4105   4.621   9.753   2.455
   10CHTO   C53 4106   4.613   9.690   2.663
   10CHTO   O72 4107   4.749   9.726   2.687
   10CHTO  H199 4108   4.779   9.683   2.764
   10CHTO   O22 4109   4.550   0.128   2.507
   10CHTO   C31 4110   4.687   0.178   2.477
   10CHTO   H59 4111   4.698   0.273   2.533
   10CHTO   C29 4112   4.801   0.084   2.524
   10CHTO   H57 4113   4.784   9.986   2.478
   10CHTO   O21 4114   4.789   0.067   2.666
   10CHTO   H37 4115   4.710   0.020   2.687
   10CHTO   C27 4116   4.945   0.136   2.483
   10CHTO   H55 4117   4.967   0.227   2.540
   10CHTO    N5 4118   5.050   0.036   2.511
   10CHTO   H43 4119   5.050   0.011   2.616
   10CHTO   H44 4120   5.034   9.947   2.452
   10CHTO   C25 4121   4.945   0.177   2.331
   10CHTO   H53 4122   4.932   0.087   2.269
   10CHTO   O17 4123   4.836   0.269   2.302
   10CHTO   C32 4124   4.705   0.215   2.326
   10CHTO   H60 4125   4.691   0.126   2.266
   10CHTO   C36 4126   4.601   0.321   2.282
   10CHTO   O25 4127   4.606   0.344   2.141
   10CHTO   H40 4128   4.571   0.269   2.095
   10CHTO   O15 4129   5.081   0.247   2.291
   10CHTO   C19 4130   5.139   0.302   2.170
   10CHTO   H47 4131   5.079   0.257   2.089
   10CHTO   C20 4132   5.129   0.457   2.160
   10CHTO   H48 4133   5.176   0.507   2.247
   10CHTO   O19 4134   4.988   0.489   2.162
   10CHTO   H35 4135   4.977   0.582   2.167
   10CHTO   C21 4136   5.198   0.513   2.029
   10CHTO   H49 4137   5.142   0.478   1.942
   10CHTO    N4 4138   5.198   0.662   2.022
   10CHTO   H41 4139   5.244   0.695   1.930
   10CHTO   H42 4140   5.252   0.703   2.106
   10CHTO   C22 4141   5.341   0.453   2.018
   10CHTO   H50 4142   5.400   0.490   2.103
   10CHTO   O14 4143   5.334   0.310   2.022
   10CHTO   C23 4144   5.287   0.255   2.146
   10CHTO   H51 4145   5.354   0.289   2.226
   10CHTO   C34 4146   5.300   0.103   2.133
   10CHTO   O23 4147   5.279   0.036   2.257
   10CHTO   H38 4148   5.282   9.943   2.243
   10CHTO   O16 4149   5.407   0.485   1.894
   10CHTO   C24 4150   5.567   0.454   1.900
   10CHTO   H52 4151   5.593   0.395   1.989
   10CHTO   C26 4152   5.646   0.586   1.902
   10CHTO   H54 4153   5.619   0.644   1.810
   10CHTO   O20 4154   5.604   0.664   2.016
   10CHTO   H36 4155   5.628   0.621   2.096
   10CHTO   C30 4156   5.799   0.558   1.900
   10CHTO   H58 4157   5.828   0.510   1.995
   10CHTO    N6 4158   5.880   0.684   1.892
   10CHTO   H45 4159   5.816   0.771   1.887
   10CHTO   H46 4160   5.946   0.692   1.977
   10CHTO   C33 4161   5.838   0.458   1.787
   10CHTO   H61 4162   5.826   0.507   1.688
   10CHTO   O18 4163   5.750   0.344   1.792
   10CHTO   C28 4164   5.611   0.372   1.777
   10CHTO   H56 4165   5.592   0.431   1.687
   10CHTO   C35 4166   5.534   0.239   1.767
   10CHTO   O24 4167   5.573   0.163   1.652
   10CHTO   H39 4168   5.660   0.131   1.662
   10CHTO    O9 4169   5.977   0.418   1.793
   10CHTO   C13 4170   6.037   0.352   1.651
   10CHTO   H26 4171   6.023   0.428   1.571
   10CHTO   C11 4172   5.964   0.215   1.616
   10CHTO   H24 4173   5.861   0.239   1.584
   10CHTO    O8 4174   5.956   0.133   1.734
   10CHTO    H3 4175   5.905   0.056   1.716
   10CHTO    C9 4176   6.040   0.147   1.498
   10CHTO   H22 4177   6.044   0.223   1.419
   10CHTO    N2 4178   5.966   0.034   1.437
   10CHTO   H10 4179   5.930   0.061   1.338
   10CHTO   H11 4180   5.885   0.002   1.500
   10CHTO    C7 4181   6.189   0.115   1.542
   10CHTO   H20 4182   6.249   0.149   1.455
   10CHTO    O4 4183   6.230   0.189   1.659
   10CHTO   C14 4184   6.196   0.329   1.658
   10CHTO   H27 4185   6.242   0.375   1.568
   10CHTO   C18 4186   6.261   0.396   1.782
   10CHTO   O13 4187   6.403   0.385   1.779
   10CHTO    H7 4188   6.429   0.296   1.795
   10CHTO    O2 4189   6.221   9.951   1.568
   10CHTO    C1 4190   6.349   9.916   1.622
   10CHTO   H14 4191   6.363   9.967   1.720
   10CHTO    C2 4192   6.473   9.951   1.528
   10CHTO   H15 4193   6.449   9.911   1.429
   10CHTO    O6 4194   6.486   0.094   1.519
   10CHTO    H1 4195   6.505   0.131   1.604
   10CHTO    C3 4196   6.609   9.885   1.583
   10CHTO   H16 4197   6.634   9.931   1.680
   10CHTO    N1 4198   6.725   9.909   1.491
   10CHTO    H8 4199   6.804   9.961   1.542
   10CHTO    H9 4200   6.763   9.816   1.451
   10CHTO    C4 4201   6.584   9.733   1.614
   10CHTO   H17 4202   6.564   9.680   1.520
   10CHTO    O1 4203   6.474   9.718   1.704
   10CHTO    C5 4204   6.347   9.762   1.654
   10CHTO   H18 4205   6.323   9.708   1.562
   10CHTO   C16 4206   6.242   9.725   1.762
   10CHTO   O11 4207   6.107   9.740   1.717
   10CHTO    H5 4208   6.088   9.674   1.652
   10CHTO    O3 4209   6.696   9.673   1.683
   10CHTO    C6 4210   6.730   9.536   1.645
   10CHTO   H19 4211   6.655   9.489   1.582
   10CHTO    C8 4212   6.866   9.534   1.566
   10CHTO   H21 4213   6.940   9.590   1.624
   10CHTO    O7 4214   6.843   9.601   1.441
   10CHTO    H2 4215   6.924   9.612   1.395
   10CHTO   C12 4216   6.918   9.387   1.544
   10CHTO   H25 4217   6.847   9.339   1.473
   10CHTO    N3 4218   7.054   9.384   1.478
   10CHTO   H12 4219   7.091   9.484   1.460
   10CHTO   H13 4220   7.049   9.328   1.386
   10CHTO   C15 4221   6.914   9.307   1.679
   10CHTO   H28 4222   6.990   9.343   1.749
   10CHTO   O10 4223   6.932   9.153   1.659
   10CHTO    H4 4224   6.872   9.121   1.595
   10CHTO    O5 4225   6.784   9.314   1.739
   10CHTO   C10 4226   6.743   9.448   1.773
   10CHTO   H23 4227   6.817   9.492   1.840
   10CHTO   C17 4228   6.611   9.440   1.852
   10CHTO   O12 4229   6.506   9.378   1.777
   10CHTO    H6 4230   6.525   9.288   1.763
   11CHTO  H203 4231   4.866   5.041   1.952
   11CHTO   O82 4232   4.945   5.026   1.904
   11CHTO  C123 4233   5.012   5.152   1.881
   11CHTO  H227 4234   5.034   5.198   1.979
   11CHTO   O77 4235   5.137   5.112   1.816
   11CHTO  C118 4236   5.228   5.220   1.792
   11CHTO  H222 4237   5.251   5.270   1.887
   11CHTO  C125 4238   5.360   5.160   1.732
   11CHTO   O84 4239   5.426   5.078   1.830
   11CHTO  H205 4240   5.507   5.046   1.794
   11CHTO  C114 4241   5.164   5.322   1.695
   11CHTO  H218 4242   5.143   5.271   1.601
   11CHTO  C116 4243   5.025   5.371   1.749
   11CHTO  H220 4244   5.041   5.435   1.839
   11CHTO   O79 4245   4.966   5.456   1.648
   11CHTO  H201 4246   4.886   5.493   1.681
   11CHTO  C120 4247   4.932   5.249   1.787
   11CHTO  H224 4248   4.908   5.198   1.691
   11CHTO   N21 4249   4.804   5.295   1.847
   11CHTO  H211 4250   4.766   5.221   1.916
   11CHTO  H212 4251   4.732   5.316   1.769
   11CHTO   O75 4252   5.262   5.425   1.670
   11CHTO  C112 4253   5.280   5.539   1.791
   11CHTO  H216 4254   5.270   5.489   1.889
   11CHTO   O73 4255   5.179   5.640   1.772
   11CHTO  C113 4256   5.169   5.729   1.884
   11CHTO  H217 4257   5.147   5.669   1.974
   11CHTO  C124 4258   5.046   5.819   1.862
   11CHTO   O83 4259   5.056   5.905   1.748
   11CHTO  H204 4260   5.123   5.969   1.761
   11CHTO  C109 4261   5.300   5.809   1.905
   11CHTO  H213 4262   5.308   5.881   1.822
   11CHTO  C110 4263   5.425   5.715   1.904
   11CHTO  H214 4264   5.428   5.661   2.000
   11CHTO   O78 4265   5.544   5.797   1.899
   11CHTO  H200 4266   5.547   5.846   1.819
   11CHTO  C111 4267   5.420   5.612   1.787
   11CHTO  H215 4268   5.427   5.667   1.692
   11CHTO   N19 4269   5.531   5.514   1.788
   11CHTO  H207 4270   5.524   5.449   1.703
   11CHTO  H208 4271   5.529   5.456   1.879
   11CHTO   O74 4272   5.295   5.882   2.031
   11CHTO  C115 4273   5.283   6.040   2.019
   11CHTO  H219 4274   5.312   6.075   1.919
   11CHTO   O76 4275   5.130   6.089   2.036
   11CHTO  C122 4276   5.086   6.078   2.172
   11CHTO  H226 4277   5.091   5.973   2.200
   11CHTO  C126 4278   4.934   6.117   2.177
   11CHTO   O85 4279   4.878   6.103   2.308
   11CHTO  H206 4280   4.789   6.133   2.308
   11CHTO  C121 4281   5.174   6.166   2.270
   11CHTO  H225 4282   5.113   6.252   2.306
   11CHTO   O81 4283   5.208   6.087   2.385
   11CHTO  H202 4284   5.248   6.141   2.451
   11CHTO  C119 4285   5.301   6.221   2.200
   11CHTO  H223 4286   5.264   6.287   2.123
   11CHTO  C117 4287   5.378   6.104   2.128
   11CHTO  H221 4288   5.408   6.022   2.193
   11CHTO   N20 4289   5.506   6.151   2.065
   11CHTO  H209 4290   5.486   6.228   1.992
   11CHTO  H210 4291   5.574   6.187   2.141
   11CHTO   O80 4292   5.383   6.322   2.292
   11CHTO  C103 4293   5.426   6.470   2.236
   11CHTO  H190 4294   5.528   6.468   2.198
   11CHTO  C101 4295   5.333   6.540   2.128
   11CHTO  H188 4296   5.228   6.531   2.160
   11CHTO   O68 4297   5.349   6.467   1.990
   11CHTO  H168 4298   5.319   6.378   1.998
   11CHTO   C99 4299   5.368   6.696   2.113
   11CHTO  H186 4300   5.472   6.706   2.074
   11CHTO   N17 4301   5.279   6.771   2.017
   11CHTO  H174 4302   5.315   6.872   2.006
   11CHTO  H175 4303   5.276   6.719   1.922
   11CHTO   C97 4304   5.369   6.762   2.253
   11CHTO  H184 4305   5.267   6.760   2.294
   11CHTO   O64 4306   5.463   6.693   2.337
   11CHTO  C104 4307   5.426   6.558   2.367
   11CHTO  H191 4308   5.328   6.553   2.414
   11CHTO  C108 4309   5.525   6.503   2.471
   11CHTO   O71 4310   5.515   6.574   2.595
   11CHTO  H171 4311   5.434   6.553   2.637
   11CHTO   O62 4312   5.424   6.896   2.254
   11CHTO   C91 4313   5.369   6.991   2.348
   11CHTO  H178 4314   5.280   7.032   2.300
   11CHTO   C92 4315   5.471   7.109   2.359
   11CHTO  H179 4316   5.500   7.143   2.258
   11CHTO   O66 4317   5.403   7.221   2.418
   11CHTO  H166 4318   5.457   7.298   2.414
   11CHTO   C93 4319   5.597   7.074   2.448
   11CHTO  H180 4320   5.641   7.170   2.480
   11CHTO   N16 4321   5.706   7.006   2.374
   11CHTO  H172 4322   5.741   7.070   2.294
   11CHTO  H173 4323   5.670   6.913   2.333
   11CHTO   C94 4324   5.555   6.993   2.578
   11CHTO  H181 4325   5.582   6.887   2.571
   11CHTO   O61 4326   5.413   6.998   2.600
   11CHTO   C95 4327   5.333   6.939   2.496
   11CHTO  H182 4328   5.344   6.830   2.501
   11CHTO  C106 4329   5.181   6.968   2.526
   11CHTO   O69 4330   5.139   6.910   2.650
   11CHTO  H169 4331   5.181   6.954   2.721
   11CHTO   O63 4332   5.620   7.058   2.703
   11CHTO   C96 4333   5.754   6.995   2.757
   11CHTO  H183 4334   5.810   6.955   2.672
   11CHTO   C98 4335   5.734   6.882   2.862
   11CHTO  H185 4336   5.655   6.912   0.055
   11CHTO   O67 4337   5.680   6.768   2.792
   11CHTO  H167 4338   5.660   6.700   2.852
   11CHTO  C102 4339   5.869   6.844   0.063
   11CHTO  H189 4340   5.933   6.792   2.869
   11CHTO   N18 4341   5.850   6.748   0.175
   11CHTO  H176 4342   5.806   6.657   0.138
   11CHTO  H177 4343   5.945   6.726   0.221
   11CHTO  C105 4344   5.941   6.974   0.109
   11CHTO  H192 4345   5.879   7.025   0.184
   11CHTO   O65 4346   5.961   7.064   2.876
   11CHTO  C100 4347   5.838   7.112   2.820
   11CHTO  H187 4348   5.778   7.156   0.023
   11CHTO  C107 4349   5.866   7.223   2.718
   11CHTO   O70 4350   5.920   7.340   2.781
   11CHTO  H170 4351   6.008   7.323   2.809
   11CHTO   O57 4352   6.088   6.932   0.176
   11CHTO   C85 4353   6.155   7.025   0.263
   11CHTO  H157 4354   6.075   7.084   0.313
   11CHTO   C83 4355   6.237   7.127   0.178
   11CHTO  H155 4356   6.167   7.181   0.113
   11CHTO   O56 4357   6.327   7.055   0.091
   11CHTO  H135 4358   6.369   7.115   0.032
   11CHTO   C81 4359   6.307   7.228   0.273
   11CHTO  H153 4360   6.230   7.278   0.332
   11CHTO   N14 4361   6.373   7.340   0.200
   11CHTO  H141 4362   6.452   7.302   0.139
   11CHTO  H142 4363   6.302   7.390   0.138
   11CHTO   C79 4364   6.404   7.153   0.372
   11CHTO  H151 4365   6.439   7.227   0.444
   11CHTO   O52 4366   6.330   7.052   0.448
   11CHTO   C86 4367   6.254   6.958   0.367
   11CHTO  H158 4368   6.331   6.898   0.315
   11CHTO   C90 4369   6.177   6.859   0.458
   11CHTO   O60 4370   6.268   6.778   0.534
   11CHTO  H138 4371   6.313   6.718   0.477
   11CHTO   O50 4372   6.519   7.094   0.309
   11CHTO   C73 4373   6.646   7.051   0.362
   11CHTO  H145 4374   6.630   6.979   0.444
   11CHTO   C74 4375   6.728   7.172   0.418
   11CHTO  H146 4376   6.666   7.221   0.495
   11CHTO   O54 4377   6.844   7.120   0.487
   11CHTO  H133 4378   6.901   7.076   0.427
   11CHTO   C75 4379   6.763   7.270   0.299
   11CHTO  H147 4380   6.669   7.312   0.260
   11CHTO   N13 4381   6.843   7.388   0.341
   11CHTO  H139 4382   6.937   7.355   0.383
   11CHTO  H140 4383   6.863   7.452   0.256
   11CHTO   C76 4384   6.832   7.191   0.177
   11CHTO  H148 4385   6.932   7.161   0.208
   11CHTO   O49 4386   6.754   7.072   0.141
   11CHTO   C77 4387   6.730   6.982   0.251
   11CHTO  H149 4388   6.825   6.951   0.293
   11CHTO   C88 4389   6.662   6.855   0.201
   11CHTO   O58 4390   6.749   6.780   0.114
   11CHTO  H136 4391   6.709   6.698   0.092
   11CHTO   O51 4392   6.833   7.284   0.044
   11CHTO   C78 4393   6.909   7.218   2.799
   11CHTO  H150 4394   6.920   7.109   2.812
   11CHTO   C80 4395   7.050   7.281   2.786
   11CHTO  H152 4396   7.039   7.392   2.781
   11CHTO   O55 4397   7.123   7.248   0.027
   11CHTO  H134 4398   7.087   7.294   0.101
   11CHTO   C84 4399   7.126   7.231   2.656
   11CHTO  H156 4400   7.147   7.125   2.670
   11CHTO   N15 4401   7.260   7.298   2.637
   11CHTO  H143 4402   7.262   7.355   2.546
   11CHTO  H144 4403   7.284   7.361   2.719
   11CHTO   C87 4404   7.036   7.244   2.531
   11CHTO  H159 4405   7.024   7.349   2.504
   11CHTO   O53 4406   6.897   7.179   2.560
   11CHTO   C82 4407   6.828   7.241   2.669
   11CHTO  H154 4408   6.814   7.347   2.650
   11CHTO   C89 4409   6.687   7.176   2.676
   11CHTO   O59 4410   6.600   7.245   2.767
   11CHTO  H137 4411   6.581   7.331   2.734
   11CHTO   O45 4412   7.106   7.162   2.402
   11CHTO   C67 4413   7.026   7.152   2.284
   11CHTO  H124 4414   6.927   7.114   2.311
   11CHTO   C65 4415   7.008   7.290   2.211
   11CHTO  H122 4416   7.099   7.347   2.233
   11CHTO   O44 4417   6.897   7.356   2.275
   11CHTO  H102 4418   6.817   7.316   2.248
   11CHTO   C63 4419   7.006   7.279   2.053
   11CHTO  H120 4420   7.109   7.269   2.018
   11CHTO   N11 4421   6.961   7.401   1.977
   11CHTO  H108 4422   6.916   7.472   2.044
   11CHTO  H109 4423   7.044   7.447   1.927
   11CHTO   C61 4424   6.934   7.146   2.009
   11CHTO  H118 4425   6.950   7.137   1.900
   11CHTO   O40 4426   6.994   7.027   2.069
   11CHTO   C68 4427   7.085   7.046   2.182
   11CHTO  H125 4428   7.182   7.084   2.143
   11CHTO   C72 4429   7.114   6.909   2.247
   11CHTO   O48 4430   6.997   6.840   2.292
   11CHTO  H105 4431   6.947   6.811   2.218
   11CHTO   O38 4432   6.793   7.145   2.039
   11CHTO   C55 4433   6.714   7.049   1.965
   11CHTO  H112 4434   6.776   6.963   1.937
   11CHTO   C56 4435   6.648   7.117   1.838
   11CHTO  H113 4436   6.587   7.202   1.874
   11CHTO   O42 4437   6.750   7.172   1.753
   11CHTO  H100 4438   6.795   7.243   1.797
   11CHTO   C57 4439   6.559   7.013   1.760
   11CHTO  H114 4440   6.629   6.942   1.716
   11CHTO   N10 4441   6.484   7.072   1.646
   11CHTO  H106 4442   6.457   7.175   1.667
   11CHTO  H107 4443   6.394   7.016   1.624
   11CHTO   C58 4444   6.464   6.937   1.855
   11CHTO  H115 4445   6.375   7.000   1.880
   11CHTO   O37 4446   6.527   6.892   1.977
   11CHTO   C59 4447   6.599   6.991   2.052
   11CHTO  H116 4448   6.531   7.070   2.083
   11CHTO   C70 4449   6.653   6.924   2.180
   11CHTO   O46 4450   6.737   6.811   2.155
   11CHTO  H103 4451   6.818   6.839   2.116
   11CHTO   O39 4452   6.420   6.801   1.784
   11CHTO   C60 4453   6.281   6.764   1.782
   11CHTO  H117 4454   6.230   6.808   1.867
   11CHTO   C62 4455   6.210   6.814   1.651
   11CHTO  H119 4456   6.205   6.925   1.659
   11CHTO   O43 4457   6.291   6.778   1.538
   11CHTO  H101 4458   6.253   6.813   1.459
   11CHTO   C66 4459   6.061   6.753   1.642
   11CHTO  H123 4460   6.006   6.784   1.731
   11CHTO   N12 4461   5.987   6.808   1.525
   11CHTO  H110 4462   5.897   6.858   1.558
   11CHTO  H111 4463   5.964   6.730   1.454
   11CHTO   C69 4464   6.072   6.598   1.644
   11CHTO  H126 4465   6.139   6.565   1.561
   11CHTO   O41 4466   6.132   6.558   1.778
   11CHTO   C64 4467   6.272   6.609   1.797
   11CHTO  H121 4468   6.338   6.562   1.721
   11CHTO   C71 4469   6.323   6.563   1.936
   11CHTO   O47 4470   6.241   6.612   2.042
   11CHTO  H104 4471   6.275   6.584   2.125
   11CHTO   O34 4472   5.938   6.526   1.628
   11CHTO   C49 4473   5.812   6.492   1.701
   11CHTO   H91 4474   5.842   6.461   1.801
   11CHTO   C47 4475   5.743   6.376   1.627
   11CHTO   H89 4476   5.654   6.348   1.688
   11CHTO   O33 4477   5.833   6.263   1.624
   11CHTO   H70 4478   5.846   6.229   1.710
   11CHTO   C45 4479   5.697   6.428   1.482
   11CHTO   H87 4480   5.785   6.471   1.431
   11CHTO    N8 4481   5.641   6.321   1.395
   11CHTO   H75 4482   5.704   6.306   1.309
   11CHTO   H76 4483   5.631   6.228   1.450
   11CHTO   C43 4484   5.595   6.551   1.502
   11CHTO   H85 4485   5.574   6.589   1.402
   11CHTO   O29 4486   5.652   6.653   1.587
   11CHTO   C50 4487   5.716   6.614   1.710
   11CHTO   H92 4488   5.776   6.701   1.743
   11CHTO   C54 4489   5.611   6.601   1.824
   11CHTO   O36 4490   5.671   6.575   1.952
   11CHTO   H72 4491   5.709   6.489   1.953
   11CHTO   O27 4492   5.468   6.508   1.554
   11CHTO   C37 4493   5.333   6.535   1.594
   11CHTO   H79 4494   5.331   6.579   1.694
   11CHTO   C38 4495   5.265   6.636   1.497
   11CHTO   H80 4496   5.274   6.598   1.394
   11CHTO   O31 4497   5.336   6.761   1.505
   11CHTO   H68 4498   5.329   6.798   1.591
   11CHTO   C39 4499   5.112   6.655   1.532
   11CHTO   H81 4500   5.107   6.709   1.627
   11CHTO    N7 4501   5.037   6.738   1.431
   11CHTO   H73 4502   5.039   6.690   1.334
   11CHTO   H74 4503   4.935   6.753   1.463
   11CHTO   C40 4504   5.040   6.516   1.555
   11CHTO   H82 4505   5.020   6.467   1.459
   11CHTO   O26 4506   5.117   6.432   1.642
   11CHTO   C41 4507   5.252   6.404   1.595
   11CHTO   H83 4508   5.248   6.362   1.493
   11CHTO   C52 4509   5.315   6.297   1.687
   11CHTO   O35 4510   5.243   6.167   1.681
   11CHTO   H71 4511   5.252   6.129   1.596
   11CHTO   O28 4512   4.916   6.530   1.628
   11CHTO   C42 4513   4.816   6.424   1.623
   11CHTO   H84 4514   4.865   6.339   1.576
   11CHTO   C44 4515   4.689   6.454   1.538
   11CHTO   H86 4516   4.633   6.534   1.586
   11CHTO   O32 4517   4.734   6.499   1.409
   11CHTO   H69 4518   4.661   6.528   1.358
   11CHTO   C48 4519   4.597   6.326   1.527
   11CHTO   H90 4520   4.651   6.252   1.468
   11CHTO    N9 4521   4.469   6.352   1.452
   11CHTO   H77 4522   4.413   6.430   1.501
   11CHTO   H78 4523   4.492   6.382   1.350
   11CHTO   C51 4524   4.568   6.262   1.669
   11CHTO   H93 4525   4.494   6.324   1.721
   11CHTO   O30 4526   4.688   6.249   1.746
   11CHTO   C46 4527   4.768   6.376   1.764
   11CHTO   H88 4528   4.703   6.452   1.808
   11CHTO   C53 4529   4.885   6.347   1.861
   11CHTO   O72 4530   4.966   6.238   1.816
   11CHTO  H199 4531   5.034   6.222   1.879
   11CHTO   O22 4532   4.520   6.127   1.653
   11CHTO   C31 4533   4.464   6.050   1.765
   11CHTO   H59 4534   4.501   6.099   1.858
   11CHTO   C29 4535   4.310   6.054   1.770
   11CHTO   H57 4536   4.273   6.018   1.672
   11CHTO   O21 4537   4.269   6.192   1.780
   11CHTO   H37 4538   4.292   6.227   1.864
   11CHTO   C27 4539   4.250   5.963   1.884
   11CHTO   H55 4540   4.281   6.005   1.981
   11CHTO    N5 4541   4.102   5.955   1.881
   11CHTO   H43 4542   4.060   6.054   1.893
   11CHTO   H44 4543   4.069   5.912   1.788
   11CHTO   C25 4544   4.314   5.820   1.873
   11CHTO   H53 4545   4.287   5.775   1.776
   11CHTO   O17 4546   4.459   5.831   1.879
   11CHTO   C32 4547   4.517   5.903   1.769
   11CHTO   H60 4548   4.492   5.854   1.675
   11CHTO   C36 4549   4.670   5.896   1.791
   11CHTO   O25 4550   4.743   5.950   1.681
   11CHTO   H40 4551   4.835   5.950   1.701
   11CHTO   O15 4552   4.266   5.722   1.991
   11CHTO   C19 4553   4.262   5.576   1.999
   11CHTO   H47 4554   4.244   5.545   1.895
   11CHTO   C20 4555   4.395   5.510   2.048
   11CHTO   H48 4556   4.425   5.549   2.146
   11CHTO   O19 4557   4.497   5.546   1.953
   11CHTO   H35 4558   4.516   5.638   1.959
   11CHTO   C21 4559   4.383   5.353   2.059
   11CHTO   H49 4560   4.372   5.311   1.958
   11CHTO    N4 4561   4.505   5.290   2.118
   11CHTO   H41 4562   4.591   5.312   2.057
   11CHTO   H42 4563   4.492   5.183   2.124
   11CHTO   C22 4564   4.253   5.315   2.137
   11CHTO   H50 4565   4.265   5.352   2.239
   11CHTO   O14 4566   4.138   5.379   2.078
   11CHTO   C23 4567   4.141   5.522   2.081
   11CHTO   H51 4568   4.147   5.553   2.187
   11CHTO   C34 4569   4.007   5.575   2.028
   11CHTO   O23 4570   3.979   5.532   1.894
   11CHTO   H38 4571   3.898   5.569   1.865
   11CHTO   O16 4572   4.232   5.172   2.142
   11CHTO   C24 4573   4.126   5.099   2.039
   11CHTO   H52 4574   4.092   5.166   1.960
   11CHTO   C26 4575   4.005   5.051   2.123
   11CHTO   H54 4576   4.044   4.993   2.210
   11CHTO   O20 4577   3.937   5.167   2.173
   11CHTO   H36 4578   3.989   5.211   2.237
   11CHTO   C30 4579   3.910   4.958   2.041
   11CHTO   H58 4580   3.859   5.019   1.965
   11CHTO    N6 4581   3.803   4.901   2.127
   11CHTO   H45 4582   3.847   4.839   2.205
   11CHTO   H46 4583   3.736   4.840   2.068
   11CHTO   C33 4584   3.992   4.848   1.966
   11CHTO   H61 4585   4.040   4.783   2.041
   11CHTO   O18 4586   4.096   4.911   1.889
   11CHTO   C28 4587   4.194   4.978   1.970
   11CHTO   H56 4588   4.232   4.910   2.047
   11CHTO   C35 4589   4.314   5.020   1.882
   11CHTO   O24 4590   4.279   5.106   1.773
   11CHTO   H39 4591   4.355   5.127   1.724
   11CHTO    O9 4592   3.913   4.757   1.885
   11CHTO   C13 4593   3.814   4.821   1.772
   11CHTO   H26 4594   3.779   4.920   1.807
   11CHTO   C11 4595   3.692   4.723   1.746
   11CHTO   H24 4596   3.642   4.703   1.842
   11CHTO    O8 4597   3.744   4.597   1.698
   11CHTO    H3 4598   3.794   4.555   1.765
   11CHTO    C9 4599   3.590   4.796   1.653
   11CHTO   H22 4600   3.532   4.861   1.721
   11CHTO    N2 4601   3.485   4.706   1.597
   11CHTO   H10 4602   3.440   4.648   1.675
   11CHTO   H11 4603   3.529   4.641   1.522
   11CHTO    C7 4604   3.665   4.891   1.550
   11CHTO   H20 4605   3.672   4.987   1.606
   11CHTO    O4 4606   3.797   4.842   1.521
   11CHTO   C14 4607   3.887   4.850   1.633
   11CHTO   H27 4608   3.929   4.952   1.636
   11CHTO   C18 4609   4.006   4.753   1.607
   11CHTO   O13 4610   4.080   4.789   1.490
   11CHTO    H7 4611   4.030   4.770   1.413
   11CHTO    O2 4612   3.587   4.920   1.411
   11CHTO    C1 4613   3.525   5.050   1.403
   11CHTO   H14 4614   3.597   5.126   1.440
   11CHTO    C2 4615   3.390   5.064   1.486
   11CHTO   H15 4616   3.332   4.972   1.465
   11CHTO    O6 4617   3.421   5.069   1.626
   11CHTO    H1 4618   3.474   5.143   1.646
   11CHTO    C3 4619   3.304   5.193   1.442
   11CHTO   H16 4620   3.358   5.284   1.473
   11CHTO    N1 4621   3.170   5.196   1.510
   11CHTO    H8 4622   3.089   5.194   1.438
   11CHTO    H9 4623   3.161   5.284   1.572
   11CHTO    C4 4624   3.295   5.199   1.286
   11CHTO   H17 4625   3.240   5.112   1.250
   11CHTO    O1 4626   3.428   5.202   1.230
   11CHTO    C5 4627   3.503   5.081   1.252
   11CHTO   H18 4628   3.449   4.997   1.208
   11CHTO   C16 4629   3.638   5.098   1.177
   11CHTO   O11 4630   3.713   5.210   1.225
   11CHTO    H5 4631   3.790   5.220   1.173
   11CHTO    O3 4632   3.234   5.321   1.239
   11CHTO    C6 4633   3.151   5.308   1.118
   11CHTO   H19 4634   3.155   5.208   1.074
   11CHTO    C8 4635   3.002   5.339   1.152
   11CHTO   H21 4636   2.998   5.434   1.205
   11CHTO    O7 4637   2.957   5.233   1.240
   11CHTO    H2 4638   2.871   5.252   1.271
   11CHTO   C12 4639   2.914   5.348   1.021
   11CHTO   H25 4640   2.911   5.245   0.978
   11CHTO    N3 4641   2.773   5.387   1.052
   11CHTO   H12 4642   2.729   5.314   1.119
   11CHTO   H13 4643   2.715   5.393   0.961
   11CHTO   C15 4644   2.984   5.444   0.917
   11CHTO   H28 4645   2.983   5.547   0.952
   11CHTO   O10 4646   2.922   5.436   0.777
   11CHTO    H4 4647   2.834   5.467   0.779
   11CHTO    O5 4648   3.119   5.402   0.892
   11CHTO   C10 4649   3.202   5.407   1.009
   11CHTO   H23 4650   3.202   5.509   1.048
   11CHTO   C17 4651   3.346   5.376   0.964
   11CHTO   O12 4652   3.360   5.244   0.910
   11CHTO    H6 4653   3.312   5.237   0.830
   12CHTO  H203 4654   5.292   1.573   0.120
   12CHTO   O82 4655   5.208   1.541   0.146
   12CHTO  C123 4656   5.217   1.471   0.271
   12CHTO  H227 4657   5.258   1.539   0.347
   12CHTO   O77 4658   5.077   1.442   0.301
   12CHTO  C118 4659   5.056   1.373   0.425
   12CHTO  H222 4660   5.101   1.428   0.509
   12CHTO  C125 4661   4.901   1.360   0.450
   12CHTO   O84 4662   4.840   1.489   0.466
   12CHTO  H205 4663   4.748   1.479   0.484
   12CHTO  C114 4664   5.121   1.234   0.415
   12CHTO  H218 4665   5.076   1.180   0.332
   12CHTO  C116 4666   5.274   1.247   0.387
   12CHTO  H220 4667   5.323   1.292   0.477
   12CHTO   O79 4668   5.331   1.116   0.371
   12CHTO  H201 4669   5.327   1.068   0.452
   12CHTO  C120 4670   5.300   1.337   0.260
   12CHTO  H224 4671   5.265   1.279   0.172
   12CHTO   N21 4672   5.445   1.365   0.239
   12CHTO  H211 4673   5.489   1.288   0.178
   12CHTO  H212 4674   5.496   1.373   0.334
   12CHTO   O75 4675   5.090   1.169   0.540
   12CHTO  C112 4676   5.076   1.000   0.541
   12CHTO  H216 4677   5.151   0.959   0.611
   12CHTO   O73 4678   5.097   0.951   0.407
   12CHTO  C113 4679   5.103   0.808   0.399
   12CHTO  H217 4680   5.185   0.771   0.465
   12CHTO  C124 4681   5.139   0.768   0.255
   12CHTO   O83 4682   5.269   0.813   0.216
   12CHTO  H204 4683   5.334   0.762   0.259
   12CHTO  C109 4684   4.968   0.744   0.443
   12CHTO  H213 4685   4.894   0.770   0.365
   12CHTO  C110 4686   4.922   0.800   0.582
   12CHTO  H214 4687   4.986   0.755   0.659
   12CHTO   O78 4688   4.788   0.755   0.607
   12CHTO  H200 4689   4.786   0.662   0.618
   12CHTO  C111 4690   4.932   0.955   0.588
   12CHTO  H215 4691   4.859   0.998   0.518
   12CHTO   N19 4692   4.902   1.011   0.722
   12CHTO  H207 4693   4.801   0.984   0.751
   12CHTO  H208 4694   4.910   1.119   0.720
   12CHTO   O74 4695   4.984   0.599   0.448
   12CHTO  C115 4696   4.857   0.516   0.395
   12CHTO  H219 4697   4.765   0.548   0.443
   12CHTO   O76 4698   4.834   0.537   0.240
   12CHTO  C122 4699   4.731   0.457   0.181
   12CHTO  H226 4700   4.739   0.469   0.073
   12CHTO  C126 4701   4.588   0.512   0.219
   12CHTO   O85 4702   4.566   0.646   0.173
   12CHTO  H206 4703   4.623   0.705   0.219
   12CHTO  C121 4704   4.746   0.304   0.215
   12CHTO  H225 4705   4.655   0.252   0.179
   12CHTO   O81 4706   4.858   0.249   0.144
   12CHTO  H202 4707   4.844   0.255   0.052
   12CHTO  C119 4708   4.760   0.279   0.369
   12CHTO  H223 4709   4.668   0.315   0.414
   12CHTO  C117 4710   4.879   0.363   0.430
   12CHTO  H221 4711   4.978   0.340   0.391
   12CHTO   N20 4712   4.890   0.343   0.578
   12CHTO  H209 4713   4.878   0.436   0.632
   12CHTO  H210 4714   4.819   0.269   0.614
   12CHTO   O80 4715   4.758   0.122   0.408
   12CHTO  C103 4716   4.619   0.051   0.441
   12CHTO  H190 4717   4.549   0.123   0.483
   12CHTO  C101 4718   4.550   9.974   0.322
   12CHTO  H188 4719   4.626   9.915   0.270
   12CHTO   O68 4720   4.493   0.078   0.222
   12CHTO  H168 4721   4.562   0.130   0.186
   12CHTO   C99 4722   4.435   9.876   0.374
   12CHTO  H186 4723   4.353   9.937   0.417
   12CHTO   N17 4724   4.374   9.791   0.265
   12CHTO  H174 4725   4.338   9.854   0.185
   12CHTO  H175 4726   4.293   9.732   0.306
   12CHTO   C97 4727   4.489   9.788   0.490
   12CHTO  H184 4728   4.567   9.721   0.450
   12CHTO   O64 4729   4.540   9.873   0.594
   12CHTO  C104 4730   4.655   9.950   0.557
   12CHTO  H191 4731   4.738   9.886   0.524
   12CHTO  C108 4732   4.705   0.024   0.681
   12CHTO   O71 4733   4.742   9.933   0.785
   12CHTO  H171 4734   4.666   9.889   0.819
   12CHTO   O62 4735   4.385   9.714   0.558
   12CHTO   C91 4736   4.418   9.579   0.594
   12CHTO  H178 4737   4.465   9.533   0.507
   12CHTO   C92 4738   4.286   9.499   0.620
   12CHTO  H179 4739   4.215   9.517   0.537
   12CHTO   O66 4740   4.318   9.359   0.613
   12CHTO  H166 4741   4.381   9.336   0.678
   12CHTO   C93 4742   4.221   9.527   0.761
   12CHTO  H180 4743   4.152   9.444   0.780
   12CHTO   N16 4744   4.135   9.648   0.763
   12CHTO  H172 4745   4.193   9.736   0.740
   12CHTO  H173 4746   4.088   9.658   0.860
   12CHTO   C94 4747   4.331   9.530   0.875
   12CHTO  H181 4748   4.345   9.630   0.916
   12CHTO   O61 4749   4.460   9.487   0.828
   12CHTO   C95 4750   4.515   9.565   0.721
   12CHTO  H182 4751   4.538   9.665   0.759
   12CHTO  C106 4752   4.653   9.502   0.681
   12CHTO   O69 4753   4.639   9.365   0.639
   12CHTO  H169 4754   4.723   9.331   0.613
   12CHTO   O63 4755   4.285   9.430   0.991
   12CHTO   C96 4756   4.335   9.475   1.133
   12CHTO  H183 4757   4.300   9.578   1.148
   12CHTO   C98 4758   4.490   9.475   1.153
   12CHTO  H185 4759   4.540   9.529   1.072
   12CHTO   O67 4760   4.519   9.549   1.272
   12CHTO  H167 4761   4.500   9.640   1.259
   12CHTO  C102 4762   4.550   9.327   1.171
   12CHTO  H189 4763   4.649   9.341   1.215
   12CHTO   N18 4764   4.574   9.255   1.044
   12CHTO  H176 4765   4.481   9.242   0.990
   12CHTO  H177 4766   4.618   9.158   1.064
   12CHTO  C105 4767   4.462   9.245   1.271
   12CHTO  H192 4768   4.412   9.164   1.218
   12CHTO   O65 4769   4.358   9.322   1.335
   12CHTO  C100 4770   4.264   9.381   1.242
   12CHTO  H187 4771   4.212   9.300   1.190
   12CHTO  C107 4772   4.158   9.458   1.325
   12CHTO   O70 4773   4.054   9.511   1.243
   12CHTO  H170 4774   4.003   9.441   1.206
   12CHTO   O57 4775   4.570   9.180   1.376
   12CHTO   C85 4776   4.592   9.234   1.508
   12CHTO  H157 4777   4.494   9.273   1.543
   12CHTO   C83 4778   4.688   9.357   1.503
   12CHTO  H155 4779   4.642   9.434   1.441
   12CHTO   O56 4780   4.811   9.320   1.437
   12CHTO  H135 4781   4.795   9.296   1.348
   12CHTO   C81 4782   4.707   9.413   1.646
   12CHTO  H153 4783   4.608   9.436   1.687
   12CHTO   N14 4784   4.779   9.542   1.651
   12CHTO  H141 4785   4.731   9.614   1.588
   12CHTO  H142 4786   4.781   9.580   1.751
   12CHTO   C79 4787   4.772   9.303   1.738
   12CHTO  H151 4788   4.773   9.343   1.840
   12CHTO   O52 4789   4.688   9.183   1.741
   12CHTO   C86 4790   4.653   9.129   1.610
   12CHTO  H158 4791   4.749   9.089   1.571
   12CHTO   C90 4792   4.560   9.007   1.627
   12CHTO   O60 4793   4.442   9.041   1.699
   12CHTO  H138 4794   4.387   8.965   1.707
   12CHTO   O50 4795   4.906   9.266   1.702
   12CHTO   C73 4796   5.006   9.222   1.796
   12CHTO  H145 4797   4.958   9.175   1.883
   12CHTO   C74 4798   5.091   9.343   1.845
   12CHTO  H146 4799   5.020   9.416   1.887
   12CHTO   O54 4800   5.173   9.299   1.956
   12CHTO  H133 4801   5.235   9.235   1.927
   12CHTO   C75 4802   5.173   9.402   1.724
   12CHTO  H147 4803   5.102   9.437   1.648
   12CHTO   N13 4804   5.256   9.520   1.759
   12CHTO  H139 4805   5.326   9.494   1.836
   12CHTO  H140 4806   5.192   9.600   1.795
   12CHTO   C76 4807   5.260   9.285   1.657
   12CHTO  H148 4808   5.331   9.250   1.732
   12CHTO   O49 4809   5.172   9.174   1.618
   12CHTO   C77 4810   5.099   9.116   1.728
   12CHTO  H149 4811   5.169   9.078   1.803
   12CHTO   C88 4812   5.022   8.994   1.677
   12CHTO   O58 4813   4.954   8.923   1.784
   12CHTO  H136 4814   5.016   8.882   1.840
   12CHTO   O51 4815   5.334   9.336   1.519
   12CHTO   C78 4816   5.433   9.227   1.455
   12CHTO  H150 4817   5.393   9.124   1.470
   12CHTO   C80 4818   5.574   9.235   1.518
   12CHTO  H152 4819   5.612   9.340   1.508
   12CHTO   O55 4820   5.564   9.206   1.659
   12CHTO  H134 4821   5.534   9.118   1.672
   12CHTO   C84 4822   5.675   9.136   1.445
   12CHTO  H156 4823   5.642   9.034   1.467
   12CHTO   N15 4824   5.816   9.148   1.497
   12CHTO  H143 4825   5.879   9.078   1.446
   12CHTO  H144 4826   5.818   9.127   1.602
   12CHTO   C87 4827   5.669   9.157   1.292
   12CHTO  H159 4828   5.710   9.255   1.268
   12CHTO   O53 4829   5.526   9.148   1.246
   12CHTO   C82 4830   5.444   9.251   1.304
   12CHTO  H154 4831   5.486   9.350   1.283
   12CHTO   C89 4832   5.305   9.247   1.236
   12CHTO   O59 4833   5.317   9.267   1.094
   12CHTO  H137 4834   5.343   9.355   1.076
   12CHTO   O45 4835   5.756   9.037   1.211
   12CHTO   C67 4836   5.785   9.053   1.071
   12CHTO  H124 4837   5.868   8.985   1.048
   12CHTO   C65 4838   5.663   9.013   0.980
   12CHTO  H122 4839   5.573   9.033   1.038
   12CHTO   O44 4840   5.673   8.871   0.960
   12CHTO  H102 4841   5.596   8.839   0.918
   12CHTO   C63 4842   5.649   9.102   0.850
   12CHTO  H120 4843   5.607   9.198   0.879
   12CHTO   N11 4844   5.548   9.056   0.749
   12CHTO  H108 4845   5.581   8.964   0.704
   12CHTO  H109 4846   5.453   9.041   0.796
   12CHTO   C61 4847   5.792   9.131   0.793
   12CHTO  H118 4848   5.778   9.198   0.706
   12CHTO   O40 4849   5.873   9.206   0.890
   12CHTO   C68 4850   5.837   9.197   1.032
   12CHTO  H125 4851   5.758   9.271   1.052
   12CHTO   C72 4852   5.961   9.240   1.114
   12CHTO   O48 4853   5.987   9.380   1.099
   12CHTO  H105 4854   6.062   9.403   1.149
   12CHTO   O38 4855   5.857   9.010   0.746
   12CHTO   C55 4856   5.999   8.989   0.765
   12CHTO  H112 4857   6.027   9.017   0.867
   12CHTO   C56 4858   6.086   9.067   0.656
   12CHTO  H113 4859   6.050   9.036   0.557
   12CHTO   O42 4860   6.062   9.209   0.665
   12CHTO  H100 4861   5.973   9.228   0.643
   12CHTO   C57 4862   6.239   9.034   0.673
   12CHTO  H114 4863   6.271   9.080   0.766
   12CHTO   N10 4864   6.326   9.091   0.566
   12CHTO  H106 4865   6.333   9.023   0.482
   12CHTO  H107 4866   6.286   9.185   0.531
   12CHTO   C58 4867   6.260   8.880   0.684
   12CHTO  H115 4868   6.244   8.833   0.584
   12CHTO   O37 4869   6.172   8.821   0.780
   12CHTO   C59 4870   6.033   8.838   0.752
   12CHTO  H116 4871   6.010   8.802   0.652
   12CHTO   C70 4872   5.954   8.754   0.853
   12CHTO   O46 4873   5.979   8.614   0.836
   12CHTO  H103 4874   5.929   8.565   0.899
   12CHTO   O39 4875   6.408   8.847   0.739
   12CHTO   C60 4876   6.450   8.712   0.711
   12CHTO  H117 4877   6.365   8.652   0.679
   12CHTO   C62 4878   6.555   8.711   0.596
   12CHTO  H119 4879   6.504   8.753   0.507
   12CHTO   O43 4880   6.666   8.797   0.630
   12CHTO  H101 4881   6.638   8.887   0.632
   12CHTO   C66 4882   6.600   8.560   0.565
   12CHTO  H123 4883   6.510   8.502   0.542
   12CHTO   N12 4884   6.688   8.548   0.447
   12CHTO  H110 4885   6.642   8.487   0.371
   12CHTO  H111 4886   6.714   8.646   0.407
   12CHTO   C69 4887   6.662   8.498   0.693
   12CHTO  H126 4888   6.755   8.553   0.722
   12CHTO   O41 4889   6.559   8.505   0.811
   12CHTO   C64 4890   6.507   8.646   0.840
   12CHTO  H121 4891   6.590   8.709   0.879
   12CHTO   C71 4892   6.398   8.636   0.949
   12CHTO   O47 4893   6.451   8.590   1.073
   12CHTO  H104 4894   6.478   8.500   1.065
   12CHTO   O34 4895   6.698   8.351   0.673
   12CHTO   C49 4896   6.754   8.219   0.706
   12CHTO   H91 4897   6.863   8.228   0.699
   12CHTO   C47 4898   6.702   8.118   0.601
   12CHTO   H89 4899   6.758   8.024   0.624
   12CHTO   O33 4900   6.738   8.159   0.468
   12CHTO   H70 4901   6.695   8.239   0.446
   12CHTO   C45 4902   6.542   8.096   0.615
   12CHTO   H87 4903   6.492   8.162   0.542
   12CHTO    N8 4904   6.511   7.956   0.578
   12CHTO   H75 4905   6.404   7.940   0.582
   12CHTO   H76 4906   6.548   7.934   0.479
   12CHTO   C43 4907   6.489   8.146   0.759
   12CHTO   H85 4908   6.479   8.254   0.751
   12CHTO   O29 4909   6.582   8.108   0.862
   12CHTO   C50 4910   6.714   8.166   0.848
   12CHTO   H92 4911   6.722   8.250   0.918
   12CHTO   C54 4912   6.820   8.065   0.899
   12CHTO   O36 4913   6.792   8.020   1.032
   12CHTO   H72 4914   6.858   7.959   1.058
   12CHTO   O27 4915   6.355   8.102   0.791
   12CHTO   C37 4916   6.247   8.130   0.881
   12CHTO   H79 4917   6.175   8.047   0.880
   12CHTO   C38 4918   6.297   8.143   1.028
   12CHTO   H80 4919   6.377   8.219   1.031
   12CHTO   O31 4920   6.355   8.017   1.067
   12CHTO   H68 4921   6.289   7.949   1.067
   12CHTO   C39 4922   6.181   8.186   1.126
   12CHTO   H81 4923   6.114   8.100   1.135
   12CHTO    N7 4924   6.231   8.217   1.265
   12CHTO   H73 4925   6.281   8.131   1.306
   12CHTO   H74 4926   6.148   8.244   1.328
   12CHTO   C40 4927   6.096   8.306   1.069
   12CHTO   H82 4928   6.148   8.401   1.082
   12CHTO   O26 4929   6.061   8.283   0.931
   12CHTO   C41 4930   6.174   8.260   0.841
   12CHTO   H83 4931   6.244   8.345   0.848
   12CHTO   C52 4932   6.121   8.253   0.696
   12CHTO   O35 4933   6.058   8.378   0.654
   12CHTO   H71 4934   6.026   8.369   0.566
   12CHTO   O28 4935   5.967   8.313   1.135
   12CHTO   C42 4936   5.883   8.433   1.129
   12CHTO   H84 4937   5.919   8.489   1.044
   12CHTO   C44 4938   5.893   8.529   1.252
   12CHTO   H86 4939   5.869   8.472   1.342
   12CHTO   O32 4940   6.030   8.572   1.261
   12CHTO   H69 4941   6.085   8.500   1.287
   12CHTO   C48 4942   5.794   8.653   1.244
   12CHTO   H90 4943   5.831   8.719   1.166
   12CHTO    N9 4944   5.794   8.734   1.370
   12CHTO   H77 4945   5.728   8.819   1.359
   12CHTO   H78 4946   5.763   8.673   1.453
   12CHTO   C51 4947   5.649   8.607   1.203
   12CHTO   H93 4948   5.603   8.554   1.287
   12CHTO   O30 4949   5.656   8.525   1.085
   12CHTO   C46 4950   5.733   8.399   1.102
   12CHTO   H88 4951   5.692   8.344   1.186
   12CHTO   C53 4952   5.713   8.317   0.972
   12CHTO   O72 4953   5.760   8.385   0.856
   12CHTO  H199 4954   5.745   8.332   0.780
   12CHTO   O22 4955   5.567   8.720   1.164
   12CHTO   C31 4956   5.419   8.718   1.161
   12CHTO   H59 4957   5.388   8.618   1.201
   12CHTO   C29 4958   5.355   8.825   1.252
   12CHTO   H57 4959   5.384   8.923   1.211
   12CHTO   O21 4960   5.413   8.815   1.383
   12CHTO   H37 4961   5.386   8.888   1.436
   12CHTO   C27 4962   5.197   8.814   1.252
   12CHTO   H55 4963   5.169   8.717   1.294
   12CHTO    N5 4964   5.131   8.921   1.331
   12CHTO   H43 4965   5.164   8.917   1.434
   12CHTO   H44 4966   5.155   9.018   1.289
   12CHTO   C25 4967   5.146   8.817   1.104
   12CHTO   H53 4968   5.169   8.915   1.059
   12CHTO   O17 4969   5.214   8.715   1.025
   12CHTO   C32 4970   5.357   8.730   1.018
   12CHTO   H60 4971   5.381   8.829   0.978
   12CHTO   C36 4972   5.410   8.624   0.919
   12CHTO   O25 4973   5.361   8.648   0.787
   12CHTO   H40 4974   5.392   8.580   0.729
   12CHTO   O15 4975   4.987   8.790   1.093
   12CHTO   C19 4976   4.892   8.866   1.012
   12CHTO   H47 4977   4.914   8.971   1.038
   12CHTO   C20 4978   4.909   8.849   0.858
   12CHTO   H48 4979   4.891   8.746   0.826
   12CHTO   O19 4980   5.046   8.883   0.826
   12CHTO   H35 4981   5.064   8.864   0.736
   12CHTO   C21 4982   4.809   8.944   0.780
   12CHTO   H49 4983   4.835   9.048   0.802
   12CHTO    N4 4984   4.817   8.930   0.631
   12CHTO   H41 4985   4.891   8.856   0.603
   12CHTO   H42 4986   4.844   9.024   0.586
   12CHTO   C22 4987   4.665   8.923   0.832
   12CHTO   H50 4988   4.629   8.825   0.800
   12CHTO   O14 4989   4.659   8.932   0.976
   12CHTO   C23 4990   4.743   8.842   1.050
   12CHTO   H51 4991   4.711   8.739   1.026
   12CHTO   C34 4992   4.720   8.866   1.200
   12CHTO   O23 4993   4.586   8.836   1.238
   12CHTO   H38 4994   4.575   8.852   1.329
   12CHTO   O16 4995   4.577   9.028   0.787
   12CHTO   C24 4996   4.421   8.988   0.743
   12CHTO   H52 4997   4.359   9.077   0.729
   12CHTO   C26 4998   4.353   8.901   0.850
   12CHTO   H54 4999   4.419   8.815   0.873
   12CHTO   O20 5000   4.340   8.982   0.969
   12CHTO   H36 5001   4.307   8.930   1.040
   12CHTO   C30 5002   4.216   8.846   0.799
   12CHTO   H58 5003   4.146   8.929   0.781
   12CHTO    N6 5004   4.151   8.759   0.901
   12CHTO   H45 5005   4.055   8.724   0.864
   12CHTO   H46 5006   4.213   8.673   0.923
   12CHTO   C33 5007   4.239   8.774   0.663
   12CHTO   H61 5008   4.312   8.692   0.677
   12CHTO   O18 5009   4.294   8.869   0.570
   12CHTO   C28 5010   4.425   8.916   0.605
   12CHTO   H56 5011   4.496   8.833   0.611
   12CHTO   C35 5012   4.472   9.015   0.495
   12CHTO   O24 5013   4.490   8.952   0.368
   12CHTO   H39 5014   4.565   8.895   0.371
   12CHTO    O9 5015   4.120   8.711   0.610
   12CHTO   C13 5016   4.149   8.598   0.491
   12CHTO   H26 5017   4.225   8.640   0.421
   12CHTO   C11 5018   4.012   8.569   0.416
   12CHTO   H24 5019   3.987   8.658   0.356
   12CHTO    O8 5020   3.906   8.552   0.512
   12CHTO    H3 5021   3.921   8.475   0.564
   12CHTO    C9 5022   4.030   8.448   0.320
   12CHTO   H22 5023   4.113   8.476   0.252
   12CHTO    N2 5024   3.915   8.424   0.230
   12CHTO   H10 5025   3.891   8.514   0.175
   12CHTO   H11 5026   3.938   8.344   0.161
   12CHTO    C7 5027   4.074   8.322   0.403
   12CHTO   H20 5028   4.089   8.241   0.327
   12CHTO    O4 5029   4.200   8.348   0.468
   12CHTO   C14 5030   4.214   8.465   0.551
   12CHTO   H27 5031   4.324   8.483   0.557
   12CHTO   C18 5032   4.166   8.433   0.695
   12CHTO   O13 5033   4.251   8.337   0.759
   12CHTO    H7 5034   4.245   8.255   0.715
   12CHTO    O2 5035   3.962   8.276   0.516
   12CHTO    C1 5036   3.913   8.141   0.510
   12CHTO   H14 5037   3.947   8.092   0.417
   12CHTO    C2 5038   3.754   8.137   0.515
   12CHTO   H15 5039   3.724   8.202   0.598
   12CHTO    O6 5040   3.703   8.191   0.392
   12CHTO    H1 5041   3.722   8.283   0.386
   12CHTO    C3 5042   3.698   7.988   0.540
   12CHTO   H16 5043   3.719   7.927   0.451
   12CHTO    N1 5044   3.550   7.986   0.561
   12CHTO    H8 5045   3.499   8.025   0.474
   12CHTO    H9 5046   3.524   8.046   0.647
   12CHTO    C4 5047   3.777   7.921   0.658
   12CHTO   H17 5048   3.753   7.974   0.751
   12CHTO    O1 5049   3.918   7.926   0.633
   12CHTO    C5 5050   3.972   8.059   0.629
   12CHTO   H18 5051   3.947   8.112   0.722
   12CHTO   C16 5052   4.126   8.045   0.620
   12CHTO   O11 5053   4.180   7.987   0.739
   12CHTO    H5 5054   4.155   7.897   0.746
   12CHTO    O3 5055   3.745   7.780   0.672
   12CHTO    C6 5056   3.784   7.720   0.800
   12CHTO   H19 5057   3.859   7.778   0.853
   12CHTO    C8 5058   3.659   7.705   0.893
   12CHTO   H21 5059   3.582   7.651   0.838
   12CHTO    O7 5060   3.613   7.838   0.923
   12CHTO    H2 5061   3.531   7.834   0.969
   12CHTO   C12 5062   3.697   7.625   1.024
   12CHTO   H25 5063   3.768   7.688   1.080
   12CHTO    N3 5064   3.577   7.604   1.112
   12CHTO   H12 5065   3.606   7.552   1.202
   12CHTO   H13 5066   3.501   7.549   1.059
   12CHTO   C15 5067   3.769   7.491   0.985
   12CHTO   H28 5068   3.701   7.421   0.936
   12CHTO   O10 5069   3.835   7.420   1.105
   12CHTO    H4 5070   3.891   7.480   1.152
   12CHTO    O5 5071   3.882   7.517   0.899
   12CHTO   C10 5072   3.847   7.579   0.774
   12CHTO   H23 5073   3.776   7.515   0.721
   12CHTO   C17 5074   3.976   7.584   0.691
   12CHTO   O12 5075   3.952   7.622   0.555
   12CHTO    H6 5076   3.908   7.553   0.510
   13CHTO  H203 5077   7.185   4.051   2.627
   13CHTO   O82 5078   7.092   4.054   2.619
   13CHTO  C123 5079   7.051   4.177   2.559
   13CHTO  H227 5080   7.095   4.185   2.459
   13CHTO   O77 5081   6.906   4.161   2.548
   13CHTO  C118 5082   6.838   4.272   2.486
   13CHTO  H222 5083   6.882   4.293   2.388
   13CHTO  C125 5084   6.688   4.230   2.466
   13CHTO   O84 5085   6.676   4.121   2.375
   13CHTO  H205 5086   6.586   4.097   2.366
   13CHTO  C114 5087   6.853   4.396   2.577
   13CHTO  H218 5088   6.813   4.372   2.676
   13CHTO  C116 5089   7.004   4.429   2.596
   13CHTO  H220 5090   7.046   4.464   2.499
   13CHTO   O79 5091   7.017   4.539   2.688
   13CHTO  H201 5092   6.982   4.618   2.650
   13CHTO  C120 5093   7.085   4.303   2.648
   13CHTO  H224 5094   7.051   4.285   2.753
   13CHTO   N21 5095   7.232   4.327   2.653
   13CHTO  H211 5096   7.276   4.267   2.731
   13CHTO  H212 5097   7.252   4.432   2.671
   13CHTO   O75 5098   6.778   4.502   2.515
   13CHTO  C112 5099   6.641   4.550   2.603
   13CHTO  H216 5100   6.640   4.496   2.699
   13CHTO   O73 5101   6.526   4.519   2.523
   13CHTO  C113 5102   6.403   4.533   2.596
   13CHTO  H217 5103   6.407   4.465   2.683
   13CHTO  C124 5104   6.287   4.482   2.508
   13CHTO   O83 5105   6.273   4.552   2.385
   13CHTO  H204 5106   6.201   4.516   2.336
   13CHTO  C109 5107   6.379   4.678   2.646
   13CHTO  H213 5108   6.354   4.739   2.558
   13CHTO  C110 5109   6.508   4.735   2.716
   13CHTO  H214 5110   6.517   4.689   2.814
   13CHTO   O78 5111   6.493   4.876   2.738
   13CHTO  H200 5112   6.484   4.922   2.656
   13CHTO  C111 5113   6.637   4.705   2.633
   13CHTO  H215 5114   6.630   4.758   2.536
   13CHTO   N19 5115   6.763   4.749   2.697
   13CHTO  H207 5116   6.815   4.820   2.634
   13CHTO  H208 5117   6.744   4.794   2.794
   13CHTO   O74 5118   6.265   4.677   2.737
   13CHTO  C115 5119   6.187   4.815   2.759
   13CHTO  H219 5120   6.253   4.901   2.747
   13CHTO   O76 5121   6.073   4.836   2.653
   13CHTO  C122 5122   5.980   4.727   2.650
   13CHTO  H226 5123   6.029   4.644   2.599
   13CHTO  C126 5124   5.857   4.766   2.561
   13CHTO   O85 5125   5.893   4.794   2.426
   13CHTO  H206 5126   5.942   4.874   2.422
   13CHTO  C121 5127   5.932   4.681   2.795
   13CHTO  H225 5128   5.822   4.671   2.795
   13CHTO   O81 5129   5.986   4.551   2.825
   13CHTO  H202 5130   5.954   4.488   2.764
   13CHTO  C119 5131   5.973   4.784   0.027
   13CHTO  H223 5132   5.922   4.877   0.000
   13CHTO  C117 5133   6.129   4.811   0.029
   13CHTO  H221 5134   6.187   4.734   0.079
   13CHTO   N20 5135   6.161   4.937   0.104
   13CHTO  H209 5136   6.117   5.022   0.055
   13CHTO  H210 5137   6.125   4.929   0.206
   13CHTO   O80 5138   5.907   4.752   0.174
   13CHTO  C103 5139   5.790   4.848   0.236
   13CHTO  H190 5140   5.758   4.809   0.332
   13CHTO  C101 5141   5.828   4.999   0.257
   13CHTO  H188 5142   5.868   5.039   0.164
   13CHTO   O68 5143   5.938   5.007   0.366
   13CHTO  H168 5144   5.968   5.095   0.376
   13CHTO   C99 5145   5.699   5.086   0.297
   13CHTO  H186 5146   5.661   5.051   0.395
   13CHTO   N17 5147   5.726   5.233   0.311
   13CHTO  H174 5148   5.807   5.249   0.381
   13CHTO  H175 5149   5.637   5.284   0.343
   13CHTO   C97 5150   5.584   5.059   0.196
   13CHTO  H184 5151   5.613   5.101   0.098
   13CHTO   O64 5152   5.557   4.918   0.187
   13CHTO  C104 5153   5.666   4.838   0.138
   13CHTO  H191 5154   5.695   4.870   0.039
   13CHTO  C108 5155   5.616   4.693   0.123
   13CHTO   O71 5156   5.569   4.636   0.246
   13CHTO  H171 5157   5.491   4.679   0.273
   13CHTO   O62 5158   5.458   5.114   0.240
   13CHTO   C91 5159   5.365   5.155   0.138
   13CHTO  H178 5160   5.402   5.122   0.040
   13CHTO   C92 5161   5.359   5.311   0.134
   13CHTO  H179 5162   5.340   5.348   0.236
   13CHTO   O66 5163   5.490   5.360   0.099
   13CHTO  H166 5164   5.515   5.332   0.013
   13CHTO   C93 5165   5.250   5.367   0.033
   13CHTO  H180 5166   5.286   5.345   2.809
   13CHTO   N16 5167   5.233   5.514   0.040
   13CHTO  H172 5168   5.159   5.546   2.846
   13CHTO  H173 5169   5.327   5.563   0.020
   13CHTO   C94 5170   5.113   5.293   0.056
   13CHTO  H181 5171   5.070   5.316   0.153
   13CHTO   O61 5172   5.132   5.150   0.052
   13CHTO   C95 5173   5.218   5.099   0.155
   13CHTO  H182 5174   5.179   5.128   0.252
   13CHTO  C106 5175   5.216   4.942   0.148
   13CHTO   O69 5176   5.084   4.892   0.174
   13CHTO  H169 5177   5.086   4.798   0.171
   13CHTO   O63 5178   5.009   5.330   2.815
   13CHTO   C96 5179   4.860   5.275   2.833
   13CHTO  H183 5180   4.796   5.339   2.772
   13CHTO   C98 5181   4.802   5.275   0.099
   13CHTO  H185 5182   4.867   5.216   0.165
   13CHTO   O67 5183   4.808   5.410   0.147
   13CHTO  H167 5184   4.779   5.414   0.236
   13CHTO  C102 5185   4.651   5.217   0.102
   13CHTO  H189 5186   4.590   5.292   0.049
   13CHTO   N18 5187   4.592   5.205   0.238
   13CHTO  H176 5188   4.570   5.102   0.262
   13CHTO  H177 5189   4.658   5.247   0.312
   13CHTO  C105 5190   4.644   5.084   0.021
   13CHTO  H192 5191   4.692   5.005   0.079
   13CHTO   O65 5192   4.710   5.091   2.771
   13CHTO  C100 5193   4.848   5.129   2.775
   13CHTO  H187 5194   4.901   5.060   2.842
   13CHTO  C107 5195   4.909   5.114   2.634
   13CHTO   O70 5196   4.841   5.194   2.536
   13CHTO  H170 5197   4.756   5.158   2.520
   13CHTO   O57 5198   4.483   5.047   2.875
   13CHTO   C85 5199   4.395   5.129   2.795
   13CHTO  H157 5200   4.457   5.212   2.755
   13CHTO   C83 5201   4.291   5.197   0.013
   13CHTO  H155 5202   4.344   5.272   0.072
   13CHTO   O56 5203   4.241   5.101   0.109
   13CHTO  H135 5204   4.192   5.034   0.066
   13CHTO   C81 5205   4.179   5.267   2.809
   13CHTO  H153 5206   4.227   5.339   2.742
   13CHTO   N14 5207   4.087   5.349   0.013
   13CHTO  H141 5208   4.142   5.422   0.069
   13CHTO  H142 5209   4.033   5.287   0.081
   13CHTO   C79 5210   4.105   5.160   2.722
   13CHTO  H151 5211   4.028   5.213   2.665
   13CHTO   O52 5212   4.199   5.105   2.625
   13CHTO   C86 5213   4.322   5.048   2.678
   13CHTO  H158 5214   4.293   4.946   2.712
   13CHTO   C90 5215   4.415   5.027   2.556
   13CHTO   O60 5216   4.535   4.955   2.588
   13CHTO  H138 5217   4.514   4.867   2.612
   13CHTO   O50 5218   4.043   5.054   2.797
   13CHTO   C73 5219   3.943   4.960   2.753
   13CHTO  H145 5220   3.963   4.930   2.649
   13CHTO   C74 5221   3.801   5.025   2.759
   13CHTO  H146 5222   3.804   5.117   2.698
   13CHTO   O54 5223   3.708   4.937   2.693
   13CHTO  H133 5224   3.725   4.933   2.601
   13CHTO   C75 5225   3.764   5.055   0.032
   13CHTO  H147 5226   3.838   5.127   0.072
   13CHTO   N13 5227   3.632   5.120   0.050
   13CHTO  H139 5228   3.630   5.215   2.876
   13CHTO  H140 5229   3.554   5.057   0.008
   13CHTO   C76 5230   3.778   4.920   0.117
   13CHTO  H148 5231   3.705   4.850   0.076
   13CHTO   O49 5232   3.911   4.863   0.101
   13CHTO   C77 5233   3.945   4.833   2.843
   13CHTO  H149 5234   3.872   4.762   2.804
   13CHTO   C88 5235   4.079   4.757   2.837
   13CHTO   O58 5236   4.187   4.824   0.037
   13CHTO  H136 5237   4.208   4.906   2.875
   13CHTO   O51 5238   3.750   4.944   0.281
   13CHTO   C78 5239   3.872   4.991   0.386
   13CHTO  H150 5240   3.828   5.009   0.486
   13CHTO   C80 5241   3.943   5.119   0.339
   13CHTO  H152 5242   3.992   5.100   0.240
   13CHTO   O55 5243   3.841   5.219   0.323
   13CHTO  H134 5244   3.877   5.297   0.285
   13CHTO   C84 5245   4.052   5.164   0.444
   13CHTO  H156 5246   4.000   5.185   0.538
   13CHTO   N15 5247   4.125   5.290   0.406
   13CHTO  H143 5248   4.110   5.366   0.480
   13CHTO  H144 5249   4.091   5.327   0.311
   13CHTO   C87 5250   4.150   5.047   0.471
   13CHTO  H159 5251   4.213   5.029   0.384
   13CHTO   O53 5252   4.070   4.920   0.507
   13CHTO   C82 5253   3.976   4.878   0.407
   13CHTO  H154 5254   4.029   4.854   0.314
   13CHTO   C89 5255   3.911   4.747   0.457
   13CHTO   O59 5256   3.832   4.682   0.357
   13CHTO  H137 5257   3.753   4.731   0.343
   13CHTO   O45 5258   4.242   5.075   0.603
   13CHTO   C67 5259   4.378   5.115   0.580
   13CHTO  H124 5260   4.396   5.134   0.474
   13CHTO   C65 5261   4.411   5.244   0.662
   13CHTO  H122 5262   4.318   5.302   0.666
   13CHTO   O44 5263   4.511   5.320   0.593
   13CHTO  H102 5264   4.524   5.402   0.636
   13CHTO   C63 5265   4.446   5.204   0.809
   13CHTO  H120 5266   4.369   5.137   0.846
   13CHTO   N11 5267   4.441   5.315   0.910
   13CHTO  H108 5268   4.519   5.385   0.891
   13CHTO  H109 5269   4.451   5.275   1.009
   13CHTO   C61 5270   4.581   5.121   0.807
   13CHTO  H118 5271   4.576   5.051   0.892
   13CHTO   O40 5272   4.598   5.040   0.687
   13CHTO   C68 5273   4.476   4.995   0.621
   13CHTO  H125 5274   4.424   4.927   0.691
   13CHTO   C72 5275   4.518   4.909   0.499
   13CHTO   O48 5276   4.406   4.845   0.436
   13CHTO  H105 5277   4.436   4.796   0.362
   13CHTO   O38 5278   4.700   5.203   0.812
   13CHTO   C55 5279   4.809   5.151   0.892
   13CHTO  H112 5280   4.799   5.042   0.902
   13CHTO   C56 5281   4.812   5.223   1.033
   13CHTO  H113 5282   4.810   5.332   1.014
   13CHTO   O42 5283   4.692   5.191   1.105
   13CHTO  H100 5284   4.617   5.228   1.063
   13CHTO   C57 5285   4.941   5.183   1.115
   13CHTO  H114 5286   4.931   5.078   1.138
   13CHTO   N10 5287   4.955   5.255   1.245
   13CHTO  H106 5288   4.857   5.276   1.286
   13CHTO  H107 5289   5.008   5.348   1.231
   13CHTO   C58 5290   5.066   5.203   1.025
   13CHTO  H115 5291   5.079   5.311   1.003
   13CHTO   O37 5292   5.053   5.129   0.902
   13CHTO   C59 5293   4.945   5.172   0.817
   13CHTO  H116 5294   4.958   5.276   0.789
   13CHTO   C70 5295   4.952   5.084   0.691
   13CHTO   O46 5296   4.865   5.128   0.586
   13CHTO  H103 5297   4.871   5.068   0.514
   13CHTO   O39 5298   5.201   5.143   1.099
   13CHTO   C60 5299   5.321   5.221   1.079
   13CHTO  H117 5300   5.327   5.250   0.974
   13CHTO   C62 5301   5.323   5.350   1.167
   13CHTO  H119 5302   5.237   5.411   1.134
   13CHTO   O43 5303   5.302   5.315   1.305
   13CHTO  H101 5304   5.373   5.261   1.337
   13CHTO   C66 5305   5.460   5.431   1.142
   13CHTO  H123 5306   5.469   5.452   1.035
   13CHTO   N12 5307   5.459   5.564   1.209
   13CHTO  H110 5308   5.376   5.623   1.172
   13CHTO  H111 5309   5.553   5.614   1.192
   13CHTO   C69 5310   5.580   5.343   1.184
   13CHTO  H126 5311   5.571   5.315   1.291
   13CHTO   O41 5312   5.578   5.213   1.095
   13CHTO   C64 5313   5.446   5.132   1.109
   13CHTO  H121 5314   5.438   5.094   1.213
   13CHTO   C71 5315   5.453   5.009   1.014
   13CHTO   O47 5316   5.473   5.046   0.878
   13CHTO  H104 5317   5.559   5.084   0.867
   13CHTO   O34 5318   5.721   5.417   1.164
   13CHTO   C49 5319   5.867   5.472   1.158
   13CHTO   H91 5320   5.930   5.389   1.124
   13CHTO   C47 5321   5.911   5.517   1.299
   13CHTO   H89 5322   6.018   5.546   1.292
   13CHTO   O33 5323   5.899   5.405   1.389
   13CHTO   H70 5324   5.963   5.339   1.367
   13CHTO   C45 5325   5.822   5.644   1.344
   13CHTO   H87 5326   5.717   5.609   1.349
   13CHTO    N8 5327   5.860   5.691   1.480
   13CHTO   H75 5328   5.959   5.734   1.478
   13CHTO   H76 5329   5.789   5.764   1.515
   13CHTO   C43 5330   5.821   5.762   1.233
   13CHTO   H85 5331   5.737   5.825   1.261
   13CHTO   O29 5332   5.804   5.707   1.100
   13CHTO   C50 5333   5.878   5.590   1.060
   13CHTO   H92 5334   5.838   5.556   0.964
   13CHTO   C54 5335   6.025   5.627   1.024
   13CHTO   O36 5336   6.096   5.515   0.972
   13CHTO   H72 5337   6.188   5.533   0.972
   13CHTO   O27 5338   5.937   5.848   1.234
   13CHTO   C37 5339   5.931   5.993   1.233
   13CHTO   H79 5340   5.829   6.027   1.261
   13CHTO   C38 5341   6.028   6.056   1.338
   13CHTO   H80 5342   6.131   6.023   1.314
   13CHTO   O31 5343   5.992   6.006   1.468
   13CHTO   H68 5344   6.010   5.914   1.474
   13CHTO   C39 5345   6.021   6.214   1.336
   13CHTO   H81 5346   5.924   6.240   1.378
   13CHTO    N7 5347   6.124   6.280   1.423
   13CHTO   H73 5348   6.077   6.344   1.496
   13CHTO   H74 5349   6.196   6.336   1.365
   13CHTO   C40 5350   6.024   6.273   1.190
   13CHTO   H82 5351   6.127   6.285   1.154
   13CHTO   O26 5352   5.944   6.197   1.098
   13CHTO   C41 5353   5.968   6.054   1.095
   13CHTO   H83 5354   6.074   6.034   1.073
   13CHTO   C52 5355   5.884   5.997   0.977
   13CHTO   O35 5356   5.931   6.050   0.847
   13CHTO   H71 5357   5.881   6.010   0.778
   13CHTO   O28 5358   5.959   6.401   1.188
   13CHTO   C42 5359   5.989   6.505   1.089
   13CHTO   H84 5360   6.054   6.458   1.015
   13CHTO   C44 5361   6.069   6.627   1.146
   13CHTO   H86 5362   6.015   6.666   1.233
   13CHTO   O32 5363   6.195   6.576   1.192
   13CHTO   H69 5364   6.183   6.521   1.268
   13CHTO   C48 5365   6.087   6.745   1.042
   13CHTO   H90 5366   6.152   6.710   0.962
   13CHTO    N9 5367   6.156   6.864   1.103
   13CHTO   H77 5368   6.097   6.903   1.185
   13CHTO   H78 5369   6.172   6.940   1.028
   13CHTO   C51 5370   5.947   6.782   0.979
   13CHTO   H93 5371   5.881   6.816   1.060
   13CHTO   O30 5372   5.895   6.665   0.914
   13CHTO   C46 5373   5.861   6.554   1.014
   13CHTO   H88 5374   5.791   6.594   1.087
   13CHTO   C53 5375   5.792   6.439   0.935
   13CHTO   O72 5376   5.876   6.386   0.831
   13CHTO  H199 5377   5.886   6.450   0.763
   13CHTO   O22 5378   5.957   6.884   0.877
   13CHTO   C31 5379   5.843   6.950   0.808
   13CHTO   H59 5380   5.886   7.038   0.756
   13CHTO   C29 5381   5.775   6.862   0.700
   13CHTO   H57 5382   5.730   6.775   0.750
   13CHTO   O21 5383   5.878   6.812   0.613
   13CHTO   H37 5384   5.842   6.751   0.551
   13CHTO   C27 5385   5.663   6.942   0.624
   13CHTO   H55 5386   5.709   7.028   0.572
   13CHTO    N5 5387   5.592   6.860   0.522
   13CHTO   H43 5388   5.519   6.920   0.470
   13CHTO   H44 5389   5.663   6.820   0.452
   13CHTO   C25 5390   5.562   7.002   0.729
   13CHTO   H53 5391   5.510   6.919   0.780
   13CHTO   O17 5392   5.633   7.079   0.830
   13CHTO   C32 5393   5.734   7.007   0.904
   13CHTO   H60 5394   5.688   6.925   0.958
   13CHTO   C36 5395   5.793   7.104   1.009
   13CHTO   O25 5396   5.695   7.143   1.106
   13CHTO   H40 5397   5.673   7.070   1.160
   13CHTO   O15 5398   5.453   7.096   0.660
   13CHTO   C19 5399   5.319   7.139   0.699
   13CHTO   H47 5400   5.313   7.113   0.806
   13CHTO   C20 5401   5.294   7.292   0.682
   13CHTO   H48 5402   5.313   7.324   0.578
   13CHTO   O19 5403   5.389   7.358   0.766
   13CHTO   H35 5404   5.385   7.451   0.753
   13CHTO   C21 5405   5.147   7.336   0.722
   13CHTO   H49 5406   5.138   7.333   0.830
   13CHTO    N4 5407   5.116   7.476   0.683
   13CHTO   H41 5408   5.122   7.488   0.576
   13CHTO   H42 5409   5.016   7.503   0.715
   13CHTO   C22 5410   5.041   7.236   0.666
   13CHTO   H50 5411   5.024   7.254   0.560
   13CHTO   O14 5412   5.080   7.099   0.688
   13CHTO   C23 5413   5.204   7.061   0.629
   13CHTO   H51 5414   5.199   7.084   0.521
   13CHTO   C34 5415   5.219   6.909   0.644
   13CHTO   O23 5416   5.119   6.839   0.570
   13CHTO   H38 5417   5.132   6.747   0.579
   13CHTO   O16 5418   4.918   7.247   0.741
   13CHTO   C24 5419   4.782   7.207   0.663
   13CHTO   H52 5420   4.801   7.176   0.560
   13CHTO   C26 5421   4.690   7.331   0.664
   13CHTO   H54 5422   4.682   7.368   0.769
   13CHTO   O20 5423   4.753   7.434   0.586
   13CHTO   H36 5424   4.705   7.514   0.593
   13CHTO   C30 5425   4.545   7.298   0.614
   13CHTO   H58 5426   4.548   7.275   0.506
   13CHTO    N6 5427   4.453   7.415   0.627
   13CHTO   H45 5428   4.371   7.393   0.693
   13CHTO   H46 5429   4.505   7.502   0.664
   13CHTO   C33 5430   4.491   7.170   0.685
   13CHTO   H61 5431   4.477   7.190   0.793
   13CHTO   O18 5432   4.587   7.064   0.670
   13CHTO   C28 5433   4.713   7.088   0.734
   13CHTO   H56 5434   4.699   7.112   0.839
   13CHTO   C35 5435   4.796   6.958   0.724
   13CHTO   O24 5436   4.737   6.850   0.796
   13CHTO   H39 5437   4.794   6.775   0.791
   13CHTO    O9 5438   4.361   7.131   0.636
   13CHTO   C13 5439   4.303   6.995   0.705
   13CHTO   H26 5440   4.356   6.978   0.801
   13CHTO   C11 5441   4.324   6.874   0.605
   13CHTO   H24 5442   4.433   6.862   0.589
   13CHTO    O8 5443   4.266   6.906   0.477
   13CHTO    H3 5444   4.173   6.916   0.484
   13CHTO    C9 5445   4.268   6.746   0.671
   13CHTO   H22 5446   4.326   6.733   0.764
   13CHTO    N2 5447   4.299   6.623   0.594
   13CHTO   H10 5448   4.245   6.623   0.501
   13CHTO   H11 5449   4.405   6.617   0.576
   13CHTO    C7 5450   4.115   6.766   0.712
   13CHTO   H20 5451   4.115   6.745   0.821
   13CHTO    O4 5452   4.068   6.901   0.690
   13CHTO   C14 5453   4.148   7.007   0.744
   13CHTO   H27 5454   4.139   7.005   0.855
   13CHTO   C18 5455   4.087   7.142   0.696
   13CHTO   O13 5456   3.954   7.160   0.745
   13CHTO    H7 5457   3.918   7.239   0.710
   13CHTO    O2 5458   4.007   6.660   0.637
   13CHTO    C1 5459   3.892   6.627   0.718
   13CHTO   H14 5460   3.894   6.686   0.812
   13CHTO    C2 5461   3.885   6.473   0.754
   13CHTO   H15 5462   3.886   6.419   0.658
   13CHTO    O6 5463   4.002   6.437   0.830
   13CHTO    H1 5464   4.004   6.483   0.911
   13CHTO    C3 5465   3.749   6.441   0.834
   13CHTO   H16 5466   3.755   6.491   0.932
   13CHTO    N1 5467   3.730   6.295   0.861
   13CHTO    H8 5468   3.768   6.269   0.959
   13CHTO    H9 5469   3.780   6.235   0.785
   13CHTO    C4 5470   3.625   6.504   0.761
   13CHTO   H17 5471   3.605   6.447   0.670
   13CHTO    O1 5472   3.648   6.642   0.730
   13CHTO    C5 5473   3.761   6.667   0.644
   13CHTO   H18 5474   3.752   6.606   0.553
   13CHTO   C16 5475   3.753   6.816   0.605
   13CHTO   O11 5476   3.841   6.849   0.496
   13CHTO    H5 5477   3.811   6.807   0.418
   13CHTO    O3 5478   3.509   6.504   0.847
   13CHTO    C6 5479   3.379   6.526   0.781
   13CHTO   H19 5480   3.389   6.563   0.679
   13CHTO    C8 5481   3.298   6.392   0.776
   13CHTO   H21 5482   3.297   6.349   0.876
   13CHTO    O7 5483   3.366   6.304   0.685
   13CHTO    H2 5484   3.448   6.277   0.722
   13CHTO   C12 5485   3.148   6.419   0.732
   13CHTO   H25 5486   3.153   6.453   0.627
   13CHTO    N3 5487   3.065   6.293   0.731
   13CHTO   H12 5488   3.123   6.208   0.761
   13CHTO   H13 5489   2.978   6.304   0.795
   13CHTO   C15 5490   3.087   6.535   0.818
   13CHTO   H28 5491   3.075   6.506   0.923
   13CHTO   O10 5492   2.950   6.587   0.764
   13CHTO    H4 5493   2.914   6.650   0.823
   13CHTO    O5 5494   3.169   6.652   0.808
   13CHTO   C10 5495   3.301   6.634   0.861
   13CHTO   H23 5496   3.293   6.604   0.966
   13CHTO   C17 5497   3.372   6.769   0.857
   13CHTO   O12 5498   3.304   6.865   0.938
   13CHTO    H6 5499   3.350   6.947   0.935
   14CHTO  H203 5500   5.587   4.530   0.454
   14CHTO   O82 5501   5.581   4.552   0.545
   14CHTO  C123 5502   5.449   4.525   0.595
   14CHTO  H227 5503   5.446   4.548   0.703
   14CHTO   O77 5504   5.365   4.619   0.522
   14CHTO  C118 5505   5.226   4.616   0.559
   14CHTO  H222 5506   5.215   4.630   0.668
   14CHTO  C125 5507   5.151   4.733   0.486
   14CHTO   O84 5508   5.202   4.861   0.528
   14CHTO  H205 5509   5.180   4.876   0.618
   14CHTO  C114 5510   5.168   4.479   0.519
   14CHTO  H218 5511   5.182   4.464   0.412
   14CHTO  C116 5512   5.245   4.365   0.593
   14CHTO  H220 5513   5.224   4.372   0.703
   14CHTO   O79 5514   5.192   4.237   0.552
   14CHTO  H201 5515   5.208   4.224   0.460
   14CHTO  C120 5516   5.401   4.377   0.567
   14CHTO  H224 5517   5.417   4.352   0.460
   14CHTO   N21 5518   5.479   4.278   0.647
   14CHTO  H211 5519   5.490   4.186   0.592
   14CHTO  H212 5520   5.433   4.261   0.743
   14CHTO   O75 5521   5.028   4.483   0.551
   14CHTO  C112 5522   4.933   4.409   0.438
   14CHTO  H216 5523   4.987   4.321   0.398
   14CHTO   O73 5524   4.906   4.505   0.334
   14CHTO  C113 5525   4.830   4.453   0.224
   14CHTO  H217 5526   4.885   4.366   0.182
   14CHTO  C124 5527   4.824   4.559   0.114
   14CHTO   O83 5528   4.761   4.681   0.155
   14CHTO  H204 5529   4.670   4.666   0.171
   14CHTO  C109 5530   4.689   4.407   0.271
   14CHTO  H213 5531   4.636   4.498   0.304
   14CHTO  C110 5532   4.702   4.307   0.390
   14CHTO  H214 5533   4.742   4.213   0.351
   14CHTO   O78 5534   4.570   4.280   0.441
   14CHTO  H200 5535   4.574   4.212   0.506
   14CHTO  C111 5536   4.797   4.361   0.502
   14CHTO  H215 5537   4.749   4.449   0.549
   14CHTO   N19 5538   4.822   4.263   0.610
   14CHTO  H207 5539   4.729   4.235   0.657
   14CHTO  H208 5540   4.888   4.306   0.684
   14CHTO   O74 5541   4.616   4.345   0.160
   14CHTO  C115 5542   4.465   4.396   0.146
   14CHTO  H219 5543   4.422   4.423   0.243
   14CHTO   O76 5544   4.457   4.530   0.061
   14CHTO  C122 5545   4.476   4.506   2.799
   14CHTO  H226 5546   4.575   4.462   2.785
   14CHTO  C126 5547   4.481   4.644   2.724
   14CHTO   O85 5548   4.588   4.726   2.770
   14CHTO  H206 5549   4.583   4.810   2.727
   14CHTO  C121 5550   4.363   4.412   2.738
   14CHTO  H225 5551   4.294   4.475   2.678
   14CHTO   O81 5552   4.424   4.317   2.650
   14CHTO  H202 5553   4.358   4.269   2.604
   14CHTO  C119 5554   4.282   4.340   2.851
   14CHTO  H223 5555   4.225   4.419   0.022
   14CHTO  C117 5556   4.380   4.279   0.080
   14CHTO  H221 5557   4.453   4.209   0.041
   14CHTO   N20 5558   4.305   4.203   0.185
   14CHTO  H209 5559   4.239   4.269   0.240
   14CHTO  H210 5560   4.374   4.155   0.253
   14CHTO   O80 5561   4.159   4.243   2.793
   14CHTO  C103 5562   4.061   4.300   2.681
   14CHTO  H190 5563   4.097   4.396   2.644
   14CHTO  C101 5564   4.036   4.205   2.558
   14CHTO  H188 5565   3.997   4.110   2.594
   14CHTO   O68 5566   4.171   4.179   2.489
   14CHTO  H168 5567   4.160   4.117   2.420
   14CHTO   C99 5568   3.929   4.270   2.458
   14CHTO  H186 5569   3.974   4.361   2.414
   14CHTO   N17 5570   3.892   4.181   2.343
   14CHTO  H174 5571   3.981   4.149   2.291
   14CHTO  H175 5572   3.825   4.233   2.276
   14CHTO   C97 5573   3.803   4.319   2.535
   14CHTO  H184 5574   3.741   4.231   2.561
   14CHTO   O64 5575   3.838   4.396   2.651
   14CHTO  C104 5576   3.920   4.327   2.748
   14CHTO  H191 5577   3.875   4.232   2.777
   14CHTO  C108 5578   3.924   4.413   2.874
   14CHTO   O71 5579   3.975   4.342   0.109
   14CHTO  H171 5580   3.978   4.398   0.184
   14CHTO   O62 5581   3.726   4.410   2.453
   14CHTO   C91 5582   3.592   4.440   2.496
   14CHTO  H178 5583   3.561   4.363   2.567
   14CHTO   C92 5584   3.496   4.425   2.372
   14CHTO  H179 5585   3.518   4.331   2.319
   14CHTO   O66 5586   3.362   4.412   2.423
   14CHTO  H166 5587   3.303   4.389   2.353
   14CHTO   C93 5588   3.499   4.550   2.275
   14CHTO  H180 5589   3.408   4.544   2.213
   14CHTO   N16 5590   3.611   4.546   2.177
   14CHTO  H172 5591   3.602   4.459   2.115
   14CHTO  H173 5592   3.706   4.546   2.229
   14CHTO   C94 5593   3.496   4.686   2.356
   14CHTO  H181 5594   3.589   4.742   2.347
   14CHTO   O61 5595   3.475   4.666   2.497
   14CHTO   C95 5596   3.575   4.585   2.561
   14CHTO  H182 5597   3.671   4.636   2.556
   14CHTO  C106 5598   3.541   4.575   2.715
   14CHTO   O69 5599   3.412   4.516   2.737
   14CHTO  H169 5600   3.414   4.426   2.712
   14CHTO   O63 5601   3.376   4.772   2.302
   14CHTO   C96 5602   3.394   4.929   2.320
   14CHTO  H183 5603   3.501   4.950   2.330
   14CHTO   C98 5604   3.321   4.988   2.444
   14CHTO  H185 5605   3.216   4.953   2.444
   14CHTO   O67 5606   3.381   4.930   2.561
   14CHTO  H167 5607   3.334   4.957   2.638
   14CHTO  C102 5608   3.327   5.149   2.450
   14CHTO  H189 5609   3.432   5.173   2.473
   14CHTO   N18 5610   3.246   5.211   2.557
   14CHTO  H176 5611   3.280   5.176   2.654
   14CHTO  H177 5612   3.142   5.185   2.545
   14CHTO  C105 5613   3.294   5.208   2.310
   14CHTO  H192 5614   3.187   5.194   2.290
   14CHTO   O65 5615   3.367   5.144   2.204
   14CHTO  C100 5616   3.343   5.003   2.190
   14CHTO  H187 5617   3.235   4.986   2.179
   14CHTO  C107 5618   3.414   4.957   2.060
   14CHTO   O70 5619   3.377   4.824   2.022
   14CHTO  H170 5620   3.287   4.822   1.996
   14CHTO   O57 5621   3.330   5.373   2.314
   14CHTO   C85 5622   3.452   5.424   2.260
   14CHTO  H157 5623   3.473   5.365   2.168
   14CHTO   C83 5624   3.572   5.394   2.356
   14CHTO  H155 5625   3.580   5.286   2.367
   14CHTO   O56 5626   3.542   5.447   2.487
   14CHTO  H135 5627   3.468   5.402   2.524
   14CHTO   C81 5628   3.703   5.448   2.294
   14CHTO  H153 5629   3.718   5.399   2.198
   14CHTO   N14 5630   3.824   5.412   2.373
   14CHTO  H141 5631   3.828   5.306   2.387
   14CHTO  H142 5632   3.912   5.443   2.321
   14CHTO   C79 5633   3.691   5.603   2.267
   14CHTO  H151 5634   3.780   5.633   2.212
   14CHTO   O52 5635   3.577   5.631   2.180
   14CHTO   C86 5636   3.450   5.579   2.230
   14CHTO  H158 5637   3.430   5.637   2.323
   14CHTO   C90 5638   3.336   5.615   2.132
   14CHTO   O60 5639   3.322   5.757   2.119
   14CHTO  H138 5640   3.395   5.792   2.072
   14CHTO   O50 5641   3.682   5.683   2.386
   14CHTO   C73 5642   3.684   5.810   2.452
   14CHTO  H145 5643   3.590   5.826   2.506
   14CHTO   C74 5644   3.703   5.928   2.350
   14CHTO  H146 5645   3.620   5.920   2.278
   14CHTO   O54 5646   3.681   6.051   2.421
   14CHTO  H133 5647   3.748   6.064   2.486
   14CHTO   C75 5648   3.844   5.918   2.280
   14CHTO  H147 5649   3.842   5.832   2.211
   14CHTO   N13 5650   3.877   6.032   2.191
   14CHTO  H139 5651   3.880   6.123   2.249
   14CHTO  H140 5652   3.973   6.017   2.145
   14CHTO   C76 5653   3.962   5.890   2.386
   14CHTO  H148 5654   3.988   5.983   2.436
   14CHTO   O49 5655   3.927   5.789   2.487
   14CHTO   C77 5656   3.802   5.812   2.554
   14CHTO  H149 5657   3.804   5.909   2.605
   14CHTO   C88 5658   3.785   5.706   2.664
   14CHTO   O58 5659   3.665   5.732   2.747
   14CHTO  H136 5660   3.678   5.810   2.799
   14CHTO   O51 5661   4.084   5.822   2.308
   14CHTO   C78 5662   4.223   5.858   2.365
   14CHTO  H150 5663   4.215   5.910   2.463
   14CHTO   C80 5664   4.295   5.952   2.266
   14CHTO  H152 5665   4.291   5.905   2.165
   14CHTO   O55 5666   4.222   6.075   2.259
   14CHTO  H134 5667   4.224   6.120   2.342
   14CHTO   C84 5668   4.447   5.977   2.303
   14CHTO  H156 5669   4.450   6.038   2.393
   14CHTO   N15 5670   4.520   6.054   2.196
   14CHTO  H143 5671   4.622   6.071   2.226
   14CHTO  H144 5672   4.520   5.999   2.104
   14CHTO   C87 5673   4.517   5.842   2.334
   14CHTO  H159 5674   4.526   5.784   2.242
   14CHTO   O53 5675   4.433   5.764   2.439
   14CHTO   C82 5676   4.304   5.729   2.386
   14CHTO  H154 5677   4.316   5.676   2.292
   14CHTO   C89 5678   4.233   5.633   2.484
   14CHTO   O59 5679   4.303   5.508   2.496
   14CHTO  H137 5680   4.297   5.460   2.416
   14CHTO   O45 5681   4.668   5.867   2.397
   14CHTO   C67 5682   4.735   5.752   2.451
   14CHTO  H124 5683   4.684   5.717   2.540
   14CHTO   C65 5684   4.746   5.635   2.347
   14CHTO  H122 5685   4.646   5.620   2.307
   14CHTO   O44 5686   4.786   5.514   2.413
   14CHTO  H102 5687   4.784   5.442   2.353
   14CHTO   C63 5688   4.836   5.682   2.227
   14CHTO  H120 5689   4.795   5.775   2.187
   14CHTO   N11 5690   4.834   5.594   2.107
   14CHTO  H108 5691   4.733   5.577   2.075
   14CHTO  H109 5692   4.880   5.500   2.130
   14CHTO   C61 5693   4.979   5.717   2.282
   14CHTO  H118 5694   5.034   5.762   2.197
   14CHTO   O40 5695   4.973   5.818   2.386
   14CHTO   C68 5696   4.880   5.799   2.498
   14CHTO  H125 5697   4.867   5.899   2.546
   14CHTO   C72 5698   4.941   5.707   2.607
   14CHTO   O48 5699   5.066   5.757   2.656
   14CHTO  H105 5700   5.101   5.697   2.720
   14CHTO   O38 5701   5.053   5.604   2.335
   14CHTO   C55 5702   5.171   5.560   2.266
   14CHTO  H112 5703   5.178   5.607   2.167
   14CHTO   C56 5704   5.168   5.401   2.257
   14CHTO  H113 5705   5.154   5.363   2.359
   14CHTO   O42 5706   5.052   5.359   2.183
   14CHTO  H100 5707   5.054   5.393   2.095
   14CHTO   C57 5708   5.301   5.345   2.193
   14CHTO  H114 5709   5.303   5.376   2.089
   14CHTO   N10 5710   5.309   5.197   2.197
   14CHTO  H106 5711   5.263   5.155   2.108
   14CHTO  H107 5712   5.412   5.163   2.202
   14CHTO   C58 5713   5.423   5.409   2.265
   14CHTO  H115 5714   5.429   5.370   2.370
   14CHTO   O37 5715   5.414   5.552   2.268
   14CHTO   C59 5716   5.301   5.602   2.342
   14CHTO  H116 5717   5.302   5.562   2.443
   14CHTO   C70 5718   5.315   5.755   2.351
   14CHTO   O46 5719   5.431   5.797   2.423
   14CHTO  H103 5720   5.508   5.776   2.373
   14CHTO   O39 5721   5.559   5.375   2.186
   14CHTO   C60 5722   5.675   5.389   2.269
   14CHTO  H117 5723   5.657   5.465   2.345
   14CHTO   C62 5724   5.711   5.256   2.342
   14CHTO  H119 5725   5.623   5.230   2.405
   14CHTO   O43 5726   5.730   5.150   2.245
   14CHTO  H101 5727   5.804   5.168   2.191
   14CHTO   C66 5728   5.838   5.281   2.436
   14CHTO  H123 5729   5.814   5.360   2.506
   14CHTO   N12 5730   5.872   5.164   2.521
   14CHTO  H110 5731   5.892   5.077   2.459
   14CHTO  H111 5732   5.791   5.144   2.590
   14CHTO   C69 5733   5.958   5.329   2.349
   14CHTO  H126 5734   5.986   5.248   2.278
   14CHTO   O41 5735   5.917   5.457   2.269
   14CHTO   C64 5736   5.795   5.439   2.183
   14CHTO  H121 5737   5.816   5.364   2.105
   14CHTO   C71 5738   5.763   5.573   2.112
   14CHTO   O47 5739   5.735   5.679   2.205
   14CHTO  H104 5740   5.711   5.756   2.158
   14CHTO   O34 5741   6.085   5.364   2.435
   14CHTO   C49 5742   6.177   5.469   2.502
   14CHTO   H91 5743   6.279   5.443   2.474
   14CHTO   C47 5744   6.160   5.459   2.655
   14CHTO   H89 5745   6.238   5.527   2.696
   14CHTO   O33 5746   6.189   5.325   2.699
   14CHTO   H70 5747   6.192   5.322   2.793
   14CHTO   C45 5748   6.012   5.505   2.701
   14CHTO   H87 5749   5.945   5.417   2.698
   14CHTO    N8 5750   6.020   5.550   2.843
   14CHTO   H75 5751   5.981   5.651   2.853
   14CHTO   H76 5752   5.965   5.483   0.029
   14CHTO   C43 5753   5.948   5.609   2.595
   14CHTO   H85 5754   5.903   5.548   2.518
   14CHTO   O29 5755   6.053   5.692   2.541
   14CHTO   C50 5756   6.147   5.617   2.460
   14CHTO   H92 5757   6.108   5.615   2.357
   14CHTO   C54 5758   6.278   5.699   2.448
   14CHTO   O36 5759   6.255   5.824   2.382
   14CHTO   H72 5760   6.234   5.809   2.292
   14CHTO   O27 5761   5.838   5.686   2.645
   14CHTO   C37 5762   5.782   5.810   2.692
   14CHTO   H79 5763   5.850   5.858   2.764
   14CHTO   C38 5764   5.760   5.911   2.574
   14CHTO   H80 5765   5.704   5.859   2.494
   14CHTO   O31 5766   5.890   5.946   2.524
   14CHTO   H68 5767   5.882   5.999   2.447
   14CHTO   C39 5768   5.680   6.040   2.620
   14CHTO   H81 5769   5.747   6.098   2.684
   14CHTO    N7 5770   5.642   6.130   2.505
   14CHTO   H73 5771   5.534   6.138   2.496
   14CHTO   H74 5772   5.685   6.095   2.413
   14CHTO   C40 5773   5.555   6.002   2.709
   14CHTO   H82 5774   5.474   5.962   2.646
   14CHTO   O26 5775   5.593   5.909   2.811
   14CHTO   C41 5776   5.645   5.783   2.761
   14CHTO   H83 5777   5.575   5.741   2.687
   14CHTO   C52 5778   5.654   5.683   0.001
   14CHTO   O35 5779   5.740   5.730   0.113
   14CHTO   H71 5780   5.702   5.808   0.151
   14CHTO   O28 5781   5.504   6.116   2.782
   14CHTO   C42 5782   5.374   6.116   2.850
   14CHTO   H84 5783   5.379   6.206   0.034
   14CHTO   C44 5784   5.346   5.997   0.070
   14CHTO   H86 5785   5.351   5.904   0.014
   14CHTO   O32 5786   5.451   5.998   0.168
   14CHTO   H69 5787   5.533   5.975   0.128
   14CHTO   C48 5788   5.203   6.005   0.137
   14CHTO   H90 5789   5.199   6.093   0.201
   14CHTO    N9 5790   5.176   5.888   0.228
   14CHTO   H77 5791   5.078   5.897   0.273
   14CHTO   H78 5792   5.182   5.795   0.172
   14CHTO   C51 5793   5.095   6.020   0.024
   14CHTO   H93 5794   5.102   5.932   2.837
   14CHTO   O30 5795   5.122   6.141   2.830
   14CHTO   C46 5796   5.255   6.137   2.751
   14CHTO   H88 5797   5.252   6.056   2.679
   14CHTO   C53 5798   5.270   6.273   2.678
   14CHTO   O72 5799   5.159   6.299   2.591
   14CHTO  H199 5800   5.161   6.240   2.518
   14CHTO   O22 5801   4.961   6.036   0.074
   14CHTO   C31 5802   4.847   5.976   0.002
   14CHTO   H59 5803   4.884   5.948   2.780
   14CHTO   C29 5804   4.792   5.848   0.069
   14CHTO   H57 5805   4.765   5.874   0.172
   14CHTO   O21 5806   4.899   5.751   0.078
   14CHTO   H37 5807   4.924   5.722   2.870
   14CHTO   C27 5808   4.665   5.790   2.873
   14CHTO   H55 5809   4.696   5.753   2.774
   14CHTO    N5 5810   4.600   5.677   0.068
   14CHTO   H43 5811   4.606   5.587   0.010
   14CHTO   H44 5812   4.645   5.663   0.165
   14CHTO   C25 5813   4.562   5.905   2.847
   14CHTO   H53 5814   4.522   5.941   0.065
   14CHTO   O17 5815   4.627   6.017   2.779
   14CHTO   C32 5816   4.732   6.078   2.856
   14CHTO   H60 5817   4.693   6.112   0.074
   14CHTO   C36 5818   4.782   6.202   2.778
   14CHTO   O25 5819   4.678   6.300   2.764
   14CHTO   H40 5820   4.711   6.373   2.716
   14CHTO   O15 5821   4.442   5.858   2.755
   14CHTO   C19 5822   4.301   5.895   2.762
   14CHTO   H47 5823   4.259   5.856   2.668
   14CHTO   C20 5824   4.223   5.830   0.003
   14CHTO   H48 5825   4.268   5.855   0.100
   14CHTO   O19 5826   4.232   5.687   2.864
   14CHTO   H35 5827   4.320   5.658   0.002
   14CHTO   C21 5828   4.071   5.875   0.007
   14CHTO   H49 5829   4.020   5.835   2.797
   14CHTO    N4 5830   3.998   5.825   0.126
   14CHTO   H41 5831   3.999   5.717   0.127
   14CHTO   H42 5832   3.895   5.858   0.123
   14CHTO   C22 5833   4.064   6.030   2.873
   14CHTO   H50 5834   4.112   6.073   0.083
   14CHTO   O14 5835   4.134   6.071   2.754
   14CHTO   C23 5836   4.275   6.049   2.761
   14CHTO   H51 5837   4.314   6.097   2.852
   14CHTO   C34 5838   4.341   6.118   2.641
   14CHTO   O23 5839   4.327   6.261   2.650
   14CHTO   H38 5840   4.372   6.301   2.579
   14CHTO   O16 5841   3.930   6.081   2.860
   14CHTO   C24 5842   3.907   6.249   2.831
   14CHTO   H52 5843   3.818   6.286   0.003
   14CHTO   C26 5844   3.888   6.266   2.679
   14CHTO   H54 5845   3.968   6.209   2.626
   14CHTO   O20 5846   3.762   6.207   2.645
   14CHTO   H36 5847   3.767   6.114   2.651
   14CHTO   C30 5848   3.896   6.415   2.633
   14CHTO   H58 5849   3.808   6.471   2.668
   14CHTO    N6 5850   3.895   6.426   2.484
   14CHTO   H45 5851   3.981   6.375   2.442
   14CHTO   H46 5852   3.899   6.530   2.454
   14CHTO   C33 5853   4.020   6.484   2.697
   14CHTO   H61 5854   4.111   6.431   2.663
   14CHTO   O18 5855   4.011   6.469   2.840
   14CHTO   C28 5856   4.027   6.334   0.007
   14CHTO   H56 5857   4.120   6.294   2.847
   14CHTO   C35 5858   4.033   6.333   0.162
   14CHTO   O24 5859   3.915   6.381   0.227
   14CHTO   H39 5860   3.902   6.472   0.207
   14CHTO    O9 5861   4.038   6.622   2.659
   14CHTO   C13 5862   4.196   6.663   2.631
   14CHTO   H26 5863   4.229   6.604   2.542
   14CHTO   C11 5864   4.285   6.632   2.758
   14CHTO   H24 5865   4.287   6.523   2.773
   14CHTO    O8 5866   4.226   6.691   2.876
   14CHTO    H3 5867   4.275   6.665   0.074
   14CHTO    C9 5868   4.429   6.682   2.727
   14CHTO   H22 5869   4.455   6.637   2.630
   14CHTO    N2 5870   4.531   6.627   2.820
   14CHTO   H10 5871   4.525   6.519   2.823
   14CHTO   H11 5872   4.516   6.667   0.041
   14CHTO    C7 5873   4.427   6.839   2.712
   14CHTO   H20 5874   4.501   6.857   2.630
   14CHTO    O4 5875   4.300   6.893   2.672
   14CHTO   C14 5876   4.212   6.816   2.588
   14CHTO   H27 5877   4.255   6.818   2.486
   14CHTO   C18 5878   4.077   6.892   2.580
   14CHTO   O13 5879   4.020   6.915   2.710
   14CHTO    H7 5880   3.994   6.833   2.748
   14CHTO    O2 5881   4.474   6.919   2.848
   14CHTO    C1 5882   4.561   7.031   2.822
   14CHTO   H14 5883   4.556   7.060   2.714
   14CHTO    C2 5884   4.712   7.001   2.859
   14CHTO   H15 5885   4.711   6.965   0.086
   14CHTO    O6 5886   4.762   6.897   2.773
   14CHTO    H1 5887   4.717   6.816   2.791
   14CHTO    C3 5888   4.802   7.133   2.846
   14CHTO   H16 5889   4.813   7.154   2.739
   14CHTO    N1 5890   4.941   7.115   0.023
   14CHTO    H8 5891   4.955   7.014   0.061
   14CHTO    H9 5892   5.014   7.135   2.825
   14CHTO    C4 5893   4.731   7.260   0.029
   14CHTO   H17 5894   4.739   7.257   0.138
   14CHTO    O1 5895   4.592   7.268   2.869
   14CHTO    C5 5896   4.512   7.154   0.025
   14CHTO   H18 5897   4.523   7.131   0.131
   14CHTO   C16 5898   4.364   7.188   2.874
   14CHTO   O11 5899   4.317   7.292   0.083
   14CHTO    H5 5900   4.313   7.261   0.171
   14CHTO    O3 5901   4.789   7.380   2.854
   14CHTO    C6 5902   4.781   7.499   0.062
   14CHTO   H19 5903   4.715   7.484   0.149
   14CHTO    C8 5904   4.923   7.536   0.114
   14CHTO   H21 5905   4.989   7.547   0.028
   14CHTO    O7 5906   4.970   7.428   0.196
   14CHTO    H2 5907   4.917   7.419   0.273
   14CHTO   C12 5908   4.919   7.674   0.193
   14CHTO   H25 5909   4.863   7.654   0.287
   14CHTO    N3 5910   5.057   7.716   0.234
   14CHTO   H12 5911   5.052   7.808   0.291
   14CHTO   H13 5912   5.119   7.730   0.147
   14CHTO   C15 5913   4.843   7.783   0.110
   14CHTO   H28 5914   4.901   7.817   0.024
   14CHTO   O10 5915   4.803   7.905   0.195
   14CHTO    H4 5916   4.880   7.947   0.228
   14CHTO    O5 5917   4.714   7.735   0.066
   14CHTO   C10 5918   4.723   7.619   2.860
   14CHTO   H23 5919   4.789   7.642   2.777
   14CHTO   C17 5920   4.584   7.592   2.799
   14CHTO   O12 5921   4.486   7.563   0.022
   14CHTO    H6 5922   4.404   7.543   2.859
   15CHTO  H203 5923   5.497   4.865   2.531
   15CHTO   O82 5924   5.477   4.777   2.558
   15CHTO  C123 5925   5.414   4.705   2.451
   15CHTO  H227 5926   5.339   4.770   2.404
   15CHTO   O77 5927   5.524   4.679   2.358
   15CHTO  C118 5928   5.482   4.617   2.235
   15CHTO  H222 5929   5.405   4.679   2.187
   15CHTO  C125 5930   5.607   4.608   2.140
   15CHTO   O84 5931   5.651   4.739   2.102
   15CHTO  H205 5932   5.727   4.733   2.049
   15CHTO  C114 5933   5.425   4.477   2.265
   15CHTO  H218 5934   5.504   4.415   2.307
   15CHTO  C116 5935   5.309   4.485   2.369
   15CHTO  H220 5936   5.220   4.533   2.321
   15CHTO   O79 5937   5.269   4.352   2.404
   15CHTO  H201 5938   5.232   4.308   2.330
   15CHTO  C120 5939   5.352   4.568   2.497
   15CHTO  H224 5940   5.428   4.507   2.550
   15CHTO   N21 5941   5.238   4.587   2.592
   15CHTO  H211 5942   5.276   4.595   2.693
   15CHTO  H212 5943   5.169   4.505   2.585
   15CHTO   O75 5944   5.384   4.425   2.137
   15CHTO  C112 5945   5.397   4.263   2.126
   15CHTO  H216 5946   5.396   4.220   2.228
   15CHTO   O73 5947   5.519   4.234   2.056
   15CHTO  C113 5948   5.550   4.094   2.051
   15CHTO  H217 5949   5.556   4.054   2.155
   15CHTO  C124 5950   5.689   4.079   1.987
   15CHTO   O83 5951   5.791   4.150   2.058
   15CHTO  H204 5952   5.873   4.138   2.015
   15CHTO  C109 5953   5.441   4.017   1.971
   15CHTO  H213 5954   5.449   4.050   1.866
   15CHTO  C110 5955   5.299   4.049   2.026
   15CHTO  H214 5956   5.287   3.998   2.122
   15CHTO   O78 5957   5.203   3.991   1.935
   15CHTO  H200 5958   5.116   4.000   1.970
   15CHTO  C111 5959   5.276   4.202   2.045
   15CHTO  H215 5960   5.275   4.250   1.946
   15CHTO   N19 5961   5.146   4.234   2.109
   15CHTO  H207 5962   5.142   4.190   2.208
   15CHTO  H208 5963   5.133   4.341   2.116
   15CHTO   O74 5964   5.463   3.873   1.978
   15CHTO  C115 5965   5.528   3.805   1.849
   15CHTO  H219 5966   5.569   3.880   1.781
   15CHTO   O76 5967   5.653   3.714   1.888
   15CHTO  C122 5968   5.611   3.590   1.946
   15CHTO  H226 5969   5.551   3.613   2.034
   15CHTO  C126 5970   5.737   3.513   2.001
   15CHTO   O85 5971   5.833   3.482   1.898
   15CHTO  H206 5972   5.906   3.436   1.936
   15CHTO  C121 5973   5.527   3.502   1.844
   15CHTO  H225 5974   5.591   3.421   1.806
   15CHTO   O81 5975   5.416   3.442   1.913
   15CHTO  H202 5976   5.447   3.381   1.977
   15CHTO  C119 5977   5.477   3.587   1.723
   15CHTO  H223 5978   5.567   3.614   1.668
   15CHTO  C117 5979   5.415   3.722   1.775
   15CHTO  H221 5980   5.335   3.712   1.848
   15CHTO   N20 5981   5.355   3.803   1.663
   15CHTO  H209 5982   5.431   3.827   1.590
   15CHTO  H210 5983   5.275   3.748   1.616
   15CHTO   O80 5984   5.390   3.502   1.606
   15CHTO  C103 5985   5.393   3.342   1.603
   15CHTO  H190 5986   5.437   3.301   1.694
   15CHTO  C101 5987   5.252   3.276   1.582
   15CHTO  H188 5988   5.205   3.321   1.494
   15CHTO   O68 5989   5.165   3.308   1.705
   15CHTO  H168 5990   5.078   3.277   1.692
   15CHTO   C99 5991   5.264   3.117   1.557
   15CHTO  H186 5992   5.301   3.070   1.651
   15CHTO   N17 5993   5.133   3.050   1.525
   15CHTO  H174 5994   5.139   2.994   1.433
   15CHTO  H175 5995   5.053   3.123   1.520
   15CHTO   C97 5996   5.372   3.087   1.449
   15CHTO  H184 5997   5.334   3.118   1.351
   15CHTO   O64 5998   5.495   3.154   1.482
   15CHTO  C104 5999   5.487   3.297   1.483
   15CHTO  H191 6000   5.447   3.337   1.389
   15CHTO  C108 6001   5.631   3.348   1.494
   15CHTO   O71 6002   5.641   3.487   1.467
   15CHTO  H171 6003   5.601   3.536   1.537
   15CHTO   O62 6004   5.406   2.947   1.447
   15CHTO   C91 6005   5.491   2.902   1.340
   15CHTO  H178 6006   5.493   2.978   1.262
   15CHTO   C92 6007   5.423   2.775   1.276
   15CHTO  H179 6008   5.316   2.795   1.257
   15CHTO   O66 6009   5.481   2.753   1.146
   15CHTO  H166 6010   5.462   2.824   1.089
   15CHTO   C93 6011   5.445   2.644   1.360
   15CHTO  H180 6012   5.417   2.560   1.295
   15CHTO   N16 6013   5.353   2.631   1.476
   15CHTO  H172 6014   5.372   2.538   1.528
   15CHTO  H173 6015   5.367   2.715   1.543
   15CHTO   C94 6016   5.597   2.629   1.401
   15CHTO  H181 6017   5.611   2.628   1.509
   15CHTO   O61 6018   5.682   2.734   1.350
   15CHTO   C95 6019   5.640   2.867   1.386
   15CHTO  H182 6020   5.645   2.877   1.495
   15CHTO  C106 6021   5.744   2.970   1.328
   15CHTO   O69 6022   5.756   2.960   1.186
   15CHTO  H169 6023   5.801   2.881   1.163
   15CHTO   O63 6024   5.648   2.497   1.339
   15CHTO   C96 6025   5.735   2.412   1.433
   15CHTO  H183 6026   5.719   2.445   1.536
   15CHTO   C98 6027   5.887   2.418   1.404
   15CHTO  H185 6028   5.905   2.403   1.297
   15CHTO   O67 6029   5.931   2.553   1.432
   15CHTO  H167 6030   5.922   2.573   1.523
   15CHTO  C102 6031   5.970   2.310   1.491
   15CHTO  H189 6032   5.959   2.340   1.596
   15CHTO   N18 6033   6.117   2.306   1.465
   15CHTO  H176 6034   6.145   2.379   1.391
   15CHTO  H177 6035   6.171   2.325   1.557
   15CHTO  C105 6036   5.903   2.171   1.472
   15CHTO  H192 6037   5.913   2.141   1.367
   15CHTO   O65 6038   5.763   2.176   1.504
   15CHTO  C100 6039   5.683   2.264   1.424
   15CHTO  H187 6040   5.689   2.230   1.320
   15CHTO  C107 6041   5.536   2.250   1.471
   15CHTO   O70 6042   5.517   2.285   1.608
   15CHTO  H170 6043   5.560   2.222   1.663
   15CHTO   O57 6044   5.977   2.059   1.569
   15CHTO   C85 6045   5.955   2.048   1.711
   15CHTO  H157 6046   5.918   2.148   1.745
   15CHTO   C83 6047   6.095   2.031   1.780
   15CHTO  H155 6048   6.146   2.128   1.777
   15CHTO   O56 6049   6.177   1.941   1.704
   15CHTO  H135 6050   6.265   1.939   1.737
   15CHTO   C81 6051   6.079   1.988   1.929
   15CHTO  H153 6052   6.020   2.064   1.980
   15CHTO   N14 6053   6.208   1.987   2.005
   15CHTO  H141 6054   6.222   1.892   2.053
   15CHTO  H142 6055   6.291   2.006   1.941
   15CHTO   C79 6056   6.001   1.852   1.936
   15CHTO  H151 6057   5.993   1.825   2.041
   15CHTO   O52 6058   5.866   1.874   1.887
   15CHTO   C86 6059   5.855   1.930   1.752
   15CHTO  H158 6060   5.868   1.843   1.685
   15CHTO   C90 6061   5.708   1.976   1.734
   15CHTO   O60 6062   5.616   1.866   1.736
   15CHTO  H138 6063   5.626   1.815   1.658
   15CHTO   O50 6064   6.063   1.745   1.864
   15CHTO   C73 6065   6.045   1.606   1.831
   15CHTO  H145 6066   5.939   1.586   1.808
   15CHTO   C74 6067   6.088   1.515   1.950
   15CHTO  H146 6068   6.026   1.543   2.037
   15CHTO   O54 6069   6.052   1.379   1.918
   15CHTO  H133 6070   6.072   1.322   1.989
   15CHTO   C75 6071   6.242   1.536   1.978
   15CHTO  H147 6072   6.257   1.639   2.012
   15CHTO   N13 6073   6.294   1.450   2.088
   15CHTO  H139 6074   6.369   1.381   2.051
   15CHTO  H140 6075   6.338   1.511   2.165
   15CHTO   C76 6076   6.326   1.520   1.842
   15CHTO  H148 6077   6.326   1.414   1.814
   15CHTO   O49 6078   6.269   1.599   1.733
   15CHTO   C77 6079   6.131   1.571   1.706
   15CHTO  H149 6080   6.118   1.465   1.683
   15CHTO   C88 6081   6.088   1.647   1.581
   15CHTO   O58 6082   5.956   1.606   1.537
   15CHTO  H136 6083   5.933   1.652   1.459
   15CHTO   O51 6084   6.473   1.578   1.866
   15CHTO   C78 6085   6.564   1.591   1.739
   15CHTO  H150 6086   6.503   1.607   1.647
   15CHTO   C80 6087   6.648   1.463   1.721
   15CHTO  H152 6088   6.698   1.438   1.818
   15CHTO   O55 6089   6.558   1.355   1.689
   15CHTO  H134 6090   6.518   1.369   1.606
   15CHTO   C84 6091   6.759   1.483   1.610
   15CHTO  H156 6092   6.709   1.502   1.515
   15CHTO   N15 6093   6.846   1.362   1.591
   15CHTO  H143 6094   6.919   1.380   1.514
   15CHTO  H144 6095   6.785   1.278   1.562
   15CHTO   C87 6096   6.842   1.608   1.648
   15CHTO  H159 6097   6.889   1.593   1.745
   15CHTO   O53 6098   6.745   1.729   1.652
   15CHTO   C82 6099   6.651   1.716   1.760
   15CHTO  H154 6100   6.704   1.711   1.855
   15CHTO   C89 6101   6.560   1.841   1.765
   15CHTO   O59 6102   6.634   1.962   1.786
   15CHTO  H137 6103   6.685   1.982   1.710
   15CHTO   O45 6104   6.958   1.642   1.540
   15CHTO   C67 6105   7.045   1.749   1.582
   15CHTO  H124 6106   6.988   1.820   1.641
   15CHTO   C65 6107   7.165   1.696   1.669
   15CHTO  H122 6108   7.182   1.593   1.637
   15CHTO   O44 6109   7.119   1.696   1.805
   15CHTO  H102 6110   7.182   1.654   1.860
   15CHTO   C63 6111   7.301   1.771   1.638
   15CHTO  H120 6112   7.342   1.732   1.545
   15CHTO   N11 6113   7.414   1.743   1.732
   15CHTO  H108 6114   7.505   1.785   1.694
   15CHTO  H109 6115   7.393   1.786   1.828
   15CHTO   C61 6116   7.273   1.924   1.611
   15CHTO  H118 6117   7.370   1.969   1.583
   15CHTO   O40 6118   7.184   1.942   1.497
   15CHTO   C68 6119   7.097   1.831   1.458
   15CHTO  H125 6120   7.154   1.763   1.390
   15CHTO   C72 6121   6.979   1.887   1.375
   15CHTO   O48 6122   6.899   1.983   1.446
   15CHTO  H105 6123   6.949   2.061   1.462
   15CHTO   O38 6124   7.224   1.991   1.729
   15CHTO   C55 6125   7.144   2.111   1.718
   15CHTO  H112 6126   7.070   2.098   1.638
   15CHTO   C56 6127   7.233   2.240   1.698
   15CHTO  H113 6128   7.310   2.239   1.776
   15CHTO   O42 6129   7.302   2.231   1.572
   15CHTO  H100 6130   7.241   2.229   1.501
   15CHTO   C57 6131   7.145   2.372   1.707
   15CHTO  H114 6132   7.080   2.373   1.620
   15CHTO   N10 6133   7.227   2.496   1.704
   15CHTO  H106 6134   7.242   2.527   1.602
   15CHTO  H107 6135   7.179   2.576   1.758
   15CHTO   C58 6136   7.057   2.367   1.835
   15CHTO  H115 6137   7.123   2.372   1.925
   15CHTO   O37 6138   6.981   2.245   1.842
   15CHTO   C59 6139   7.059   2.125   1.848
   15CHTO  H116 6140   7.123   2.127   1.936
   15CHTO   C70 6141   6.964   2.006   1.859
   15CHTO   O46 6142   6.884   2.009   1.977
   15CHTO  H103 6143   6.832   1.931   1.982
   15CHTO   O39 6144   6.946   2.494   1.842
   15CHTO   C60 6145   6.861   2.519   1.727
   15CHTO  H117 6146   6.924   2.542   1.641
   15CHTO   C62 6147   6.771   2.397   1.689
   15CHTO  H119 6148   6.839   2.316   1.657
   15CHTO   O43 6149   6.697   2.353   1.805
   15CHTO  H101 6150   6.639   2.421   1.834
   15CHTO   C66 6151   6.676   2.435   1.565
   15CHTO  H123 6152   6.739   2.466   1.481
   15CHTO   N12 6153   6.599   2.318   1.515
   15CHTO  H110 6154   6.536   2.279   1.594
   15CHTO  H111 6155   6.666   2.242   1.479
   15CHTO   C69 6156   6.587   2.555   1.604
   15CHTO  H126 6157   6.523   2.528   1.691
   15CHTO   O41 6158   6.678   2.674   1.642
   15CHTO   C64 6159   6.775   2.645   1.756
   15CHTO  H121 6160   6.717   2.628   1.850
   15CHTO   C71 6161   6.864   2.769   1.777
   15CHTO   O47 6162   6.786   2.882   1.818
   15CHTO  H104 6163   6.842   2.957   1.828
   15CHTO   O34 6164   6.492   2.601   1.486
   15CHTO   C49 6165   6.499   2.622   1.335
   15CHTO   H91 6166   6.549   2.535   1.293
   15CHTO   C47 6167   6.580   2.749   1.303
   15CHTO   H89 6168   6.593   2.752   1.193
   15CHTO   O33 6169   6.709   2.737   1.364
   15CHTO   H70 6170   6.763   2.811   1.341
   15CHTO   C45 6171   6.498   2.879   1.352
   15CHTO   H87 6172   6.478   2.868   1.460
   15CHTO    N8 6173   6.573   3.006   1.331
   15CHTO   H75 6174   6.598   3.051   1.426
   15CHTO   H76 6175   6.663   2.989   1.274
   15CHTO   C43 6176   6.354   2.880   1.281
   15CHTO   H85 6177   6.299   2.964   1.325
   15CHTO   O29 6178   6.285   2.755   1.303
   15CHTO   C50 6179   6.356   2.633   1.275
   15CHTO   H92 6180   6.297   2.551   1.320
   15CHTO   C54 6181   6.354   2.598   1.124
   15CHTO   O36 6182   6.221   2.569   1.079
   15CHTO   H72 6183   6.195   2.484   1.111
   15CHTO   O27 6184   6.363   2.908   1.140
   15CHTO   C37 6185   6.290   2.962   1.030
   15CHTO   H79 6186   6.248   2.880   0.968
   15CHTO   C38 6187   6.170   3.049   1.078
   15CHTO   H80 6188   6.207   3.117   1.156
   15CHTO   O31 6189   6.074   2.959   1.138
   15CHTO   H68 6190   6.004   3.008   1.177
   15CHTO   C39 6191   6.106   3.133   0.962
   15CHTO   H81 6192   6.057   3.063   0.894
   15CHTO    N7 6193   6.002   3.230   1.011
   15CHTO   H73 6194   5.907   3.210   0.964
   15CHTO   H74 6195   6.031   3.333   0.994
   15CHTO   C40 6196   6.218   3.206   0.879
   15CHTO   H82 6197   6.263   3.284   0.941
   15CHTO   O26 6198   6.316   3.111   0.834
   15CHTO   C41 6199   6.387   3.045   0.942
   15CHTO   H83 6200   6.436   3.121   1.005
   15CHTO   C52 6201   6.499   2.959   0.879
   15CHTO   O35 6202   6.447   2.856   0.783
   15CHTO   H71 6203   6.519   2.808   0.747
   15CHTO   O28 6204   6.172   3.259   0.753
   15CHTO   C42 6205   6.215   3.391   0.705
   15CHTO   H84 6206   6.210   3.380   0.597
   15CHTO   C44 6207   6.362   3.435   0.737
   15CHTO   H86 6208   6.378   3.430   0.845
   15CHTO   O32 6209   6.450   3.340   0.675
   15CHTO   H69 6210   6.539   3.358   0.698
   15CHTO   C48 6211   6.394   3.584   0.692
   15CHTO   H90 6212   6.396   3.587   0.583
   15CHTO    N9 6213   6.530   3.629   0.736
   15CHTO   H77 6214   6.549   3.730   0.702
   15CHTO   H78 6215   6.538   3.625   0.844
   15CHTO   C51 6216   6.279   3.679   0.743
   15CHTO   H93 6217   6.279   3.678   0.852
   15CHTO   O30 6218   6.156   3.630   0.688
   15CHTO   C46 6219   6.113   3.501   0.745
   15CHTO   H88 6220   6.110   3.508   0.853
   15CHTO   C53 6221   5.972   3.470   0.690
   15CHTO   O72 6222   5.878   3.567   0.736
   15CHTO  H199 6223   5.792   3.544   0.705
   15CHTO   O22 6224   6.294   3.814   0.694
   15CHTO   C31 6225   6.206   3.926   0.734
   15CHTO   H59 6226   6.247   4.015   0.682
   15CHTO   C29 6227   6.059   3.912   0.690
   15CHTO   H57 6228   6.016   3.825   0.742
   15CHTO   O21 6229   6.057   3.884   0.549
   15CHTO   H37 6230   5.970   3.859   0.522
   15CHTO   C27 6231   5.974   4.040   0.727
   15CHTO   H55 6232   6.012   4.125   0.669
   15CHTO    N5 6233   5.829   4.024   0.697
   15CHTO   H43 6234   5.776   4.116   0.718
   15CHTO   H44 6235   5.788   3.943   0.756
   15CHTO   C25 6236   5.997   4.074   0.878
   15CHTO   H53 6237   5.951   3.995   0.940
   15CHTO   O17 6238   6.138   4.080   0.912
   15CHTO   C32 6239   6.212   3.960   0.886
   15CHTO   H60 6240   6.168   3.877   0.942
   15CHTO   C36 6241   6.357   3.982   0.934
   15CHTO   O25 6242   6.362   4.002   1.076
   15CHTO   H40 6243   6.324   4.085   1.098
   15CHTO   O15 6244   5.933   4.214   0.914
   15CHTO   C19 6245   5.936   4.289   1.039
   15CHTO   H47 6246   6.031   4.260   1.086
   15CHTO   C20 6247   5.934   4.444   1.021
   15CHTO   H48 6248   5.842   4.478   0.969
   15CHTO   O19 6249   6.047   4.478   0.938
   15CHTO   H35 6250   6.033   4.448   0.850
   15CHTO   C21 6251   5.942   4.518   1.160
   15CHTO   H49 6252   6.040   4.500   1.203
   15CHTO    N4 6253   5.928   4.666   1.146
   15CHTO   H41 6254   6.006   4.704   1.082
   15CHTO   H42 6255   5.936   4.713   1.243
   15CHTO   C22 6256   5.837   4.460   1.259
   15CHTO   H50 6257   5.738   4.491   1.227
   15CHTO   O14 6258   5.841   4.317   1.262
   15CHTO   C23 6259   5.823   4.248   1.138
   15CHTO   H51 6260   5.723   4.274   1.100
   15CHTO   C34 6261   5.822   4.098   1.169
   15CHTO   O23 6262   5.945   4.053   1.228
   15CHTO   H38 6263   5.939   3.961   1.245
   15CHTO   O16 6264   5.857   4.501   1.396
   15CHTO   C24 6265   5.984   4.434   1.479
   15CHTO   H52 6266   6.057   4.390   1.412
   15CHTO   C26 6267   5.934   4.326   1.579
   15CHTO   H54 6268   5.862   4.374   1.650
   15CHTO   O20 6269   5.864   4.222   1.510
   15CHTO   H36 6270   5.920   4.178   1.449
   15CHTO   C30 6271   6.054   4.270   1.663
   15CHTO   H58 6272   6.123   4.216   1.597
   15CHTO    N6 6273   6.010   4.172   1.767
   15CHTO   H45 6274   6.057   4.076   1.750
   15CHTO   H46 6275   5.902   4.159   1.766
   15CHTO   C33 6276   6.136   4.387   1.726
   15CHTO   H61 6277   6.074   4.437   1.803
   15CHTO   O18 6278   6.169   4.483   1.625
   15CHTO   C28 6279   6.057   4.544   1.561
   15CHTO   H56 6280   5.988   4.584   1.635
   15CHTO   C35 6281   6.106   4.662   1.475
   15CHTO   O24 6282   6.202   4.625   1.375
   15CHTO   H39 6283   6.161   4.573   1.309
   15CHTO    O9 6284   6.253   4.340   1.795
   15CHTO   C13 6285   6.308   4.440   1.909
   15CHTO   H26 6286   6.223   4.464   1.976
   15CHTO   C11 6287   6.368   4.570   1.841
   15CHTO   H24 6288   6.285   4.622   1.791
   15CHTO    O8 6289   6.464   4.534   1.740
   15CHTO    H3 6290   6.538   4.491   1.779
   15CHTO    C9 6291   6.422   4.662   1.953
   15CHTO   H22 6292   6.337   4.682   2.019
   15CHTO    N2 6293   6.462   4.796   1.902
   15CHTO   H10 6294   6.487   4.861   1.984
   15CHTO   H11 6295   6.547   4.786   1.835
   15CHTO    C7 6296   6.534   4.588   2.035
   15CHTO   H20 6297   6.546   4.653   2.124
   15CHTO    O4 6298   6.494   4.457   2.081
   15CHTO   C14 6299   6.415   4.367   2.001
   15CHTO   H27 6300   6.359   4.304   2.074
   15CHTO   C18 6301   6.512   4.272   1.926
   15CHTO   O13 6302   6.445   4.155   1.875
   15CHTO    H7 6303   6.419   4.100   1.946
   15CHTO    O2 6304   6.677   4.577   1.952
   15CHTO    C1 6305   6.794   4.577   2.036
   15CHTO   H14 6306   6.776   4.513   2.125
   15CHTO    C2 6307   6.842   4.721   2.087
   15CHTO   H15 6308   6.856   4.783   1.996
   15CHTO    O6 6309   6.740   4.781   2.169
   15CHTO    H1 6310   6.724   4.728   2.245
   15CHTO    C3 6311   6.982   4.709   2.167
   15CHTO   H16 6312   6.964   4.651   2.258
   15CHTO    N1 6313   7.034   4.843   2.209
   15CHTO    H8 6314   6.962   4.892   2.273
   15CHTO    H9 6315   7.127   4.831   2.262
   15CHTO    C4 6316   7.086   4.626   2.082
   15CHTO   H17 6317   7.116   4.685   1.995
   15CHTO    O1 6318   7.028   4.501   2.043
   15CHTO    C5 6319   6.912   4.512   1.958
   15CHTO   H18 6320   6.936   4.577   1.873
   15CHTO   C16 6321   6.880   4.371   1.904
   15CHTO   O11 6322   6.852   4.277   2.009
   15CHTO    H5 6323   6.832   4.194   1.971
   15CHTO    O3 6324   7.204   4.590   2.159
   15CHTO    C6 6325   7.330   4.550   2.092
   15CHTO   H19 6326   7.389   4.488   2.160
   15CHTO    C8 6327   7.311   4.462   1.963
   15CHTO   H21 6328   7.243   4.514   1.895
   15CHTO    O7 6329   7.253   4.338   2.006
   15CHTO    H2 6330   7.229   4.286   1.931
   15CHTO   C12 6331   7.448   4.438   1.887
   15CHTO   H25 6332   7.510   4.374   1.954
   15CHTO    N3 6333   7.429   4.362   1.759
   15CHTO   H12 6334   7.364   4.417   1.693
   15CHTO   H13 6335   7.387   4.265   1.780
   15CHTO   C15 6336   7.522   4.575   1.868
   15CHTO   H28 6337   7.468   4.640   1.799
   15CHTO   O10 6338   7.668   4.559   1.821
   15CHTO    H4 6339   7.671   4.515   1.739
   15CHTO    O5 6340   7.538   4.640   1.994
   15CHTO   C10 6341   7.416   4.677   2.061
   15CHTO   H23 6342   7.361   4.746   1.997
   15CHTO   C17 6343   7.462   4.753   2.186
   15CHTO   O12 6344   7.355   4.818   2.254
   15CHTO    H6 6345   7.388   4.865   2.328
   16CHTO  H203 6346   4.529   4.041   0.705
   16CHTO   O82 6347   4.481   3.961   0.717
   16CHTO  C123 6348   4.536   3.884   0.826
   16CHTO  H227 6349   4.474   3.794   0.840
   16CHTO   O77 6350   4.668   3.846   0.777
   16CHTO  C118 6351   4.741   3.759   0.866
   16CHTO  H222 6352   4.680   3.670   0.887
   16CHTO  C125 6353   4.873   3.715   0.793
   16CHTO   O84 6354   4.957   3.826   0.759
   16CHTO  H205 6355   4.915   3.878   0.693
   16CHTO  C114 6356   4.769   3.833   0.998
   16CHTO  H218 6357   4.830   3.921   0.977
   16CHTO  C116 6358   4.637   3.884   1.064
   16CHTO  H220 6359   4.579   3.796   1.101
   16CHTO   O79 6360   4.671   3.962   1.180
   16CHTO  H201 6361   4.594   3.987   1.226
   16CHTO  C120 6362   4.550   3.966   0.960
   16CHTO  H224 6363   4.604   4.061   0.941
   16CHTO   N21 6364   4.417   4.004   1.017
   16CHTO  H211 6365   4.382   3.929   1.086
   16CHTO  H212 6366   4.345   4.019   0.938
   16CHTO   O75 6367   4.840   3.738   1.080
   16CHTO  C112 6368   4.975   3.799   1.149
   16CHTO  H216 6369   4.949   3.894   1.200
   16CHTO   O73 6370   5.071   3.820   1.044
   16CHTO  C113 6371   5.196   3.874   1.088
   16CHTO  H217 6372   5.177   3.969   1.142
   16CHTO  C124 6373   5.281   3.909   0.965
   16CHTO   O83 6374   5.221   4.011   0.884
   16CHTO  H204 6375   5.275   4.027   0.809
   16CHTO  C109 6376   5.267   3.774   1.182
   16CHTO  H213 6377   5.286   3.683   1.123
   16CHTO  C110 6378   5.173   3.741   1.303
   16CHTO  H214 6379   5.165   3.831   1.365
   16CHTO   O78 6380   5.235   3.639   1.382
   16CHTO  H200 6381   5.186   3.624   1.460
   16CHTO  C111 6382   5.032   3.697   1.254
   16CHTO  H215 6383   5.042   3.600   1.202
   16CHTO   N19 6384   4.935   3.676   1.364
   16CHTO  H207 6385   4.840   3.644   1.325
   16CHTO  H208 6386   4.972   3.602   1.433
   16CHTO   O74 6387   5.395   3.830   1.226
   16CHTO  C115 6388   5.509   3.720   1.263
   16CHTO  H219 6389   5.486   3.667   1.355
   16CHTO   O76 6390   5.519   3.603   1.150
   16CHTO  C122 6391   5.601   3.640   1.039
   16CHTO  H226 6392   5.557   3.729   0.994
   16CHTO  C126 6393   5.592   3.528   0.929
   16CHTO   O85 6394   5.638   3.400   0.974
   16CHTO  H206 6395   5.730   3.403   0.992
   16CHTO  C121 6396   5.751   3.670   1.081
   16CHTO  H225 6397   5.814   3.581   1.058
   16CHTO   O81 6398   5.801   3.780   1.003
   16CHTO  H202 6399   5.893   3.790   1.016
   16CHTO  C119 6400   5.763   3.701   1.234
   16CHTO  H223 6401   5.747   3.605   1.283
   16CHTO  C117 6402   5.647   3.796   1.280
   16CHTO  H221 6403   5.635   3.888   1.223
   16CHTO   N20 6404   5.663   3.841   1.422
   16CHTO  H209 6405   5.756   3.895   1.433
   16CHTO  H210 6406   5.663   3.756   1.489
   16CHTO   O80 6407   5.915   3.734   1.281
   16CHTO  C103 6408   6.020   3.617   1.284
   16CHTO  H190 6409   5.972   3.523   1.256
   16CHTO  C101 6410   6.148   3.635   1.195
   16CHTO  H188 6411   6.200   3.726   1.225
   16CHTO   O68 6412   6.104   3.650   1.051
   16CHTO  H168 6413   6.179   3.668   0.997
   16CHTO   C99 6414   6.248   3.510   1.217
   16CHTO  H186 6415   6.197   3.418   1.180
   16CHTO   N17 6416   6.377   3.521   1.141
   16CHTO  H174 6417   6.434   3.429   1.151
   16CHTO  H175 6418   6.357   3.542   1.037
   16CHTO   C97 6419   6.274   3.487   1.369
   16CHTO  H184 6420   6.340   3.567   1.406
   16CHTO   O64 6421   6.149   3.482   1.441
   16CHTO  C104 6422   6.069   3.601   1.432
   16CHTO  H191 6423   6.125   3.690   1.462
   16CHTO  C108 6424   5.953   3.589   1.532
   16CHTO   O71 6425   6.002   3.582   1.667
   16CHTO  H171 6426   5.930   3.568   1.725
   16CHTO   O62 6427   6.337   3.358   1.392
   16CHTO   C91 6428   6.359   3.317   1.529
   16CHTO  H178 6429   6.313   3.390   1.596
   16CHTO   C92 6430   6.512   3.320   1.563
   16CHTO  H179 6431   6.565   3.260   1.487
   16CHTO   O66 6432   6.559   3.454   1.546
   16CHTO  H166 6433   6.556   3.480   1.456
   16CHTO   C93 6434   6.543   3.267   1.709
   16CHTO  H180 6435   6.507   3.343   1.779
   16CHTO   N16 6436   6.688   3.250   1.737
   16CHTO  H172 6437   6.731   3.181   1.667
   16CHTO  H173 6438   6.737   3.346   1.731
   16CHTO   C94 6439   6.466   3.132   1.737
   16CHTO  H181 6440   6.504   3.049   1.678
   16CHTO   O61 6441   6.327   3.148   1.703
   16CHTO   C95 6442   6.302   3.175   1.565
   16CHTO  H182 6443   6.350   3.099   1.504
   16CHTO  C106 6444   6.147   3.162   1.542
   16CHTO   O69 6445   6.112   3.170   1.404
   16CHTO  H169 6446   6.129   3.256   1.372
   16CHTO   O63 6447   6.472   3.094   1.900
   16CHTO   C96 6448   6.371   2.973   1.946
   16CHTO  H183 6449   6.410   2.934   2.040
   16CHTO   C98 6450   6.363   2.852   1.847
   16CHTO  H185 6451   6.360   2.889   1.743
   16CHTO   O67 6452   6.487   2.779   1.858
   16CHTO  H167 6453   6.559   2.831   1.828
   16CHTO  C102 6454   6.237   2.756   1.872
   16CHTO  H189 6455   6.254   2.708   1.969
   16CHTO   N18 6456   6.220   2.645   1.774
   16CHTO  H176 6457   6.224   2.550   1.825
   16CHTO  H177 6458   6.297   2.649   1.698
   16CHTO  C105 6459   6.112   2.847   1.883
   16CHTO  H192 6460   6.103   2.906   1.791
   16CHTO   O65 6461   6.126   2.935   1.995
   16CHTO  C100 6462   6.228   3.035   1.978
   16CHTO  H187 6463   6.197   3.099   1.894
   16CHTO  C107 6464   6.231   3.125   2.103
   16CHTO   O70 6465   6.257   3.051   2.223
   16CHTO  H170 6466   6.346   3.020   2.223
   16CHTO   O57 6467   5.975   2.757   1.903
   16CHTO   C85 6468   5.856   2.800   1.836
   16CHTO  H157 6469   5.883   2.809   1.728
   16CHTO   C83 6470   5.816   2.945   1.881
   16CHTO  H155 6471   5.897   3.013   1.853
   16CHTO   O56 6472   5.808   2.950   2.025
   16CHTO  H135 6473   5.736   2.897   2.055
   16CHTO   C81 6474   5.687   2.990   1.806
   16CHTO  H153 6475   5.707   2.986   1.699
   16CHTO   N14 6476   5.652   3.131   1.832
   16CHTO  H141 6477   5.734   3.195   1.806
   16CHTO  H142 6478   5.628   3.145   1.935
   16CHTO   C79 6479   5.570   2.890   1.838
   16CHTO  H151 6480   5.485   2.919   1.776
   16CHTO   O52 6481   5.607   2.754   1.798
   16CHTO   C86 6482   5.732   2.705   1.857
   16CHTO  H158 6483   5.709   2.693   1.965
   16CHTO   C90 6484   5.763   2.563   1.804
   16CHTO   O60 6485   5.659   2.471   1.838
   16CHTO  H138 6486   5.677   2.388   1.798
   16CHTO   O50 6487   5.528   2.891   1.976
   16CHTO   C73 6488   5.429   2.830   2.059
   16CHTO  H145 6489   5.445   2.722   2.064
   16CHTO   C74 6490   5.286   2.858   2.003
   16CHTO  H146 6491   5.283   2.817   1.900
   16CHTO   O54 6492   5.192   2.780   2.080
   16CHTO  H133 6493   5.106   2.789   2.043
   16CHTO   C75 6494   5.257   3.013   2.005
   16CHTO  H147 6495   5.331   3.063   1.940
   16CHTO   N13 6496   5.124   3.050   1.950
   16CHTO  H139 6497   5.112   3.157   1.952
   16CHTO  H140 6498   5.046   3.005   2.010
   16CHTO   C76 6499   5.280   3.067   2.154
   16CHTO  H148 6500   5.203   3.024   2.218
   16CHTO   O49 6501   5.412   3.030   2.204
   16CHTO   C77 6502   5.438   2.889   2.204
   16CHTO  H149 6503   5.366   2.838   2.267
   16CHTO   C88 6504   5.576   2.861   2.266
   16CHTO   O58 6505   5.580   2.907   2.409
   16CHTO  H136 6506   5.575   3.001   2.412
   16CHTO   O51 6507   5.279   3.225   2.156
   16CHTO   C78 6508   5.260   3.282   2.301
   16CHTO  H150 6509   5.276   3.204   2.378
   16CHTO   C80 6510   5.117   3.339   2.317
   16CHTO  H152 6511   5.097   3.408   2.232
   16CHTO   O55 6512   5.025   3.228   2.308
   16CHTO  H134 6513   5.021   3.197   2.220
   16CHTO   C84 6514   5.100   3.417   2.454
   16CHTO  H156 6515   5.109   3.345   2.535
   16CHTO   N15 6516   4.965   3.482   2.467
   16CHTO  H143 6517   4.888   3.408   2.462
   16CHTO  H144 6518   4.958   3.533   2.561
   16CHTO   C87 6519   5.214   3.521   2.467
   16CHTO  H159 6520   5.204   3.596   2.388
   16CHTO   O53 6521   5.348   3.449   2.454
   16CHTO   C82 6522   5.366   3.391   2.324
   16CHTO  H154 6523   5.360   3.468   2.247
   16CHTO   C89 6524   5.508   3.331   2.316
   16CHTO   O59 6525   5.609   3.432   2.330
   16CHTO  H137 6526   5.694   3.392   2.329
   16CHTO   O45 6527   5.215   3.595   2.612
   16CHTO   C67 6528   5.297   3.713   2.612
   16CHTO  H124 6529   5.380   3.699   2.543
   16CHTO   C65 6530   5.215   3.839   2.568
   16CHTO  H122 6531   5.111   3.818   2.594
   16CHTO   O44 6532   5.227   3.846   2.424
   16CHTO  H102 6533   5.170   3.913   2.391
   16CHTO   C63 6534   5.253   3.969   2.650
   16CHTO  H120 6535   5.209   3.961   2.749
   16CHTO   N11 6536   5.192   4.097   2.602
   16CHTO  H108 6537   5.143   4.083   2.508
   16CHTO  H109 6538   5.267   4.173   2.592
   16CHTO   C61 6539   5.408   3.970   2.671
   16CHTO  H118 6540   5.433   4.060   2.730
   16CHTO   O40 6541   5.454   3.855   2.748
   16CHTO   C68 6542   5.365   3.738   2.753
   16CHTO  H125 6543   5.286   3.756   2.830
   16CHTO   C72 6544   5.446   3.615   2.801
   16CHTO   O48 6545   5.492   3.630   0.058
   16CHTO  H105 6546   5.535   3.551   0.085
   16CHTO   O38 6547   5.479   3.974   2.544
   16CHTO   C55 6548   5.617   4.013   2.548
   16CHTO  H112 6549   5.657   4.003   2.650
   16CHTO   C56 6550   5.633   4.161   2.493
   16CHTO  H113 6551   5.583   4.165   2.395
   16CHTO   O42 6552   5.561   4.252   2.579
   16CHTO  H100 6553   5.563   4.338   2.543
   16CHTO   C57 6554   5.786   4.201   2.479
   16CHTO  H114 6555   5.826   4.209   2.580
   16CHTO   N10 6556   5.807   4.332   2.412
   16CHTO  H106 6557   5.729   4.351   2.340
   16CHTO  H107 6558   5.807   4.411   2.486
   16CHTO   C58 6559   5.863   4.089   2.405
   16CHTO  H115 6560   5.829   4.085   2.299
   16CHTO   O37 6561   5.840   3.961   2.466
   16CHTO   C59 6562   5.703   3.918   2.460
   16CHTO  H116 6563   5.668   3.920   2.356
   16CHTO   C70 6564   5.695   3.773   2.509
   16CHTO   O46 6565   5.766   3.683   2.424
   16CHTO  H103 6566   5.754   3.595   2.454
   16CHTO   O39 6567   6.027   4.116   2.410
   16CHTO   C60 6568   6.107   4.015   2.345
   16CHTO  H117 6569   6.074   3.917   2.379
   16CHTO   C62 6570   6.095   4.019   2.190
   16CHTO  H119 6571   5.988   4.002   2.166
   16CHTO   O43 6572   6.132   4.150   2.142
   16CHTO  H101 6573   6.118   4.156   2.050
   16CHTO   C66 6574   6.182   3.900   2.126
   16CHTO  H123 6575   6.148   3.806   2.168
   16CHTO   N12 6576   6.163   3.888   1.979
   16CHTO  H110 6577   6.191   3.981   1.931
   16CHTO  H111 6578   6.061   3.862   1.957
   16CHTO   C69 6579   6.331   3.917   2.166
   16CHTO  H126 6580   6.373   4.011   2.123
   16CHTO   O41 6581   6.343   3.921   2.323
   16CHTO   C64 6582   6.255   4.030   2.389
   16CHTO  H121 6583   6.292   4.131   2.360
   16CHTO   C71 6584   6.268   4.018   2.543
   16CHTO   O47 6585   6.402   4.045   2.587
   16CHTO  H104 6586   6.421   4.136   2.575
   16CHTO   O34 6587   6.416   3.797   2.114
   16CHTO   C49 6588   6.535   3.711   2.090
   16CHTO   H91 6589   6.558   3.665   2.186
   16CHTO   C47 6590   6.655   3.799   2.047
   16CHTO   H89 6591   6.691   3.846   2.141
   16CHTO   O33 6592   6.613   3.904   1.957
   16CHTO   H70 6593   6.683   3.965   1.944
   16CHTO   C45 6594   6.771   3.713   1.973
   16CHTO   H87 6595   6.756   3.722   1.865
   16CHTO    N8 6596   6.905   3.769   2.004
   16CHTO   H75 6597   6.927   3.758   2.109
   16CHTO   H76 6598   6.909   3.874   1.977
   16CHTO   C43 6599   6.756   3.557   2.002
   16CHTO   H85 6600   6.836   3.507   1.947
   16CHTO   O29 6601   6.626   3.513   1.958
   16CHTO   C50 6602   6.512   3.596   1.986
   16CHTO   H92 6603   6.476   3.641   1.892
   16CHTO   C54 6604   6.398   3.499   2.027
   16CHTO   O36 6605   6.271   3.564   2.042
   16CHTO   H72 6606   6.209   3.502   2.075
   16CHTO   O27 6607   6.777   3.525   2.141
   16CHTO   C37 6608   6.805   3.416   2.230
   16CHTO   H79 6609   6.826   3.455   2.331
   16CHTO   C38 6610   6.684   3.319   2.242
   16CHTO   H80 6611   6.654   3.288   2.141
   16CHTO   O31 6612   6.576   3.393   2.302
   16CHTO   H68 6613   6.498   3.342   2.302
   16CHTO   C39 6614   6.720   3.192   2.328
   16CHTO   H81 6615   6.735   3.225   2.431
   16CHTO    N7 6616   6.611   3.088   2.331
   16CHTO   H73 6617   6.590   3.054   2.231
   16CHTO   H74 6618   6.522   3.130   2.376
   16CHTO   C40 6619   6.856   3.128   2.280
   16CHTO   H82 6620   6.842   3.075   2.186
   16CHTO   O26 6621   6.959   3.227   2.271
   16CHTO   C41 6622   6.930   3.337   2.180
   16CHTO   H83 6623   6.910   3.298   2.079
   16CHTO   C52 6624   7.056   3.427   2.173
   16CHTO   O35 6625   7.172   3.357   2.113
   16CHTO   H71 6626   7.198   3.286   2.168
   16CHTO   O28 6627   6.914   3.041   2.380
   16CHTO   C42 6628   6.967   2.907   2.351
   16CHTO   H84 6629   7.049   2.899   2.424
   16CHTO   C44 6630   7.033   2.883   2.211
   16CHTO   H86 6631   6.960   2.908   2.133
   16CHTO   O32 6632   7.143   2.975   2.201
   16CHTO   H69 6633   7.182   2.970   2.116
   16CHTO   C48 6634   7.076   2.732   2.189
   16CHTO   H90 6635   7.155   2.708   2.261
   16CHTO    N9 6636   7.136   2.709   2.053
   16CHTO   H77 6637   7.066   2.736   1.976
   16CHTO   H78 6638   7.227   2.766   2.042
   16CHTO   C51 6639   6.952   2.641   2.218
   16CHTO   H93 6640   6.870   2.673   2.153
   16CHTO   O30 6641   6.920   2.660   2.357
   16CHTO   C46 6642   6.863   2.797   2.387
   16CHTO   H88 6643   6.773   2.812   2.328
   16CHTO   C53 6644   6.830   2.803   2.538
   16CHTO   O72 6645   6.737   2.701   2.576
   16CHTO  H199 6646   6.716   2.710   2.667
   16CHTO   O22 6647   6.977   2.500   2.200
   16CHTO   C31 6648   6.880   2.397   2.243
   16CHTO   H59 6649   6.826   2.439   2.331
   16CHTO   C29 6650   6.772   2.362   2.138
   16CHTO   H57 6651   6.823   2.318   2.051
   16CHTO   O21 6652   6.707   2.482   2.094
   16CHTO   H37 6653   6.768   2.538   2.049
   16CHTO   C27 6654   6.668   2.257   2.196
   16CHTO   H55 6655   6.611   2.306   2.276
   16CHTO    N5 6656   6.572   2.209   2.093
   16CHTO   H43 6657   6.625   2.154   2.016
   16CHTO   H44 6658   6.497   2.147   2.139
   16CHTO   C25 6659   6.744   2.136   2.264
   16CHTO   H53 6660   6.790   2.074   2.186
   16CHTO   O17 6661   6.850   2.182   2.353
   16CHTO   C32 6662   6.948   2.267   2.293
   16CHTO   H60 6663   6.995   2.216   2.209
   16CHTO   C36 6664   7.055   2.293   2.403
   16CHTO   O25 6665   7.167   2.365   2.351
   16CHTO   H40 6666   7.230   2.378   2.419
   16CHTO   O15 6667   6.651   2.050   2.346
   16CHTO   C19 6668   6.529   1.988   2.394
   16CHTO   H47 6669   6.561   1.932   2.484
   16CHTO   C20 6670   6.420   2.091   2.436
   16CHTO   H48 6671   6.385   2.151   2.350
   16CHTO   O19 6672   6.480   2.179   2.532
   16CHTO   H35 6673   6.422   2.250   2.552
   16CHTO   C21 6674   6.294   2.016   2.497
   16CHTO   H49 6675   6.325   1.964   2.588
   16CHTO    N4 6676   6.184   2.108   2.535
   16CHTO   H41 6677   6.166   2.103   2.642
   16CHTO   H42 6678   6.207   2.211   2.508
   16CHTO   C22 6679   6.247   1.906   2.397
   16CHTO   H50 6680   6.204   1.953   2.309
   16CHTO   O14 6681   6.355   1.819   2.358
   16CHTO   C23 6682   6.468   1.884   2.297
   16CHTO   H51 6683   6.433   1.931   2.204
   16CHTO   C34 6684   6.572   1.777   2.259
   16CHTO   O23 6685   6.526   1.694   2.152
   16CHTO   H38 6686   6.525   1.742   2.072
   16CHTO   O16 6687   6.153   1.816   2.460
   16CHTO   C24 6688   6.017   1.783   2.378
   16CHTO   H52 6689   6.036   1.769   2.271
   16CHTO   C26 6690   5.919   1.900   2.399
   16CHTO   H54 6691   5.930   1.936   2.504
   16CHTO   O20 6692   5.958   2.009   2.313
   16CHTO   H36 6693   6.041   2.042   2.338
   16CHTO   C30 6694   5.769   1.865   2.374
   16CHTO   H58 6695   5.748   1.867   2.265
   16CHTO    N6 6696   5.680   1.969   2.434
   16CHTO   H45 6697   5.576   1.944   2.415
   16CHTO   H46 6698   5.701   2.065   2.390
   16CHTO   C33 6699   5.732   1.722   2.423
   16CHTO   H61 6700   5.732   1.720   2.533
   16CHTO   O18 6701   5.830   1.628   2.375
   16CHTO   C28 6702   5.960   1.649   2.432
   16CHTO   H56 6703   5.955   1.653   2.541
   16CHTO   C35 6704   6.049   1.528   2.391
   16CHTO   O24 6705   6.178   1.529   2.451
   16CHTO   H39 6706   6.170   1.516   2.544
   16CHTO    O9 6707   5.599   1.685   2.382
   16CHTO   C13 6708   5.526   1.576   2.478
   16CHTO   H26 6709   5.570   1.584   2.580
   16CHTO   C11 6710   5.547   1.432   2.416
   16CHTO   H24 6711   5.655   1.410   2.416
   16CHTO    O8 6712   5.501   1.431   2.279
   16CHTO    H3 6713   5.556   1.486   2.226
   16CHTO    C9 6714   5.474   1.330   2.508
   16CHTO   H22 6715   5.525   1.338   2.606
   16CHTO    N2 6716   5.500   1.189   2.467
   16CHTO   H10 6717   5.607   1.172   2.458
   16CHTO   H11 6718   5.457   1.121   2.539
   16CHTO    C7 6719   5.322   1.371   2.530
   16CHTO   H20 6720   5.314   1.386   2.640
   16CHTO    O4 6721   5.288   1.493   2.462
   16CHTO   C14 6722   5.370   1.606   2.496
   16CHTO   H27 6723   5.351   1.632   2.602
   16CHTO   C18 6724   5.321   1.726   2.411
   16CHTO   O13 6725   5.184   1.759   2.439
   16CHTO    H7 6726   5.178   1.799   2.523
   16CHTO    O2 6727   5.210   1.256   2.487
   16CHTO    C1 6728   5.077   1.262   2.543
   16CHTO   H14 6729   5.013   1.193   2.484
   16CHTO    C2 6730   5.006   1.404   2.546
   16CHTO   H15 6731   5.067   1.469   2.612
   16CHTO    O6 6732   5.004   1.459   2.413
   16CHTO    H1 6733   4.972   1.547   2.414
   16CHTO    C3 6734   4.857   1.390   2.604
   16CHTO   H16 6735   4.798   1.332   2.531
   16CHTO    N1 6736   4.787   1.522   2.623
   16CHTO    H8 6737   4.852   1.604   2.595
   16CHTO    H9 6738   4.697   1.525   2.564
   16CHTO    C4 6739   4.856   1.304   2.737
   16CHTO   H17 6740   4.891   1.366   2.820
   16CHTO    O1 6741   4.937   1.186   2.725
   16CHTO    C5 6742   5.074   1.207   2.689
   16CHTO   H18 6743   5.121   1.280   2.756
   16CHTO   C16 6744   5.145   1.070   2.707
   16CHTO   O11 6745   5.287   1.082   2.708
   16CHTO    H5 6746   5.317   1.109   2.623
   16CHTO    O3 6747   4.722   1.255   2.764
   16CHTO    C6 6748   4.703   1.196   0.019
   16CHTO   H19 6749   4.798   1.179   0.072
   16CHTO    C8 6750   4.615   1.288   0.109
   16CHTO   H21 6751   4.519   1.303   0.059
   16CHTO    O7 6752   4.683   1.414   0.123
   16CHTO    H2 6753   4.679   1.462   0.042
   16CHTO   C12 6754   4.589   1.218   0.249
   16CHTO   H25 6755   4.688   1.210   0.298
   16CHTO    N3 6756   4.503   1.301   0.339
   16CHTO   H12 6757   4.405   1.315   0.294
   16CHTO   H13 6758   4.494   1.254   0.435
   16CHTO   C15 6759   4.533   1.072   0.226
   16CHTO   H28 6760   4.431   1.074   0.189
   16CHTO   O10 6761   4.540   0.986   0.355
   16CHTO    H4 6762   4.489   1.025   0.423
   16CHTO    O5 6763   4.617   0.997   0.137
   16CHTO   C10 6764   4.633   1.057   0.007
   16CHTO   H23 6765   4.535   1.070   2.840
   16CHTO   C17 6766   4.710   0.957   2.796
   16CHTO   O12 6767   4.839   0.924   2.848
   16CHTO    H6 6768   4.830   0.876   0.050
   17CHTO  H203 6769   4.083   5.088   0.861
   17CHTO   O82 6770   4.002   5.087   0.909
   17CHTO  C123 6771   4.014   5.164   1.030
   17CHTO  H227 6772   3.918   5.161   1.083
   17CHTO   O77 6773   4.114   5.090   1.107
   17CHTO  C118 6774   4.139   5.144   1.238
   17CHTO  H222 6775   4.043   5.152   1.293
   17CHTO  C125 6776   4.233   5.045   1.316
   17CHTO   O84 6777   4.360   5.030   1.251
   17CHTO  H205 6778   4.415   4.974   1.303
   17CHTO  C114 6779   4.201   5.285   1.224
   17CHTO  H218 6780   4.295   5.276   1.170
   17CHTO  C116 6781   4.108   5.379   1.142
   17CHTO  H220 6782   4.018   5.404   1.204
   17CHTO   O79 6783   4.176   5.504   1.117
   17CHTO  H201 6784   4.189   5.550   1.198
   17CHTO  C120 6785   4.063   5.312   1.006
   17CHTO  H224 6786   4.152   5.311   0.940
   17CHTO   N21 6787   3.959   5.392   0.935
   17CHTO  H211 6788   3.966   5.375   0.829
   17CHTO  H212 6789   3.971   5.497   0.957
   17CHTO   O75 6790   4.228   5.325   1.360
   17CHTO  C112 6791   4.322   5.460   1.386
   17CHTO  H216 6792   4.255   5.548   1.389
   17CHTO   O73 6793   4.419   5.470   1.280
   17CHTO  C113 6794   4.492   5.594   1.286
   17CHTO  H217 6795   4.419   5.678   1.285
   17CHTO  C124 6796   4.576   5.607   1.158
   17CHTO   O83 6797   4.497   5.630   1.041
   17CHTO  H204 6798   4.448   5.553   1.020
   17CHTO  C109 6799   4.578   5.602   1.415
   17CHTO  H213 6800   4.657   5.527   1.406
   17CHTO  C110 6801   4.490   5.575   1.541
   17CHTO  H214 6802   4.428   5.663   1.559
   17CHTO   O78 6803   4.577   5.562   1.655
   17CHTO  H200 6804   4.634   5.488   1.646
   17CHTO  C111 6805   4.399   5.449   1.523
   17CHTO  H215 6806   4.463   5.360   1.519
   17CHTO   N19 6807   4.305   5.429   1.636
   17CHTO  H207 6808   4.245   5.341   1.619
   17CHTO  H208 6809   4.360   5.418   1.728
   17CHTO   O74 6810   4.638   5.734   1.431
   17CHTO  C115 6811   4.800   5.758   1.396
   17CHTO  H219 6812   4.855   5.792   1.484
   17CHTO   O76 6813   4.872   5.622   1.351
   17CHTO  C122 6814   5.004   5.633   1.295
   17CHTO  H226 6815   5.022   5.541   1.241
   17CHTO  C126 6816   5.115   5.637   1.408
   17CHTO   O85 6817   5.105   5.747   1.498
   17CHTO  H206 6818   5.122   5.827   1.452
   17CHTO  C121 6819   5.020   5.751   1.192
   17CHTO  H225 6820   5.129   5.765   1.173
   17CHTO   O81 6821   4.960   5.710   1.068
   17CHTO  H202 6822   4.982   5.770   1.000
   17CHTO  C119 6823   4.960   5.886   1.242
   17CHTO  H223 6824   5.018   5.913   1.331
   17CHTO  C117 6825   4.810   5.870   1.286
   17CHTO  H221 6826   4.741   5.839   1.207
   17CHTO   N20 6827   4.754   5.998   1.339
   17CHTO  H209 6828   4.651   5.985   1.366
   17CHTO  H210 6829   4.763   6.076   1.264
   17CHTO   O80 6830   4.991   6.007   1.145
   17CHTO  C103 6831   5.102   6.108   1.183
   17CHTO  H190 6832   5.106   6.125   1.290
   17CHTO  C101 6833   5.247   6.071   1.132
   17CHTO  H188 6834   5.239   6.032   1.030
   17CHTO   O68 6835   5.305   5.958   1.223
   17CHTO  H168 6836   5.249   5.882   1.218
   17CHTO   C99 6837   5.345   6.199   1.129
   17CHTO  H186 6838   5.363   6.233   1.233
   17CHTO   N17 6839   5.479   6.171   1.066
   17CHTO  H174 6840   5.466   6.141   0.963
   17CHTO  H175 6841   5.531   6.096   1.123
   17CHTO   C97 6842   5.272   6.317   1.058
   17CHTO  H184 6843   5.251   6.286   0.954
   17CHTO   O64 6844   5.151   6.346   1.131
   17CHTO  C104 6845   5.052   6.243   1.117
   17CHTO  H191 6846   5.027   6.225   1.013
   17CHTO  C108 6847   4.923   6.292   1.185
   17CHTO   O71 6848   4.870   6.408   1.121
   17CHTO  H171 6849   4.837   6.386   1.035
   17CHTO   O62 6850   5.344   6.441   1.061
   17CHTO   C91 6851   5.308   6.534   0.956
   17CHTO  H178 6852   5.291   6.476   0.865
   17CHTO   C92 6853   5.432   6.625   0.926
   17CHTO  H179 6854   5.523   6.563   0.919
   17CHTO   O66 6855   5.413   6.680   0.795
   17CHTO  H166 6856   5.491   6.725   0.767
   17CHTO   C93 6857   5.449   6.745   1.028
   17CHTO  H180 6858   5.509   6.820   0.976
   17CHTO   N16 6859   5.527   6.709   1.148
   17CHTO  H172 6860   5.614   6.772   1.158
   17CHTO  H173 6861   5.467   6.713   1.238
   17CHTO   C94 6862   5.309   6.810   1.065
   17CHTO  H181 6863   5.278   6.785   1.166
   17CHTO   O61 6864   5.204   6.765   0.978
   17CHTO   C95 6865   5.179   6.623   0.987
   17CHTO  H182 6866   5.144   6.601   1.088
   17CHTO  C106 6867   5.061   6.589   0.890
   17CHTO   O69 6868   4.940   6.653   0.933
   17CHTO  H169 6869   4.870   6.628   0.877
   17CHTO   O63 6870   5.321   6.964   1.050
   17CHTO   C96 6871   5.210   7.042   1.131
   17CHTO  H183 6872   5.165   6.973   1.202
   17CHTO   C98 6873   5.095   7.100   1.044
   17CHTO  H185 6874   5.136   7.164   0.965
   17CHTO   O67 6875   5.031   6.991   0.976
   17CHTO  H167 6876   4.991   6.932   1.037
   17CHTO  C102 6877   4.992   7.182   1.135
   17CHTO  H189 6878   4.949   7.107   1.204
   17CHTO   N18 6879   4.875   7.242   1.066
   17CHTO  H176 6880   4.817   7.164   1.019
   17CHTO  H177 6881   4.910   7.311   0.991
   17CHTO  C105 6882   5.069   7.287   1.221
   17CHTO  H192 6883   5.040   7.388   1.191
   17CHTO   O65 6884   5.213   7.284   1.209
   17CHTO  C100 6885   5.281   7.157   1.213
   17CHTO  H187 6886   5.380   7.174   1.166
   17CHTO  C107 6887   5.308   7.114   1.359
   17CHTO   O70 6888   5.390   7.209   1.428
   17CHTO  H170 6889   5.477   7.207   1.393
   17CHTO   O57 6890   5.020   7.260   1.367
   17CHTO   C85 6891   4.939   7.357   1.433
   17CHTO  H157 6892   4.883   7.412   1.354
   17CHTO   C83 6893   5.030   7.464   1.501
   17CHTO  H155 6894   5.084   7.518   1.423
   17CHTO   O56 6895   5.130   7.399   1.582
   17CHTO  H135 6896   5.090   7.354   1.654
   17CHTO   C81 6897   4.941   7.566   1.579
   17CHTO  H153 6898   4.871   7.611   1.508
   17CHTO   N14 6899   5.018   7.682   1.633
   17CHTO  H141 6900   5.070   7.731   1.554
   17CHTO  H142 6901   4.951   7.751   1.679
   17CHTO   C79 6902   4.858   7.490   1.688
   17CHTO  H151 6903   4.793   7.563   1.736
   17CHTO   O52 6904   4.770   7.391   1.625
   17CHTO   C86 6905   4.841   7.294   1.540
   17CHTO  H158 6906   4.897   7.230   1.612
   17CHTO   C90 6907   4.739   7.201   1.469
   17CHTO   O60 6908   4.665   7.122   1.562
   17CHTO  H138 6909   4.606   7.177   1.611
   17CHTO   O50 6910   4.937   7.426   1.790
   17CHTO   C73 6911   4.967   7.435   1.930
   17CHTO  H145 6912   4.959   7.539   1.964
   17CHTO   C74 6913   5.113   7.385   1.955
   17CHTO  H146 6914   5.179   7.449   1.894
   17CHTO   O54 6915   5.148   7.411   2.092
   17CHTO  H133 6916   5.095   7.360   2.150
   17CHTO   C75 6917   5.123   7.233   1.914
   17CHTO  H147 6918   5.098   7.224   1.808
   17CHTO   N13 6919   5.259   7.176   1.928
   17CHTO  H139 6920   5.327   7.228   1.862
   17CHTO  H140 6921   5.294   7.187   2.030
   17CHTO   C76 6922   5.013   7.150   1.997
   17CHTO  H148 6923   5.039   7.156   2.102
   17CHTO   O49 6924   4.879   7.208   1.976
   17CHTO   C77 6925   4.868   7.346   2.012
   17CHTO  H149 6926   4.890   7.358   2.119
   17CHTO   C88 6927   4.721   7.389   1.995
   17CHTO   O58 6928   4.699   7.530   2.033
   17CHTO  H136 6929   4.610   7.552   2.017
   17CHTO   O51 6930   5.007   6.998   1.943
   17CHTO   C78 6931   4.890   6.905   2.001
   17CHTO  H150 6932   4.792   6.959   1.999
   17CHTO   C80 6933   4.918   6.859   2.146
   17CHTO  H152 6934   5.019   6.812   2.149
   17CHTO   O55 6935   4.919   6.976   2.230
   17CHTO  H134 6936   4.995   7.029   2.211
   17CHTO   C84 6937   4.811   6.754   2.195
   17CHTO  H156 6938   4.714   6.806   2.199
   17CHTO   N15 6939   4.839   6.702   2.334
   17CHTO  H143 6940   4.935   6.655   2.337
   17CHTO  H144 6941   4.837   6.783   2.404
   17CHTO   C87 6942   4.800   6.638   2.094
   17CHTO  H159 6943   4.892   6.579   2.096
   17CHTO   O53 6944   4.778   6.692   1.952
   17CHTO   C82 6945   4.878   6.784   1.907
   17CHTO  H154 6946   4.973   6.733   1.899
   17CHTO   C89 6947   4.841   6.831   1.763
   17CHTO   O59 6948   4.709   6.887   1.756
   17CHTO  H137 6949   4.692   6.914   1.668
   17CHTO   O45 6950   4.671   6.533   2.127
   17CHTO   C67 6951   4.541   6.587   2.158
   17CHTO  H124 6952   4.548   6.653   2.245
   17CHTO   C65 6953   4.474   6.665   2.040
   17CHTO  H122 6954   4.553   6.714   1.984
   17CHTO   O44 6955   4.386   6.765   2.093
   17CHTO  H102 6956   4.352   6.818   2.024
   17CHTO   C63 6957   4.406   6.562   1.943
   17CHTO  H120 6958   4.477   6.481   1.924
   17CHTO   N11 6959   4.378   6.610   1.804
   17CHTO  H108 6960   4.276   6.592   1.777
   17CHTO  H109 6961   4.399   6.715   1.795
   17CHTO   C61 6962   4.284   6.498   2.021
   17CHTO  H118 6963   4.270   6.397   1.980
   17CHTO   O40 6964   4.309   6.482   2.164
   17CHTO   C68 6965   4.449   6.465   2.204
   17CHTO  H125 6966   4.485   6.370   2.157
   17CHTO   C72 6967   4.452   6.443   2.357
   17CHTO   O48 6968   4.583   6.411   2.405
   17CHTO  H105 6969   4.579   6.396   2.498
   17CHTO   O38 6970   4.164   6.578   2.010
   17CHTO   C55 6971   4.037   6.524   2.053
   17CHTO  H112 6972   4.050   6.478   2.152
   17CHTO   C56 6973   3.978   6.421   1.946
   17CHTO  H113 6974   3.999   6.465   1.847
   17CHTO   O42 6975   4.052   6.298   1.953
   17CHTO  H100 6976   4.023   6.239   1.887
   17CHTO   C57 6977   3.824   6.394   1.964
   17CHTO  H114 6978   3.812   6.331   2.053
   17CHTO   N10 6979   3.764   6.320   1.850
   17CHTO  H106 6980   3.771   6.214   1.866
   17CHTO  H107 6981   3.814   6.345   1.758
   17CHTO   C58 6982   3.749   6.527   1.988
   17CHTO  H115 6983   3.760   6.592   1.897
   17CHTO   O37 6984   3.807   6.593   2.102
   17CHTO   C59 6985   3.939   6.644   2.075
   17CHTO  H116 6986   3.937   6.709   1.988
   17CHTO   C70 6987   3.980   6.728   2.197
   17CHTO   O46 6988   4.097   6.807   2.174
   17CHTO  H103 6989   4.113   6.862   2.249
   17CHTO   O39 6990   3.587   6.502   2.019
   17CHTO   C60 6991   3.515   6.614   2.072
   17CHTO  H117 6992   3.556   6.638   2.171
   17CHTO   C62 6993   3.525   6.741   1.983
   17CHTO  H119 6994   3.633   6.766   1.974
   17CHTO   O43 6995   3.475   6.711   1.851
   17CHTO  H101 6996   3.487   6.785   1.794
   17CHTO   C66 6997   3.450   6.863   2.055
   17CHTO  H123 6998   3.497   6.881   2.152
   17CHTO   N12 6999   3.462   6.991   1.980
   17CHTO  H110 7000   3.566   7.019   1.973
   17CHTO  H111 7001   3.418   6.980   1.882
   17CHTO   C69 7002   3.301   6.827   2.084
   17CHTO  H126 7003   3.245   6.819   1.988
   17CHTO   O41 7004   3.292   6.691   2.161
   17CHTO   C64 7005   3.366   6.577   2.094
   17CHTO  H121 7006   3.319   6.557   1.995
   17CHTO   C71 7007   3.351   6.449   2.180
   17CHTO   O47 7008   3.214   6.405   2.181
   17CHTO  H104 7009   3.207   6.326   2.230
   17CHTO   O34 7010   3.234   6.938   2.173
   17CHTO   C49 7011   3.130   7.023   2.242
   17CHTO   H91 7012   3.185   7.092   2.306
   17CHTO   C47 7013   3.037   6.934   2.327
   17CHTO   H89 7014   2.981   7.007   2.391
   17CHTO   O33 7015   3.113   6.848   2.414
   17CHTO   H70 7016   3.163   6.900   2.475
   17CHTO   C45 7017   2.937   6.845   2.236
   17CHTO   H87 7018   2.974   6.741   2.236
   17CHTO    N8 7019   2.801   6.845   2.298
   17CHTO   H75 7020   2.806   6.812   2.400
   17CHTO   H76 7021   2.759   6.945   2.294
   17CHTO   C43 7022   2.942   6.891   2.083
   17CHTO   H85 7023   3.039   6.856   2.047
   17CHTO   O29 7024   2.933   7.035   2.075
   17CHTO   C50 7025   3.043   7.103   2.139
   17CHTO   H92 7026   3.111   7.136   2.059
   17CHTO   C54 7027   2.995   7.238   2.200
   17CHTO   O36 7028   2.885   7.220   2.290
   17CHTO   H72 7029   2.859   7.304   2.324
   17CHTO   O27 7030   2.848   6.822   1.999
   17CHTO   C37 7031   2.870   6.719   1.900
   17CHTO   H79 7032   2.773   6.691   1.854
   17CHTO   C38 7033   2.960   6.772   1.784
   17CHTO   H80 7034   3.047   6.823   1.829
   17CHTO   O31 7035   2.883   6.870   1.711
   17CHTO   H68 7036   2.869   6.946   1.763
   17CHTO   C39 7037   3.012   6.658   1.687
   17CHTO   H81 7038   2.925   6.624   1.630
   17CHTO    N7 7039   3.114   6.708   1.588
   17CHTO   H73 7040   3.209   6.658   1.601
   17CHTO   H74 7041   3.078   6.693   1.487
   17CHTO   C40 7042   3.064   6.534   1.769
   17CHTO   H82 7043   3.158   6.560   1.819
   17CHTO   O26 7044   2.964   6.493   1.863
   17CHTO   C41 7045   2.933   6.592   1.965
   17CHTO   H83 7046   3.025   6.620   2.018
   17CHTO   C52 7047   2.836   6.527   2.066
   17CHTO   O35 7048   2.899   6.416   2.138
   17CHTO   H71 7049   2.838   6.380   2.199
   17CHTO   O28 7050   3.088   6.421   1.683
   17CHTO   C42 7051   3.153   6.296   1.724
   17CHTO   H84 7052   3.157   6.239   1.631
   17CHTO   C44 7053   3.077   6.207   1.827
   17CHTO   H86 7054   3.075   6.259   1.923
   17CHTO   O32 7055   2.943   6.193   1.777
   17CHTO   H69 7056   2.890   6.146   1.840
   17CHTO   C48 7057   3.149   6.067   1.846
   17CHTO   H90 7058   3.140   6.013   1.752
   17CHTO    N9 7059   3.080   5.982   1.949
   17CHTO   H77 7060   3.080   6.032   2.045
   17CHTO   H78 7061   2.979   5.960   1.917
   17CHTO   C51 7062   3.303   6.086   1.879
   17CHTO   H93 7063   3.310   6.122   1.981
   17CHTO   O30 7064   3.365   6.177   1.786
   17CHTO   C46 7065   3.300   6.314   1.773
   17CHTO   H88 7066   3.300   6.362   1.871
   17CHTO   C53 7067   3.387   6.397   1.674
   17CHTO   O72 7068   3.395   6.337   1.544
   17CHTO  H199 7069   3.312   6.342   1.501
   17CHTO   O22 7070   3.373   5.959   1.869
   17CHTO   C31 7071   3.451   5.908   1.754
   17CHTO   H59 7072   3.468   5.800   1.776
   17CHTO   C29 7073   3.377   5.914   1.618
   17CHTO   H57 7074   3.329   6.012   1.611
   17CHTO   O21 7075   3.271   5.817   1.623
   17CHTO   H37 7076   3.215   5.827   1.548
   17CHTO   C27 7077   3.472   5.895   1.492
   17CHTO   H55 7078   3.510   5.792   1.492
   17CHTO    N5 7079   3.401   5.920   1.364
   17CHTO   H43 7080   3.366   6.023   1.360
   17CHTO   H44 7081   3.468   5.900   1.281
   17CHTO   C25 7082   3.594   5.991   1.512
   17CHTO   H53 7083   3.555   6.093   1.531
   17CHTO   O17 7084   3.666   5.946   1.629
   17CHTO   C32 7085   3.594   5.972   1.751
   17CHTO   H60 7086   3.585   6.080   1.761
   17CHTO   C36 7087   3.681   5.924   1.870
   17CHTO   O25 7088   3.712   5.784   1.862
   17CHTO   H40 7089   3.765   5.760   1.936
   17CHTO   O15 7090   3.697   5.998   1.387
   17CHTO   C19 7091   3.752   6.129   1.354
   17CHTO   H47 7092   3.827   6.106   1.276
   17CHTO   C20 7093   3.648   6.230   1.294
   17CHTO   H48 7094   3.560   6.241   1.360
   17CHTO   O19 7095   3.602   6.173   1.170
   17CHTO   H35 7096   3.549   6.097   1.187
   17CHTO   C21 7097   3.709   6.374   1.270
   17CHTO   H49 7098   3.785   6.367   1.192
   17CHTO    N4 7099   3.609   6.473   1.223
   17CHTO   H41 7100   3.656   6.569   1.208
   17CHTO   H42 7101   3.565   6.441   1.130
   17CHTO   C22 7102   3.780   6.419   1.400
   17CHTO   H50 7103   3.706   6.424   1.480
   17CHTO   O14 7104   3.882   6.323   1.433
   17CHTO   C23 7105   3.831   6.195   1.471
   17CHTO   H51 7106   3.768   6.209   1.560
   17CHTO   C34 7107   3.950   6.108   1.513
   17CHTO   O23 7108   4.015   6.162   1.628
   17CHTO   H38 7109   4.088   6.109   1.652
   17CHTO   O16 7110   3.849   6.544   1.386
   17CHTO   C24 7111   3.884   6.614   1.525
   17CHTO   H52 7112   3.876   6.544   1.608
   17CHTO   C26 7113   3.788   6.732   1.548
   17CHTO   H54 7114   3.785   6.794   1.454
   17CHTO   O20 7115   3.656   6.680   1.570
   17CHTO   H36 7116   3.622   6.642   1.491
   17CHTO   C30 7117   3.835   6.824   1.665
   17CHTO   H58 7118   3.825   6.771   1.761
   17CHTO    N6 7119   3.750   6.946   1.676
   17CHTO   H45 7120   3.648   6.918   1.694
   17CHTO   H46 7121   3.785   7.008   1.758
   17CHTO   C33 7122   3.986   6.858   1.649
   17CHTO   H61 7123   4.000   6.916   1.555
   17CHTO   O18 7124   4.061   6.735   1.638
   17CHTO   C28 7125   4.031   6.661   1.519
   17CHTO   H56 7126   4.045   6.725   1.431
   17CHTO   C35 7127   4.129   6.542   1.506
   17CHTO   O24 7128   4.123   6.450   1.616
   17CHTO   H39 7129   4.152   6.492   1.695
   17CHTO    O9 7130   4.038   6.942   1.754
   17CHTO   C13 7131   4.186   6.998   1.720
   17CHTO   H26 7132   4.239   6.921   1.659
   17CHTO   C11 7133   4.263   7.027   1.855
   17CHTO   H24 7134   4.275   6.931   1.907
   17CHTO    O8 7135   4.184   7.112   1.941
   17CHTO    H3 7136   4.228   7.124   2.023
   17CHTO    C9 7137   4.402   7.083   1.818
   17CHTO   H22 7138   4.448   7.008   1.752
   17CHTO    N2 7139   4.494   7.091   1.935
   17CHTO   H10 7140   4.577   7.023   1.923
   17CHTO   H11 7141   4.530   7.192   1.949
   17CHTO    C7 7142   4.385   7.218   1.738
   17CHTO   H20 7143   4.489   7.243   1.706
   17CHTO    O4 7144   4.302   7.202   1.621
   17CHTO   C14 7145   4.179   7.127   1.628
   17CHTO   H27 7146   4.160   7.092   1.524
   17CHTO   C18 7147   4.061   7.222   1.665
   17CHTO   O13 7148   4.037   7.315   1.559
   17CHTO    H7 7149   3.964   7.370   1.581
   17CHTO    O2 7150   4.327   7.337   1.829
   17CHTO    C1 7151   4.320   7.470   1.774
   17CHTO   H14 7152   4.236   7.473   1.702
   17CHTO    C2 7153   4.451   7.525   1.702
   17CHTO   H15 7154   4.536   7.495   1.766
   17CHTO    O6 7155   4.464   7.461   1.574
   17CHTO    H1 7156   4.545   7.485   1.534
   17CHTO    C3 7157   4.449   7.685   1.684
   17CHTO   H16 7158   4.376   7.712   1.607
   17CHTO    N1 7159   4.582   7.738   1.639
   17CHTO    H8 7160   4.608   7.694   1.544
   17CHTO    H9 7161   4.577   7.846   1.629
   17CHTO    C4 7162   4.399   7.754   1.816
   17CHTO   H17 7163   4.472   7.736   1.896
   17CHTO    O1 7164   4.271   7.699   1.851
   17CHTO    C5 7165   4.278   7.562   1.893
   17CHTO   H18 7166   4.354   7.551   1.971
   17CHTO   C16 7167   4.140   7.523   1.951
   17CHTO   O11 7168   4.112   7.596   2.071
   17CHTO    H5 7169   4.170   7.568   2.140
   17CHTO    O3 7170   4.374   7.896   1.803
   17CHTO    C6 7171   4.384   7.981   1.923
   17CHTO   H19 7172   4.332   8.076   1.906
   17CHTO    C8 7173   4.320   7.920   2.052
   17CHTO   H21 7174   4.360   7.819   2.066
   17CHTO    O7 7175   4.178   7.913   2.029
   17CHTO    H2 7176   4.136   7.868   2.100
   17CHTO   C12 7177   4.354   8.004   2.182
   17CHTO   H25 7178   4.299   8.099   2.173
   17CHTO    N3 7179   4.304   7.936   2.306
   17CHTO   H12 7180   4.328   7.995   2.393
   17CHTO   H13 7181   4.197   7.923   2.300
   17CHTO   C15 7182   4.508   8.035   2.185
   17CHTO   H28 7183   4.567   7.944   2.199
   17CHTO   O10 7184   4.547   8.136   2.290
   17CHTO    H4 7185   4.530   8.101   2.375
   17CHTO    O5 7186   4.549   8.100   2.064
   17CHTO   C10 7187   4.534   8.017   1.947
   17CHTO   H23 7188   4.591   7.926   1.963
   17CHTO   C17 7189   4.597   8.090   1.827
   17CHTO   O12 7190   4.538   8.217   1.800
   17CHTO    H6 7191   4.560   8.278   1.868
   18CHTO  H203 7192   5.910   7.714   2.614
   18CHTO   O82 7193   5.982   7.734   2.557
   18CHTO  C123 7194   5.946   7.704   2.421
   18CHTO  H227 7195   5.857   7.762   2.394
   18CHTO   O77 7196   6.062   7.752   2.346
   18CHTO  C118 7197   6.047   7.740   2.203
   18CHTO  H222 7198   5.953   7.789   2.172
   18CHTO  C125 7199   6.168   7.815   2.136
   18CHTO   O84 7200   6.295   7.761   2.175
   18CHTO  H205 7201   6.305   7.674   2.140
   18CHTO  C114 7202   6.041   7.590   2.165
   18CHTO  H218 7203   6.134   7.543   2.196
   18CHTO  C116 7204   5.924   7.519   2.240
   18CHTO  H220 7205   5.828   7.554   2.195
   18CHTO   O79 7206   5.932   7.378   2.214
   18CHTO  H201 7207   5.912   7.360   2.123
   18CHTO  C120 7208   5.925   7.549   2.395
   18CHTO  H224 7209   6.010   7.492   2.438
   18CHTO   N21 7210   5.801   7.500   2.461
   18CHTO  H211 7211   5.716   7.506   2.394
   18CHTO  H212 7212   5.781   7.555   2.552
   18CHTO   O75 7213   6.026   7.587   2.022
   18CHTO  C112 7214   6.141   7.500   1.941
   18CHTO  H216 7215   6.182   7.423   2.008
   18CHTO   O73 7216   6.242   7.593   1.899
   18CHTO  C113 7217   6.350   7.535   1.825
   18CHTO  H217 7218   6.397   7.455   1.886
   18CHTO  C124 7219   6.456   7.644   1.804
   18CHTO   O83 7220   6.511   7.694   1.927
   18CHTO  H204 7221   6.562   7.627   1.968
   18CHTO  C109 7222   6.297   7.476   1.691
   18CHTO  H213 7223   6.253   7.560   1.635
   18CHTO  C110 7224   6.188   7.370   1.724
   18CHTO  H214 7225   6.236   7.285   1.775
   18CHTO   O78 7226   6.134   7.320   1.600
   18CHTO  H200 7227   6.199   7.271   1.553
   18CHTO  C111 7228   6.077   7.430   1.815
   18CHTO  H215 7229   6.023   7.507   1.757
   18CHTO   N19 7230   5.975   7.330   1.857
   18CHTO  H207 7231   6.021   7.252   1.915
   18CHTO  H208 7232   5.897   7.378   1.915
   18CHTO   O74 7233   6.406   7.417   1.612
   18CHTO  C115 7234   6.434   7.497   1.468
   18CHTO  H219 7235   6.344   7.545   1.430
   18CHTO   O76 7236   6.538   7.613   1.487
   18CHTO  C122 7237   6.574   7.687   1.370
   18CHTO  H226 7238   6.657   7.751   1.397
   18CHTO  C126 7239   6.458   7.783   1.324
   18CHTO   O85 7240   6.420   7.875   1.427
   18CHTO  H206 7241   6.352   7.931   1.395
   18CHTO  C121 7242   6.619   7.593   1.252
   18CHTO  H225 7243   6.627   7.655   1.161
   18CHTO   O81 7244   6.750   7.540   1.278
   18CHTO  H202 7245   6.813   7.610   1.283
   18CHTO  C119 7246   6.518   7.478   1.226
   18CHTO  H223 7247   6.425   7.526   1.196
   18CHTO  C117 7248   6.486   7.397   1.358
   18CHTO  H221 7249   6.570   7.345   1.403
   18CHTO   N20 7250   6.384   7.291   1.331
   18CHTO  H209 7251   6.365   7.233   1.420
   18CHTO  H210 7252   6.292   7.335   1.296
   18CHTO   O80 7253   6.558   7.393   1.088
   18CHTO  C103 7254   6.458   7.394   0.951
   18CHTO  H190 7255   6.518   7.368   0.864
   18CHTO  C101 7256   6.338   7.293   0.956
   18CHTO  H188 7257   6.280   7.311   1.047
   18CHTO   O68 7258   6.397   7.146   0.963
   18CHTO  H168 7259   6.444   7.127   0.884
   18CHTO   C99 7260   6.242   7.315   0.830
   18CHTO  H186 7261   6.299   7.300   0.737
   18CHTO   N17 7262   6.125   7.220   0.825
   18CHTO  H174 7263   6.161   7.119   0.822
   18CHTO  H175 7264   6.061   7.236   0.911
   18CHTO   C97 7265   6.197   7.464   0.830
   18CHTO  H184 7266   6.143   7.484   0.924
   18CHTO   O64 7267   6.314   7.547   0.815
   18CHTO  C104 7268   6.404   7.542   0.927
   18CHTO  H191 7269   6.355   7.578   1.017
   18CHTO  C108 7270   6.520   7.639   0.899
   18CHTO   O71 7271   6.474   7.774   0.895
   18CHTO  H171 7272   6.546   7.831   0.874
   18CHTO   O62 7273   6.116   7.502   0.715
   18CHTO   C91 7274   6.014   7.601   0.739
   18CHTO  H178 7275   6.018   7.634   0.843
   18CHTO   C92 7276   5.874   7.536   0.718
   18CHTO  H179 7277   5.873   7.486   0.620
   18CHTO   O66 7278   5.858   7.430   0.815
   18CHTO  H166 7279   5.860   7.464   0.902
   18CHTO   C93 7280   5.754   7.639   0.730
   18CHTO  H180 7281   5.742   7.660   0.837
   18CHTO   N16 7282   5.625   7.582   0.685
   18CHTO  H172 7283   5.547   7.656   0.695
   18CHTO  H173 7284   5.601   7.494   0.743
   18CHTO   C94 7285   5.785   7.774   0.655
   18CHTO  H181 7286   5.777   7.764   0.547
   18CHTO   O61 7287   5.917   7.822   0.684
   18CHTO   C95 7288   6.022   7.730   0.648
   18CHTO  H182 7289   6.011   7.701   0.543
   18CHTO  C106 7290   6.159   7.803   0.663
   18CHTO   O69 7291   6.168   7.912   0.571
   18CHTO  H169 7292   6.253   7.951   0.577
   18CHTO   O63 7293   5.682   7.887   0.710
   18CHTO   C96 7294   5.632   7.988   0.601
   18CHTO  H183 7295   5.639   7.940   0.503
   18CHTO   C98 7296   5.712   8.121   0.595
   18CHTO  H185 7297   5.723   8.162   0.697
   18CHTO   O67 7298   5.845   8.089   0.551
   18CHTO  H167 7299   5.898   8.167   0.551
   18CHTO  C102 7300   5.643   8.231   0.499
   18CHTO  H189 7301   5.656   8.193   0.396
   18CHTO   N18 7302   5.708   8.365   0.501
   18CHTO  H176 7303   5.811   8.356   0.469
   18CHTO  H177 7304   5.705   8.406   0.600
   18CHTO  C105 7305   5.491   8.240   0.528
   18CHTO  H192 7306   5.475   8.288   0.624
   18CHTO   O65 7307   5.427   8.111   0.530
   18CHTO  C100 7308   5.480   8.020   0.628
   18CHTO  H187 7309   5.471   8.066   0.728
   18CHTO  C107 7310   5.392   7.892   0.628
   18CHTO   O70 7311   5.392   7.826   0.501
   18CHTO  H170 7312   5.478   7.793   0.482
   18CHTO   O57 7313   5.425   8.330   0.404
   18CHTO   C85 7314   5.287   8.370   0.393
   18CHTO  H157 7315   5.289   8.440   0.307
   18CHTO   C83 7316   5.237   8.455   0.514
   18CHTO  H155 7317   5.307   8.538   0.527
   18CHTO   O56 7318   5.241   8.378   0.635
   18CHTO  H135 7319   5.220   8.432   0.709
   18CHTO   C81 7320   5.097   8.513   0.478
   18CHTO  H153 7321   5.107   8.570   0.385
   18CHTO   N14 7322   5.051   8.613   0.577
   18CHTO  H141 7323   5.032   8.566   0.671
   18CHTO  H142 7324   4.960   8.659   0.542
   18CHTO   C79 7325   4.994   8.396   0.452
   18CHTO  H151 7326   4.904   8.441   0.410
   18CHTO   O52 7327   5.045   8.302   0.351
   18CHTO   C86 7328   5.182   8.254   0.370
   18CHTO  H158 7329   5.176   8.187   0.459
   18CHTO   C90 7330   5.223   8.165   0.251
   18CHTO   O60 7331   5.140   8.049   0.242
   18CHTO  H138 7332   5.157   7.991   0.314
   18CHTO   O50 7333   4.955   8.324   0.570
   18CHTO   C73 7334   4.840   8.242   0.597
   18CHTO  H145 7335   4.828   8.166   0.519
   18CHTO   C74 7336   4.709   8.328   0.602
   18CHTO  H146 7337   4.698   8.377   0.504
   18CHTO   O54 7338   4.596   8.239   0.615
   18CHTO  H133 7339   4.586   8.188   0.537
   18CHTO   C75 7340   4.719   8.433   0.720
   18CHTO  H147 7341   4.804   8.500   0.698
   18CHTO   N13 7342   4.601   8.522   0.735
   18CHTO  H139 7343   4.526   8.499   0.661
   18CHTO  H140 7344   4.630   8.625   0.724
   18CHTO   C76 7345   4.755   8.358   0.856
   18CHTO  H148 7346   4.667   8.300   0.889
   18CHTO   O49 7347   4.869   8.267   0.841
   18CHTO   C77 7348   4.859   8.171   0.735
   18CHTO  H149 7349   4.774   8.105   0.753
   18CHTO   C88 7350   4.984   8.082   0.738
   18CHTO   O58 7351   4.973   7.968   0.643
   18CHTO  H136 7352   4.968   8.000   0.555
   18CHTO   O51 7353   4.803   8.464   0.965
   18CHTO   C78 7354   4.832   8.401   1.104
   18CHTO  H150 7355   4.830   8.290   1.100
   18CHTO   C80 7356   4.726   8.449   1.206
   18CHTO  H152 7357   4.719   8.560   1.199
   18CHTO   O55 7358   4.599   8.395   1.164
   18CHTO  H134 7359   4.599   8.301   1.172
   18CHTO   C84 7360   4.762   8.409   1.355
   18CHTO  H156 7361   4.756   8.300   1.362
   18CHTO   N15 7362   4.664   8.466   1.454
   18CHTO  H143 7363   4.713   8.531   1.524
   18CHTO  H144 7364   4.616   8.387   1.508
   18CHTO   C87 7365   4.909   8.450   1.385
   18CHTO  H159 7366   4.919   8.559   1.382
   18CHTO   O53 7367   4.998   8.385   1.278
   18CHTO   C82 7368   4.974   8.442   1.149
   18CHTO  H154 7369   4.985   8.550   1.152
   18CHTO   C89 7370   5.085   8.388   1.055
   18CHTO   O59 7371   5.087   8.455   0.928
   18CHTO  H137 7372   5.112   8.544   0.940
   18CHTO   O45 7373   4.956   8.399   1.534
   18CHTO   C67 7374   5.095   8.364   1.551
   18CHTO  H124 7375   5.121   8.289   1.476
   18CHTO   C65 7376   5.191   8.488   1.535
   18CHTO  H122 7377   5.131   8.576   1.557
   18CHTO   O44 7378   5.231   8.491   1.396
   18CHTO  H102 7379   5.278   8.571   1.379
   18CHTO   C63 7380   5.308   8.488   1.641
   18CHTO  H120 7381   5.266   8.517   1.738
   18CHTO   N11 7382   5.415   8.592   1.622
   18CHTO  H108 7383   5.512   8.547   1.623
   18CHTO  H109 7384   5.410   8.667   1.699
   18CHTO   C61 7385   5.360   8.341   1.658
   18CHTO  H118 7386   5.439   8.344   1.734
   18CHTO   O40 7387   5.257   8.253   1.709
   18CHTO   C68 7388   5.117   8.293   1.691
   18CHTO  H125 7389   5.089   8.363   1.772
   18CHTO   C72 7390   5.030   8.166   1.710
   18CHTO   O48 7391   4.890   8.194   1.717
   18CHTO  H105 7392   4.860   8.227   1.634
   18CHTO   O38 7393   5.409   8.285   1.534
   18CHTO   C55 7394   5.514   8.188   1.548
   18CHTO  H112 7395   5.525   8.157   1.653
   18CHTO   C56 7396   5.649   8.246   1.490
   18CHTO  H113 7397   5.633   8.266   1.383
   18CHTO   O42 7398   5.680   8.373   1.550
   18CHTO  H100 7399   5.691   8.363   1.643
   18CHTO   C57 7400   5.765   8.140   1.510
   18CHTO  H114 7401   5.780   8.132   1.618
   18CHTO   N10 7402   5.895   8.179   1.451
   18CHTO  H106 7403   5.953   8.236   1.523
   18CHTO  H107 7404   5.880   8.240   1.363
   18CHTO   C58 7405   5.723   8.001   1.457
   18CHTO  H115 7406   5.732   7.999   1.345
   18CHTO   O37 7407   5.588   7.963   1.492
   18CHTO   C59 7408   5.482   8.057   1.470
   18CHTO  H116 7409   5.471   8.077   1.364
   18CHTO   C70 7410   5.352   7.994   1.523
   18CHTO   O46 7411   5.318   7.871   1.458
   18CHTO  H103 7412   5.293   7.888   1.369
   18CHTO   O39 7413   5.825   7.882   1.525
   18CHTO   C60 7414   5.782   7.840   1.656
   18CHTO  H117 7415   5.721   7.919   1.701
   18CHTO   C62 7416   5.695   7.711   1.647
   18CHTO  H119 7417   5.617   7.731   1.570
   18CHTO   O43 7418   5.774   7.600   1.600
   18CHTO  H101 7419   5.841   7.579   1.662
   18CHTO   C66 7420   5.624   7.688   1.788
   18CHTO  H123 7421   5.566   7.776   1.813
   18CHTO   N12 7422   5.527   7.575   1.785
   18CHTO  H110 7423   5.451   7.595   1.711
   18CHTO  H111 7424   5.483   7.561   1.882
   18CHTO   C69 7425   5.731   7.671   1.900
   18CHTO  H126 7426   5.781   7.572   1.891
   18CHTO   O41 7427   5.843   7.787   1.892
   18CHTO   C64 7428   5.901   7.814   1.754
   18CHTO  H121 7429   5.960   7.727   1.720
   18CHTO   C71 7430   5.995   7.936   1.768
   18CHTO   O47 7431   6.077   7.952   1.651
   18CHTO  H104 7432   6.132   8.027   1.662
   18CHTO   O34 7433   5.662   7.678   2.040
   18CHTO   C49 7434   5.623   7.775   2.154
   18CHTO   H91 7435   5.690   7.754   2.237
   18CHTO   C47 7436   5.477   7.745   2.197
   18CHTO   H89 7437   5.458   7.805   2.288
   18CHTO   O33 7438   5.469   7.605   2.232
   18CHTO   H70 7439   5.519   7.588   2.310
   18CHTO   C45 7440   5.377   7.789   2.079
   18CHTO   H87 7441   5.409   7.739   1.987
   18CHTO    N8 7442   5.236   7.749   2.107
   18CHTO   H75 7443   5.170   7.834   2.102
   18CHTO   H76 7444   5.205   7.674   2.036
   18CHTO   C43 7445   5.395   7.947   2.050
   18CHTO   H85 7446   5.333   7.968   1.963
   18CHTO   O29 7447   5.534   7.976   2.025
   18CHTO   C50 7448   5.635   7.925   2.114
   18CHTO   H92 7449   5.732   7.937   2.062
   18CHTO   C54 7450   5.652   8.019   2.237
   18CHTO   O36 7451   5.768   7.987   2.314
   18CHTO   H72 7452   5.774   8.046   2.387
   18CHTO   O27 7453   5.343   8.030   2.156
   18CHTO   C37 7454   5.283   8.158   2.180
   18CHTO   H79 7455   5.287   8.182   2.287
   18CHTO   C38 7456   5.358   8.273   2.105
   18CHTO   H80 7457   5.368   8.245   1.999
   18CHTO   O31 7458   5.490   8.283   2.162
   18CHTO   H68 7459   5.542   8.344   2.113
   18CHTO   C39 7460   5.283   8.412   2.117
   18CHTO   H81 7461   5.291   8.444   2.221
   18CHTO    N7 7462   5.343   8.520   2.032
   18CHTO   H73 7463   5.289   8.612   2.046
   18CHTO   H74 7464   5.447   8.535   2.060
   18CHTO   C40 7465   5.129   8.395   2.087
   18CHTO   H82 7466   5.112   8.380   1.980
   18CHTO   O26 7467   5.075   8.288   2.165
   18CHTO   C41 7468   5.134   8.159   2.135
   18CHTO   H83 7469   5.128   8.140   2.026
   18CHTO   C52 7470   5.047   8.053   2.206
   18CHTO   O35 7471   4.906   8.054   2.155
   18CHTO   H71 7472   4.864   8.135   2.179
   18CHTO   O28 7473   5.058   8.514   2.127
   18CHTO   C42 7474   4.913   8.533   2.135
   18CHTO   H84 7475   4.904   8.639   2.155
   18CHTO   C44 7476   4.839   8.462   2.253
   18CHTO   H86 7477   4.838   8.355   2.234
   18CHTO   O32 7478   4.916   8.490   2.371
   18CHTO   H69 7479   4.880   8.444   2.445
   18CHTO   C48 7480   4.690   8.514   2.263
   18CHTO   H90 7481   4.695   8.620   2.286
   18CHTO    N9 7482   4.617   8.450   2.377
   18CHTO   H77 7483   4.580   8.526   2.445
   18CHTO   H78 7484   4.535   8.389   2.341
   18CHTO   C51 7485   4.616   8.497   2.124
   18CHTO   H93 7486   4.601   8.391   2.105
   18CHTO   O30 7487   4.694   8.559   2.020
   18CHTO   C46 7488   4.836   8.505   2.003
   18CHTO   H88 7489   4.832   8.397   1.984
   18CHTO   C53 7490   4.899   8.578   1.882
   18CHTO   O72 7491   4.827   8.552   1.762
   18CHTO  H199 7492   4.838   8.462   1.736
   18CHTO   O22 7493   4.490   8.567   2.126
   18CHTO   C31 7494   4.389   8.571   2.018
   18CHTO   H59 7495   4.308   8.635   2.056
   18CHTO   C29 7496   4.437   8.634   1.886
   18CHTO   H57 7497   4.521   8.573   1.848
   18CHTO   O21 7498   4.490   8.765   1.916
   18CHTO   H37 7499   4.422   8.823   1.942
   18CHTO   C27 7500   4.324   8.637   1.776
   18CHTO   H55 7501   4.243   8.702   1.811
   18CHTO    N5 7502   4.373   8.688   1.646
   18CHTO   H43 7503   4.291   8.692   1.575
   18CHTO   H44 7504   4.415   8.786   1.658
   18CHTO   C25 7505   4.264   8.492   1.761
   18CHTO   H53 7506   4.343   8.425   1.724
   18CHTO   O17 7507   4.220   8.442   1.891
   18CHTO   C32 7508   4.322   8.432   1.991
   18CHTO   H60 7509   4.399   8.363   1.956
   18CHTO   C36 7510   4.259   8.373   2.119
   18CHTO   O25 7511   4.150   8.452   2.168
   18CHTO   H40 7512   4.114   8.411   2.244
   18CHTO   O15 7513   4.137   8.489   1.659
   18CHTO   C19 7514   4.127   8.418   1.532
   18CHTO   H47 7515   4.019   8.412   1.514
   18CHTO   C20 7516   4.194   8.492   1.411
   18CHTO   H48 7517   4.300   8.515   1.431
   18CHTO   O19 7518   4.123   8.617   1.397
   18CHTO   H35 7519   4.165   8.670   1.331
   18CHTO   C21 7520   4.189   8.406   1.278
   18CHTO   H49 7521   4.085   8.391   1.250
   18CHTO    N4 7522   4.257   8.472   1.164
   18CHTO   H41 7523   4.251   8.410   1.076
   18CHTO   H42 7524   4.210   8.567   1.143
   18CHTO   C22 7525   4.250   8.268   1.313
   18CHTO   H50 7526   4.352   8.283   1.349
   18CHTO   O14 7527   4.169   8.206   1.414
   18CHTO   C23 7528   4.177   8.270   1.542
   18CHTO   H51 7529   4.282   8.264   1.575
   18CHTO   C34 7530   4.092   8.189   1.640
   18CHTO   O23 7531   4.144   8.058   1.660
   18CHTO   H38 7532   4.090   8.011   1.720
   18CHTO   O16 7533   4.248   8.173   1.204
   18CHTO   C24 7534   4.389   8.096   1.179
   18CHTO   H52 7535   4.474   8.153   1.217
   18CHTO   C26 7536   4.405   8.076   1.027
   18CHTO   H54 7537   4.311   8.030   0.988
   18CHTO   O20 7538   4.420   8.205   0.967
   18CHTO   H36 7539   4.340   8.253   0.971
   18CHTO   C30 7540   4.524   7.981   0.992
   18CHTO   H58 7541   4.618   8.031   1.016
   18CHTO    N6 7542   4.528   7.951   0.846
   18CHTO   H45 7543   4.623   7.980   0.804
   18CHTO   H46 7544   4.510   7.846   0.826
   18CHTO   C33 7545   4.518   7.852   1.079
   18CHTO   H61 7546   4.430   7.793   1.051
   18CHTO   O18 7547   4.507   7.886   1.218
   18CHTO   C28 7548   4.390   7.960   1.254
   18CHTO   H56 7549   4.300   7.904   1.226
   18CHTO   C35 7550   4.390   7.975   1.408
   18CHTO   O24 7551   4.502   8.050   1.459
   18CHTO   H39 7552   4.581   8.002   1.444
   18CHTO    O9 7553   4.631   7.764   1.055
   18CHTO   C13 7554   4.754   7.761   1.163
   18CHTO   H26 7555   4.712   7.734   1.262
   18CHTO   C11 7556   4.827   7.902   1.167
   18CHTO   H24 7557   4.756   7.976   1.208
   18CHTO    O8 7558   4.861   7.946   1.033
   18CHTO    H3 7559   4.782   7.958   0.983
   18CHTO    C9 7560   4.949   7.892   1.262
   18CHTO   H22 7561   4.908   7.857   1.358
   18CHTO    N2 7562   5.014   8.022   1.293
   18CHTO   H10 7563   4.998   8.049   1.396
   18CHTO   H11 7564   4.979   8.100   1.227
   18CHTO    C7 7565   5.047   7.782   1.208
   18CHTO   H20 7566   5.127   7.774   1.286
   18CHTO    O4 7567   4.981   7.654   1.197
   18CHTO   C14 7568   4.855   7.643   1.127
   18CHTO   H27 7569   4.809   7.548   1.162
   18CHTO   C18 7570   4.882   7.627   0.975
   18CHTO   O13 7571   4.768   7.576   0.904
   18CHTO    H7 7572   4.789   7.569   0.813
   18CHTO    O2 7573   5.116   7.822   1.061
   18CHTO    C1 7574   5.250   7.776   1.035
   18CHTO   H14 7575   5.265   7.782   0.924
   18CHTO    C2 7576   5.285   7.628   1.081
   18CHTO   H15 7577   5.266   7.623   1.190
   18CHTO    O6 7578   5.199   7.536   1.012
   18CHTO    H1 7579   5.110   7.547   1.041
   18CHTO    C3 7580   5.439   7.597   1.051
   18CHTO   H16 7581   5.455   7.600   0.942
   18CHTO    N1 7582   5.481   7.461   1.098
   18CHTO    H8 7583   5.465   7.451   1.204
   18CHTO    H9 7584   5.425   7.385   1.046
   18CHTO    C4 7585   5.529   7.711   1.111
   18CHTO   H17 7586   5.524   7.707   1.220
   18CHTO    O1 7587   5.487   7.840   1.064
   18CHTO    C5 7588   5.352   7.877   1.096
   18CHTO   H18 7589   5.339   7.877   1.204
   18CHTO   C16 7590   5.328   8.021   1.043
   18CHTO   O11 7591   5.410   8.117   1.111
   18CHTO    H5 7592   5.381   8.127   1.199
   18CHTO    O3 7593   5.666   7.699   1.065
   18CHTO    C6 7594   5.768   7.741   1.161
   18CHTO   H19 7595   5.728   7.798   1.245
   18CHTO    C8 7596   5.845   7.617   1.216
   18CHTO   H21 7597   5.881   7.559   1.131
   18CHTO    O7 7598   5.751   7.537   1.291
   18CHTO    H2 7599   5.718   7.585   1.365
   18CHTO   C12 7600   5.967   7.661   1.306
   18CHTO   H25 7601   5.924   7.699   1.400
   18CHTO    N3 7602   6.052   7.543   1.345
   18CHTO   H12 7603   5.993   7.472   1.402
   18CHTO   H13 7604   6.092   7.496   1.257
   18CHTO   C15 7605   6.051   7.776   1.240
   18CHTO   H28 7606   6.118   7.739   1.162
   18CHTO   O10 7607   6.130   7.854   1.344
   18CHTO    H4 7608   6.191   7.912   1.302
   18CHTO    O5 7609   5.967   7.880   1.186
   18CHTO   C10 7610   5.871   7.834   1.090
   18CHTO   H23 7611   5.923   7.778   1.012
   18CHTO   C17 7612   5.805   7.956   1.024
   18CHTO   O12 7613   5.899   8.025   0.942
   18CHTO    H6 7614   5.858   8.101   0.904
   19CHTO  H203 7615   5.206   9.821   0.040
   19CHTO   O82 7616   5.152   9.769   0.097
   19CHTO  C123 7617   5.080   9.670   0.022
   19CHTO  H227 7618   5.035   9.718   2.812
   19CHTO   O77 7619   5.185   9.577   2.857
   19CHTO  C118 7620   5.139   9.471   2.772
   19CHTO  H222 7621   5.089   9.514   2.684
   19CHTO  C125 7622   5.265   9.390   2.723
   19CHTO   O84 7623   5.339   9.333   2.832
   19CHTO  H205 7624   5.414   9.288   2.799
   19CHTO  C114 7625   5.039   9.382   2.849
   19CHTO  H218 7626   5.090   9.339   0.057
   19CHTO  C116 7627   4.920   9.468   0.025
   19CHTO  H220 7628   4.858   9.503   2.817
   19CHTO   O79 7629   4.834   9.384   0.104
   19CHTO  H201 7630   4.791   9.321   0.050
   19CHTO  C120 7631   4.972   9.593   0.107
   19CHTO  H224 7632   5.019   9.552   0.199
   19CHTO   N21 7633   4.862   9.683   0.150
   19CHTO  H211 7634   4.890   9.733   0.242
   19CHTO  H212 7635   4.771   9.627   0.165
   19CHTO   O75 7636   4.998   9.280   2.757
   19CHTO  C112 7637   4.998   9.127   2.819
   19CHTO  H216 7638   4.973   9.132   0.049
   19CHTO   O73 7639   5.130   9.074   2.799
   19CHTO  C113 7640   5.146   8.938   2.843
   19CHTO  H217 7641   5.113   8.930   0.071
   19CHTO  C124 7642   5.295   8.901   2.839
   19CHTO   O83 7643   5.373   8.981   0.050
   19CHTO  H204 7644   5.463   8.957   0.043
   19CHTO  C109 7645   5.059   8.845   2.754
   19CHTO  H213 7646   5.093   8.860   2.650
   19CHTO  C110 7647   4.910   8.888   2.769
   19CHTO  H214 7648   4.878   8.863   2.871
   19CHTO   O78 7649   4.827   8.811   2.679
   19CHTO  H200 7650   4.829   8.720   2.703
   19CHTO  C111 7651   4.891   9.040   2.743
   19CHTO  H215 7652   4.905   9.059   2.636
   19CHTO   N19 7653   4.754   9.089   2.777
   19CHTO  H207 7654   4.681   9.039   2.716
   19CHTO  H208 7655   4.733   9.070   0.003
   19CHTO   O74 7656   5.081   8.705   2.791
   19CHTO  C115 7657   5.055   8.597   2.674
   19CHTO  H219 7658   4.962   8.617   2.620
   19CHTO   O76 7659   5.166   8.602   2.563
   19CHTO  C122 7660   5.284   8.527   2.597
   19CHTO  H226 7661   5.324   8.569   2.689
   19CHTO  C126 7662   5.394   8.552   2.488
   19CHTO   O85 7663   5.433   8.689   2.480
   19CHTO  H206 7664   5.503   8.698   2.418
   19CHTO  C121 7665   5.254   8.372   2.615
   19CHTO  H225 7666   5.278   8.319   2.520
   19CHTO   O81 7667   5.340   8.322   2.718
   19CHTO  H202 7668   5.430   8.325   2.691
   19CHTO  C119 7669   5.105   8.343   2.652
   19CHTO  H223 7670   5.050   8.345   2.558
   19CHTO  C117 7671   5.045   8.455   2.745
   19CHTO  H221 7672   5.096   8.468   2.840
   19CHTO   N20 7673   4.903   8.426   2.781
   19CHTO  H209 7674   4.865   8.501   2.848
   19CHTO  H210 7675   4.842   8.423   2.691
   19CHTO   O80 7676   5.080   8.187   2.702
   19CHTO  C103 7677   5.076   8.072   2.597
   19CHTO  H190 7678   5.062   8.111   2.497
   19CHTO  C101 7679   5.199   7.974   2.599
   19CHTO  H188 7680   5.220   7.945   2.702
   19CHTO   O68 7681   5.323   8.050   2.544
   19CHTO  H168 7682   5.400   7.996   2.551
   19CHTO   C99 7683   5.171   7.841   2.513
   19CHTO  H186 7684   5.168   7.868   2.406
   19CHTO   N17 7685   5.279   7.737   2.526
   19CHTO  H174 7686   5.261   7.656   2.458
   19CHTO  H175 7687   5.285   7.702   2.628
   19CHTO   C97 7688   5.032   7.780   2.545
   19CHTO  H184 7689   5.036   7.730   2.644
   19CHTO   O64 7690   4.929   7.881   2.541
   19CHTO  C104 7691   4.946   7.989   2.634
   19CHTO  H191 7692   4.956   7.951   2.736
   19CHTO  C108 7693   4.818   8.074   2.633
   19CHTO   O71 7694   4.790   8.129   2.503
   19CHTO  H171 7695   4.708   8.174   2.506
   19CHTO   O62 7696   4.992   7.685   2.443
   19CHTO   C91 7697   4.883   7.595   2.473
   19CHTO  H178 7698   4.845   7.618   2.573
   19CHTO   C92 7699   4.937   7.449   2.477
   19CHTO  H179 7700   4.994   7.431   2.385
   19CHTO   O66 7701   5.034   7.440   2.584
   19CHTO  H166 7702   5.074   7.356   2.584
   19CHTO   C93 7703   4.824   7.340   2.496
   19CHTO  H180 7704   4.794   7.343   2.602
   19CHTO   N16 7705   4.871   7.201   2.471
   19CHTO  H172 7706   4.976   7.199   2.446
   19CHTO  H173 7707   4.851   7.138   2.556
   19CHTO   C94 7708   4.697   7.371   2.408
   19CHTO  H181 7709   4.715   7.350   2.302
   19CHTO   O61 7710   4.660   7.509   2.419
   19CHTO   C95 7711   4.761   7.599   2.373
   19CHTO  H182 7712   4.794   7.570   2.274
   19CHTO  C106 7713   4.694   7.739   2.362
   19CHTO   O69 7714   4.780   7.831   2.294
   19CHTO  H169 7715   4.739   7.915   2.289
   19CHTO   O63 7716   4.571   7.287   2.461
   19CHTO   C96 7717   4.472   7.253   2.348
   19CHTO  H183 7718   4.530   7.215   2.264
   19CHTO   C98 7719   4.388   7.374   2.294
   19CHTO  H185 7720   4.453   7.458   2.267
   19CHTO   O67 7721   4.327   7.332   2.170
   19CHTO  H167 7722   4.284   7.405   2.129
   19CHTO  C102 7723   4.272   7.419   2.396
   19CHTO  H189 7724   4.200   7.475   2.335
   19CHTO   N18 7725   4.315   7.513   2.502
   19CHTO  H176 7726   4.230   7.541   2.563
   19CHTO  H177 7727   4.390   7.467   2.564
   19CHTO  C105 7728   4.199   7.293   2.453
   19CHTO  H192 7729   4.223   7.281   2.560
   19CHTO   O65 7730   4.236   7.169   2.389
   19CHTO  C100 7731   4.376   7.137   2.401
   19CHTO  H187 7732   4.397   7.119   2.507
   19CHTO  C107 7733   4.401   7.004   2.326
   19CHTO   O70 7734   4.534   6.957   2.348
   19CHTO  H170 7735   4.547   6.876   2.301
   19CHTO   O57 7736   4.042   7.331   2.438
   19CHTO   C85 7737   3.943   7.234   2.398
   19CHTO  H157 7738   3.974   7.137   2.443
   19CHTO   C83 7739   3.949   7.214   2.243
   19CHTO  H155 7740   4.048   7.175   2.217
   19CHTO   O56 7741   3.938   7.343   2.179
   19CHTO  H135 7742   3.950   7.334   2.087
   19CHTO   C81 7743   3.841   7.110   2.200
   19CHTO  H153 7744   3.862   7.017   2.252
   19CHTO   N14 7745   3.851   7.074   2.056
   19CHTO  H141 7746   3.783   6.995   2.034
   19CHTO  H142 7747   3.827   7.159   1.995
   19CHTO   C79 7748   3.697   7.160   2.243
   19CHTO  H151 7749   3.628   7.078   2.223
   19CHTO   O52 7750   3.692   7.184   2.387
   19CHTO   C86 7751   3.796   7.274   2.438
   19CHTO  H158 7752   3.769   7.373   2.397
   19CHTO   C90 7753   3.784   7.287   2.592
   19CHTO   O60 7754   3.660   7.348   2.631
   19CHTO  H138 7755   3.589   7.290   2.612
   19CHTO   O50 7756   3.652   7.275   2.170
   19CHTO   C73 7757   3.541   7.343   2.109
   19CHTO  H145 7758   3.452   7.279   2.108
   19CHTO   C74 7759   3.577   7.380   1.961
   19CHTO  H146 7760   3.597   7.286   1.908
   19CHTO   O54 7761   3.460   7.438   1.899
   19CHTO  H133 7762   3.477   7.456   1.809
   19CHTO   C75 7763   3.702   7.476   1.961
   19CHTO  H147 7764   3.787   7.421   2.003
   19CHTO   N13 7765   3.749   7.518   1.827
   19CHTO  H139 7766   3.690   7.472   1.749
   19CHTO  H140 7767   3.743   7.625   1.815
   19CHTO   C76 7768   3.675   7.601   2.059
   19CHTO  H148 7769   3.602   7.666   2.011
   19CHTO   O49 7770   3.625   7.560   2.191
   19CHTO   C77 7771   3.510   7.474   2.187
   19CHTO  H149 7772   3.427   7.526   2.139
   19CHTO   C88 7773   3.464   7.447   2.331
   19CHTO   O58 7774   3.341   7.364   2.333
   19CHTO  H136 7775   3.315   7.349   2.422
   19CHTO   O51 7776   3.811   7.673   2.091
   19CHTO   C78 7777   3.791   7.818   2.139
   19CHTO  H150 7778   3.686   7.836   2.170
   19CHTO   C80 7779   3.828   7.915   2.026
   19CHTO  H152 7780   3.930   7.891   1.990
   19CHTO   O55 7781   3.738   7.892   1.916
   19CHTO  H134 7782   3.650   7.913   1.940
   19CHTO   C84 7783   3.823   8.066   2.073
   19CHTO  H156 7784   3.718   8.089   2.092
   19CHTO   N15 7785   3.870   8.162   1.968
   19CHTO  H143 7786   3.972   8.142   1.943
   19CHTO  H144 7787   3.862   8.263   2.004
   19CHTO   C87 7788   3.903   8.083   2.205
   19CHTO  H159 7789   4.010   8.073   2.185
   19CHTO   O53 7790   3.859   7.977   2.308
   19CHTO   C82 7791   3.879   7.843   2.263
   19CHTO  H154 7792   3.985   7.825   2.241
   19CHTO   C89 7793   3.842   7.750   2.382
   19CHTO   O59 7794   3.882   7.614   2.360
   19CHTO  H137 7795   3.850   7.561   2.431
   19CHTO   O45 7796   3.879   8.235   2.274
   19CHTO   C67 7797   3.746   8.266   2.318
   19CHTO  H124 7798   3.674   8.231   2.243
   19CHTO   C65 7799   3.711   8.198   2.456
   19CHTO  H122 7800   3.803   8.152   2.491
   19CHTO   O44 7801   3.615   8.094   2.430
   19CHTO  H102 7802   3.532   8.131   2.408
   19CHTO   C63 7803   3.673   8.303   2.567
   19CHTO  H120 7804   3.760   8.367   2.586
   19CHTO   N11 7805   3.646   8.249   2.704
   19CHTO  H108 7806   3.727   8.187   2.736
   19CHTO  H109 7807   3.556   8.190   2.702
   19CHTO   C61 7808   3.560   8.396   2.510
   19CHTO  H118 7809   3.547   8.479   2.581
   19CHTO   O40 7810   3.595   8.457   2.381
   19CHTO   C68 7811   3.726   8.423   2.324
   19CHTO  H125 7812   3.805   8.467   2.389
   19CHTO   C72 7813   3.739   8.490   2.185
   19CHTO   O48 7814   3.641   8.447   2.091
   19CHTO  H105 7815   3.653   8.492   2.009
   19CHTO   O38 7816   3.436   8.324   2.493
   19CHTO   C55 7817   3.319   8.404   2.473
   19CHTO  H112 7818   3.347   8.504   2.434
   19CHTO   C56 7819   3.234   8.416   2.607
   19CHTO  H113 7820   3.209   8.313   2.638
   19CHTO   O42 7821   3.316   8.471   2.712
   19CHTO  H100 7822   3.344   8.558   2.690
   19CHTO   C57 7823   3.104   8.501   2.581
   19CHTO  H114 7824   3.138   8.603   2.563
   19CHTO   N10 7825   3.012   8.509   2.698
   19CHTO  H106 7826   3.068   8.506   2.790
   19CHTO  H107 7827   2.942   8.427   2.697
   19CHTO   C58 7828   3.028   8.451   2.455
   19CHTO  H115 7829   2.974   8.357   2.479
   19CHTO   O37 7830   3.116   8.426   2.343
   19CHTO   C59 7831   3.228   8.340   2.365
   19CHTO  H116 7832   3.194   8.242   2.396
   19CHTO   C70 7833   3.302   8.323   2.231
   19CHTO   O46 7834   3.346   8.447   2.173
   19CHTO  H103 7835   3.398   8.429   2.097
   19CHTO   O39 7836   2.913   8.574   2.407
   19CHTO   C60 7837   2.923   8.623   2.272
   19CHTO  H117 7838   3.001   8.571   2.217
   19CHTO   C62 7839   2.792   8.599   2.193
   19CHTO  H119 7840   2.769   8.490   2.205
   19CHTO   O43 7841   2.683   8.675   2.249
   19CHTO  H101 7842   2.664   8.645   2.336
   19CHTO   C66 7843   2.821   8.629   2.038
   19CHTO  H123 7844   2.905   8.566   2.006
   19CHTO   N12 7845   2.708   8.593   1.949
   19CHTO  H110 7846   2.737   8.516   1.879
   19CHTO  H111 7847   2.621   8.563   2.007
   19CHTO   C69 7848   2.867   8.776   2.018
   19CHTO  H126 7849   2.780   8.845   2.029
   19CHTO   O41 7850   2.981   8.820   2.124
   19CHTO   C64 7851   2.960   8.774   2.268
   19CHTO  H121 7852   2.877   8.833   2.314
   19CHTO   C71 7853   3.088   8.805   2.349
   19CHTO   O47 7854   3.203   8.739   2.295
   19CHTO  H104 7855   3.225   8.777   2.211
   19CHTO   O34 7856   2.926   8.793   1.874
   19CHTO   C49 7857   3.066   8.787   1.804
   19CHTO   H91 7858   3.108   8.888   1.810
   19CHTO   C47 7859   3.043   8.747   1.657
   19CHTO   H89 7860   3.141   8.762   1.605
   19CHTO   O33 7861   2.947   8.838   1.600
   19CHTO   H70 7862   2.934   8.819   1.509
   19CHTO   C45 7863   3.000   8.592   1.650
   19CHTO   H87 7864   2.914   8.577   1.718
   19CHTO    N8 7865   2.959   8.549   1.514
   19CHTO   H75 7866   3.018   8.465   1.480
   19CHTO   H76 7867   2.855   8.523   1.512
   19CHTO   C43 7868   3.119   8.504   1.713
   19CHTO   H85 7869   3.085   8.400   1.709
   19CHTO   O29 7870   3.142   8.546   1.849
   19CHTO   C50 7871   3.164   8.687   1.873
   19CHTO   H92 7872   3.154   8.702   1.981
   19CHTO   C54 7873   3.313   8.726   1.847
   19CHTO   O36 7874   3.401   8.655   1.934
   19CHTO   H72 7875   3.489   8.681   1.917
   19CHTO   O27 7876   3.241   8.509   1.635
   19CHTO   C37 7877   3.310   8.409   1.558
   19CHTO   H79 7878   3.244   8.323   1.540
   19CHTO   C38 7879   3.354   8.464   1.419
   19CHTO   H80 7880   3.420   8.551   1.435
   19CHTO   O31 7881   3.237   8.507   1.348
   19CHTO   H68 7882   3.201   8.584   1.388
   19CHTO   C39 7883   3.432   8.354   1.337
   19CHTO   H81 7884   3.359   8.276   1.313
   19CHTO    N7 7885   3.485   8.404   1.206
   19CHTO   H73 7886   3.448   8.344   1.124
   19CHTO   H74 7887   3.594   8.406   1.205
   19CHTO   C40 7888   3.545   8.285   1.424
   19CHTO   H82 7889   3.634   8.348   1.428
   19CHTO   O26 7890   3.497   8.250   1.555
   19CHTO   C41 7891   3.438   8.359   1.632
   19CHTO   H83 7892   3.510   8.442   1.640
   19CHTO   C52 7893   3.408   8.307   1.775
   19CHTO   O35 7894   3.531   8.265   1.847
   19CHTO   H71 7895   3.566   8.188   1.806
   19CHTO   O28 7896   3.579   8.157   1.368
   19CHTO   C42 7897   3.716   8.107   1.357
   19CHTO   H84 7898   3.776   8.170   1.424
   19CHTO   C44 7899   3.781   8.121   1.215
   19CHTO   H86 7900   3.713   8.075   1.142
   19CHTO   O32 7901   3.790   8.261   1.185
   19CHTO   H69 7902   3.704   8.298   1.175
   19CHTO   C48 7903   3.922   8.051   1.201
   19CHTO   H90 7904   3.994   8.112   1.256
   19CHTO    N9 7905   3.971   8.049   1.058
   19CHTO   H77 7906   3.902   7.993   0.997
   19CHTO   H78 7907   4.070   8.006   1.054
   19CHTO   C51 7908   3.921   7.907   1.265
   19CHTO   H93 7909   3.857   7.843   1.204
   19CHTO   O30 7910   3.873   7.916   1.400
   19CHTO   C46 7911   3.729   7.961   1.409
   19CHTO   H88 7912   3.668   7.895   1.346
   19CHTO   C53 7913   3.684   7.950   1.556
   19CHTO   O72 7914   3.689   7.815   1.603
   19CHTO  H199 7915   3.623   7.764   1.560
   19CHTO   O22 7916   4.053   7.852   1.278
   19CHTO   C31 7917   4.078   7.707   1.263
   19CHTO   H59 7918   3.978   7.657   1.264
   19CHTO   C29 7919   4.146   7.669   1.129
   19CHTO   H57 7920   4.240   7.726   1.124
   19CHTO   O21 7921   4.062   7.717   1.022
   19CHTO   H37 7922   4.107   7.708   0.940
   19CHTO   C27 7923   4.178   7.514   1.118
   19CHTO   H55 7924   4.083   7.460   1.108
   19CHTO    N5 7925   4.261   7.484   0.998
   19CHTO   H43 7926   4.276   7.378   0.990
   19CHTO   H44 7927   4.212   7.522   0.909
   19CHTO   C25 7928   4.246   7.462   1.249
   19CHTO   H53 7929   4.349   7.503   1.257
   19CHTO   O17 7930   4.172   7.504   1.368
   19CHTO   C32 7931   4.158   7.647   1.382
   19CHTO   H60 7932   4.258   7.692   1.384
   19CHTO   C36 7933   4.091   7.677   1.519
   19CHTO   O25 7934   3.960   7.619   1.529
   19CHTO   H40 7935   3.925   7.636   1.614
   19CHTO   O15 7936   4.253   7.300   1.252
   19CHTO   C19 7937   4.285   7.178   1.179
   19CHTO   H47 7938   4.259   7.201   1.075
   19CHTO   C20 7939   4.435   7.134   1.183
   19CHTO   H48 7940   4.468   7.114   1.287
   19CHTO   O19 7941   4.512   7.245   1.134
   19CHTO   H35 7942   4.604   7.227   1.141
   19CHTO   C21 7943   4.460   7.004   1.096
   19CHTO   H49 7944   4.448   7.031   0.991
   19CHTO    N4 7945   4.598   6.952   1.110
   19CHTO   H41 7946   4.617   6.923   1.213
   19CHTO   H42 7947   4.612   6.865   1.047
   19CHTO   C22 7948   4.353   6.896   1.127
   19CHTO   H50 7949   4.373   6.853   1.226
   19CHTO   O14 7950   4.220   6.950   1.125
   19CHTO   C23 7951   4.197   7.056   1.219
   19CHTO   H51 7952   4.223   7.018   1.319
   19CHTO   C34 7953   4.048   7.093   1.220
   19CHTO   O23 7954   3.969   6.984   1.271
   19CHTO   H38 7955   3.878   7.008   1.269
   19CHTO   O16 7956   4.348   6.793   1.026
   19CHTO   C24 7957   4.355   6.638   1.084
   19CHTO   H52 7958   4.376   6.636   1.191
   19CHTO   C26 7959   4.464   6.560   1.008
   19CHTO   H54 7960   4.440   6.563   0.899
   19CHTO   O20 7961   4.591   6.627   1.027
   19CHTO   H36 7962   4.657   6.587   0.974
   19CHTO   C30 7963   4.471   6.411   1.054
   19CHTO   H58 7964   4.514   6.408   1.155
   19CHTO    N6 7965   4.561   6.329   0.968
   19CHTO   H45 7966   4.641   6.287   1.027
   19CHTO   H46 7967   4.604   6.387   0.888
   19CHTO   C33 7968   4.329   6.345   1.066
   19CHTO   H61 7969   4.293   6.316   0.965
   19CHTO   O18 7970   4.232   6.435   1.123
   19CHTO   C28 7971   4.221   6.564   1.062
   19CHTO   H56 7972   4.202   6.555   0.955
   19CHTO   C35 7973   4.102   6.640   1.127
   19CHTO   O24 7974   3.976   6.576   1.105
   19CHTO   H39 7975   3.954   6.580   1.014
   19CHTO    O9 7976   4.339   6.223   1.142
   19CHTO   C13 7977   4.276   6.090   1.077
   19CHTO   H26 7978   4.327   6.072   0.980
   19CHTO   C11 7979   4.120   6.106   1.058
   19CHTO   H24 7980   4.103   6.185   0.983
   19CHTO    O8 7981   4.059   6.151   1.181
   19CHTO    H3 7982   3.967   6.166   1.167
   19CHTO    C9 7983   4.064   5.972   1.003
   19CHTO   H22 7984   4.119   5.954   0.909
   19CHTO    N2 7985   3.923   5.980   0.961
   19CHTO   H10 7986   3.859   5.997   1.046
   19CHTO   H11 7987   3.910   6.059   0.888
   19CHTO    C7 7988   4.095   5.854   1.102
   19CHTO   H20 7989   4.070   5.763   1.044
   19CHTO    O4 7990   4.234   5.846   1.139
   19CHTO   C14 7991   4.311   5.965   1.169
   19CHTO   H27 7992   4.417   5.938   1.149
   19CHTO   C18 7993   4.301   5.998   1.321
   19CHTO   O13 7994   4.368   5.900   1.401
   19CHTO    H7 7995   4.361   5.924   1.491
   19CHTO    O2 7996   4.002   5.859   1.240
   19CHTO    C1 7997   3.947   5.730   1.275
   19CHTO   H14 7998   4.017   5.651   1.243
   19CHTO    C2 7999   3.804   5.701   1.210
   19CHTO   H15 8000   3.742   5.788   1.233
   19CHTO    O6 8001   3.819   5.689   1.067
   19CHTO    H1 8002   3.735   5.681   1.027
   19CHTO    C3 8003   3.737   5.567   1.270
   19CHTO   H16 8004   3.792   5.480   1.229
   19CHTO    N1 8005   3.594   5.552   1.227
   19CHTO    H8 8006   3.588   5.548   1.119
   19CHTO    H9 8007   3.553   5.461   1.268
   19CHTO    C4 8008   3.754   5.559   1.426
   19CHTO   H17 8009   3.687   5.632   1.473
   19CHTO    O1 8010   3.890   5.586   1.463
   19CHTO    C5 8011   3.936   5.717   1.429
   19CHTO   H18 8012   3.866   5.793   1.465
   19CHTO   C16 8013   4.072   5.739   1.499
   19CHTO   O11 8014   4.060   5.725   1.641
   19CHTO    H5 8015   4.009   5.796   1.676
   19CHTO    O3 8016   3.726   5.427   1.474
   19CHTO    C6 8017   3.720   5.412   1.620
   19CHTO   H19 8018   3.766   5.496   1.673
   19CHTO    C8 8019   3.572   5.400   1.668
   19CHTO   H21 8020   3.525   5.321   1.610
   19CHTO    O7 8021   3.509   5.526   1.639
   19CHTO    H2 8022   3.417   5.521   1.660
   19CHTO   C12 8023   3.565   5.363   1.821
   19CHTO   H25 8024   3.603   5.452   1.877
   19CHTO    N3 8025   3.424   5.340   1.865
   19CHTO   H12 8026   3.366   5.430   1.848
   19CHTO   H13 8027   3.421   5.314   1.970
   19CHTO   C15 8028   3.660   5.241   1.852
   19CHTO   H28 8029   3.622   5.148   1.810
   19CHTO   O10 8030   3.684   5.223   2.002
   19CHTO    H4 8031   3.604   5.200   2.045
   19CHTO    O5 8032   3.793   5.266   1.804
   19CHTO   C10 8033   3.800   5.285   1.662
   19CHTO   H23 8034   3.758   5.197   1.612
   19CHTO   C17 8035   3.947   5.296   1.620
   19CHTO   O12 8036   4.020   5.177   1.649
   19CHTO    H6 8037   4.108   5.186   1.619
   20CHTO  H203 8038   4.772   0.515   2.491
   20CHTO   O82 8039   4.858   0.531   2.457
   20CHTO  C123 8040   4.886   0.672   2.461
   20CHTO  H227 8041   4.879   0.707   2.565
   20CHTO   O77 8042   5.025   0.678   2.416
   20CHTO  C118 8043   5.081   0.810   2.418
   20CHTO  H222 8044   5.069   0.856   2.518
   20CHTO  C125 8045   5.235   0.795   2.389
   20CHTO   O84 8046   5.309   0.912   2.423
   20CHTO  H205 8047   5.308   0.924   2.517
   20CHTO  C114 8048   5.007   0.894   2.312
   20CHTO  H218 8049   5.015   0.844   2.216
   20CHTO  C116 8050   4.856   0.903   2.350
   20CHTO  H220 8051   4.845   0.958   2.447
   20CHTO   O79 8052   4.788   0.982   2.251
   20CHTO  H201 8053   4.698   0.993   2.274
   20CHTO  C120 8054   4.795   0.757   2.364
   20CHTO  H224 8055   4.798   0.712   2.262
   20CHTO   N21 8056   4.653   0.760   2.407
   20CHTO  H211 8057   4.647   0.759   2.515
   20CHTO  H212 8058   4.601   0.675   2.366
   20CHTO   O75 8059   5.071   1.023   2.309
   20CHTO  C112 8060   5.127   1.066   2.160
   20CHTO  H216 8061   5.065   1.018   2.082
   20CHTO   O73 8062   5.264   1.023   2.152
   20CHTO  C113 8063   5.330   1.056   2.029
   20CHTO  H217 8064   5.272   1.015   1.944
   20CHTO  C124 8065   5.467   0.987   2.027
   20CHTO   O83 8066   5.555   1.030   2.132
   20CHTO  H204 8067   5.581   1.118   2.118
   20CHTO  C109 8068   5.340   1.211   2.016
   20CHTO  H213 8069   5.398   1.246   2.102
   20CHTO  C110 8070   5.196   1.271   2.019
   20CHTO  H214 8071   5.144   1.241   1.928
   20CHTO   O78 8072   5.206   1.415   2.016
   20CHTO  H200 8073   5.239   1.444   1.934
   20CHTO  C111 8074   5.118   1.223   2.144
   20CHTO  H215 8075   5.164   1.267   2.234
   20CHTO   N19 8076   4.975   1.264   2.145
   20CHTO  H207 8077   4.968   1.372   2.140
   20CHTO  H208 8078   4.927   1.230   2.236
   20CHTO   O74 8079   5.411   1.246   1.893
   20CHTO  C115 8080   5.529   1.354   1.913
   20CHTO  H219 8081   5.518   1.409   2.007
   20CHTO   O76 8082   5.669   1.285   1.924
   20CHTO  C122 8083   5.716   1.242   1.796
   20CHTO  H226 8084   5.637   1.185   1.748
   20CHTO  C126 8085   5.835   1.141   1.814
   20CHTO   O85 8086   5.793   1.020   1.877
   20CHTO  H206 8087   5.866   0.961   1.882
   20CHTO  C121 8088   5.755   1.364   1.706
   20CHTO  H225 8089   5.860   1.393   1.730
   20CHTO   O81 8090   5.754   1.320   1.569
   20CHTO  H202 8091   5.790   1.386   1.514
   20CHTO  C119 8092   5.662   1.489   1.731
   20CHTO  H223 8093   5.715   1.543   1.810
   20CHTO  C117 8094   5.520   1.454   1.790
   20CHTO  H221 8095   5.451   1.406   1.721
   20CHTO   N20 8096   5.449   1.580   1.832
   20CHTO  H209 8097   5.349   1.557   1.867
   20CHTO  H210 8098   5.443   1.649   1.749
   20CHTO   O80 8099   5.666   1.599   1.609
   20CHTO  C103 8100   5.595   1.566   1.461
   20CHTO  H190 8101   5.667   1.517   1.395
   20CHTO  C101 8102   5.459   1.483   1.458
   20CHTO  H188 8103   5.394   1.521   1.538
   20CHTO   O68 8104   5.489   1.336   1.484
   20CHTO  H168 8105   5.528   1.325   1.569
   20CHTO   C99 8106   5.380   1.499   1.319
   20CHTO  H186 8107   5.441   1.454   1.238
   20CHTO   N17 8108   5.246   1.432   1.316
   20CHTO  H174 8109   5.180   1.477   1.389
   20CHTO  H175 8110   5.205   1.436   1.217
   20CHTO   C97 8111   5.370   1.650   1.285
   20CHTO  H184 8112   5.310   1.699   1.364
   20CHTO   O64 8113   5.503   1.705   1.277
   20CHTO  C104 8114   5.571   1.711   1.403
   20CHTO  H191 8115   5.514   1.769   1.476
   20CHTO  C108 8116   5.704   1.785   1.383
   20CHTO   O71 8117   5.682   1.920   1.340
   20CHTO  H171 8118   5.765   1.961   1.324
   20CHTO   O62 8119   5.312   1.676   1.155
   20CHTO   C91 8120   5.264   1.810   1.135
   20CHTO  H178 8121   5.304   1.875   1.213
   20CHTO   C92 8122   5.108   1.814   1.149
   20CHTO  H179 8123   5.065   1.739   1.082
   20CHTO   O66 8124   5.073   1.772   1.283
   20CHTO  H166 8125   5.108   1.832   1.347
   20CHTO   C93 8126   5.049   1.958   1.117
   20CHTO  H180 8127   5.081   2.025   1.198
   20CHTO   N16 8128   4.901   1.961   1.116
   20CHTO  H172 8129   4.862   1.894   1.040
   20CHTO  H173 8130   4.866   2.062   1.099
   20CHTO   C94 8131   5.109   2.010   0.982
   20CHTO  H181 8132   5.077   1.950   0.897
   20CHTO   O61 8133   5.252   2.005   0.984
   20CHTO   C95 8134   5.305   1.872   0.997
   20CHTO  H182 8135   5.266   1.811   0.916
   20CHTO  C106 8136   5.461   1.877   0.980
   20CHTO   O69 8137   5.498   1.919   0.848
   20CHTO  H169 8138   5.471   2.008   0.834
   20CHTO   O63 8139   5.071   2.164   0.957
   20CHTO   C96 8140   5.022   2.189   0.811
   20CHTO  H183 8141   4.960   2.104   0.781
   20CHTO   C98 8142   5.135   2.206   0.705
   20CHTO  H185 8143   5.202   2.287   0.734
   20CHTO   O67 8144   5.216   2.087   0.704
   20CHTO  H167 8145   5.165   2.012   0.679
   20CHTO  C102 8146   5.075   2.234   0.559
   20CHTO  H189 8147   5.028   2.140   0.527
   20CHTO   N18 8148   5.178   2.266   0.456
   20CHTO  H176 8149   5.164   2.365   0.415
   20CHTO  H177 8150   5.175   2.193   0.376
   20CHTO  C105 8151   4.962   2.341   0.565
   20CHTO  H192 8152   5.006   2.441   0.571
   20CHTO   O65 8153   4.871   2.326   0.676
   20CHTO  C100 8154   4.931   2.318   0.806
   20CHTO  H187 8155   4.992   2.407   0.822
   20CHTO  C107 8156   4.816   2.317   0.909
   20CHTO   O70 8157   4.863   2.334   1.044
   20CHTO  H170 8158   4.910   2.257   1.071
   20CHTO   O57 8159   4.881   2.321   0.429
   20CHTO   C85 8160   4.806   2.430   0.373
   20CHTO  H157 8161   4.799   2.509   0.451
   20CHTO   C83 8162   4.659   2.382   0.347
   20CHTO  H155 8163   4.613   2.362   0.444
   20CHTO   O56 8164   4.660   2.257   0.275
   20CHTO  H135 8165   4.701   2.190   0.327
   20CHTO   C81 8166   4.580   2.495   0.276
   20CHTO  H153 8167   4.585   2.584   0.338
   20CHTO   N14 8168   4.435   2.465   0.265
   20CHTO  H141 8169   4.401   2.472   0.163
   20CHTO  H142 8170   4.378   2.533   0.325
   20CHTO   C79 8171   4.649   2.528   0.138
   20CHTO  H151 8172   4.593   2.611   0.093
   20CHTO   O52 8173   4.785   2.577   0.161
   20CHTO   C86 8174   4.869   2.486   0.239
   20CHTO  H158 8175   4.891   2.403   0.168
   20CHTO   C90 8176   5.005   2.555   0.266
   20CHTO   O60 8177   4.990   2.679   0.335
   20CHTO  H138 8178   4.952   2.743   0.278
   20CHTO   O50 8179   4.652   2.418   0.045
   20CHTO   C73 8180   4.678   2.410   2.783
   20CHTO  H145 8181   4.769   2.467   2.758
   20CHTO   C74 8182   4.558   2.468   2.701
   20CHTO  H146 8183   4.545   2.573   2.733
   20CHTO   O54 8184   4.594   2.472   2.562
   20CHTO  H133 8185   4.663   2.534   2.547
   20CHTO   C75 8186   4.429   2.382   2.732
   20CHTO  H147 8187   4.406   2.391   2.839
   20CHTO   N13 8188   4.308   2.429   2.661
   20CHTO  H139 8189   4.223   2.367   2.688
   20CHTO  H140 8190   4.286   2.531   2.689
   20CHTO   C76 8191   4.460   2.227   2.703
   20CHTO  H148 8192   4.473   2.216   2.595
   20CHTO   O49 8193   4.582   2.184   2.770
   20CHTO   C77 8194   4.700   2.262   2.742
   20CHTO  H149 8195   4.723   2.257   2.635
   20CHTO   C88 8196   4.818   2.196   2.814
   20CHTO   O58 8197   4.945   2.259   2.777
   20CHTO  H136 8198   4.966   2.237   2.688
   20CHTO   O51 8199   4.337   2.128   2.761
   20CHTO   C78 8200   4.341   2.100   0.045
   20CHTO  H150 8201   4.404   2.176   0.097
   20CHTO   C80 8202   4.398   1.959   0.076
   20CHTO  H152 8203   4.335   1.884   0.024
   20CHTO   O55 8204   4.531   1.950   0.022
   20CHTO  H134 8205   4.588   2.011   0.064
   20CHTO   C84 8206   4.396   1.930   0.232
   20CHTO  H156 8207   4.465   2.001   0.278
   20CHTO   N15 8208   4.446   1.793   0.267
   20CHTO  H143 8209   4.548   1.782   0.235
   20CHTO  H144 8210   4.387   1.719   0.218
   20CHTO   C87 8211   4.253   1.955   0.288
   20CHTO  H159 8212   4.185   1.878   0.250
   20CHTO   O53 8213   4.204   2.094   0.245
   20CHTO   C82 8214   4.198   2.110   0.102
   20CHTO  H154 8215   4.134   2.034   0.058
   20CHTO   C89 8216   4.134   2.247   0.071
   20CHTO   O59 8217   3.999   2.251   0.118
   20CHTO  H137 8218   3.963   2.337   0.103
   20CHTO   O45 8219   4.248   1.950   0.452
   20CHTO   C67 8220   4.321   2.055   0.517
   20CHTO  H124 8221   4.379   2.114   0.446
   20CHTO   C65 8222   4.222   2.150   0.592
   20CHTO  H122 8223   4.140   2.168   0.522
   20CHTO   O44 8224   4.286   2.275   0.620
   20CHTO  H102 8225   4.353   2.264   0.685
   20CHTO   C63 8226   4.158   2.076   0.715
   20CHTO  H120 8227   4.108   1.986   0.679
   20CHTO   N11 8228   4.047   2.149   0.785
   20CHTO  H108 8229   3.953   2.101   0.767
   20CHTO  H109 8230   4.042   2.251   0.752
   20CHTO   C61 8231   4.272   2.028   0.812
   20CHTO  H118 8232   4.223   1.963   0.887
   20CHTO   O40 8233   4.370   1.945   0.743
   20CHTO   C68 8234   4.426   1.988   0.614
   20CHTO  H125 8235   4.455   1.893   0.564
   20CHTO   C72 8236   4.557   2.070   0.630
   20CHTO   O48 8237   4.546   2.195   0.699
   20CHTO  H105 8238   4.631   2.236   0.703
   20CHTO   O38 8239   4.345   2.134   0.876
   20CHTO   C55 8240   4.360   2.137   1.019
   20CHTO  H112 8241   4.272   2.094   1.068
   20CHTO   C56 8242   4.380   2.290   1.059
   20CHTO  H113 8243   4.457   2.330   0.991
   20CHTO   O42 8244   4.259   2.361   1.030
   20CHTO  H100 8245   4.270   2.453   1.045
   20CHTO   C57 8246   4.425   2.309   1.209
   20CHTO  H114 8247   4.339   2.284   1.272
   20CHTO   N10 8248   4.464   2.450   1.240
   20CHTO  H106 8249   4.376   2.505   1.271
   20CHTO  H107 8250   4.538   2.453   1.319
   20CHTO   C58 8251   4.540   2.210   1.243
   20CHTO  H115 8252   4.632   2.240   1.186
   20CHTO   O37 8253   4.502   2.076   1.209
   20CHTO   C59 8254   4.483   2.054   1.068
   20CHTO  H116 8255   4.573   2.083   1.014
   20CHTO   C70 8256   4.462   1.903   1.050
   20CHTO   O46 8257   4.580   1.827   1.078
   20CHTO  H103 8258   4.564   1.737   1.058
   20CHTO   O39 8259   4.570   2.213   1.403
   20CHTO   C60 8260   4.670   2.121   1.451
   20CHTO  H117 8261   4.670   2.031   1.390
   20CHTO   C62 8262   4.813   2.182   1.447
   20CHTO  H119 8263   4.836   2.200   1.340
   20CHTO   O43 8264   4.815   2.309   1.516
   20CHTO  H101 8265   4.797   2.296   1.607
   20CHTO   C66 8266   4.919   2.075   1.507
   20CHTO  H123 8267   4.911   1.983   1.449
   20CHTO   N12 8268   5.059   2.121   1.493
   20CHTO  H110 8269   5.083   2.136   1.389
   20CHTO  H111 8270   5.126   2.048   1.538
   20CHTO   C69 8271   4.880   2.042   1.654
   20CHTO  H126 8272   4.884   2.134   1.716
   20CHTO   O41 8273   4.732   1.984   1.655
   20CHTO   C64 8274   4.630   2.078   1.595
   20CHTO  H121 8275   4.622   2.169   1.658
   20CHTO   C71 8276   4.492   2.008   1.593
   20CHTO   O47 8277   4.440   1.990   1.724
   20CHTO  H104 8278   4.492   1.927   1.771
   20CHTO   O34 8279   4.978   1.935   1.718
   20CHTO   C49 8280   4.943   1.795   1.765
   20CHTO   H91 8281   4.867   1.759   1.695
   20CHTO   C47 8282   4.879   1.800   1.907
   20CHTO   H89 8283   4.773   1.830   1.890
   20CHTO   O33 8284   4.943   1.900   1.988
   20CHTO   H70 8285   4.896   1.912   2.068
   20CHTO   C45 8286   4.889   1.658   1.983
   20CHTO   H87 8287   4.983   1.658   2.042
   20CHTO    N8 8288   4.776   1.641   2.079
   20CHTO   H75 8289   4.773   1.725   2.147
   20CHTO   H76 8290   4.788   1.549   2.134
   20CHTO   C43 8291   4.907   1.538   1.880
   20CHTO   H85 8292   4.912   1.446   1.938
   20CHTO   O29 8293   5.027   1.559   1.802
   20CHTO   C50 8294   5.061   1.693   1.763
   20CHTO   H92 8295   5.142   1.731   1.828
   20CHTO   C54 8296   5.126   1.682   1.623
   20CHTO   O36 8297   5.195   1.802   1.584
   20CHTO   H72 8298   5.272   1.813   1.637
   20CHTO   O27 8299   4.794   1.523   1.793
   20CHTO   C37 8300   4.737   1.457   1.679
   20CHTO   H79 8301   4.635   1.425   1.703
   20CHTO   C38 8302   4.725   1.556   1.559
   20CHTO   H80 8303   4.824   1.603   1.543
   20CHTO   O31 8304   4.631   1.659   1.596
   20CHTO   H68 8305   4.546   1.623   1.608
   20CHTO   C39 8306   4.682   1.483   1.426
   20CHTO   H81 8307   4.579   1.450   1.439
   20CHTO    N7 8308   4.683   1.574   1.306
   20CHTO   H73 8309   4.783   1.612   1.289
   20CHTO   H74 8310   4.648   1.521   1.219
   20CHTO   C40 8311   4.771   1.355   1.403
   20CHTO   H82 8312   4.874   1.385   1.379
   20CHTO   O26 8313   4.766   1.271   1.519
   20CHTO   C41 8314   4.821   1.333   1.639
   20CHTO   H83 8315   4.925   1.363   1.621
   20CHTO   C52 8316   4.821   1.225   1.751
   20CHTO   O35 8317   4.910   1.112   1.719
   20CHTO   H71 8318   4.907   1.050   1.790
   20CHTO   O28 8319   4.721   1.270   1.297
   20CHTO   C42 8320   4.810   1.183   1.220
   20CHTO   H84 8321   4.741   1.124   1.159
   20CHTO   C44 8322   4.894   1.078   1.301
   20CHTO   H86 8323   4.957   1.132   1.373
   20CHTO   O32 8324   4.802   0.996   1.375
   20CHTO   H69 8325   4.761   1.046   1.443
   20CHTO   C48 8326   4.990   0.992   1.208
   20CHTO   H90 8327   4.928   0.929   1.144
   20CHTO    N9 8328   5.078   0.898   1.286
   20CHTO   H77 8329   5.140   0.954   1.354
   20CHTO   H78 8330   5.017   0.826   1.339
   20CHTO   C51 8331   5.072   1.090   1.117
   20CHTO   H93 8332   5.135   1.152   1.181
   20CHTO   O30 8333   4.979   1.168   1.041
   20CHTO   C46 8334   4.902   1.262   1.122
   20CHTO   H88 8335   4.970   1.325   1.179
   20CHTO   C53 8336   4.819   1.349   1.025
   20CHTO   O72 8337   4.903   1.428   0.941
   20CHTO  H199 8338   4.949   1.373   0.880
   20CHTO   O22 8339   5.151   1.024   1.016
   20CHTO   C31 8340   5.271   1.091   0.959
   20CHTO   H59 8341   5.293   1.037   0.864
   20CHTO   C29 8342   5.253   1.241   0.923
   20CHTO   H57 8343   5.215   1.292   1.013
   20CHTO   O21 8344   5.149   1.249   0.823
   20CHTO   H37 8345   5.124   1.339   0.810
   20CHTO   C27 8346   5.386   1.312   0.875
   20CHTO   H55 8347   5.413   1.271   0.776
   20CHTO    N5 8348   5.369   1.459   0.863
   20CHTO   H43 8349   5.289   1.481   0.794
   20CHTO   H44 8350   5.347   1.502   0.959
   20CHTO   C25 8351   5.504   1.275   0.973
   20CHTO   H53 8352   5.485   1.321   1.071
   20CHTO   O17 8353   5.513   1.131   0.989
   20CHTO   C32 8354   5.397   1.072   1.050
   20CHTO   H60 8355   5.378   1.119   1.146
   20CHTO   C36 8356   5.426   0.921   1.076
   20CHTO   O25 8357   5.459   0.849   0.956
   20CHTO   H40 8358   5.383   0.845   0.900
   20CHTO   O15 8359   5.641   1.325   0.919
   20CHTO   C19 8360   5.723   1.443   0.899
   20CHTO   H47 8361   5.650   1.522   0.874
   20CHTO   C20 8362   5.803   1.489   1.024
   20CHTO   H48 8363   5.870   1.409   1.061
   20CHTO   O19 8364   5.706   1.515   1.127
   20CHTO   H35 8365   5.750   1.534   1.208
   20CHTO   C21 8366   5.891   1.617   0.993
   20CHTO   H49 8367   5.824   1.700   0.971
   20CHTO    N4 8368   5.976   1.658   1.108
   20CHTO   H41 8369   6.046   1.580   1.133
   20CHTO   H42 8370   6.032   1.748   1.082
   20CHTO   C22 8371   5.974   1.588   0.865
   20CHTO   H50 8372   6.041   1.505   0.887
   20CHTO   O14 8373   5.888   1.553   0.755
   20CHTO   C23 8374   5.816   1.430   0.775
   20CHTO   H51 8375   5.891   1.350   0.788
   20CHTO   C34 8376   5.739   1.398   0.646
   20CHTO   O23 8377   5.645   1.500   0.610
   20CHTO   H38 8378   5.577   1.505   0.674
   20CHTO   O16 8379   6.048   1.702   0.816
   20CHTO   C24 8380   6.179   1.654   0.742
   20CHTO   H52 8381   6.177   1.547   0.721
   20CHTO   C26 8382   6.300   1.683   0.835
   20CHTO   H54 8383   6.285   1.783   0.882
   20CHTO   O20 8384   6.298   1.588   0.942
   20CHTO   H36 8385   6.362   1.611   1.007
   20CHTO   C30 8386   6.438   1.675   0.762
   20CHTO   H58 8387   6.507   1.613   0.820
   20CHTO    N6 8388   6.506   1.807   0.753
   20CHTO   H45 8389   6.446   1.876   0.696
   20CHTO   H46 8390   6.602   1.796   0.704
   20CHTO   C33 8391   6.422   1.605   0.623
   20CHTO   H61 8392   6.518   1.605   0.569
   20CHTO   O18 8393   6.324   1.675   0.542
   20CHTO   C28 8394   6.203   1.726   0.605
   20CHTO   H56 8395   6.212   1.833   0.622
   20CHTO   C35 8396   6.085   1.702   0.507
   20CHTO   O24 8397   5.964   1.768   0.544
   20CHTO   H39 8398   5.975   1.861   0.536
   20CHTO    O9 8399   6.387   1.466   0.640
   20CHTO   C13 8400   6.499   1.364   0.708
   20CHTO   H26 8401   6.564   1.423   0.775
   20CHTO   C11 8402   6.581   1.293   0.593
   20CHTO   H24 8403   6.644   1.369   0.545
   20CHTO    O8 8404   6.492   1.238   0.494
   20CHTO    H3 8405   6.446   1.308   0.450
   20CHTO    C9 8406   6.671   1.185   0.660
   20CHTO   H22 8407   6.728   1.239   0.737
   20CHTO    N2 8408   6.776   1.133   0.569
   20CHTO   H10 8409   6.731   1.077   0.488
   20CHTO   H11 8410   6.836   1.214   0.530
   20CHTO    C7 8411   6.582   1.076   0.732
   20CHTO   H20 8412   6.634   1.059   0.829
   20CHTO    O4 8413   6.447   1.121   0.757
   20CHTO   C14 8414   6.429   1.256   0.804
   20CHTO   H27 8415   6.475   1.264   0.905
   20CHTO   C18 8416   6.277   1.278   0.822
   20CHTO   O13 8417   6.223   1.191   0.922
   20CHTO    H7 8418   6.129   1.199   0.923
   20CHTO    O2 8419   6.572   0.933   0.652
   20CHTO    C1 8420   6.520   0.825   0.731
   20CHTO   H14 8421   6.475   0.864   0.824
   20CHTO    C2 8422   6.631   0.718   0.769
   20CHTO   H15 8423   6.683   0.693   0.675
   20CHTO    O6 8424   6.726   0.781   0.858
   20CHTO    H1 8425   6.684   0.806   0.939
   20CHTO    C3 8426   6.566   0.586   0.834
   20CHTO   H16 8427   6.521   0.612   0.931
   20CHTO    N1 8428   6.668   0.479   0.860
   20CHTO    H8 8429   6.742   0.515   0.930
   20CHTO    H9 8430   6.716   0.450   0.768
   20CHTO    C4 8431   6.448   0.538   0.743
   20CHTO   H17 8432   6.489   0.507   0.646
   20CHTO    O1 8433   6.353   0.644   0.726
   20CHTO    C5 8434   6.403   0.756   0.653
   20CHTO   H18 8435   6.441   0.722   0.556
   20CHTO   C16 8436   6.282   0.849   0.629
   20CHTO   O11 8437   6.311   0.955   0.536
   20CHTO    H5 8438   6.372   1.015   0.574
   20CHTO    O3 8439   6.373   0.430   0.803
   20CHTO    C6 8440   6.314   0.336   0.707
   20CHTO   H19 8441   6.310   0.376   0.605
   20CHTO    C8 8442   6.397   0.204   0.704
   20CHTO   H21 8443   6.413   0.171   0.807
   20CHTO    O7 8444   6.525   0.235   0.643
   20CHTO    H2 8445   6.575   0.290   0.700
   20CHTO   C12 8446   6.322   0.089   0.625
   20CHTO   H25 8447   6.321   0.120   0.518
   20CHTO    N3 8448   6.397   9.958   0.630
   20CHTO   H12 8449   6.339   9.882   0.680
   20CHTO   H13 8450   6.494   9.970   0.677
   20CHTO   C15 8451   6.174   0.079   0.676
   20CHTO   H28 8452   6.169   0.042   0.779
   20CHTO   O10 8453   6.085   9.990   0.586
   20CHTO    H4 8454   6.115   9.902   0.588
   20CHTO    O5 8455   6.108   0.206   0.665
   20CHTO   C10 8456   6.166   0.308   0.748
   20CHTO   H23 8457   6.162   0.276   0.852
   20CHTO   C17 8458   6.081   0.435   0.735
   20CHTO   O12 8459   5.947   0.414   0.781
   20CHTO    H6 8460   5.901   0.357   0.721
   21GLOH   H03 8461   3.397   9.920   1.469
   21GLOH    O1 8462   3.390   9.915   1.567
   21GLOH    C1 8463   3.357   9.780   1.604
   21GLOH   H02 8464   3.445   9.717   1.596
   21GLOH   H08 8465   3.283   9.738   1.536
   21GLOH    C2 8466   3.302   9.768   1.748
   21GLOH   H04 8467   3.212   9.830   1.754
   21GLOH    O2 8468   3.267   9.632   1.779
   21GLOH   H05 8469   3.348   9.577   1.794
   21GLOH    C3 8470   3.403   9.823   1.851
   21GLOH   H06 8471   3.365   9.800   1.951
   21GLOH   H07 8472   3.406   9.931   1.844
   21GLOH    O3 8473   3.535   9.767   1.835
   21GLOH   H01 8474   3.525   9.669   1.836
   22GLOH   H03 8475   3.962   9.404   0.473
   22GLOH    O1 8476   4.022   9.341   0.423
   22GLOH    C1 8477   3.940   9.235   0.369
   22GLOH   H02 8478   3.990   9.188   0.285
   22GLOH   H08 8479   3.846   9.277   0.330
   22GLOH    C2 8480   3.906   9.127   0.474
   22GLOH   H04 8481   3.857   9.176   0.559
   22GLOH    O2 8482   3.817   9.028   0.418
   22GLOH   H05 8483   3.783   8.969   0.493
   22GLOH    C3 8484   4.035   9.059   0.523
   22GLOH   H06 8485   4.078   9.002   0.441
   22GLOH   H07 8486   4.009   8.988   0.602
   22GLOH    O3 8487   4.128   9.156   0.572
   22GLOH   H01 8488   4.118   9.235   0.513
   23GLOH   H03 8489   3.559   9.871   1.314
   23GLOH    O1 8490   3.645   9.824   1.329
   23GLOH    C1 8491   3.717   9.888   1.436
   23GLOH   H02 8492   3.656   9.893   1.526
   23GLOH   H08 8493   3.741   9.991   1.408
   23GLOH    C2 8494   3.848   9.814   1.468
   23GLOH   H04 8495   3.910   9.815   1.377
   23GLOH    O2 8496   3.921   9.877   1.575
   23GLOH   H05 8497   3.873   9.958   1.608
   23GLOH    C3 8498   3.818   9.667   1.503
   23GLOH   H06 8499   3.758   9.664   1.594
   23GLOH   H07 8500   3.912   9.616   1.524
   23GLOH    O3 8501   3.748   9.602   1.395
   23GLOH   H01 8502   3.700   9.676   1.349
   24GLOH   H03 8503   4.299   9.945   1.886
   24GLOH    O1 8504   4.294   9.853   1.849
   24GLOH    C1 8505   4.220   9.866   1.726
   24GLOH   H02 8506   4.266   9.943   1.663
   24GLOH   H08 8507   4.119   9.900   1.747
   24GLOH    C2 8508   4.212   9.736   1.644
   24GLOH   H04 8509   4.154   9.662   1.702
   24GLOH    O2 8510   4.143   9.763   1.520
   24GLOH   H05 8511   4.053   9.803   1.543
   24GLOH    C3 8512   4.352   9.680   1.617
   24GLOH   H06 8513   4.411   9.755   1.563
   24GLOH   H07 8514   4.344   9.593   1.552
   24GLOH    O3 8515   4.416   9.645   1.741
   24GLOH   H01 8516   4.397   9.718   1.804
   25GLOH   H03 8517   3.446   0.034   2.231
   25GLOH    O1 8518   3.406   0.067   2.148
   25GLOH    C1 8519   3.297   0.157   2.178
   25GLOH   H02 8520   3.290   0.234   2.101
   25GLOH   H08 8521   3.316   0.209   2.272
   25GLOH    C2 8522   3.161   0.086   2.188
   25GLOH   H04 8523   3.172   0.004   2.262
   25GLOH    O2 8524   3.060   0.177   2.236
   25GLOH   H05 8525   3.058   0.177   2.334
   25GLOH    C3 8526   3.120   0.021   2.054
   25GLOH   H06 8527   3.044   9.946   2.075
   25GLOH   H07 8528   3.206   9.967   2.015
   25GLOH    O3 8529   3.071   0.113   1.954
   25GLOH   H01 8530   3.145   0.173   1.925
   26GLOH   H03 8531   4.227   1.806   1.547
   26GLOH    O1 8532   4.227   1.846   1.456
   26GLOH    C1 8533   4.268   1.744   1.362
   26GLOH   H02 8534   4.295   1.652   1.415
   26GLOH   H08 8535   4.357   1.776   1.308
   26GLOH    C2 8536   4.158   1.710   1.259
   26GLOH   H04 8537   4.065   1.685   1.313
   26GLOH    O2 8538   4.131   1.821   1.171
   26GLOH   H05 8539   4.124   1.905   1.224
   26GLOH    C3 8540   4.198   1.587   1.177
   26GLOH   H06 8541   4.288   1.612   1.120
   26GLOH   H07 8542   4.120   1.565   1.104
   26GLOH    O3 8543   4.223   1.472   1.260
   26GLOH   H01 8544   4.154   1.468   1.332
   27GLOH   H03 8545   2.859   0.412   2.001
   27GLOH    O1 8546   2.841   0.475   1.925
   27GLOH    C1 8547   2.857   0.610   1.973
   27GLOH   H02 8548   2.950   0.619   2.029
   27GLOH   H08 8549   2.777   0.633   2.044
   27GLOH    C2 8550   2.857   0.718   1.863
   27GLOH   H04 8551   2.883   0.813   1.911
   27GLOH    O2 8552   2.955   0.694   1.759
   27GLOH   H05 8553   3.041   0.665   1.801
   27GLOH    C3 8554   2.719   0.736   1.799
   27GLOH   H06 8555   2.681   0.638   1.769
   27GLOH   H07 8556   2.732   0.792   1.706
   27GLOH    O3 8557   2.624   0.803   1.883
   27GLOH   H01 8558   2.564   0.851   1.820
   28GLOH   H03 8559   4.431   0.745   1.666
   28GLOH    O1 8560   4.443   0.798   1.583
   28GLOH    C1 8561   4.487   0.712   1.476
   28GLOH   H02 8562   4.425   0.623   1.472
   28GLOH   H08 8563   4.589   0.679   1.494
   28GLOH    C2 8564   4.482   0.783   1.339
   28GLOH   H04 8565   4.556   0.865   1.340
   28GLOH    O2 8566   4.514   0.690   1.233
   28GLOH   H05 8567   4.536   0.741   1.150
   28GLOH    C3 8568   4.342   0.844   1.317
   28GLOH   H06 8569   4.270   0.763   1.310
   28GLOH   H07 8570   4.342   0.895   1.220
   28GLOH    O3 8571   4.306   0.935   1.422
   28GLOH   H01 8572   4.358   0.904   1.501
   29GLOH   H03 8573   3.978   1.529   2.067
   29GLOH    O1 8574   3.966   1.432   2.073
   29GLOH    C1 8575   3.974   1.378   1.939
   29GLOH   H02 8576   4.040   1.439   1.877
   29GLOH   H08 8577   3.876   1.381   1.892
   29GLOH    C2 8578   4.024   1.232   1.933
   29GLOH   H04 8579   3.940   1.167   1.961
   29GLOH    O2 8580   4.065   1.200   1.799
   29GLOH   H05 8581   4.042   1.104   1.779
   29GLOH    C3 8582   4.137   1.208   2.033
   29GLOH   H06 8583   4.220   1.276   2.010
   29GLOH   H07 8584   4.175   1.106   2.020
   29GLOH    O3 8585   4.090   1.228   2.167
   29GLOH   H01 8586   4.044   1.316   2.164
   30GLOH   H03 8587   2.357   9.919   0.011
   30GLOH    O1 8588   2.436   9.952   2.839
   30GLOH    C1 8589   2.555   9.891   0.017
   30GLOH   H02 8590   2.556   9.784   2.873
   30GLOH   H08 8591   2.555   9.901   0.126
   30GLOH    C2 8592   2.685   9.954   2.841
   30GLOH   H04 8593   2.685   0.061   2.867
   30GLOH    O2 8594   2.802   9.891   0.020
   30GLOH   H05 8595   2.851   9.957   0.078
   30GLOH    C3 8596   2.688   9.943   2.687
   30GLOH   H06 8597   2.692   9.838   2.659
   30GLOH   H07 8598   2.779   9.990   2.650
   30GLOH    O3 8599   2.573   0.006   2.629
   30GLOH   H01 8600   2.501   9.999   2.697
   31GLOH   H03 8601   3.140   2.066   1.068
   31GLOH    O1 8602   3.216   2.129   1.061
   31GLOH    C1 8603   3.304   2.110   1.173
   31GLOH   H02 8604   3.270   2.169   1.258
   31GLOH   H08 8605   3.404   2.146   1.149
   31GLOH    C2 8606   3.316   1.962   1.217
   31GLOH   H04 8607   3.215   1.926   1.242
   31GLOH    O2 8608   3.371   1.879   1.113
   31GLOH   H05 8609   3.312   1.884   1.033
   31GLOH    C3 8610   3.401   1.951   1.345
   31GLOH   H06 8611   3.500   1.991   1.325
   31GLOH   H07 8612   3.414   1.845   1.368
   31GLOH    O3 8613   3.341   2.020   1.456
   31GLOH   H01 8614   3.375   1.974   1.538
   32GLOH   H03 8615   3.459   1.886   2.747
   32GLOH    O1 8616   3.377   1.890   2.800
   32GLOH    C1 8617   3.408   1.888   0.062
   32GLOH   H02 8618   3.330   1.938   0.119
   32GLOH   H08 8619   3.501   1.942   0.082
   32GLOH    C2 8620   3.423   1.744   0.117
   32GLOH   H04 8621   3.496   1.690   0.055
   32GLOH    O2 8622   3.470   1.753   0.253
   32GLOH   H05 8623   3.546   1.687   0.264
   32GLOH    C3 8624   3.287   1.671   0.111
   32GLOH   H06 8625   3.249   1.680   0.009
   32GLOH   H07 8626   3.218   1.725   0.175
   32GLOH    O3 8627   3.293   1.532   0.149
   32GLOH   H01 8628   3.338   1.524   0.237
   33GLOH   H03 8629   3.852   0.375   1.230
   33GLOH    O1 8630   3.928   0.417   1.277
   33GLOH    C1 8631   3.886   0.446   1.412
   33GLOH   H02 8632   3.934   0.377   1.481
   33GLOH   H08 8633   3.778   0.434   1.422
   33GLOH    C2 8634   3.924   0.589   1.455
   33GLOH   H04 8635   3.876   0.660   1.387
   33GLOH    O2 8636   3.877   0.613   1.589
   33GLOH   H05 8637   3.776   0.607   1.587
   33GLOH    C3 8638   4.077   0.606   1.444
   33GLOH   H06 8639   4.125   0.540   1.517
   33GLOH   H07 8640   4.103   0.708   1.470
   33GLOH    O3 8641   4.119   0.574   1.310
   33GLOH   H01 8642   4.055   0.504   1.280
   34GLOH   H03 8643   2.641   1.578   0.947
   34GLOH    O1 8644   2.627   1.586   0.849
   34GLOH    C1 8645   2.745   1.643   0.792
   34GLOH   H02 8646   2.762   1.743   0.832
   34GLOH   H08 8647   2.732   1.656   0.685
   34GLOH    C2 8648   2.873   1.560   0.813
   34GLOH   H04 8649   2.952   1.604   0.751
   34GLOH    O2 8650   2.915   1.566   0.951
   34GLOH   H05 8651   2.835   1.553   1.010
   34GLOH    C3 8652   2.853   1.414   0.767
   34GLOH   H06 8653   2.788   1.414   0.679
   34GLOH   H07 8654   2.800   1.359   0.846
   34GLOH    O3 8655   2.979   1.351   0.737
   34GLOH   H01 8656   3.019   1.405   0.664
   35GLOH   H03 8657   3.935   1.602   1.729
   35GLOH    O1 8658   3.985   1.616   1.644
   35GLOH    C1 8659   3.913   1.719   1.572
   35GLOH   H02 8660   3.979   1.761   1.495
   35GLOH   H08 8661   3.889   1.803   1.637
   35GLOH    C2 8662   3.784   1.673   1.501
   35GLOH   H04 8663   3.812   1.619   1.410
   35GLOH    O2 8664   3.700   1.589   1.584
   35GLOH   H05 8665   3.750   1.503   1.603
   35GLOH    C3 8666   3.700   1.796   1.462
   35GLOH   H06 8667   3.655   1.837   1.553
   35GLOH   H07 8668   3.618   1.762   1.399
   35GLOH    O3 8669   3.776   1.898   1.395
   35GLOH   H01 8670   3.765   1.981   1.447
   36GLOH   H03 8671   3.750   2.033   0.136
   36GLOH    O1 8672   3.758   1.967   0.063
   36GLOH    C1 8673   3.762   1.835   0.120
   36GLOH   H02 8674   3.713   1.765   0.052
   36GLOH   H08 8675   3.706   1.833   0.213
   36GLOH    C2 8676   3.905   1.786   0.147
   36GLOH   H04 8677   3.961   1.866   0.198
   36GLOH    O2 8678   3.899   1.669   0.232
   36GLOH   H05 8679   3.992   1.638   0.249
   36GLOH    C3 8680   3.975   1.754   0.013
   36GLOH   H06 8681   3.974   1.844   2.830
   36GLOH   H07 8682   3.914   1.680   2.838
   36GLOH    O3 8683   4.110   1.706   0.027
   36GLOH   H01 8684   4.128   1.683   0.122
   37GLOH   H03 8685   3.634   0.760   2.072
   37GLOH    O1 8686   3.614   0.839   2.129
   37GLOH    C1 8687   3.738   0.901   2.167
   37GLOH   H02 8688   3.804   0.911   2.082
   37GLOH   H08 8689   3.790   0.838   2.240
   37GLOH    C2 8690   3.716   1.039   2.231
   37GLOH   H04 8691   3.649   1.024   2.316
   37GLOH    O2 8692   3.841   1.096   2.278
   37GLOH   H05 8693   3.904   1.114   2.205
   37GLOH    C3 8694   3.643   1.135   2.134
   37GLOH   H06 8695   3.549   1.088   2.103
   37GLOH   H07 8696   3.704   1.146   2.044
   37GLOH    O3 8697   3.616   1.263   2.194
   37GLOH   H01 8698   3.703   1.307   2.207
   38GLOH   H03 8699   2.762   0.481   0.049
   38GLOH    O1 8700   2.834   0.548   0.047
   38GLOH    C1 8701   2.887   0.562   0.180
   38GLOH   H02 8702   2.957   0.647   0.183
   38GLOH   H08 8703   2.944   0.474   0.208
   38GLOH    C2 8704   2.778   0.586   0.286
   38GLOH   H04 8705   2.720   0.673   0.254
   38GLOH    O2 8706   2.689   0.473   0.297
   38GLOH   H05 8707   2.607   0.505   0.343
   38GLOH    C3 8708   2.842   0.617   0.423
   38GLOH   H06 8709   2.945   0.582   0.423
   38GLOH   H07 8710   2.790   0.560   0.500
   38GLOH    O3 8711   2.838   0.757   0.455
   38GLOH   H01 8712   2.918   0.802   0.416
   39GLOH   H03 8713   4.262   0.130   1.799
   39GLOH    O1 8714   4.271   0.100   1.893
   39GLOH    C1 8715   4.317   0.214   1.967
   39GLOH   H02 8716   4.424   0.208   1.984
   39GLOH   H08 8717   4.270   0.216   2.066
   39GLOH    C2 8718   4.285   0.347   1.896
   39GLOH   H04 8719   4.176   0.362   1.899
   39GLOH    O2 8720   4.350   0.457   1.963
   39GLOH   H05 8721   4.301   0.481   2.044
   39GLOH    C3 8722   4.327   0.340   1.747
   39GLOH   H06 8723   4.436   0.336   1.743
   39GLOH   H07 8724   4.298   0.434   1.699
   39GLOH    O3 8725   4.270   0.229   1.676
   39GLOH   H01 8726   4.279   0.246   1.579
   40GLOH   H03 8727   3.150   9.603   0.313
   40GLOH    O1 8728   3.071   9.553   0.278
   40GLOH    C1 8729   2.971   9.651   0.247
   40GLOH   H02 8730   3.015   9.739   0.201
   40GLOH   H08 8731   2.922   9.685   0.339
   40GLOH    C2 8732   2.863   9.595   0.153
   40GLOH   H04 8733   2.833   9.497   0.190
   40GLOH    O2 8734   2.747   9.682   0.151
   40GLOH   H05 8735   2.769   9.765   0.102
   40GLOH    C3 8736   2.919   9.577   0.010
   40GLOH   H06 8737   2.840   9.537   2.825
   40GLOH   H07 8738   2.997   9.500   0.015
   40GLOH    O3 8739   2.973   9.697   2.830
   40GLOH   H01 8740   2.908   9.771   2.840
   41GLOH   H03 8741   2.455   0.366   2.175
   41GLOH    O1 8742   2.471   0.299   2.247
   41GLOH    C1 8743   2.572   0.351   2.337
   41GLOH   H02 8744   2.598   0.276   2.411
   41GLOH   H08 8745   2.532   0.437   2.392
   41GLOH    C2 8746   2.702   0.395   2.266
   41GLOH   H04 8747   2.678   0.477   2.197
   41GLOH    O2 8748   2.796   0.444   2.364
   41GLOH   H05 8749   2.757   0.523   2.412
   41GLOH    C3 8750   2.762   0.278   2.185
   41GLOH   H06 8751   2.685   0.241   2.117
   41GLOH   H07 8752   2.784   0.198   2.254
   41GLOH    O3 8753   2.879   0.313   2.110
   41GLOH   H01 8754   2.954   0.261   2.148
   42GLOH   H03 8755   3.092   0.929   2.362
   42GLOH    O1 8756   3.021   0.966   2.303
   42GLOH    C1 8757   3.047   0.921   2.169
   42GLOH   H02 8758   2.986   0.834   2.147
   42GLOH   H08 8759   3.151   0.890   2.158
   42GLOH    C2 8760   3.018   1.028   2.062
   42GLOH   H04 8761   3.046   0.985   1.965
   42GLOH    O2 8762   2.878   1.063   2.056
   42GLOH   H05 8763   2.824   0.985   2.086
   42GLOH    C3 8764   3.107   1.152   2.085
   42GLOH   H06 8765   3.092   1.186   2.188
   42GLOH   H07 8766   3.073   1.232   2.020
   42GLOH    O3 8767   3.247   1.127   2.060
   42GLOH   H01 8768   3.296   1.208   2.084
   43GLOH   H03 8769   2.727   9.529   2.282
   43GLOH    O1 8770   2.774   9.615   2.299
   43GLOH    C1 8771   2.705   9.722   2.232
   43GLOH   H02 8772   2.614   9.749   2.287
   43GLOH   H08 8773   2.674   9.692   2.132
   43GLOH    C2 8774   2.793   9.848   2.219
   43GLOH   H04 8775   2.875   9.823   2.151
   43GLOH    O2 8776   2.719   9.959   2.164
   43GLOH   H05 8777   2.638   9.975   2.216
   43GLOH    C3 8778   2.855   9.886   2.355
   43GLOH   H06 8779   2.775   9.908   2.425
   43GLOH   H07 8780   2.914   9.977   2.343
   43GLOH    O3 8781   2.938   9.780   2.405
   43GLOH   H01 8782   2.890   9.696   2.382
   44GLOH   H03 8783   3.590   0.508   2.642
   44GLOH    O1 8784   3.592   0.604   2.622
   44GLOH    C1 8785   3.489   0.637   2.527
   44GLOH   H02 8786   3.475   0.745   2.526
   44GLOH   H08 8787   3.394   0.594   2.558
   44GLOH    C2 8788   3.520   0.590   2.384
   44GLOH   H04 8789   3.619   0.630   2.355
   44GLOH    O2 8790   3.523   0.445   2.372
   44GLOH   H05 8791   3.598   0.404   2.422
   44GLOH    C3 8792   3.415   0.649   2.288
   44GLOH   H06 8793   3.316   0.615   2.319
   44GLOH   H07 8794   3.432   0.609   2.188
   44GLOH    O3 8795   3.419   0.793   2.285
   44GLOH   H01 8796   3.494   0.821   2.226
   45GLOH   H03 8797   3.551   0.143   0.796
   45GLOH    O1 8798   3.632   0.095   0.826
   45GLOH    C1 8799   3.632   9.963   0.769
   45GLOH   H02 8800   3.536   9.914   0.784
   45GLOH   H08 8801   3.707   9.901   0.819
   45GLOH    C2 8802   3.663   9.960   0.618
   45GLOH   H04 8803   3.670   9.855   0.588
   45GLOH    O2 8804   3.559   0.023   0.539
   45GLOH   H05 8805   3.585   0.117   0.519
   45GLOH    C3 8806   3.800   0.025   0.590
   45GLOH   H06 8807   3.795   0.129   0.621
   45GLOH   H07 8808   3.816   0.025   0.482
   45GLOH    O3 8809   3.907   9.957   0.657
   45GLOH   H01 8810   3.984   9.956   0.594
   46GLOH   H03 8811   4.129   8.829   2.271
   46GLOH    O1 8812   4.150   8.775   2.192
   46GLOH    C1 8813   4.144   8.856   2.073
   46GLOH   H02 8814   4.216   8.821   1.999
   46GLOH   H08 8815   4.169   8.959   2.095
   46GLOH    C2 8816   4.004   8.853   2.008
   46GLOH   H04 8817   3.932   8.890   2.083
   46GLOH    O2 8818   4.001   8.940   1.893
   46GLOH   H05 8819   4.003   8.887   1.808
   46GLOH    C3 8820   3.963   8.709   1.971
   46GLOH   H06 8821   3.974   8.646   2.058
   46GLOH   H07 8822   4.033   8.671   1.896
   46GLOH    O3 8823   3.828   8.701   1.920
   46GLOH   H01 8824   3.779   8.784   1.942
   47GLOH   H03 8825   2.699   0.442   1.881
   47GLOH    O1 8826   2.610   0.417   1.846
   47GLOH    C1 8827   2.629   0.323   1.738
   47GLOH   H02 8828   2.535   0.309   1.685
   47GLOH   H08 8829   2.657   0.225   1.779
   47GLOH    C2 8830   2.737   0.364   1.635
   47GLOH   H04 8831   2.713   0.465   1.599
   47GLOH    O2 8832   2.869   0.365   1.693
   47GLOH   H05 8833   2.865   0.415   1.779
   47GLOH    C3 8834   2.734   0.268   1.514
   47GLOH   H06 8835   2.750   0.167   1.551
   47GLOH   H07 8836   2.818   0.292   1.449
   47GLOH    O3 8837   2.611   0.275   1.440
   47GLOH   H01 8838   2.613   0.357   1.383
   48GLOH   H03 8839   3.321   9.427   1.577
   48GLOH    O1 8840   3.356   9.469   1.494
   48GLOH    C1 8841   3.499   9.455   1.489
   48GLOH   H02 8842   3.546   9.535   1.546
   48GLOH   H08 8843   3.533   9.466   1.386
   48GLOH    C2 8844   3.555   9.322   1.543
   48GLOH   H04 8845   3.513   9.307   1.644
   48GLOH    O2 8846   3.516   9.208   1.463
   48GLOH   H05 8847   3.487   9.239   1.372
   48GLOH    C3 8848   3.708   9.332   1.558
   48GLOH   H06 8849   3.744   9.240   1.605
   48GLOH   H07 8850   3.730   9.412   1.628
   48GLOH    O3 8851   3.776   9.355   1.433
   48GLOH   H01 8852   3.768   9.452   1.411
   49GLOH   H03 8853   3.921   1.126   1.198
   49GLOH    O1 8854   3.948   1.133   1.293
   49GLOH    C1 8855   4.019   1.257   1.312
   49GLOH   H02 8856   3.989   1.331   1.238
   49GLOH   H08 8857   4.126   1.240   1.299
   49GLOH    C2 8858   3.997   1.319   1.452
   49GLOH   H04 8859   4.046   1.254   1.526
   49GLOH    O2 8860   4.058   1.450   1.455
   49GLOH   H05 8861   4.026   1.498   1.537
   49GLOH    C3 8862   3.847   1.324   1.486
   49GLOH   H06 8863   3.804   1.224   1.474
   49GLOH   H07 8864   3.798   1.389   1.414
   49GLOH    O3 8865   3.822   1.370   1.620
   49GLOH   H01 8866   3.813   1.291   1.679
   50GLOH   H03 8867   4.456   0.264   1.004
   50GLOH    O1 8868   4.512   0.282   0.925
   50GLOH    C1 8869   4.430   0.341   0.822
   50GLOH   H02 8870   4.371   0.423   0.864
   50GLOH   H08 8871   4.360   0.268   0.783
   50GLOH    C2 8872   4.513   0.397   0.705
   50GLOH   H04 8873   4.569   0.314   0.659
   50GLOH    O2 8874   4.427   0.458   0.606
   50GLOH   H05 8875   4.394   0.385   0.544
   50GLOH    C3 8876   4.615   0.500   0.758
   50GLOH   H06 8877   4.562   0.586   0.799
   50GLOH   H07 8878   4.674   0.537   0.674
   50GLOH    O3 8879   4.700   0.442   0.858
   50GLOH   H01 8880   4.645   0.372   0.901
   51GLOH   H03 8881   3.236   0.976   2.859
   51GLOH    O1 8882   3.247   1.021   2.772
   51GLOH    C1 8883   3.207   0.933   2.665
   51GLOH   H02 8884   3.099   0.936   2.652
   51GLOH   H08 8885   3.233   0.829   2.689
   51GLOH    C2 8886   3.274   0.970   2.532
   51GLOH   H04 8887   3.383   0.958   2.543
   51GLOH    O2 8888   3.228   0.883   2.427
   51GLOH   H05 8889   3.306   0.852   2.371
   51GLOH    C3 8890   3.246   1.117   2.496
   51GLOH   H06 8891   3.138   1.130   2.482
   51GLOH   H07 8892   3.294   1.141   2.401
   51GLOH    O3 8893   3.293   1.205   2.600
   51GLOH   H01 8894   3.272   1.159   2.685
   52GLOH   H03 8895   2.626   0.812   2.747
   52GLOH    O1 8896   2.580   0.781   2.666
   52GLOH    C1 8897   2.440   0.768   2.699
   52GLOH   H02 8898   2.381   0.750   2.608
   52GLOH   H08 8899   2.402   0.861   2.742
   52GLOH    C2 8900   2.410   0.653   2.797
   52GLOH   H04 8901   2.471   0.668   0.010
   52GLOH    O2 8902   2.270   0.657   2.831
   52GLOH   H05 8903   2.251   0.741   0.004
   52GLOH    C3 8904   2.449   0.518   2.734
   52GLOH   H06 8905   2.551   0.524   2.698
   52GLOH   H07 8906   2.385   0.502   2.647
   52GLOH    O3 8907   2.436   0.407   2.826
   52GLOH   H01 8908   2.370   0.345   2.786
   53GLOH   H03 8909   3.000   0.307   1.626
   53GLOH    O1 8910   3.077   0.268   1.577
   53GLOH    C1 8911   3.065   0.124   1.582
   53GLOH   H02 8912   2.962   0.094   1.599
   53GLOH   H08 8913   3.124   0.084   1.665
   53GLOH    C2 8914   3.114   0.059   1.451
   53GLOH   H04 8915   3.219   0.089   1.437
   53GLOH    O2 8916   3.106   9.915   1.458
   53GLOH   H05 8917   3.135   9.877   1.370
   53GLOH    C3 8918   3.031   0.113   1.333
   53GLOH   H06 8919   3.020   0.221   1.343
   53GLOH   H07 8920   2.930   0.071   1.340
   53GLOH    O3 8921   3.089   0.081   1.206
   53GLOH   H01 8922   3.013   0.075   1.141
   54GLOH   H03 8923   3.356   9.571   1.111
   54GLOH    O1 8924   3.409   9.603   1.033
   54GLOH    C1 8925   3.548   9.574   1.054
   54GLOH   H02 8926   3.566   9.467   1.041
   54GLOH   H08 8927   3.578   9.599   1.156
   54GLOH    C2 8928   3.639   9.651   0.956
   54GLOH   H04 8929   3.627   9.759   0.978
   54GLOH    O2 8930   3.777   9.615   0.976
   54GLOH   H05 8931   3.827   9.695   1.010
   54GLOH    C3 8932   3.596   9.627   0.810
   54GLOH   H06 8933   3.614   9.522   0.785
   54GLOH   H07 8934   3.659   9.686   0.744
   54GLOH    O3 8935   3.457   9.660   0.791
   54GLOH   H01 8936   3.415   9.641   0.879
   55GLOH   H03 8937   4.455   1.240   1.366
   55GLOH    O1 8938   4.462   1.222   1.463
   55GLOH    C1 8939   4.353   1.292   1.525
   55GLOH   H02 8940   4.258   1.250   1.492
   55GLOH   H08 8941   4.353   1.397   1.495
   55GLOH    C2 8942   4.358   1.286   1.679
   55GLOH   H04 8943   4.452   1.332   1.711
   55GLOH    O2 8944   4.248   1.359   1.736
   55GLOH   H05 8945   4.171   1.297   1.754
   55GLOH    C3 8946   4.361   1.139   1.724
   55GLOH   H06 8947   4.270   1.089   1.689
   55GLOH   H07 8948   4.361   1.135   1.833
   55GLOH    O3 8949   4.477   1.074   1.669
   55GLOH   H01 8950   4.488   1.115   1.579
   56GLOH   H03 8951   3.146   1.126   1.145
   56GLOH    O1 8952   3.046   1.127   1.150
   56GLOH    C1 8953   2.995   1.128   1.015
   56GLOH   H02 8954   3.035   1.215   0.961
   56GLOH   H08 8955   2.887   1.139   1.016
   56GLOH    C2 8956   3.030   1.001   0.934
   56GLOH   H04 8957   3.138   0.984   0.943
   56GLOH    O2 8958   2.961   0.884   0.983
   56GLOH   H05 8959   2.973   0.808   0.918
   56GLOH    C3 8960   2.998   1.023   0.785
   56GLOH   H06 8961   2.894   1.052   0.776
   56GLOH   H07 8962   3.009   0.928   0.732
   56GLOH    O3 8963   3.084   1.123   0.725
   56GLOH   H01 8964   3.046   1.213   0.743
   57GLOH   H03 8965   3.375   0.804   1.450
   57GLOH    O1 8966   3.414   0.727   1.498
   57GLOH    C1 8967   3.310   0.653   1.565
   57GLOH   H02 8968   3.250   0.721   1.626
   57GLOH   H08 8969   3.355   0.582   1.634
   57GLOH    C2 8970   3.214   0.577   1.472
   57GLOH   H04 8971   3.137   0.532   1.536
   57GLOH    O2 8972   3.149   0.668   1.381
   57GLOH   H05 8973   3.077   0.715   1.434
   57GLOH    C3 8974   3.282   0.462   1.395
   57GLOH   H06 8975   3.377   0.499   1.356
   57GLOH   H07 8976   3.220   0.439   1.307
   57GLOH    O3 8977   3.302   0.343   1.473
   57GLOH   H01 8978   3.216   0.317   1.516
   58GLOH   H03 8979   3.377   0.041   1.647
   58GLOH    O1 8980   3.386   0.125   1.700
   58GLOH    C1 8981   3.527   0.146   1.722
   58GLOH   H02 8982   3.573   0.053   1.754
   58GLOH   H08 8983   3.543   0.218   1.801
   58GLOH    C2 8984   3.598   0.195   1.595
   58GLOH   H04 8985   3.578   0.123   1.514
   58GLOH    O2 8986   3.548   0.325   1.555
   58GLOH   H05 8987   3.451   0.317   1.530
   58GLOH    C3 8988   3.750   0.202   1.616
   58GLOH   H06 8989   3.772   0.288   1.680
   58GLOH   H07 8990   3.796   0.221   1.519
   58GLOH    O3 8991   3.806   0.082   1.672
   58GLOH   H01 8992   3.816   0.098   1.770
   59GLOH   H03 8993   4.038   1.304   0.792
   59GLOH    O1 8994   4.128   1.277   0.760
   59GLOH    C1 8995   4.109   1.208   0.635
   59GLOH   H02 8996   4.141   1.273   0.554
   59GLOH   H08 8997   4.003   1.187   0.618
   59GLOH    C2 8998   4.188   1.077   0.623
   59GLOH   H04 8999   4.296   1.100   0.624
   59GLOH    O2 9000   4.158   0.985   0.731
   59GLOH   H05 9001   4.237   0.929   0.753
   59GLOH    C3 9002   4.154   1.011   0.488
   59GLOH   H06 9003   4.052   0.973   0.494
   59GLOH   H07 9004   4.219   0.924   0.476
   59GLOH    O3 9005   4.168   1.099   0.375
   59GLOH   H01 9006   4.178   1.040   0.295
   60GLOH   H03 9007   3.510   0.614   1.927
   60GLOH    O1 9008   3.417   0.594   1.900
   60GLOH    C1 9009   3.392   0.453   1.922
   60GLOH   H02 9010   3.368   0.436   2.027
   60GLOH   H08 9011   3.481   0.394   1.900
   60GLOH    C2 9012   3.276   0.400   1.836
   60GLOH   H04 9013   3.302   0.411   1.731
   60GLOH    O2 9014   3.253   0.260   1.862
   60GLOH   H05 9015   3.307   0.206   1.796
   60GLOH    C3 9016   3.149   0.482   1.864
   60GLOH   H06 9017   3.110   0.455   1.963
   60GLOH   H07 9018   3.074   0.453   1.791
   60GLOH    O3 9019   3.175   0.623   1.856
   60GLOH   H01 9020   3.273   0.629   1.874
   61GLOH   H03 9021   3.284   0.396   0.490
   61GLOH    O1 9022   3.196   0.402   0.444
   61GLOH    C1 9023   3.153   0.273   0.397
   61GLOH   H02 9024   3.074   0.284   0.323
   61GLOH   H08 9025   3.110   0.216   0.480
   61GLOH    C2 9026   3.266   0.188   0.334
   61GLOH   H04 9027   3.343   0.171   0.412
   61GLOH    O2 9028   3.214   0.061   0.290
   61GLOH   H05 9029   3.291   9.998   0.285
   61GLOH    C3 9030   3.333   0.264   0.218
   61GLOH   H06 9031   3.344   0.369   0.246
   61GLOH   H07 9032   3.264   0.263   0.133
   61GLOH    O3 9033   3.460   0.209   0.179
   61GLOH   H01 9034   3.521   0.284   0.155
   62GLOH   H03 9035   4.181   9.848   1.390
   62GLOH    O1 9036   4.197   9.925   1.330
   62GLOH    C1 9037   4.238   0.036   1.412
   62GLOH   H02 9038   4.333   0.013   1.460
   62GLOH   H08 9039   4.165   0.053   1.491
   62GLOH    C2 9040   4.254   0.167   1.333
   62GLOH   H04 9041   4.157   0.194   1.289
   62GLOH    O2 9042   4.296   0.271   1.425
   62GLOH   H05 9043   4.323   0.351   1.373
   62GLOH    C3 9044   4.357   0.148   1.219
   62GLOH   H06 9045   4.332   0.058   1.165
   62GLOH   H07 9046   4.455   0.132   1.264
   62GLOH    O3 9047   4.362   0.260   1.129
   62GLOH   H01 9048   4.369   0.344   1.182
   63GLOH   H03 9049   3.894   1.097   0.961
   63GLOH    O1 9050   3.867   1.124   1.053
   63GLOH    C1 9051   3.807   1.255   1.047
   63GLOH   H02 9052   3.784   1.290   1.148
   63GLOH   H08 9053   3.711   1.251   0.995
   63GLOH    C2 9054   3.897   1.359   0.978
   63GLOH   H04 9055   3.999   1.346   1.016
   63GLOH    O2 9056   3.897   1.337   0.836
   63GLOH   H05 9057   3.804   1.350   0.799
   63GLOH    C3 9058   3.855   1.504   1.009
   63GLOH   H06 9059   3.759   1.523   0.961
   63GLOH   H07 9060   3.927   1.569   0.961
   63GLOH    O3 9061   3.848   1.533   1.150
   63GLOH   H01 9062   3.847   1.632   1.160
   64GLOH   H03 9063   3.748   0.580   0.391
   64GLOH    O1 9064   3.674   0.513   0.381
   64GLOH    C1 9065   3.548   0.583   0.386
   64GLOH   H02 9066   3.471   0.526   0.335
   64GLOH   H08 9067   3.556   0.678   0.333
   64GLOH    C2 9068   3.499   0.613   0.529
   64GLOH   H04 9069   3.571   0.682   0.575
   64GLOH    O2 9070   3.370   0.677   0.523
   64GLOH   H05 9071   3.336   0.694   0.616
   64GLOH    C3 9072   3.496   0.484   0.615
   64GLOH   H06 9073   3.448   0.508   0.710
   64GLOH   H07 9074   3.599   0.457   0.638
   64GLOH    O3 9075   3.429   0.373   0.552
   64GLOH   H01 9076   3.499   0.323   0.502
   65GLOH   H03 9077   3.182   9.509   0.853
   65GLOH    O1 9078   3.232   9.466   0.778
   65GLOH    C1 9079   3.274   9.336   0.824
   65GLOH   H02 9080   3.195   9.262   0.806
   65GLOH   H08 9081   3.292   9.337   0.932
   65GLOH    C2 9082   3.403   9.288   0.754
   65GLOH   H04 9083   3.483   9.357   0.783
   65GLOH    O2 9084   3.439   9.156   0.799
   65GLOH   H05 9085   3.493   9.167   0.883
   65GLOH    C3 9086   3.388   9.294   0.601
   65GLOH   H06 9087   3.304   9.232   0.571
   65GLOH   H07 9088   3.477   9.252   0.555
   65GLOH    O3 9089   3.369   9.430   0.560
   65GLOH   H01 9090   3.314   9.471   0.631
   66GLOH   H03 9091   4.123   9.172   0.724
   66GLOH    O1 9092   4.096   9.193   0.818
   66GLOH    C1 9093   3.965   9.252   0.814
   66GLOH   H02 9094   3.892   9.177   0.781
   66GLOH   H08 9095   3.961   9.334   0.742
   66GLOH    C2 9096   3.921   9.304   0.952
   66GLOH   H04 9097   3.992   9.383   0.983
   66GLOH    O2 9098   3.788   9.360   0.946
   66GLOH   H05 9099   3.793   9.460   0.953
   66GLOH    C3 9100   3.927   9.190   1.054
   66GLOH   H06 9101   3.855   9.113   1.023
   66GLOH   H07 9102   3.894   9.228   1.150
   66GLOH    O3 9103   4.059   9.134   1.062
   66GLOH   H01 9104   4.098   9.147   0.972
   67GLOH   H03 9105   4.059   1.697   2.197
   67GLOH    O1 9106   4.043   1.690   2.100
   67GLOH    C1 9107   3.937   1.779   2.058
   67GLOH   H02 9108   3.965   1.882   2.077
   67GLOH   H08 9109   3.846   1.759   2.115
   67GLOH    C2 9110   3.905   1.765   1.908
   67GLOH   H04 9111   3.998   1.787   1.854
   67GLOH    O2 9112   3.863   1.632   1.870
   67GLOH   H05 9113   3.765   1.621   1.889
   67GLOH    C3 9114   3.798   1.868   1.866
   67GLOH   H06 9115   3.728   1.877   1.949
   67GLOH   H07 9116   3.741   1.829   1.782
   67GLOH    O3 9117   3.853   1.997   1.835
   67GLOH   H01 9118   3.945   1.989   1.798
   68GLOH   H03 9119   2.878   1.593   1.673
   68GLOH    O1 9120   2.920   1.511   1.713
   68GLOH    C1 9121   2.812   1.433   1.769
   68GLOH   H02 9122   2.743   1.400   1.692
   68GLOH   H08 9123   2.755   1.492   1.841
   68GLOH    C2 9124   2.867   1.308   1.842
   68GLOH   H04 9125   2.936   1.344   1.919
   68GLOH    O2 9126   2.762   1.232   1.906
   68GLOH   H05 9127   2.807   1.169   1.969
   68GLOH    C3 9128   2.944   1.220   1.742
   68GLOH   H06 9129   2.874   1.186   1.666
   68GLOH   H07 9130   2.981   1.131   1.794
   68GLOH    O3 9131   3.053   1.292   1.682
   68GLOH   H01 9132   3.020   1.385   1.675
   69GLOH   H03 9133   4.300   1.556   2.188
   69GLOH    O1 9134   4.265   1.599   2.271
   69GLOH    C1 9135   4.347   1.714   2.301
   69GLOH   H02 9136   4.313   1.801   2.243
   69GLOH   H08 9137   4.451   1.696   2.273
   69GLOH    C2 9138   4.343   1.752   2.451
   69GLOH   H04 9139   4.413   1.836   2.466
   69GLOH    O2 9140   4.211   1.793   2.493
   69GLOH   H05 9141   4.171   1.718   2.543
   69GLOH    C3 9142   4.393   1.634   2.536
   69GLOH   H06 9143   4.383   1.659   2.641
   69GLOH   H07 9144   4.500   1.619   2.517
   69GLOH    O3 9145   4.320   1.514   2.505
   69GLOH   H01 9146   4.283   1.528   2.414
   70GLOH   H03 9147   3.171   9.608   2.617
   70GLOH    O1 9148   3.236   9.564   2.559
   70GLOH    C1 9149   3.255   9.427   2.602
   70GLOH   H02 9150   3.202   9.360   2.535
   70GLOH   H08 9151   3.213   9.412   2.702
   70GLOH    C2 9152   3.404   9.385   2.606
   70GLOH   H04 9153   3.449   9.411   2.509
   70GLOH    O2 9154   3.476   9.453   2.711
   70GLOH   H05 9155   3.433   9.439   2.798
   70GLOH    C3 9156   3.415   9.232   2.623
   70GLOH   H06 9157   3.372   9.205   2.720
   70GLOH   H07 9158   3.521   9.206   2.628
   70GLOH    O3 9159   3.351   9.158   2.517
   70GLOH   H01 9160   3.308   9.078   2.556
   71GLOH   H03 9161   3.916   1.022   2.397
   71GLOH    O1 9162   3.976   0.977   2.461
   71GLOH    C1 9163   3.909   0.958   2.587
   71GLOH   H02 9164   3.906   1.052   2.641
   71GLOH   H08 9165   3.967   0.889   2.649
   71GLOH    C2 9166   3.765   0.902   2.577
   71GLOH   H04 9167   3.708   0.970   2.512
   71GLOH    O2 9168   3.763   0.769   2.520
   71GLOH   H05 9169   3.699   0.711   2.568
   71GLOH    C3 9170   3.698   0.905   2.715
   71GLOH   H06 9171   3.753   0.838   2.782
   71GLOH   H07 9172   3.597   0.864   2.705
   71GLOH    O3 9173   3.692   1.037   2.771
   71GLOH   H01 9174   3.630   1.094   2.718
   72GLOH   H03 9175   3.019   9.376   1.801
   72GLOH    O1 9176   3.003   9.281   1.825
   72GLOH    C1 9177   2.963   9.211   1.706
   72GLOH   H02 9178   2.896   9.273   1.646
   72GLOH   H08 9179   2.906   9.121   1.733
   72GLOH    C2 9180   3.081   9.166   1.617
   72GLOH   H04 9181   3.139   9.091   1.672
   72GLOH    O2 9182   3.032   9.107   1.494
   72GLOH   H05 9183   3.109   9.081   1.436
   72GLOH    C3 9184   3.174   9.284   1.583
   72GLOH   H06 9185   3.112   9.364   1.544
   72GLOH   H07 9186   3.239   9.252   1.501
   72GLOH    O3 9187   3.255   9.333   1.692
   72GLOH   H01 9188   3.274   9.258   1.754
   73GLOH   H03 9189   4.151   1.936   2.480
   73GLOH    O1 9190   4.100   2.019   2.464
   73GLOH    C1 9191   4.079   2.037   2.322
   73GLOH   H02 9192   4.051   1.942   2.277
   73GLOH   H08 9193   4.172   2.068   2.275
   73GLOH    C2 9194   3.971   2.141   2.290
   73GLOH   H04 9195   4.006   2.239   2.325
   73GLOH    O2 9196   3.947   2.147   2.148
   73GLOH   H05 9197   4.028   2.188   2.104
   73GLOH    C3 9198   3.840   2.108   2.364
   73GLOH   H06 9199   3.801   2.013   2.327
   73GLOH   H07 9200   3.766   2.185   2.340
   73GLOH    O3 9201   3.861   2.102   2.506
   73GLOH   H01 9202   3.954   2.071   2.518
   74GLOH   H03 9203   2.553   8.816   0.829
   74GLOH    O1 9204   2.571   8.841   0.735
   74GLOH    C1 9205   2.608   8.981   0.735
   74GLOH   H02 9206   2.715   8.991   0.753
   74GLOH   H08 9207   2.557   9.034   0.815
   74GLOH    C2 9208   2.574   9.049   0.601
   74GLOH   H04 9209   2.468   9.032   0.579
   74GLOH    O2 9210   2.599   9.191   0.610
   74GLOH   H05 9211   2.566   9.237   0.527
   74GLOH    C3 9212   2.658   8.983   0.490
   74GLOH   H06 9213   2.762   9.010   0.504
   74GLOH   H07 9214   2.626   9.024   0.394
   74GLOH    O3 9215   2.641   8.841   0.492
   74GLOH   H01 9216   2.610   8.819   0.584
   75GLOH   H03 9217   3.651   9.840   1.894
   75GLOH    O1 9218   3.733   9.883   1.930
   75GLOH    C1 9219   3.846   9.798   1.907
   75GLOH   H02 9220   3.939   9.855   1.915
   75GLOH   H08 9221   3.843   9.758   1.805
   75GLOH    C2 9222   3.852   9.679   2.005
   75GLOH   H04 9223   3.758   9.623   1.994
   75GLOH    O2 9224   3.961   9.591   1.972
   75GLOH   H05 9225   4.047   9.633   2.004
   75GLOH    C3 9226   3.858   9.730   2.150
   75GLOH   H06 9227   3.870   9.643   2.216
   75GLOH   H07 9228   3.762   9.774   2.175
   75GLOH    O3 9229   3.964   9.825   2.176
   75GLOH   H01 9230   3.950   9.862   2.267
   76GLOH   H03 9231   3.768   2.206   0.276
   76GLOH    O1 9232   3.731   2.115   0.275
   76GLOH    C1 9233   3.604   2.115   0.344
   76GLOH   H02 9234   3.537   2.043   0.298
   76GLOH   H08 9235   3.555   2.213   0.335
   76GLOH    C2 9236   3.618   2.080   0.493
   76GLOH   H04 9237   3.690   2.149   0.539
   76GLOH    O2 9238   3.490   2.094   0.560
   76GLOH   H05 9239   3.496   2.054   0.651
   76GLOH    C3 9240   3.670   1.936   0.508
   76GLOH   H06 9241   3.594   1.867   0.471
   76GLOH   H07 9242   3.685   1.915   0.614
   76GLOH    O3 9243   3.793   1.918   0.436
   76GLOH   H01 9244   3.792   1.983   0.362
   77GLOH   H03 9245   4.082   1.227   0.347
   77GLOH    O1 9246   4.027   1.309   0.340
   77GLOH    C1 9247   4.010   1.347   0.202
   77GLOH   H02 9248   3.937   1.428   0.194
   77GLOH   H08 9249   3.969   1.263   0.145
   77GLOH    C2 9250   4.141   1.391   0.135
   77GLOH   H04 9251   4.204   1.302   0.125
   77GLOH    O2 9252   4.117   1.443   0.002
   77GLOH   H05 9253   4.113   1.542   0.002
   77GLOH    C3 9254   4.218   1.491   0.223
   77GLOH   H06 9255   4.310   1.518   0.171
   77GLOH   H07 9256   4.249   1.439   0.314
   77GLOH    O3 9257   4.145   1.610   0.259
   77GLOH   H01 9258   4.178   1.635   0.349
   78GLOH   H03 9259   4.419   1.395   2.079
   78GLOH    O1 9260   4.372   1.483   2.075
   78GLOH    C1 9261   4.405   1.546   1.950
   78GLOH   H02 9262   4.432   1.471   1.876
   78GLOH   H08 9263   4.492   1.610   1.962
   78GLOH    C2 9264   4.290   1.632   1.893
   78GLOH   H04 9265   4.200   1.569   1.892
   78GLOH    O2 9266   4.265   1.747   1.977
   78GLOH   H05 9267   4.178   1.729   2.024
   78GLOH    C3 9268   4.320   1.672   1.748
   78GLOH   H06 9269   4.349   1.583   1.692
   78GLOH   H07 9270   4.408   1.737   1.749
   78GLOH    O3 9271   4.211   1.739   1.682
   78GLOH   H01 9272   4.132   1.679   1.680
   79GLOH   H03 9273   3.718   9.250   1.868
   79GLOH    O1 9274   3.651   9.322   1.879
   79GLOH    C1 9275   3.633   9.338   2.021
   79GLOH   H02 9276   3.708   9.406   2.061
   79GLOH   H08 9277   3.645   9.242   2.073
   79GLOH    C2 9278   3.494   9.393   2.056
   79GLOH   H04 9279   3.419   9.324   2.015
   79GLOH    O2 9280   3.478   9.401   2.198
   79GLOH   H05 9281   3.423   9.323   2.228
   79GLOH    C3 9282   3.471   9.530   1.990
   79GLOH   H06 9283   3.537   9.603   2.038
   79GLOH   H07 9284   3.369   9.561   2.010
   79GLOH    O3 9285   3.496   9.522   1.849
   79GLOH   H01 9286   3.554   9.441   1.839
   80GLOH   H03 9287   3.565   9.575   2.661
   80GLOH    O1 9288   3.633   9.643   2.636
   80GLOH    C1 9289   3.758   9.609   2.699
   80GLOH   H02 9290   3.743   9.595   2.806
   80GLOH   H08 9291   3.830   9.690   2.687
   80GLOH    C2 9292   3.820   9.480   2.641
   80GLOH   H04 9293   3.753   9.396   2.665
   80GLOH    O2 9294   3.832   9.492   2.498
   80GLOH   H05 9295   3.745   9.520   2.464
   80GLOH    C3 9296   3.958   9.454   2.704
   80GLOH   H06 9297   4.026   9.533   2.672
   80GLOH   H07 9298   3.996   9.360   2.663
   80GLOH    O3 9299   3.953   9.446   2.848
   80GLOH   H01 9300   3.902   9.365   2.873
   81GLOH   H03 9301   3.509   1.305   1.622
   81GLOH    O1 9302   3.521   1.254   1.706
   81GLOH    C1 9303   3.429   1.292   1.810
   81GLOH   H02 9304   3.443   1.228   1.897
   81GLOH   H08 9305   3.326   1.277   1.777
   81GLOH    C2 9306   3.444   1.439   1.856
   81GLOH   H04 9307   3.418   1.504   1.772
   81GLOH    O2 9308   3.353   1.463   1.965
   81GLOH   H05 9309   3.267   1.500   1.931
   81GLOH    C3 9310   3.589   1.469   1.899
   81GLOH   H06 9311   3.657   1.425   1.826
   81GLOH   H07 9312   3.608   1.417   1.993
   81GLOH    O3 9313   3.619   1.609   1.913
   81GLOH   H01 9314   3.553   1.654   1.972
   82GLOH   H03 9315   3.894   8.826   1.161
   82GLOH    O1 9316   3.833   8.752   1.135
   82GLOH    C1 9317   3.800   8.675   1.253
   82GLOH   H02 9318   3.892   8.640   1.300
   82GLOH   H08 9319   3.745   8.585   1.224
   82GLOH    C2 9320   3.716   8.751   1.357
   82GLOH   H04 9321   3.767   8.846   1.379
   82GLOH    O2 9322   3.584   8.782   1.308
   82GLOH   H05 9323   3.535   8.838   1.376
   82GLOH    C3 9324   3.710   8.670   1.488
   82GLOH   H06 9325   3.661   8.574   1.467
   82GLOH   H07 9326   3.647   8.723   1.559
   82GLOH    O3 9327   3.841   8.648   1.544
   82GLOH   H01 9328   3.830   8.583   1.619
   83GLOH   H03 9329   4.182   1.123   2.241
   83GLOH    O1 9330   4.243   1.047   2.264
   83GLOH    C1 9331   4.337   1.089   2.364
   83GLOH   H02 9332   4.396   1.172   2.326
   83GLOH   H08 9333   4.408   1.008   2.385
   83GLOH    C2 9334   4.274   1.132   2.498
   83GLOH   H04 9335   4.201   1.211   2.478
   83GLOH    O2 9336   4.209   1.021   2.563
   83GLOH   H05 9337   4.125   0.998   2.514
   83GLOH    C3 9338   4.383   1.189   2.591
   83GLOH   H06 9339   4.453   1.109   2.616
   83GLOH   H07 9340   4.336   1.220   2.684
   83GLOH    O3 9341   4.454   1.299   2.532
   83GLOH   H01 9342   4.397   1.380   2.533
   84GLOH   H03 9343   3.446   1.803   2.136
   84GLOH    O1 9344   3.485   1.777   2.050
   84GLOH    C1 9345   3.441   1.867   1.947
   84GLOH   H02 9346   3.523   1.890   1.879
   84GLOH   H08 9347   3.408   1.962   1.989
   84GLOH    C2 9348   3.326   1.807   1.865
   84GLOH   H04 9349   3.355   1.705   1.834
   84GLOH    O2 9350   3.204   1.797   1.941
   84GLOH   H05 9351   3.167   1.705   1.927
   84GLOH    C3 9352   3.303   1.887   1.736
   84GLOH   H06 9353   3.285   1.991   1.763
   84GLOH   H07 9354   3.212   1.851   1.687
   84GLOH    O3 9355   3.415   1.878   1.646
   84GLOH   H01 9356   3.428   1.782   1.624
   85GLOH   H03 9357   3.513   9.463   0.521
   85GLOH    O1 9358   3.608   9.486   0.503
   85GLOH    C1 9359   3.609   9.614   0.436
   85GLOH   H02 9360   3.570   9.691   0.502
   85GLOH   H08 9361   3.544   9.611   0.348
   85GLOH    C2 9362   3.750   9.655   0.387
   85GLOH   H04 9363   3.776   9.588   0.303
   85GLOH    O2 9364   3.752   9.791   0.339
   85GLOH   H05 9365   3.845   9.811   0.308
   85GLOH    C3 9366   3.855   9.631   0.498
   85GLOH   H06 9367   3.831   9.694   0.584
   85GLOH   H07 9368   3.953   9.661   0.463
   85GLOH    O3 9369   3.856   9.493   0.537
   85GLOH   H01 9370   3.760   9.467   0.537
   86GLOH   H03 9371   3.763   0.598   0.846
   86GLOH    O1 9372   3.756   0.500   0.832
   86GLOH    C1 9373   3.795   0.429   0.951
   86GLOH   H02 9374   3.885   0.474   0.994
   86GLOH   H08 9375   3.821   0.326   0.925
   86GLOH    C2 9376   3.687   0.423   1.061
   86GLOH   H04 9377   3.592   0.391   1.015
   86GLOH    O2 9378   3.726   0.327   1.162
   86GLOH   H05 9379   3.706   0.234   1.131
   86GLOH    C3 9380   3.666   0.560   1.128
   86GLOH   H06 9381   3.762   0.594   1.167
   86GLOH   H07 9382   3.601   0.547   1.214
   86GLOH    O3 9383   3.611   0.659   1.039
   86GLOH   H01 9384   3.671   0.737   1.038
   87GLOH   H03 9385   3.560   0.415   2.225
   87GLOH    O1 9386   3.596   0.410   2.132
   87GLOH    C1 9387   3.654   0.280   2.111
   87GLOH   H02 9388   3.614   0.236   2.019
   87GLOH   H08 9389   3.627   0.212   2.192
   87GLOH    C2 9390   3.807   0.287   2.101
   87GLOH   H04 9391   3.832   0.363   2.024
   87GLOH    O2 9392   3.865   0.329   2.227
   87GLOH   H05 9393   3.894   0.422   2.219
   87GLOH    C3 9394   3.867   0.153   2.053
   87GLOH   H06 9395   3.845   0.076   2.127
   87GLOH   H07 9396   3.975   0.163   2.049
   87GLOH    O3 9397   3.816   0.114   1.925
   87GLOH   H01 9398   3.781   0.021   1.935
   88GLOH   H03 9399   2.653   0.691   2.556
   88GLOH    O1 9400   2.693   0.650   2.475
   88GLOH    C1 9401   2.727   0.755   2.381
   88GLOH   H02 9402   2.783   0.712   2.298
   88GLOH   H08 9403   2.792   0.829   2.429
   88GLOH    C2 9404   2.603   0.827   2.325
   88GLOH   H04 9405   2.537   0.752   2.278
   88GLOH    O2 9406   2.531   0.897   2.429
   88GLOH   H05 9407   2.545   0.852   2.516
   88GLOH    C3 9408   2.645   0.929   2.218
   88GLOH   H06 9409   2.702   1.008   2.267
   88GLOH   H07 9410   2.555   0.975   2.179
   88GLOH    O3 9411   2.723   0.872   2.110
   88GLOH   H01 9412   2.665   0.841   2.036
   89GLOH   H03 9413   4.281   9.272   1.635
   89GLOH    O1 9414   4.209   9.208   1.612
   89GLOH    C1 9415   4.114   9.213   1.721
   89GLOH   H02 9416   4.147   9.146   1.802
   89GLOH   H08 9417   4.017   9.177   1.689
   89GLOH    C2 9418   4.098   9.355   1.779
   89GLOH   H04 9419   4.067   9.422   1.697
   89GLOH    O2 9420   3.997   9.356   1.882
   89GLOH   H05 9421   3.983   9.450   1.915
   89GLOH    C3 9422   4.233   9.403   1.833
   89GLOH   H06 9423   4.263   9.338   1.915
   89GLOH   H07 9424   4.221   9.503   1.874
   89GLOH    O3 9425   4.335   9.403   1.731
   89GLOH   H01 9426   4.382   9.490   1.736
   90GLOH   H03 9427   2.797   1.603   0.398
   90GLOH    O1 9428   2.888   1.574   0.368
   90GLOH    C1 9429   2.938   1.668   0.271
   90GLOH   H02 9430   2.865   1.682   0.192
   90GLOH   H08 9431   3.028   1.628   0.223
   90GLOH    C2 9432   2.975   1.807   0.327
   90GLOH   H04 9433   3.050   1.793   0.407
   90GLOH    O2 9434   3.032   1.888   0.223
   90GLOH   H05 9435   3.077   1.967   0.262
   90GLOH    C3 9436   2.852   1.879   0.387
   90GLOH   H06 9437   2.765   1.856   0.325
   90GLOH   H07 9438   2.868   1.987   0.380
   90GLOH    O3 9439   2.828   1.843   0.524
   90GLOH   H01 9440   2.896   1.892   0.577
   91GLOH   H03 9441   4.310   1.658   0.544
   91GLOH    O1 9442   4.229   1.647   0.489
   91GLOH    C1 9443   4.139   1.561   0.561
   91GLOH   H02 9444   4.194   1.479   0.607
   91GLOH   H08 9445   4.067   1.516   0.492
   91GLOH    C2 9446   4.061   1.635   0.671
   91GLOH   H04 9447   3.994   1.562   0.720
   91GLOH    O2 9448   4.150   1.691   0.770
   91GLOH   H05 9449   4.094   1.738   0.840
   91GLOH    C3 9450   3.972   1.744   0.609
   91GLOH   H06 9451   4.035   1.807   0.545
   91GLOH   H07 9452   3.935   1.809   0.689
   91GLOH    O3 9453   3.862   1.692   0.534
   91GLOH   H01 9454   3.832   1.767   0.476
   92GLOH   H03 9455   3.798   9.212   1.394
   92GLOH    O1 9456   3.823   9.117   1.376
   92GLOH    C1 9457   3.966   9.107   1.383
   92GLOH   H02 9458   3.999   9.129   1.485
   92GLOH   H08 9459   4.013   9.182   1.319
   92GLOH    C2 9460   4.022   8.969   1.344
   92GLOH   H04 9461   3.970   8.894   1.406
   92GLOH    O2 9462   3.998   8.936   1.206
   92GLOH   H05 9463   4.027   9.013   1.148
   92GLOH    C3 9464   4.171   8.962   1.380
   92GLOH   H06 9465   4.223   9.044   1.331
   92GLOH   H07 9466   4.213   8.869   1.341
   92GLOH    O3 9467   4.190   8.968   1.523
   92GLOH   H01 9468   4.204   9.063   1.552
   93GLOH   H03 9469   3.151   9.234   1.099
   93GLOH    O1 9470   3.125   9.323   1.134
   93GLOH    C1 9471   2.982   9.335   1.120
   93GLOH   H02 9472   2.942   9.397   1.200
   93GLOH   H08 9473   2.935   9.237   1.131
   93GLOH    C2 9474   2.939   9.397   0.986
   93GLOH   H04 9475   2.997   9.348   0.906
   93GLOH    O2 9476   2.799   9.374   0.962
   93GLOH   H05 9477   2.782   9.374   0.863
   93GLOH    C3 9478   2.968   9.548   0.982
   93GLOH   H06 9479   2.933   9.592   1.076
   93GLOH   H07 9480   2.908   9.594   0.903
   93GLOH    O3 9481   3.107   9.580   0.963
   93GLOH   H01 9482   3.119   9.678   0.971
   94GLOH   H03 9483   3.399   1.539   2.416
   94GLOH    O1 9484   3.337   1.616   2.416
   94GLOH    C1 9485   3.211   1.576   2.470
   94GLOH   H02 9486   3.149   1.663   2.489
   94GLOH   H08 9487   3.225   1.525   2.566
   94GLOH    C2 9488   3.134   1.482   2.375
   94GLOH   H04 9489   3.197   1.394   2.355
   94GLOH    O2 9490   3.012   1.438   2.440
   94GLOH   H05 9491   3.037   1.387   2.521
   94GLOH    C3 9492   3.107   1.555   2.242
   94GLOH   H06 9493   3.200   1.599   2.208
   94GLOH   H07 9494   3.039   1.638   2.262
   94GLOH    O3 9495   3.053   1.471   2.138
   94GLOH   H01 9496   2.976   1.419   2.172
   95GLOH   H03 9497   2.680   1.761   2.139
   95GLOH    O1 9498   2.611   1.689   2.137
   95GLOH    C1 9499   2.615   1.624   2.266
   95GLOH   H02 9500   2.528   1.559   2.278
   95GLOH   H08 9501   2.612   1.698   2.346
   95GLOH    C2 9502   2.743   1.539   2.282
   95GLOH   H04 9503   2.829   1.603   2.256
   95GLOH    O2 9504   2.757   1.492   2.417
   95GLOH   H05 9505   2.854   1.474   2.432
   95GLOH    C3 9506   2.740   1.422   2.183
   95GLOH   H06 9507   2.736   1.462   2.081
   95GLOH   H07 9508   2.647   1.366   2.198
   95GLOH    O3 9509   2.854   1.335   2.198
   95GLOH   H01 9510   2.840   1.278   2.276
   96GLOH   H03 9511   2.501   9.678   1.235
   96GLOH    O1 9512   2.528   9.652   1.327
   96GLOH    C1 9513   2.666   9.611   1.320
   96GLOH   H02 9514   2.732   9.698   1.325
   96GLOH   H08 9515   2.687   9.562   1.225
   96GLOH    C2 9516   2.705   9.514   1.433
   96GLOH   H04 9517   2.646   9.422   1.420
   96GLOH    O2 9518   2.846   9.480   1.425
   96GLOH   H05 9519   2.899   9.559   1.454
   96GLOH    C3 9520   2.672   9.572   1.571
   96GLOH   H06 9521   2.735   9.659   1.590
   96GLOH   H07 9522   2.698   9.498   1.647
   96GLOH    O3 9523   2.534   9.609   1.581
   96GLOH   H01 9524   2.507   9.630   1.489
   97GLOH   H03 9525   2.452   0.654   0.732
   97GLOH    O1 9526   2.426   0.746   0.759
   97GLOH    C1 9527   2.444   0.757   0.901
   97GLOH   H02 9528   2.535   0.706   0.932
   97GLOH   H08 9529   2.361   0.709   0.953
   97GLOH    C2 9530   2.454   0.903   0.948
   97GLOH   H04 9531   2.373   0.960   0.900
   97GLOH    O2 9532   2.441   0.910   1.091
   97GLOH   H05 9533   2.413   1.002   1.116
   97GLOH    C3 9534   2.590   0.964   0.906
   97GLOH   H06 9535   2.669   0.906   0.953
   97GLOH   H07 9536   2.596   1.065   0.947
   97GLOH    O3 9537   2.610   0.968   0.764
   97GLOH   H01 9538   2.648   0.879   0.738
   98GLOH   H03 9539   3.451   1.205   2.605
   98GLOH    O1 9540   3.546   1.185   2.626
   98GLOH    C1 9541   3.633   1.248   2.531
   98GLOH   H02 9542   3.630   1.193   2.437
   98GLOH   H08 9543   3.737   1.242   2.566
   98GLOH    C2 9544   3.601   1.395   2.500
   98GLOH   H04 9545   3.689   1.438   2.449
   98GLOH    O2 9546   3.487   1.406   2.411
   98GLOH   H05 9547   3.507   1.357   2.328
   98GLOH    C3 9548   3.580   1.474   2.630
   98GLOH   H06 9549   3.495   1.431   2.684
   98GLOH   H07 9550   3.553   1.576   2.605
   98GLOH    O3 9551   3.697   1.472   2.714
   98GLOH   H01 9552   3.701   1.388   2.764
   99GLOH   H03 9553   4.321   0.729   0.412
   99GLOH    O1 9554   4.263   0.725   0.331
   99GLOH    C1 9555   4.210   0.592   0.319
   99GLOH   H02 9556   4.230   0.534   0.409
   99GLOH   H08 9557   4.259   0.540   0.237
   99GLOH    C2 9558   4.058   0.591   0.295
   99GLOH   H04 9559   4.036   0.655   0.208
   99GLOH    O2 9560   4.015   0.456   0.268
   99GLOH   H05 9561   4.066   0.421   0.189
   99GLOH    C3 9562   3.986   0.650   0.418
   99GLOH   H06 9563   4.042   0.736   0.454
   99GLOH   H07 9564   3.989   0.575   0.498
   99GLOH    O3 9565   3.849   0.688   0.394
   99GLOH   H01 9566   3.848   0.784   0.368
  100GLOH   H03 9567   3.404   9.085   1.803
  100GLOH    O1 9568   3.331   9.137   1.844
  100GLOH    C1 9569   3.315   9.092   1.980
  100GLOH   H02 9570   3.409   9.102   2.034
  100GLOH   H08 9571   3.290   8.986   1.981
  100GLOH    C2 9572   3.204   9.166   2.059
  100GLOH   H04 9573   3.215   9.274   2.041
  100GLOH    O2 9574   3.073   9.125   2.016
  100GLOH   H05 9575   3.049   9.180   1.935
  100GLOH    C3 9576   3.221   9.142   2.211
  100GLOH   H06 9577   3.214   9.035   2.229
  100GLOH   H07 9578   3.137   9.189   2.263
  100GLOH    O3 9579   3.346   9.193   2.263
  100GLOH   H01 9580   3.345   9.183   2.362
  101GLOH   H03 9581   3.102   1.458   1.402
  101GLOH    O1 9582   3.132   1.549   1.379
  101GLOH    C1 9583   3.213   1.610   1.482
  101GLOH   H02 9584   3.177   1.581   1.581
  101GLOH   H08 9585   3.205   1.718   1.476
  101GLOH    C2 9586   3.361   1.571   1.470
  101GLOH   H04 9587   3.396   1.601   1.370
  101GLOH    O2 9588   3.441   1.640   1.569
  101GLOH   H05 9589   3.533   1.602   1.572
  101GLOH    C3 9590   3.373   1.418   1.481
  101GLOH   H06 9591   3.319   1.374   1.397
  101GLOH   H07 9592   3.322   1.386   1.572
  101GLOH    O3 9593   3.509   1.372   1.480
  101GLOH   H01 9594   3.554   1.406   1.399
  102GLOH   H03 9595   2.764   9.793   0.745
  102GLOH    O1 9596   2.822   9.808   0.665
  102GLOH    C1 9597   2.740   9.828   0.547
  102GLOH   H02 9598   2.723   9.733   0.496
  102GLOH   H08 9599   2.793   9.892   0.477
  102GLOH    C2 9600   2.602   9.893   0.574
  102GLOH   H04 9601   2.549   9.897   0.478
  102GLOH    O2 9602   2.523   9.814   0.665
  102GLOH   H05 9603   2.496   9.727   0.622
  102GLOH    C3 9604   2.617   0.037   0.627
  102GLOH   H06 9605   2.696   0.039   0.703
  102GLOH   H07 9606   2.525   0.065   0.677
  102GLOH    O3 9607   2.647   0.129   0.521
  102GLOH   H01 9608   2.563   0.143   0.470
  103GLOH   H03 9609   2.677   8.811   0.122
  103GLOH    O1 9610   2.671   8.793   0.026
  103GLOH    C1 9611   2.641   8.918   2.837
  103GLOH   H02 9612   2.707   8.997   2.875
  103GLOH   H08 9613   2.539   8.949   2.859
  103GLOH    C2 9614   2.657   8.911   2.684
  103GLOH   H04 9615   2.571   8.853   2.646
  103GLOH    O2 9616   2.649   9.044   2.629
  103GLOH   H05 9617   2.680   9.045   2.534
  103GLOH    C3 9618   2.784   8.835   2.643
  103GLOH   H06 9619   2.805   8.855   2.538
  103GLOH   H07 9620   2.764   8.728   2.651
  103GLOH    O3 9621   2.899   8.868   2.724
  103GLOH   H01 9622   2.872   8.857   2.817
  104GLOH   H03 9623   3.056   1.176   0.354
  104GLOH    O1 9624   3.111   1.188   0.272
  104GLOH    C1 9625   3.022   1.211   0.162
  104GLOH   H02 9626   2.923   1.171   0.185
  104GLOH   H08 9627   3.057   1.158   0.074
  104GLOH    C2 9628   3.008   1.361   0.128
  104GLOH   H04 9629   3.031   1.417   0.219
  104GLOH    O2 9630   3.101   1.403   0.026
  104GLOH   H05 9631   3.181   1.443   0.070
  104GLOH    C3 9632   2.863   1.395   0.089
  104GLOH   H06 9633   2.829   1.324   0.014
  104GLOH   H07 9634   2.861   1.494   0.044
  104GLOH    O3 9635   2.776   1.390   0.204
  104GLOH   H01 9636   2.814   1.451   0.272
  105GLOH   H03 9637   3.008   9.440   0.358
  105GLOH    O1 9638   2.970   9.365   0.410
  105GLOH    C1 9639   3.014   9.381   0.547
  105GLOH   H02 9640   3.121   9.401   0.549
  105GLOH   H08 9641   2.999   9.289   0.603
  105GLOH    C2 9642   2.943   9.494   0.623
  105GLOH   H04 9643   2.977   9.488   0.727
  105GLOH    O2 9644   2.978   9.625   0.573
  105GLOH   H05 9645   2.917   9.694   0.609
  105GLOH    C3 9646   2.791   9.469   0.623
  105GLOH   H06 9647   2.759   9.444   0.522
  105GLOH   H07 9648   2.740   9.561   0.650
  105GLOH    O3 9649   2.757   9.363   0.714
  105GLOH   H01 9650   2.696   9.298   0.670
  106GLOH   H03 9651   2.609   0.500   0.710
  106GLOH    O1 9652   2.510   0.512   0.702
  106GLOH    C1 9653   2.449   0.384   0.726
  106GLOH   H02 9654   2.475   0.314   0.646
  106GLOH   H08 9655   2.340   0.395   0.724
  106GLOH    C2 9656   2.487   0.319   0.861
  106GLOH   H04 9657   2.433   0.223   0.867
  106GLOH    O2 9658   2.629   0.292   0.867
  106GLOH   H05 9659   2.662   0.303   0.960
  106GLOH    C3 9660   2.439   0.407   0.977
  106GLOH   H06 9661   2.333   0.428   0.964
  106GLOH   H07 9662   2.492   0.502   0.971
  106GLOH    O3 9663   2.462   0.348   1.106
  106GLOH   H01 9664   2.406   0.265   1.115
  107GLOH   H03 9665   2.968   9.096   2.131
  107GLOH    O1 9666   2.896   9.106   2.198
  107GLOH    C1 9667   2.822   9.223   2.160
  107GLOH   H02 9668   2.754   9.198   2.078
  107GLOH   H08 9669   2.889   9.300   2.122
  107GLOH    C2 9670   2.739   9.285   2.274
  107GLOH   H04 9671   2.808   9.319   2.352
  107GLOH    O2 9672   2.663   9.398   2.225
  107GLOH   H05 9673   2.677   9.408   2.126
  107GLOH    C3 9674   2.646   9.178   2.336
  107GLOH   H06 9675   2.572   9.148   2.262
  107GLOH   H07 9676   2.592   9.224   2.419
  107GLOH    O3 9677   2.722   9.065   2.382
  107GLOH   H01 9678   2.800   9.060   2.321
  108GLOH   H03 9679   2.297   1.110   2.277
  108GLOH    O1 9680   2.314   1.106   2.180
  108GLOH    C1 9681   2.407   1.210   2.143
  108GLOH   H02 9682   2.502   1.196   2.194
  108GLOH   H08 9683   2.369   1.308   2.173
  108GLOH    C2 9684   2.433   1.213   1.991
  108GLOH   H04 9685   2.338   1.237   1.940
  108GLOH    O2 9686   2.529   1.316   1.960
  108GLOH   H05 9687   2.618   1.277   1.935
  108GLOH    C3 9688   2.480   1.075   1.941
  108GLOH   H06 9689   2.582   1.057   1.976
  108GLOH   H07 9690   2.485   1.080   1.832
  108GLOH    O3 9691   2.392   0.970   1.984
  108GLOH   H01 9692   2.345   1.008   2.062
  109GLOH   H03 9693   4.270   1.266   0.812
  109GLOH    O1 9694   4.355   1.260   0.863
  109GLOH    C1 9695   4.325   1.302   0.998
  109GLOH   H02 9696   4.232   1.257   1.032
  109GLOH   H08 9697   4.311   1.410   1.001
  109GLOH    C2 9698   4.438   1.265   1.096
  109GLOH   H04 9699   4.529   1.319   1.067
  109GLOH    O2 9700   4.404   1.300   1.232
  109GLOH   H05 9701   4.336   1.374   1.233
  109GLOH    C3 9702   4.464   1.114   1.086
  109GLOH   H06 9703   4.370   1.063   1.103
  109GLOH   H07 9704   4.532   1.083   1.165
  109GLOH    O3 9705   4.515   1.079   0.957
  109GLOH   H01 9706   4.467   1.138   0.894
  110GLOH   H03 9707   3.034   1.893   2.425
  110GLOH    O1 9708   2.985   1.897   2.341
  110GLOH    C1 9709   3.075   1.935   2.234
  110GLOH   H02 9710   3.138   1.850   2.206
  110GLOH   H08 9711   3.142   2.014   2.268
  110GLOH    C2 9712   3.000   1.984   2.109
  110GLOH   H04 9713   2.946   2.076   2.135
  110GLOH    O2 9714   3.094   2.014   2.003
  110GLOH   H05 9715   3.141   1.929   1.978
  110GLOH    C3 9716   2.897   1.880   2.063
  110GLOH   H06 9717   2.950   1.789   2.032
  110GLOH   H07 9718   2.845   1.918   1.975
  110GLOH    O3 9719   2.804   1.850   2.168
  110GLOH   H01 9720   2.854   1.865   2.252
  111GLOH   H03 9721   2.946   1.983   1.111
  111GLOH    O1 9722   3.032   1.956   1.067
  111GLOH    C1 9723   3.007   1.911   0.932
  111GLOH   H02 9724   2.931   1.974   0.885
  111GLOH   H08 9725   2.968   1.810   0.932
  111GLOH    C2 9726   3.134   1.915   0.844
  111GLOH   H04 9727   3.168   2.019   0.840
  111GLOH    O2 9728   3.242   1.834   0.896
  111GLOH   H05 9729   3.209   1.741   0.915
  111GLOH    C3 9730   3.102   1.874   0.699
  111GLOH   H06 9731   3.052   1.778   0.699
  111GLOH   H07 9732   3.195   1.861   0.645
  111GLOH    O3 9733   3.020   1.973   0.633
  111GLOH   H01 9734   3.081   2.049   0.613
  112GLOH   H03 9735   3.265   0.994   1.498
  112GLOH    O1 9736   3.325   0.958   1.427
  112GLOH    C1 9737   3.411   1.067   1.388
  112GLOH   H02 9738   3.484   1.086   1.466
  112GLOH   H08 9739   3.352   1.158   1.379
  112GLOH    C2 9740   3.486   1.046   1.255
  112GLOH   H04 9741   3.544   1.138   1.235
  112GLOH    O2 9742   3.577   0.934   1.260
  112GLOH   H05 9743   3.620   0.932   1.351
  112GLOH    C3 9744   3.385   1.028   1.139
  112GLOH   H06 9745   3.330   0.936   1.156
  112GLOH   H07 9746   3.442   1.015   1.047
  112GLOH    O3 9747   3.294   1.139   1.127
  112GLOH   H01 9748   3.345   1.223   1.110
  113GLOH   H03 9749   2.149   9.968   2.752
  113GLOH    O1 9750   2.113   0.054   2.720
  113GLOH    C1 9751   2.112   0.058   2.575
  113GLOH   H02 9752   2.031   0.121   2.540
  113GLOH   H08 9753   2.094   9.958   2.534
  113GLOH    C2 9754   2.244   0.112   2.516
  113GLOH   H04 9755   2.326   0.046   2.548
  113GLOH    O2 9756   2.239   0.114   2.372
  113GLOH   H05 9757   2.320   0.156   2.335
  113GLOH    C3 9758   2.271   0.254   2.569
  113GLOH   H06 9759   2.198   0.322   2.527
  113GLOH   H07 9760   2.369   0.286   2.534
  113GLOH    O3 9761   2.266   0.257   2.713
  113GLOH   H01 9762   2.203   0.186   2.738
  114GLOH   H03 9763   2.872   0.910   1.110
  114GLOH    O1 9764   2.827   0.909   1.199
  114GLOH    C1 9765   2.915   0.840   1.289
  114GLOH   H02 9766   3.016   0.882   1.282
  114GLOH   H08 9767   2.922   0.735   1.261
  114GLOH    C2 9768   2.871   0.846   1.437
  114GLOH   H04 9769   2.772   0.800   1.447
  114GLOH    O2 9770   2.968   0.774   1.515
  114GLOH   H05 9771   2.938   0.753   1.608
  114GLOH    C3 9772   2.864   0.993   1.483
  114GLOH   H06 9773   2.965   1.031   1.495
  114GLOH   H07 9774   2.816   0.995   1.581
  114GLOH    O3 9775   2.790   1.075   1.391
  114GLOH   H01 9776   2.799   1.029   1.303
  115GLOH   H03 9777   3.510   1.007   0.683
  115GLOH    O1 9778   3.605   1.006   0.652
  115GLOH    C1 9779   3.692   1.021   0.765
  115GLOH   H02 9780   3.653   0.968   0.852
  115GLOH   H08 9781   3.699   1.126   0.793
  115GLOH    C2 9782   3.834   0.970   0.735
  115GLOH   H04 9783   3.866   1.011   0.638
  115GLOH    O2 9784   3.928   1.013   0.836
  115GLOH   H05 9785   4.021   1.005   0.798
  115GLOH    C3 9786   3.836   0.816   0.723
  115GLOH   H06 9787   3.935   0.785   0.690
  115GLOH   H07 9788   3.765   0.787   0.645
  115GLOH    O3 9789   3.802   0.750   0.847
  115GLOH   H01 9790   3.833   0.808   0.920
  116GLOH   H03 9791   2.389   9.391   0.825
  116GLOH    O1 9792   2.397   9.490   0.825
  116GLOH    C1 9793   2.415   9.537   0.960
  116GLOH   H02 9794   2.472   9.464   1.018
  116GLOH   H08 9795   2.319   9.549   1.009
  116GLOH    C2 9796   2.490   9.671   0.961
  116GLOH   H04 9797   2.440   9.738   0.889
  116GLOH    O2 9798   2.487   9.732   1.092
  116GLOH   H05 9799   2.522   9.824   1.081
  116GLOH    C3 9800   2.635   9.650   0.916
  116GLOH   H06 9801   2.634   9.587   0.827
  116GLOH   H07 9802   2.686   9.593   0.994
  116GLOH    O3 9803   2.707   9.772   0.890
  116GLOH   H01 9804   2.672   9.843   0.950
  117GLOH   H03 9805   3.436   1.743   1.120
  117GLOH    O1 9806   3.477   1.653   1.125
  117GLOH    C1 9807   3.457   1.583   1.000
  117GLOH   H02 9808   3.552   1.544   0.963
  117GLOH   H08 9809   3.420   1.650   0.923
  117GLOH    C2 9810   3.360   1.464   1.013
  117GLOH   H04 9811   3.350   1.418   0.913
  117GLOH    O2 9812   3.408   1.364   1.105
  117GLOH   H05 9813   3.485   1.401   1.157
  117GLOH    C3 9814   3.220   1.514   1.054
  117GLOH   H06 9815   3.230   1.564   1.151
  117GLOH   H07 9816   3.155   1.428   1.069
  117GLOH    O3 9817   3.162   1.604   0.958
  117GLOH   H01 9818   3.065   1.583   0.954
  118GLOH   H03 9819   3.967   9.850   2.487
  118GLOH    O1 9820   3.918   9.901   2.420
  118GLOH    C1 9821   3.779   9.907   2.456
  118GLOH   H02 9822   3.767   9.899   2.565
  118GLOH   H08 9823   3.725   9.823   2.413
  118GLOH    C2 9824   3.712   0.038   2.410
  118GLOH   H04 9825   3.738   0.054   2.305
  118GLOH    O2 9826   3.568   0.029   2.420
  118GLOH   H05 9827   3.542   0.001   2.510
  118GLOH    C3 9828   3.767   0.158   2.491
  118GLOH   H06 9829   3.876   0.151   2.493
  118GLOH   H07 9830   3.734   0.149   2.594
  118GLOH    O3 9831   3.729   0.287   2.438
  118GLOH   H01 9832   3.782   0.301   2.356
  119GLOH   H03 9833   3.378   1.793   0.540
  119GLOH    O1 9834   3.418   1.725   0.601
  119GLOH    C1 9835   3.328   1.613   0.610
  119GLOH   H02 9836   3.239   1.640   0.667
  119GLOH   H08 9837   3.376   1.531   0.664
  119GLOH    C2 9838   3.282   1.560   0.472
  119GLOH   H04 9839   3.234   1.643   0.418
  119GLOH    O2 9840   3.394   1.512   0.393
  119GLOH   H05 9841   3.470   1.574   0.399
  119GLOH    C3 9842   3.178   1.449   0.488
  119GLOH   H06 9843   3.220   1.370   0.551
  119GLOH   H07 9844   3.159   1.405   0.390
  119GLOH    O3 9845   3.055   1.497   0.546
  119GLOH   H01 9846   2.995   1.527   0.472
  120GLOH   H03 9847   3.589   2.021   0.899
  120GLOH    O1 9848   3.666   2.039   0.959
  120GLOH    C1 9849   3.676   1.933   1.056
  120GLOH   H02 9850   3.618   1.846   1.025
  120GLOH   H08 9851   3.637   1.966   1.152
  120GLOH    C2 9852   3.822   1.888   1.076
  120GLOH   H04 9853   3.881   1.974   1.109
  120GLOH    O2 9854   3.828   1.784   1.177
  120GLOH   H05 9855   3.812   1.829   1.265
  120GLOH    C3 9856   3.879   1.839   0.941
  120GLOH   H06 9857   3.867   1.920   0.869
  120GLOH   H07 9858   3.818   1.757   0.906
  120GLOH    O3 9859   4.017   1.800   0.947
  120GLOH   H01 9860   4.052   1.810   1.040
  121ACOH    H4 9861   3.227   9.578   2.405
  121ACOH    O2 9862   3.214   9.594   2.308
  121ACOH    C2 9863   3.108   9.519   2.271
  121ACOH    O1 9864   3.056   9.430   2.335
  121ACOH    C1 9865   3.070   9.545   2.130
  121ACOH    H1 9866   2.965   9.574   2.126
  121ACOH    H2 9867   3.083   9.455   2.071
  121ACOH    H3 9868   3.130   9.625   2.087
  122ACOH    H4 9869   4.280   1.648   0.824
  122ACOH    O2 9870   4.364   1.617   0.869
  122ACOH    C2 9871   4.455   1.599   0.773
  122ACOH    O1 9872   4.445   1.629   0.655
  122ACOH    C1 9873   4.580   1.541   0.827
  122ACOH    H1 9874   4.600   1.446   0.778
  122ACOH    H2 9875   4.571   1.524   0.934
  122ACOH    H3 9876   4.663   1.609   0.808
  123ACOH    H4 9877   3.722   2.166   1.011
  123ACOH    O2 9878   3.760   2.249   1.051
  123ACOH    C2 9879   3.673   2.348   1.023
  123ACOH    O1 9880   3.567   2.338   0.963
  123ACOH    C1 9881   3.722   2.477   1.078
  123ACOH    H1 9882   3.736   2.467   1.185
  123ACOH    H2 9883   3.650   2.556   1.059
  123ACOH    H3 9884   3.817   2.502   1.031
  124ACOH    H4 9885   2.363   0.820   1.966
  124ACOH    O2 9886   2.336   0.724   1.966
  124ACOH    C2 9887   2.278   0.701   1.847
  124ACOH    O1 9888   2.287   0.771   1.748
  124ACOH    C1 9889   2.220   0.565   1.840
  124ACOH    H1 9890   2.123   0.569   1.790
  124ACOH    H2 9891   2.206   0.524   1.940
  124ACOH    H3 9892   2.286   0.500   1.784
  125ACOH    H4 9893   3.217   8.648   0.558
  125ACOH    O2 9894   3.298   8.612   0.605
  125ACOH    C2 9895   3.394   8.594   0.512
  125ACOH    O1 9896   3.387   8.620   0.393
  125ACOH    C1 9897   3.519   8.543   0.572
  125ACOH    H1 9898   3.596   8.619   0.565
  125ACOH    H2 9899   3.552   8.454   0.519
  125ACOH    H3 9900   3.504   8.518   0.677
  126ACOH    H4 9901   4.127   0.076   0.888
  126ACOH    O2 9902   4.201   0.033   0.938
  126ACOH    C2 9903   4.291   9.991   0.846
  126ACOH    O1 9904   4.279   9.996   0.725
  126ACOH    C1 9905   4.406   9.926   0.914
  126ACOH    H1 9906   4.465   0.001   0.965
  126ACOH    H2 9907   4.468   9.874   0.841
  126ACOH    H3 9908   4.369   9.854   0.987
  127ACOH    H4 9909   2.381   9.853   0.693
  127ACOH    O2 9910   2.282   9.869   0.692
  127ACOH    C2 9911   2.254   9.943   0.800
  127ACOH    O1 9912   2.331   9.979   0.887
  127ACOH    C1 9913   2.108   9.967   0.812
  127ACOH    H1 9914   2.069   9.914   0.899
  127ACOH    H2 9915   2.057   9.932   0.723
  127ACOH    H3 9916   2.090   0.073   0.823
  128ACOH    H4 9917   3.850   8.634   1.040
  128ACOH    O2 9918   3.854   8.546   0.993
  128ACOH    C2 9919   3.802   8.563   0.871
  128ACOH    O1 9920   3.771   8.668   0.817
  128ACOH    C1 9921   3.791   8.432   0.803
  128ACOH    H1 9922   3.888   8.384   0.801
  128ACOH    H2 9923   3.756   8.443   0.701
  128ACOH    H3 9924   3.721   8.369   0.858
  129ACOH    H4 9925   4.395   1.824   1.990
  129ACOH    O2 9926   4.488   1.860   1.993
  129ACOH    C2 9927   4.479   1.991   2.023
  129ACOH    O1 9928   4.378   2.052   2.055
  129ACOH    C1 9929   4.612   2.055   2.019
  129ACOH    H1 9930   4.679   2.004   2.088
  129ACOH    H2 9931   4.606   2.160   2.047
  129ACOH    H3 9932   4.653   2.047   1.919
  130ACOH    H4 9933   3.743   2.084   1.797
  130ACOH    O2 9934   3.664   2.145   1.783
  130ACOH    C2 9935   3.649   2.159   1.650
  130ACOH    O1 9936   3.715   2.107   1.562
  130ACOH    C1 9937   3.540   2.255   1.619
  130ACOH    H1 9938   3.486   2.282   1.709
  130ACOH    H2 9939   3.471   2.212   1.548
  130ACOH    H3 9940   3.583   2.345   1.575
  131ACOH    H4 9941   4.572   0.976   1.727
  131ACOH    O2 9942   4.647   0.921   1.763
  131ACOH    C2 9943   4.644   0.930   1.897
  131ACOH    O1 9944   4.565   0.993   1.966
  131ACOH    C1 9945   4.758   0.856   1.957
  131ACOH    H1 9946   4.810   0.798   1.881
  131ACOH    H2 9947   4.722   0.789   2.034
  131ACOH    H3 9948   4.828   0.927   2.000
  132ACOH    H4 9949   2.468   1.180   1.224
  132ACOH    O2 9950   2.409   1.164   1.144
  132ACOH    C2 9951   2.448   1.255   1.052
  132ACOH    O1 9952   2.556   1.311   1.047
  132ACOH    C1 9953   2.349   1.267   0.942
  132ACOH    H1 9954   2.254   1.301   0.982
  132ACOH    H2 9955   2.335   1.170   0.894
  132ACOH    H3 9956   2.383   1.338   0.867
  133ACOH    H4 9957   4.837   0.502   0.861
  133ACOH    O2 9958   4.931   0.535   0.860
  133ACOH    C2 9959   4.933   0.656   0.916
  133ACOH    O1 9960   4.838   0.720   0.956
  133ACOH    C1 9961   5.072   0.709   0.924
  133ACOH    H1 9962   5.077   0.806   0.875
  133ACOH    H2 9963   5.141   0.641   0.875
  133ACOH    H3 9964   5.101   0.720   1.028
  134ACOH    H4 9965   4.174   1.962   1.387
  134ACOH    O2 9966   4.129   2.027   1.325
  134ACOH    C2 9967   4.112   2.141   1.394
  134ACOH    O1 9968   4.148   2.163   1.508
  134ACOH    C1 9969   4.042   2.241   1.310
  134ACOH    H1 9970   4.098   2.259   1.219
  134ACOH    H2 9971   4.032   2.335   1.364
  134ACOH    H3 9972   3.943   2.204   1.284
  135ACOH    H4 9973   4.045   0.149   2.875
  135ACOH    O2 9974   4.099   0.178   2.796
  135ACOH    C2 9975   4.175   0.281   2.835
  135ACOH    O1 9976   4.171   0.339   0.064
  135ACOH    C1 9977   4.270   0.322   2.728
  135ACOH    H1 9978   4.370   0.289   2.754
  135ACOH    H2 9979   4.270   0.430   2.718
  135ACOH    H3 9980   4.241   0.278   2.633
  136SOL     OW 9981   4.379   0.663   1.794
  136SOL    HW1 9982   4.396   0.585   1.854
  136SOL    HW2 9983   4.292   0.707   1.819
  137SOL     OW 9984   3.355   9.383   0.222
  137SOL    HW1 9985   3.340   9.443   0.301
  137SOL    HW2 9986   3.298   9.302   0.231
  138SOL     OW 9987   2.657   1.644   0.448
  138SOL    HW1 9988   2.584   1.606   0.504
  138SOL    HW2 9989   2.690   1.730   0.489
  139SOL     OW 9990   2.821   1.538   1.339
  139SOL    HW1 9991   2.881   1.457   1.340
  139SOL    HW2 9992   2.877   1.621   1.338
  140SOL     OW 9993   3.320   1.885   0.421
  140SOL    HW1 9994   3.262   1.955   0.379
  140SOL    HW2 9995   3.374   1.839   0.350
  141SOL     OW 9996   2.330   0.128   1.130
  141SOL    HW1 9997   2.324   0.070   1.211
  141SOL    HW2 9998   2.312   0.073   1.048
  142SOL     OW 9999   3.698   0.925   1.488
  142SOL    HW110000   3.643   0.919   1.571
  142SOL    HW210001   3.795   0.914   1.511
  143SOL     OW10002   2.557   1.204   1.353
  143SOL    HW110003   2.558   1.293   1.399
  143SOL    HW210004   2.641   1.154   1.374
  144SOL     OW10005   3.018   9.539   1.772
  144SOL    HW110006   3.114   9.569   1.779
  144SOL    HW210007   2.959   9.610   1.811
  145SOL     OW10008   3.402   8.772   0.814
  145SOL    HW110009   3.351   8.692   0.782
  145SOL    HW210010   3.447   8.751   0.900
  146SOL     OW10011   4.087   1.983   1.728
  146SOL    HW110012   4.152   1.907   1.729
  146SOL    HW210013   4.118   2.054   1.665
  147SOL     OW10014   4.570   0.824   1.009
  147SOL    HW110015   4.663   0.793   0.988
  147SOL    HW210016   4.564   0.922   0.991
  148SOL     OW10017   4.141   0.767   1.892
  148SOL    HW110018   4.197   0.806   1.965
  148SOL    HW210019   4.105   0.841   1.835
  149SOL     OW10020   2.253   8.863   1.066
  149SOL    HW110021   2.195   8.862   0.985
  149SOL    HW210022   2.206   8.820   1.142
  150SOL     OW10023   2.477   1.534   0.636
  150SOL    HW110024   2.531   1.548   0.719
  150SOL    HW210025   2.386   1.575   0.648
  151SOL     OW10026   2.765   0.476   0.736
  151SOL    HW110027   2.855   0.459   0.697
  151SOL    HW210028   2.733   0.394   0.784
  152SOL     OW10029   3.262   0.331   0.982
  152SOL    HW110030   3.307   0.420   0.977
  152SOL    HW210031   3.292   0.282   1.063
  153SOL     OW10032   3.608   1.471   1.254
  153SOL    HW110033   3.704   1.476   1.229
  153SOL    HW210034   3.559   1.550   1.216
  154SOL     OW10035   2.620   0.974   0.142
  154SOL    HW110036   2.602   1.069   0.165
  154SOL    HW210037   2.604   0.916   0.222
  155SOL     OW10038   2.538   9.324   0.394
  155SOL    HW110039   2.615   9.290   0.339
  155SOL    HW210040   2.457   9.330   0.336
  156SOL     OW10041   3.418   9.264   1.227
  156SOL    HW110042   3.473   9.240   1.147
  156SOL    HW210043   3.366   9.347   1.209
  157SOL     OW10044   2.837   8.704   0.381
  157SOL    HW110045   2.763   8.751   0.429
  157SOL    HW210046   2.801   8.622   0.335
  158SOL     OW10047   3.023   0.450   0.646
  158SOL    HW110048   3.078   0.449   0.562
  158SOL    HW210049   3.038   0.366   0.697
  159SOL     OW10050   4.004   9.843   0.274
  159SOL    HW110051   4.037   9.750   0.256
  159SOL    HW210052   4.056   9.883   0.349
  160SOL     OW10053   2.518   8.823   0.989
  160SOL    HW110054   2.577   8.885   1.040
  160SOL    HW210055   2.424   8.831   1.022
  161SOL     OW10056   3.354   0.993   0.732
  161SOL    HW110057   3.273   1.050   0.720
  161SOL    HW210058   3.325   0.897   0.741
  162SOL     OW10059   2.700   1.541   1.096
  162SOL    HW110060   2.649   1.455   1.090
  162SOL    HW210061   2.733   1.553   1.190
  163SOL     OW10062   3.760   0.886   1.807
  163SOL    HW110063   3.795   0.797   1.834
  163SOL    HW210064   3.665   0.878   1.778
  164SOL     OW10065   3.346   1.126   0.382
  164SOL    HW110066   3.267   1.160   0.333
  164SOL    HW210067   3.351   1.027   0.374
  165SOL     OW10068   3.896   0.645   1.853
  165SOL    HW110069   3.987   0.676   1.880
  165SOL    HW210070   3.895   0.623   1.756
  166SOL     OW10071   3.142   9.838   0.975
  166SOL    HW110072   3.083   9.877   0.903
  166SOL    HW210073   3.228   9.889   0.978
  167SOL     OW10074   2.706   8.504   0.247
  167SOL    HW110075   2.681   8.524   0.152
  167SOL    HW210076   2.657   8.423   0.278
  168SOL     OW10077   2.765   9.239   0.276
  168SOL    HW110078   2.843   9.288   0.315
  168SOL    HW210079   2.796   9.153   0.236
  169SOL     OW10080   3.038   0.886   0.368
  169SOL    HW110081   3.017   0.980   0.395
  169SOL    HW210082   3.136   0.876   0.352
  170SOL     OW10083   2.393   1.064   0.639
  170SOL    HW110084   2.331   0.993   0.607
  170SOL    HW210085   2.467   1.022   0.692
  171SOL     OW10086   3.841   1.405   0.503
  171SOL    HW110087   3.911   1.373   0.439
  171SOL    HW210088   3.841   1.505   0.506
  172SOL     OW10089   2.608   9.965   1.045
  172SOL    HW110090   2.540   0.019   0.995
  172SOL    HW210091   2.616   9.999   1.139
  173SOL     OW10092   3.224   9.131   0.238
  173SOL    HW110093   3.207   9.083   0.153
  173SOL    HW210094   3.306   9.094   0.282
  174SOL     OW10095   3.733   1.151   0.461
  174SOL    HW110096   3.764   1.240   0.495
  174SOL    HW210097   3.677   1.106   0.530
  175SOL     OW10098   2.620   0.473   1.270
  175SOL    HW110099   2.551   0.431   1.211
  175SOL    HW210100   2.619   0.572   1.258
  176SOL     OW10101   2.417   9.595   0.586
  176SOL    HW110102   2.401   9.552   0.675
  176SOL    HW210103   2.408   9.527   0.514
  177SOL     OW10104   3.662   0.622   1.993
  177SOL    HW110105   3.748   0.617   1.944
  177SOL    HW210106   3.648   0.537   2.044
  178SOL     OW10107   2.386   9.110   1.054
  178SOL    HW110108   2.335   9.026   1.071
  178SOL    HW210109   2.457   9.120   1.124
  179SOL     OW10110   4.169   0.522   0.679
  179SOL    HW110111   4.262   0.506   0.647
  179SOL    HW210112   4.171   0.568   0.767
  180SOL     OW10113   2.398   9.238   0.815
  180SOL    HW110114   2.471   9.201   0.758
  180SOL    HW210115   2.393   9.187   0.901
  181SOL     OW10116   4.146   0.347   0.988
  181SOL    HW110117   4.218   0.301   1.041
  181SOL    HW210118   4.085   0.279   0.948
  182SOL     OW10119   3.197   9.078   1.059
  182SOL    HW110120   3.198   9.048   1.154
  182SOL    HW210121   3.270   9.033   1.008
  183SOL     OW10122   2.737   0.753   0.701
  183SOL    HW110123   2.750   0.660   0.736
  183SOL    HW210124   2.778   0.761   0.610
  184SOL     OW10125   4.173   9.716   2.044
  184SOL    HW110126   4.116   9.775   2.102
  184SOL    HW210127   4.225   9.773   1.980
  185SOL     OW10128   2.976   9.689   1.525
  185SOL    HW110129   3.000   9.645   1.612
  185SOL    HW210130   3.034   9.769   1.511
  186SOL     OW10131   4.105   9.995   0.491
  186SOL    HW110132   4.085   0.090   0.468
  186SOL    HW210133   4.182   9.992   0.556
  187SOL     OW10134   2.786   0.350   1.081
  187SOL    HW110135   2.870   0.401   1.063
  187SOL    HW210136   2.735   0.394   1.155
  188SOL     OW10137   2.810   9.212   1.382
  188SOL    HW110138   2.887   9.163   1.423
  188SOL    HW210139   2.822   9.311   1.396
  189SOL     OW10140   3.169   0.708   1.124
  189SOL    HW110141   3.172   0.701   1.223
  189SOL    HW210142   3.128   0.796   1.098
  190SOL     OW10143   2.709   1.112   0.558
  190SOL    HW110144   2.678   1.065   0.641
  190SOL    HW210145   2.642   1.182   0.533
  191SOL     OW10146   3.943   0.374   0.686
  191SOL    HW110147   4.022   0.435   0.684
  191SOL    HW210148   3.866   0.421   0.729
  192SOL     OW10149   3.689   2.113   2.074
  192SOL    HW110150   3.784   2.126   2.101
  192SOL    HW210151   3.676   2.143   1.979
  193SOL     OW10152   2.396   0.144   1.551
  193SOL    HW110153   2.363   0.078   1.482
  193SOL    HW210154   2.469   0.199   1.511
  194SOL     OW10155   2.557   1.234   0.238
  194SOL    HW110156   2.528   1.253   0.332
  194SOL    HW210157   2.635   1.291   0.214
  195SOL     OW10158   2.308   9.649   0.249
  195SOL    HW110159   2.405   9.637   0.272
  195SOL    HW210160   2.263   9.704   0.319
  196SOL     OW10161   2.626   0.037   1.308
  196SOL    HW110162   2.621   0.129   1.347
  196SOL    HW210163   2.687   9.981   1.364
  197SOL     OW10164   2.937   0.041   0.188
  197SOL    HW110165   3.033   0.038   0.217
  197SOL    HW210166   2.889   0.112   0.239
  198SOL     OW10167   3.012   0.663   0.833
  198SOL    HW110168   3.005   0.611   0.748
  198SOL    HW210169   3.004   0.602   0.911
  199SOL     OW10170   3.827   9.227   0.025
  199SOL    HW110171   3.761   9.203   0.096
  199SOL    HW210172   3.855   9.144   2.855
  200SOL     OW10173   3.547   8.731   1.042
  200SOL    HW110174   3.544   8.736   1.142
  200SOL    HW210175   3.640   8.751   1.011
  201SOL     OW10176   2.513   0.910   1.654
  201SOL    HW110177   2.425   0.865   1.668
  201SOL    HW210178   2.510   0.964   1.570
  202SOL     OW10179   3.265   9.691   0.380
  202SOL    HW110180   3.321   9.765   0.343
  202SOL    HW210181   3.246   9.708   0.477
  203SOL     OW10182   3.762   8.987   1.608
  203SOL    HW110183   3.842   8.932   1.633
  203SOL    HW210184   3.778   9.030   1.519
  204SOL     OW10185   3.367   0.582   0.982
  204SOL    HW110186   3.461   0.610   1.001
  204SOL    HW210187   3.305   0.635   1.040
  205SOL     OW10188   2.851   9.736   1.853
  205SOL    HW110189   2.756   9.707   1.849
  205SOL    HW210190   2.855   9.834   1.875
  206SOL     OW10191   3.197   1.072   1.622
  206SOL    HW110192   3.230   1.035   1.708
  206SOL    HW210193   3.146   1.157   1.639
  207SOL     OW10194   3.582   9.202   1.012
  207SOL    HW110195   3.616   9.127   1.069
  207SOL    HW210196   3.659   9.260   0.984
  208SOL     OW10197   3.029   0.483   1.043
  208SOL    HW110198   3.078   0.559   1.086
  208SOL    HW210199   3.095   0.414   1.014
  209SOL     OW10200   4.319   0.286   0.446
  209SOL    HW110201   4.349   0.237   0.364
  209SOL    HW210202   4.220   0.279   0.456
  210SOL     OW10203   3.634   0.256   0.437
  210SOL    HW110204   3.662   0.198   0.361
  210SOL    HW210205   3.669   0.349   0.423
  211SOL     OW10206   2.809   0.234   0.336
  211SOL    HW110207   2.762   0.192   0.414
  211SOL    HW210208   2.766   0.321   0.314
  212SOL     OW10209   2.451   0.475   2.052
  212SOL    HW110210   2.412   0.566   2.040
  212SOL    HW210211   2.506   0.451   1.972
  213SOL     OW10212   3.076   0.221   0.780
  213SOL    HW110213   3.131   0.230   0.863
  213SOL    HW210214   3.060   0.124   0.761
  214SOL     OW10215   3.438   9.018   0.354
  214SOL    HW110216   3.445   8.937   0.296
  214SOL    HW210217   3.444   8.990   0.450
  215SOL     OW10218   3.807   8.500   1.751
  215SOL    HW110219   3.813   8.573   1.819
  215SOL    HW210220   3.793   8.413   1.798
  216SOL     OW10221   3.654   1.652   0.708
  216SOL    HW110222   3.568   1.683   0.667
  216SOL    HW210223   3.728   1.664   0.642
  217SOL     OW10224   4.183   0.615   0.934
  217SOL    HW110225   4.125   0.671   0.993
  217SOL    HW210226   4.173   0.519   0.959
  218SOL     OW10227   4.399   0.719   0.552
  218SOL    HW110228   4.386   0.764   0.640
  218SOL    HW210229   4.428   0.624   0.566
  219SOL     OW10230   3.357   0.007   0.970
  219SOL    HW110231   3.373   0.051   0.882
  219SOL    HW210232   3.400   0.061   1.042
  220SOL     OW10233   2.596   1.450   1.470
  220SOL    HW110234   2.565   1.515   1.539
  220SOL    HW210235   2.676   1.487   1.424
  221SOL     OW10236   2.615   0.740   1.205
  221SOL    HW110237   2.536   0.791   1.171
  221SOL    HW210238   2.695   0.799   1.207
  222SOL     OW10239   2.015   0.020   0.424
  222SOL    HW110240   1.922   0.028   0.459
  222SOL    HW210241   2.053   0.111   0.408
  223SOL     OW10242   3.414   9.940   1.307
  223SOL    HW110243   3.403   0.032   1.269
  223SOL    HW210244   3.340   9.881   1.275
  224SOL     OW10245   2.332   1.133   0.102
  224SOL    HW110246   2.328   1.185   0.017
  224SOL    HW210247   2.409   1.164   0.158
  225SOL     OW10248   3.252   9.058   1.335
  225SOL    HW110249   3.312   8.996   1.384
  225SOL    HW210250   3.305   9.136   1.301
  226SOL     OW10251   3.307   0.853   0.333
  226SOL    HW110252   3.318   0.809   0.244
  226SOL    HW210253   3.334   0.789   0.405
  227SOL     OW10254   3.465   8.946   1.480
  227SOL    HW110255   3.495   9.041   1.470
  227SOL    HW210256   3.461   8.923   1.578
  228SOL     OW10257   2.106   0.277   0.372
  228SOL    HW110258   2.186   0.329   0.343
  228SOL    HW210259   2.038   0.277   0.298
  229SOL     OW10260   3.111   8.972   0.641
  229SOL    HW110261   3.073   9.020   0.562
  229SOL    HW210262   3.211   8.969   0.634
  230SOL     OW10263   3.320   0.716   0.094
  230SOL    HW110264   3.404   0.684   0.050
  230SOL    HW210265   3.248   0.649   0.081
  231SOL     OW10266   3.534   8.989   1.758
  231SOL    HW110267   3.566   8.944   1.841
  231SOL    HW210268   3.611   9.002   1.694
  232SOL     OW10269   2.715   9.444   1.973
  232SOL    HW110270   2.791   9.418   1.913
  232SOL    HW210271   2.661   9.516   1.929
  233SOL     OW10272   2.971   1.302   1.346
  233SOL    HW110273   2.906   1.246   1.397
  233SOL    HW210274   3.007   1.250   1.268
  234SOL     OW10275   4.165   2.243   2.044
  234SOL    HW110276   4.239   2.175   2.048
  234SOL    HW210277   4.194   2.320   1.986
  235SOL     OW10278   2.606   9.113   1.219
  235SOL    HW110279   2.666   9.146   1.292
  235SOL    HW210280   2.658   9.108   1.133
  236SOL     OW10281   3.612   1.314   0.268
  236SOL    HW110282   3.525   1.272   0.243
  236SOL    HW210283   3.661   1.254   0.331
  237SOL     OW10284   2.422   0.155   0.393
  237SOL    HW110285   2.400   0.243   0.351
  237SOL    HW210286   2.389   0.081   0.335
  238SOL     OW10287   3.755   1.161   1.764
  238SOL    HW110288   3.661   1.189   1.744
  238SOL    HW210289   3.757   1.064   1.786
  239SOL     OW10290   3.024   9.103   0.416
  239SOL    HW110291   3.100   9.106   0.351
  239SOL    HW210292   2.988   9.195   0.429
  240SOL     OW10293   2.830   0.006   1.924
  240SOL    HW110294   2.916   0.056   1.933
  240SOL    HW210295   2.788   9.996   2.014
  241SOL     OW10296   2.972   1.132   0.481
  241SOL    HW110297   3.022   1.127   0.567
  241SOL    HW210298   2.873   1.129   0.500
  242SOL     OW10299   3.443   9.897   0.330
  242SOL    HW110300   3.472   9.942   0.415
  242SOL    HW210301   3.519   9.842   0.294
  243SOL     OW10302   3.231   9.740   0.650
  243SOL    HW110303   3.313   9.711   0.700
  243SOL    HW210304   3.163   9.668   0.655
  244SOL     OW10305   3.127   2.190   1.804
  244SOL    HW110306   3.109   2.126   1.880
  244SOL    HW210307   3.137   2.282   1.841
  245SOL     OW10308   2.221   0.881   0.079
  245SOL    HW110309   2.270   0.968   0.089
  245SOL    HW210310   2.136   0.885   0.132
  246SOL     OW10311   2.778   9.900   1.483
  246SOL    HW110312   2.845   9.827   1.498
  246SOL    HW210313   2.733   9.923   1.569
  247SOL     OW10314   3.322   2.234   0.845
  247SOL    HW110315   3.400   2.292   0.871
  247SOL    HW210316   3.273   2.206   0.928
  248SOL     OW10317   3.111   1.558   1.900
  248SOL    HW110318   3.037   1.543   1.834
  248SOL    HW210319   3.084   1.522   1.989
  249SOL     OW10320   2.414   0.073   1.812
  249SOL    HW110321   2.396   0.097   1.717
  249SOL    HW210322   2.401   0.154   1.870
  250SOL     OW10323   3.049   9.942   0.731
  250SOL    HW110324   3.123   9.889   0.690
  250SOL    HW210325   2.961   9.907   0.700
  251SOL     OW10326   3.670   9.018   1.184
  251SOL    HW110327   3.732   9.052   1.254
  251SOL    HW210328   3.644   8.924   1.205
  252SOL     OW10329   4.023   0.741   1.113
  252SOL    HW110330   4.054   0.700   1.199
  252SOL    HW210331   3.937   0.789   1.129
  253SOL     OW10332   3.198   9.787   1.243
  253SOL    HW110333   3.216   9.689   1.244
  253SOL    HW210334   3.162   9.814   1.154
  254SOL     OW10335   2.599   0.864   0.408
  254SOL    HW110336   2.689   0.821   0.419
  254SOL    HW210337   2.602   0.956   0.448
  255SOL     OW10338   3.409   0.217   0.775
  255SOL    HW110339   3.349   0.261   0.842
  255SOL    HW210340   3.404   0.266   0.688
  256SOL     OW10341   2.802   1.718   1.619
  256SOL    HW110342   2.703   1.705   1.628
  256SOL    HW210343   2.821   1.801   1.567
  257SOL     OW10344   4.046   0.964   1.470
  257SOL    HW110345   4.143   0.953   1.449
  257SOL    HW210346   4.004   1.025   1.403
  258SOL     OW10347   3.473   1.303   0.560
  258SOL    HW110348   3.437   1.219   0.519
  258SOL    HW210349   3.465   1.378   0.494
  259SOL     OW10350   4.049   9.564   0.225
  259SOL    HW110351   4.059   9.486   0.287
  259SOL    HW210352   4.023   9.531   0.134
  260SOL     OW10353   3.160   2.095   0.328
  260SOL    HW110354   3.160   2.171   0.264
  260SOL    HW210355   3.170   2.130   0.421
  261SOL     OW10356   3.440   8.958   0.627
  261SOL    HW110357   3.423   8.880   0.687
  261SOL    HW210358   3.445   9.042   0.682
  262SOL     OW10359   2.238   0.193   0.606
  262SOL    HW110360   2.315   0.161   0.551
  262SOL    HW210361   2.169   0.234   0.547
  263SOL     OW10362   3.326   0.192   1.216
  263SOL    HW110363   3.236   0.148   1.210
  263SOL    HW210364   3.331   0.243   1.302
  264SOL     OW10365   2.744   9.112   0.987
  264SOL    HW110366   2.826   9.071   0.947
  264SOL    HW210367   2.752   9.211   0.983
  265SOL     OW10368   2.984   9.038   0.881
  265SOL    HW110369   3.057   9.048   0.949
  265SOL    HW210370   3.023   9.006   0.795
  266SOL     OW10371   2.886   1.928   1.453
  266SOL    HW110372   2.931   1.861   1.394
  266SOL    HW210373   2.955   1.985   1.498
  267SOL     OW10374   2.368   9.954   1.344
  267SOL    HW110375   2.466   9.972   1.332
  267SOL    HW210376   2.355   9.857   1.364
  268SOL     OW10377   4.309   0.882   2.069
  268SOL    HW110378   4.282   0.933   2.150
  268SOL    HW210379   4.398   0.914   2.037
  269SOL     OW10380   2.534   1.653   1.654
  269SOL    HW110381   2.530   1.624   1.750
  269SOL    HW210382   2.452   1.706   1.633
  270SOL     OW10383   3.274   0.726   0.765
  270SOL    HW110384   3.176   0.714   0.778
  270SOL    HW210385   3.324   0.674   0.834
  271SOL     OW10386   2.518   1.578   1.913
  271SOL    HW110387   2.511   1.480   1.931
  271SOL    HW210388   2.545   1.626   1.997
  272SOL     OW10389   2.416   9.834   1.950
  272SOL    HW110390   2.331   9.823   2.001
  272SOL    HW210391   2.414   9.920   1.899
  273SOL     OW10392   3.847   0.938   0.329
  273SOL    HW110393   3.884   0.972   0.242
  273SOL    HW210394   3.803   1.012   0.378
  274SOL     OW10395   3.623   0.578   1.575
  274SOL    HW110396   3.551   0.637   1.538
  274SOL    HW210397   3.594   0.483   1.570
  275SOL     OW10398   3.648   1.384   0.762
  275SOL    HW110399   3.588   1.340   0.696
  275SOL    HW210400   3.651   1.482   0.744
  276SOL     OW10401   2.490   0.587   0.434
  276SOL    HW110402   2.503   0.686   0.424
  276SOL    HW210403   2.486   0.564   0.532
  277SOL     OW10404   2.864   8.947   0.250
  277SOL    HW110405   2.923   9.000   0.312
  277SOL    HW210406   2.859   8.853   0.282
  278SOL     OW10407   3.955   0.078   0.115
  278SOL    HW110408   3.990   9.995   0.158
  278SOL    HW210409   3.862   0.097   0.149
  279SOL     OW10410   3.694   0.069   0.238
  279SOL    HW110411   3.601   0.087   0.207
  279SOL    HW210412   3.701   9.975   0.271
  280SOL     OW10413   2.588   9.652   1.843
  280SOL    HW110414   2.558   9.636   1.749
  280SOL    HW210415   2.526   9.716   1.888
  281SOL     OW10416   2.201   9.822   0.427
  281SOL    HW110417   2.128   9.891   0.425
  281SOL    HW210418   2.235   9.813   0.520
  282SOL     OW10419   3.669   9.116   0.218
  282SOL    HW110420   3.574   9.108   0.248
  282SOL    HW210421   3.730   9.079   0.288
  283SOL     OW10422   3.655   1.583   0.300
  283SOL    HW110423   3.644   1.484   0.288
  283SOL    HW210424   3.749   1.609   0.279
  284SOL     OW10425   3.289   0.957   1.856
  284SOL    HW110426   3.281   1.020   1.933
  284SOL    HW210427   3.253   0.867   1.882
  285SOL     OW10428   4.044   0.264   0.456
  285SOL    HW110429   4.022   0.327   0.381
  285SOL    HW210430   4.000   0.297   0.540
  286SOL     OW10431   2.876   0.089   1.059
  286SOL    HW110432   2.843   0.184   1.060
  286SOL    HW210433   2.801   0.028   1.033
  287SOL     OW10434   2.345   0.398   0.281
  287SOL    HW110435   2.360   0.415   0.183
  287SOL    HW210436   2.386   0.473   0.334
  288SOL     OW10437   2.828   2.037   1.203
  288SOL    HW110438   2.768   2.116   1.204
  288SOL    HW210439   2.836   2.000   1.296
  289SOL     OW10440   3.773   0.876   1.096
  289SOL    HW110441   3.697   0.887   1.159
  289SOL    HW210442   3.814   0.965   1.076
  290SOL     OW10443   3.082   8.722   0.514
  290SOL    HW110444   3.073   8.806   0.568
  290SOL    HW210445   2.998   8.706   0.462
  291SOL     OW10446   3.001   1.754   1.279
  291SOL    HW110447   3.064   1.681   1.303
  291SOL    HW210448   3.032   1.799   1.195
  292SOL     OW10449   2.563   9.600   0.319
  292SOL    HW110450   2.636   9.626   0.256
  292SOL    HW210451   2.578   9.505   0.349
  293SOL     OW10452   3.458   1.999   0.806
  293SOL    HW110453   3.399   1.920   0.820
  293SOL    HW210454   3.406   2.083   0.823
  294SOL     OW10455   2.321   9.371   0.238
  294SOL    HW110456   2.266   9.327   0.167
  294SOL    HW210457   2.305   9.470   0.236
  295SOL     OW10458   2.229   9.864   0.093
  295SOL    HW110459   2.258   9.776   0.130
  295SOL    HW210460   2.164   9.907   0.155
  296SOL     OW10461   3.718   8.885   0.614
  296SOL    HW110462   3.621   8.908   0.621
  296SOL    HW210463   3.740   8.818   0.685
  297SOL     OW10464   1.934   0.250   0.162
  297SOL    HW110465   1.834   0.251   0.150
  297SOL    HW210466   1.977   0.235   0.073
  298SOL     OW10467   3.094   2.070   1.557
  298SOL    HW110468   3.184   2.065   1.513
  298SOL    HW210469   3.102   2.119   1.643
  299SOL     OW10470   4.190   0.931   0.181
  299SOL    HW110471   4.219   0.849   0.230
  299SOL    HW210472   4.213   0.921   0.084
  300SOL     OW10473   3.689   0.081   1.083
  300SOL    HW110474   3.721   9.990   1.107
  300SOL    HW210475   3.671   0.085   0.984
  301SOL     OW10476   2.661   9.976   1.714
  301SOL    HW110477   2.725   9.988   1.790
  301SOL    HW210478   2.568   9.995   1.745
  302SOL     OW10479   3.686   8.923   1.983
  302SOL    HW110480   3.735   9.006   1.955
  302SOL    HW210481   3.652   8.936   2.076
  303SOL     OW10482   4.360   0.476   1.270
  303SOL    HW110483   4.430   0.545   1.253
  303SOL    HW210484   4.271   0.520   1.279
  304SOL     OW10485   3.914   9.827   1.063
  304SOL    HW110486   3.953   9.891   0.997
  304SOL    HW210487   3.975   9.820   1.142
  305SOL     OW10488   3.999   0.146   0.823
  305SOL    HW110489   3.978   0.232   0.777
  305SOL    HW210490   3.952   0.070   0.777
  306SOL     OW10491   3.440   8.805   0.186
  306SOL    HW110492   3.476   8.761   0.104
  306SOL    HW210493   3.413   8.735   0.252
  307SOL     OW10494   3.997   8.835   1.657
  307SOL    HW110495   4.076   8.868   1.605
  307SOL    HW210496   3.954   8.759   1.609
  308SOL     OW10497   4.349   0.806   0.815
  308SOL    HW110498   4.288   0.739   0.859
  308SOL    HW210499   4.428   0.822   0.875
  309SOL     OW10500   4.015   0.953   1.737
  309SOL    HW110501   4.029   0.953   1.638
  309SOL    HW210502   3.920   0.932   1.757
  310SOL     OW10503   3.512   0.882   1.701
  310SOL    HW110504   3.438   0.921   1.755
  310SOL    HW210505   3.474   0.822   1.630
  311SOL     OW10506   3.635   0.400   0.141
  311SOL    HW110507   3.722   0.386   0.094
  311SOL    HW210508   3.650   0.449   0.227
  312SOL     OW10509   3.225   2.148   0.593
  312SOL    HW110510   3.234   2.201   0.678
  312SOL    HW210511   3.315   2.118   0.562
  313SOL     OW10512   3.274   9.515   1.241
  313SOL    HW110513   3.292   9.498   1.338
  313SOL    HW210514   3.202   9.454   1.209
  314SOL     OW10515   3.844   9.145   1.904
  314SOL    HW110516   3.903   9.065   1.896
  314SOL    HW210517   3.900   9.228   1.904
  315SOL     OW10518   4.498   1.256   2.086
  315SOL    HW110519   4.514   1.175   2.030
  315SOL    HW210520   4.537   1.242   2.177
  316SOL     OW10521   2.499   1.283   0.507
  316SOL    HW110522   2.486   1.373   0.550
  316SOL    HW210523   2.443   1.215   0.554
  10.00000  10.00000   2.87800
